Membrane in water
40347
    1TMC1    C1    1   1.897   3.159  11.447 -0.9754  0.4086 -0.0927
    1TMC1    C2    2   1.921   3.170  11.314  0.3612 -0.5098  0.1176
    1TMC1    C3    3   2.003   3.270  11.278 -0.3074 -0.4558 -0.5905
    1TMC1    C4    4   1.952   3.237  11.539 -0.1610 -0.1554  0.1169
    1TMC1    C5    5   2.034   3.347  11.498  0.0690 -0.2436  0.4567
    1TMC1    C6    6   2.041   3.370  11.366 -0.7780 -0.2223 -0.5123
    1TMC1     C    7   1.824   3.036  11.481  0.5751 -0.4699 -0.0502
    1TMC1     O    8   1.751   2.995  11.395  0.0403  0.1029  0.0259
    1TMC1     H    9   1.885   3.096  11.243  0.1191  0.8564 -1.1850
    1TMC1    H1   10   1.950   3.205  11.643 -2.2137 -2.4776 -0.6598
    1TMC1    H2   11   2.104   3.453  11.336 -1.7865  1.3008  1.5747
    1TMC1    C7   12   2.100   3.424  11.603 -0.4242 -0.0418  0.2791
    1TMC1    C8   13   2.066   3.283  11.149 -0.1365  0.3776  0.8375
    1TMC1    O1   14   2.057   3.413  11.714 -0.1227 -0.0139 -0.0763
    1TMC1    O2   15   2.184   3.322  11.141 -0.3183  0.3794  0.0042
    1TMC1    O3   16   2.133   3.546  11.546  0.6259  0.0867  0.1021
    1TMC1    H3   17   2.200   3.541  11.474  0.7225  0.4143  0.1658
    1TMC1    O5   18   1.993   3.206  11.059  0.0944 -0.0918  0.4981
    1TMC1    H5   19   1.899   3.195  11.083 -0.7574 -0.8406 -3.1585
    2MPD2     C   20   1.791   2.565  11.653 -0.3492 -0.5461 -0.4118
    2MPD2    C1   21   1.691   2.647  11.597  0.0072 -0.0748 -0.3021
    2MPD2    C2   22   1.723   2.780  11.572 -0.8785 -0.4138 -0.1336
    2MPD2    C3   23   1.843   2.834  11.614 -0.2556  0.1716 -0.2843
    2MPD2    C4   24   1.926   2.757  11.688 -0.0061 -0.3042 -0.1355
    2MPD2    C5   25   1.908   2.619  11.699 -0.1464  0.5173  0.3912
    2MPD2     H   26   1.648   2.838  11.520 -0.9066 -0.6730 -0.3794
    2MPD2    H1   27   2.017   2.793  11.735 -1.2609  0.4625  1.6907
    2MPD2    H2   28   1.768   2.460  11.669  0.2831 -0.9509 -2.1776
    2MPD2    H3   29   1.978   2.558  11.754 -0.6161 -0.2338  0.1500
    2MPD2     N   30   1.885   2.959  11.571 -0.5907 -0.3035  0.2731
    2MPD2    H5   31   1.961   3.002  11.623 -0.6201  0.9576 -0.7104
    2MPD2    N1   32   1.557   2.609  11.578  0.4422 -0.2738  0.1023
    2MPD2    H7   33   1.509   2.689  11.538 -0.7849 -1.1458 -0.1696
    3TMC1    C1   34   1.261   4.179  10.020 -0.2835 -0.7246  0.7853
    3TMC1    C2   35   1.319   4.135   9.901  0.9561  0.4833 -0.1174
    3TMC1    C3   36   1.407   4.209   9.832 -0.6579  0.7848  0.4084
    3TMC1    C4   37   1.285   4.307  10.057  0.5612  0.3295 -0.1014
    3TMC1    C5   38   1.365   4.389   9.981 -0.0669  0.2747  0.2231
    3TMC1    C6   39   1.433   4.342   9.869 -0.0557  0.7359  0.5285
    3TMC1     C   40   1.164   4.095  10.090  0.3304  0.7808  0.0041
    3TMC1     O   41   1.117   4.001  10.027 -0.3809 -0.5176 -0.0779
    3TMC1     H   42   1.300   4.038   9.857  0.9573 -0.2208  1.4310
    3TMC1    H1   43   1.227   4.351  10.137  0.7640  1.4446 -0.5701
    3TMC1    H2   44   1.494   4.414   9.815  1.5481 -1.4197 -0.5895
    3TMC1    C7   45   1.390   4.523  10.030  0.8115  0.0685 -0.1043
    3TMC1    C8   46   1.489   4.138   9.726  0.6308 -0.0405 -0.0098
    3TMC1    O1   47   1.427   4.612   9.957 -0.0497 -1.0321  0.6722
    3TMC1    O2   48   1.480   4.020   9.695 -0.1339  0.3521  0.4018
    3TMC1    O3   49   1.425   4.506  10.160 -0.2871  0.2236 -0.1357
    3TMC1    H3   50   1.409   4.418  10.200 -2.4831  0.2018 -1.0813
    3TMC1    O5   51   1.607   4.200   9.713  0.5361 -0.5741  0.1699
    3TMC1    H5   52   1.612   4.291   9.747  3.4992 -1.0523  0.9904
    4MPD2     C   53   0.870   4.004  10.508 -0.0684 -0.0681  0.0840
    4MPD2    C1   54   0.956   4.107  10.538  1.4349  0.4954 -0.0253
    4MPD2    C2   55   1.040   4.154  10.433  0.1002 -0.2239  0.3339
    4MPD2    C3   56   1.046   4.092  10.314 -0.1063  0.1466 -0.2917
    4MPD2    C4   57   0.960   3.994  10.289 -0.1514  0.3816 -0.8263
    4MPD2    C5   58   0.872   3.947  10.385  0.5842 -0.2114  0.7751
    4MPD2     H   59   1.110   4.235  10.452 -0.3112 -0.0576  1.1603
    4MPD2    H1   60   0.952   3.952  10.189  1.3945 -0.5528 -0.5596
    4MPD2    H2   61   0.802   3.955  10.576 -1.3686 -0.0153 -1.1683
    4MPD2    H3   62   0.813   3.859  10.364  0.0378  0.4134 -0.3645
    4MPD2     N   63   1.148   4.137  10.222 -0.0965 -0.4173 -0.5430
    4MPD2    H5   64   1.204   4.212  10.260 -4.0172  1.7153  1.0800
    4MPD2    N1   65   0.968   4.169  10.667 -0.5726  0.0940  0.6900
    4MPD2    H7   66   1.052   4.225  10.676  0.2241 -0.9484 -0.2557
    5TCq1    O1   67   2.006   1.184  12.398 -0.2996 -0.1113 -0.7280
    5TCq1    C1   68   1.871   1.175  12.404  0.3283 -0.1398  0.4033
    5TCq1    O2   69   1.808   1.146  12.504 -0.7607 -0.3137  0.5693
    5TCq1    C2   70   1.815   1.248  12.292 -0.3717 -0.3116 -0.6714
    5TCq1    C3   71   1.706   1.330  12.316 -0.5227 -0.1701  0.7001
    5TCq1    C4   72   1.648   1.388  12.206  0.6219  1.1633 -0.5943
    5TCq1    C5   73   1.691   1.375  12.078  0.3702 -0.5436 -0.2829
    5TCq1    C6   74   1.788   1.283  12.059  0.1186 -0.2646  0.2155
    5TCq1    C7   75   1.853   1.220  12.162  0.0390 -0.7751  0.1071
    5TCq1    C8   76   1.804   1.221  11.933  0.0255  0.0020  1.1453
    5TCq1    O4   77   1.870   1.121  11.934 -0.6101 -0.2922 -0.0281
    5TCq1    C9   78   1.536   1.472  12.224 -0.2904 -0.0855  0.1976
    5TCq1    O5   79   1.502   1.510  12.338  0.1757  0.6584 -0.1451
    5TCq1    O6   80   1.464   1.499  12.124 -0.1650  0.3108  0.4527
    5TCq1    H1   81   2.038   1.224  12.314 -0.3509 -2.3711 -1.8270
    5TCq1    H2   82   1.680   1.349  12.419  1.7679 -1.3443  1.4996
    5TCq1    H3   83   1.637   1.414  11.993  0.5049 -1.4539 -0.7919
    5TCq1    H4   84   1.919   1.134  12.154  1.1252  0.0744 -0.0440
    6MPD2     C   85   1.740   1.361  11.609 -0.3555 -0.1826 -0.1815
    6MPD2    C1   86   1.783   1.267  11.690  0.0649  0.0960 -0.0542
    6MPD2    C2   87   1.814   1.139  11.642  0.7254 -0.3142 -0.0619
    6MPD2    C3   88   1.811   1.114  11.508 -0.3818  0.4568  0.0346
    6MPD2    C4   89   1.763   1.212  11.424 -0.4492 -0.1963  0.2409
    6MPD2    C5   90   1.733   1.338  11.476  0.2710  0.6743  0.1071
    6MPD2     H   91   1.838   1.060  11.714  2.9551 -0.0334 -0.4822
    6MPD2    H1   92   1.768   1.209  11.315  2.0895 -1.1061  0.3955
    6MPD2    H2   93   1.706   1.460  11.634 -1.9403 -0.4782 -1.1691
    6MPD2    H3   94   1.698   1.417  11.411 -0.9619  0.8652  0.9944
    6MPD2     N   95   1.845   0.986  11.465 -0.9554 -0.1240  0.4913
    6MPD2    H5   96   1.893   0.921  11.527 -1.1285 -1.2919 -0.6012
    6MPD2    N1   97   1.776   1.300  11.826 -0.8989  0.1299  0.1129
    6MPD2    H7   98   1.771   1.399  11.849 -1.1656 -0.3610  2.2220
    7TCq1    O1   99   3.951   0.004  12.320  0.6434 -0.3130  0.2209
    7TCq1    C1  100   4.021   4.718  12.435 -0.4872 -0.0418  0.4349
    7TCq1    O2  101   4.097   0.059  12.489 -0.0514  0.5279  0.2824
    7TCq1    C2  102   3.954   4.602  12.498 -0.4310 -0.3203 -0.0317
    7TCq1    C3  103   3.902   4.503  12.423  0.1785  0.3269  0.6084
    7TCq1    C4  104   3.856   4.386  12.483 -0.2545  0.0289 -1.0870
    7TCq1    C5  105   3.836   4.383  12.613 -0.0445  0.2543 -0.1076
    7TCq1    C6  106   3.887   4.487  12.687  0.0186  0.4060 -0.0320
    7TCq1    C7  107   3.939   4.602  12.637 -0.6182 -0.4064  0.8490
    7TCq1    C8  108   3.856   4.465  12.828 -0.1598 -0.3288 -0.2996
    7TCq1    O4  109   3.802   4.360  12.860 -0.3030 -0.0353  0.2780
    7TCq1    C9  110   3.792   4.285  12.397  0.3540 -0.9160  0.6896
    7TCq1    O5  111   3.730   4.196  12.454 -0.6158 -0.0066 -0.3460
    7TCq1    O6  112   3.779   4.317  12.276  0.4067  0.2765  0.5866
    7TCq1    H1  113   3.862   4.701  12.330  0.8014 -1.0888 -1.4117
    7TCq1    H2  114   3.909   4.503  12.315 -2.1236  0.2270  0.4610
    7TCq1    H3  115   3.800   4.290  12.655 -0.6533  0.9505  0.9147
    7TCq1    H4  116   3.970   4.688  12.694 -0.1941  0.3746 -0.5484
    8MPD2     C  117   3.972   4.563  13.312  0.6415 -0.4822 -0.1024
    8MPD2    C1  118   3.969   4.446  13.240  0.2758  0.0493 -0.3344
    8MPD2    C2  119   3.929   4.452  13.113 -0.1711  0.7292  0.0094
    8MPD2    C3  120   3.890   4.573  13.047 -0.2606  0.1638  0.5869
    8MPD2    C4  121   3.888   4.687  13.119 -0.3737 -0.2005  0.0203
    8MPD2    C5  122   3.931   4.681  13.246  0.0248 -0.1371 -0.0699
    8MPD2     H  123   3.934   4.368  13.045 -0.5457 -0.0268  0.9222
    8MPD2    H1  124   3.870   0.049  13.077  2.1501 -0.2602 -1.2513
    8MPD2    H2  125   3.988   4.570  13.419 -0.2271  1.3006 -0.0872
    8MPD2    H3  126   3.940   0.041  13.293  0.4376 -0.4747  0.5457
    8MPD2     N  127   3.877   4.577  12.905  0.2102 -0.4215 -0.4041
    8MPD2    H5  128   3.900   4.664  12.860  0.6535  0.0721  0.7873
    8MPD2    N1  129   3.995   4.322  13.301 -0.1013  0.1790  0.2278
    8MPD2    H7  130   4.018   4.330  13.399 -0.5100  0.0616  0.3354
    9TMC1    C1  131   2.010   3.592  10.794 -0.3997  0.6240 -0.1954
    9TMC1    C2  132   1.895   3.522  10.780 -0.3273 -0.7310  0.0606
    9TMC1    C3  133   1.874   3.453  10.666  0.8447  0.7397 -0.4066
    9TMC1    C4  134   2.107   3.595  10.690  0.3876  0.2492 -0.5751
    9TMC1    C5  135   2.085   3.516  10.584 -0.2267 -0.3472  0.2546
    9TMC1    C6  136   1.975   3.437  10.575 -0.1802  0.1819  0.1419
    9TMC1     C  137   2.046   3.650  10.921 -0.1378 -0.5525 -0.1293
    9TMC1     O  138   2.155   3.710  10.918  0.6165  0.0729  0.6822
    9TMC1     H  139   1.816   3.533  10.854 -0.6464 -1.3815 -0.1853
    9TMC1    H1  140   2.199   3.647  10.715 -0.8224  1.2833  1.7703
    9TMC1    H2  141   1.961   3.359  10.501 -0.1988 -0.1702  0.5151
    9TMC1    C7  142   2.170   3.527  10.462  0.4918  0.7578  0.2376
    9TMC1    C8  143   1.782   3.343  10.673  0.8980 -0.0174  0.3894
    9TMC1    O1  144   2.194   3.434  10.390  0.1084  0.1940 -0.1271
    9TMC1    O2  145   1.664   3.349  10.686  0.2807  0.6825 -0.4583
    9TMC1    O3  146   2.237   3.642  10.456  0.1440  0.4580  0.1941
    9TMC1    H3  147   2.192   3.706  10.515 -1.5880 -1.2905  0.8011
    9TMC1    O5  148   1.853   3.229  10.645 -0.6755 -0.2358 -0.0778
    9TMC1    H5  149   1.950   3.235  10.659 -0.5084 -1.5242 -0.6779
   10MPD2     C  150   2.033   3.794  11.187 -0.3098  0.3200 -0.3119
   10MPD2    C1  151   1.953   3.688  11.152  0.7616 -0.5997  0.9525
   10MPD2    C2  152   1.869   3.635  11.253  0.4547 -0.2898  0.2958
   10MPD2    C3  153   1.859   3.697  11.377  0.2215 -0.3314 -0.1695
   10MPD2    C4  154   1.952   3.785  11.406  0.3505 -0.6750  0.1291
   10MPD2    C5  155   2.041   3.840  11.319 -0.6649  0.2757 -0.0427
   10MPD2     H  156   1.795   3.561  11.225  0.5064 -1.1969  2.6367
   10MPD2    H1  157   1.958   3.815  11.510 -0.4935  0.8472 -0.2599
   10MPD2    H2  158   2.093   3.842  11.110 -0.0540 -0.6898 -0.7475
   10MPD2    H3  159   2.112   3.917  11.348  3.2361 -2.2272 -2.8854
   10MPD2     N  160   1.786   3.644  11.490 -0.0090  0.3469  0.0316
   10MPD2    H5  161   1.802   3.696  11.576  2.1217  0.5385 -0.4781
   10MPD2    N1  162   1.956   3.628  11.022 -0.1704  0.4084  0.6715
   10MPD2    H7  163   1.880   3.563  11.005  0.6661 -0.4265  0.1798
   11TCq1    O1  164   3.046   3.541  13.935 -0.2305  0.4353 -0.0440
   11TCq1    C1  165   2.930   3.490  13.882  0.6243 -0.3398  0.0494
   11TCq1    O2  166   2.887   3.504  13.769  0.1068 -0.1578  0.2406
   11TCq1    C2  167   2.835   3.472  13.989  0.3631 -0.1015  0.2627
   11TCq1    C3  168   2.845   3.549  14.105 -0.4914 -0.2331 -0.2810
   11TCq1    C4  169   2.737   3.587  14.174 -0.2716  0.3121 -0.5680
   11TCq1    C5  170   2.615   3.532  14.144 -0.4696  0.0588  0.1813
   11TCq1    C6  171   2.601   3.455  14.028 -0.0130  0.4277 -0.1532
   11TCq1    C7  172   2.710   3.433  13.945 -0.5747 -0.2227  0.1356
   11TCq1    C8  173   2.476   3.392  14.006 -0.0838  0.2978  0.0042
   11TCq1    O4  174   2.373   3.457  14.037 -0.1043 -0.3399 -0.3138
   11TCq1    C9  175   2.753   3.683  14.278  0.6832  0.4097 -0.0782
   11TCq1    O5  176   2.872   3.731  14.294  0.3718  0.0674 -0.0001
   11TCq1    O6  177   2.656   3.713  14.355 -0.0665  0.1000  0.4669
   11TCq1    H1  178   3.065   3.549  14.031 -0.3359 -3.3985  0.3202
   11TCq1    H2  179   2.936   3.596  14.140 -1.4908 -0.0849  2.1265
   11TCq1    H3  180   2.527   3.558  14.202 -1.1679 -1.5283 -0.1534
   11TCq1    H4  181   2.704   3.370  13.857  1.5126 -2.0720  1.3053
   12MPD2     C  182   2.235   3.246  13.895 -0.9474 -0.6251 -0.4253
   12MPD2    C1  183   2.364   3.195  13.902 -0.3721 -0.6406 -0.1203
   12MPD2    C2  184   2.388   3.059  13.892 -0.2715  0.2833  0.2822
   12MPD2    C3  185   2.285   2.974  13.858  0.1615 -0.3286  0.3023
   12MPD2    C4  186   2.157   3.024  13.842 -0.2830 -0.1287 -0.2839
   12MPD2    C5  187   2.138   3.159  13.857  0.1318 -0.0393 -0.2929
   12MPD2     H  188   2.489   3.022  13.902 -0.5327  0.1806  2.5939
   12MPD2    H1  189   2.070   2.961  13.831 -0.3391 -0.0494 -0.2991
   12MPD2    H2  190   2.205   3.347  13.918  0.6872 -0.6675  1.8850
   12MPD2    H3  191   2.038   3.201  13.856 -0.2130 -0.8236  0.8104
   12MPD2     N  192   2.301   2.832  13.837  0.3411 -0.3495 -0.4025
   12MPD2    H5  193   2.222   2.773  13.814  0.9270 -0.3692 -2.3772
   12MPD2    N1  194   2.485   3.265  13.945 -0.5385  0.4271  0.4055
   12MPD2    H7  195   2.576   3.224  13.928 -1.0869 -0.4734 -0.3368
   13TCq1    O1  196   1.877   3.727  10.469  0.4823 -0.1271 -0.5922
   13TCq1    C1  197   1.791   3.777  10.557 -0.0857  0.1064 -0.1693
   13TCq1    O2  198   1.816   3.815  10.668 -0.2892  0.3511 -0.0596
   13TCq1    C2  199   1.652   3.742  10.523  0.1580  0.5045  0.7342
   13TCq1    C3  200   1.629   3.713  10.395 -0.2581 -0.3543  0.2766
   13TCq1    C4  201   1.525   3.627  10.371 -0.4107  0.5116 -0.3278
   13TCq1    C5  202   1.462   3.555  10.473 -0.0177 -0.7169  0.0876
   13TCq1    C6  203   1.498   3.593  10.604 -0.1560 -0.3758 -0.8810
   13TCq1    C7  204   1.598   3.678  10.630 -0.1879  0.6847  0.3685
   13TCq1    C8  205   1.415   3.555  10.719  0.4437 -0.0620  0.3317
   13TCq1    O4  206   1.466   3.578  10.825 -0.8582 -0.7873 -0.6508
   13TCq1    C9  207   1.503   3.588  10.235 -1.1311  0.1608 -0.0520
   13TCq1    O5  208   1.430   3.479  10.233 -0.6451  0.0798 -0.8665
   13TCq1    O6  209   1.540   3.669  10.146 -0.1730  0.0389  0.0312
   13TCq1    H1  210   1.845   3.675  10.392  0.1830 -0.6130 -0.1408
   13TCq1    H2  211   1.683   3.757  10.312  0.1189 -0.2985  0.5563
   13TCq1    H3  212   1.387   3.482  10.444  0.9951 -1.4217 -0.7546
   13TCq1    H4  213   1.622   3.714  10.730 -1.0290  0.3941  0.6768
   14MPD2     C  214   1.125   3.311  10.714  0.2455 -0.0160 -0.7055
   14MPD2    C1  215   1.234   3.379  10.765 -0.4441  0.2469  0.6030
   14MPD2    C2  216   1.237   3.381  10.906 -0.3882 -0.3157 -0.3653
   14MPD2    C3  217   1.147   3.309  10.985  0.0100  0.0338  0.2619
   14MPD2    C4  218   1.046   3.237  10.926  0.5590 -0.7496 -0.6495
   14MPD2    C5  219   1.032   3.242  10.789  0.5653 -0.4645 -0.0326
   14MPD2     H  220   1.304   3.448  10.960 -1.1784  0.5259 -0.4385
   14MPD2    H1  221   0.960   3.195  10.978 -1.3010  0.6176 -2.6293
   14MPD2    H2  222   1.113   3.302  10.606  0.8601 -0.6413 -0.7252
   14MPD2    H3  223   0.952   3.184  10.743 -1.3589  0.4150  2.2154
   14MPD2     N  224   1.151   3.330  11.120  0.0172  0.3325 -0.1193
   14MPD2    H5  225   1.226   3.391  11.153  0.1108  0.6545 -0.9073
   14MPD2    N1  226   1.322   3.458  10.683  0.1784  0.2827  0.8836
   14MPD2    H7  227   1.298   3.460  10.584 -1.1507  1.5154  1.2295
   15TCq1    O1  228   4.203   3.616   1.027 -0.4221  0.0642  0.2838
   15TCq1    C1  229   4.161   3.506   1.085  0.3142 -0.4459 -0.0870
   15TCq1    O2  230   4.043   3.471   1.100  0.5746  0.5335 -0.1267
   15TCq1    C2  231   4.266   3.406   1.083  0.0581  0.0331 -0.9093
   15TCq1    C3  232   4.386   3.446   1.131  0.0112 -0.3680 -0.3402
   15TCq1    C4  233   4.489   3.355   1.121  0.5467  0.2123  1.1159
   15TCq1    C5  234   4.464   3.230   1.066 -0.1797 -0.4566  0.8332
   15TCq1    C6  235   4.333   3.198   1.032  0.2843  0.5507 -0.3381
   15TCq1    C7  236   4.230   3.286   1.035  0.0077 -0.3065  0.2729
   15TCq1    C8  237   4.316   3.058   0.992 -0.6976  0.1781  0.0404
   15TCq1    O4  238   4.415   2.984   1.010  0.1459 -0.0706  0.4653
   15TCq1    C9  239   4.627   3.390   1.137  0.6529  0.3751  0.2490
   15TCq1    O5  240   4.710   3.301   1.115  0.3928 -0.4598 -0.7185
   15TCq1    O6  241   4.663   3.507   1.167  0.1017 -0.1280 -0.5871
   15TCq1    H1  242   4.298   3.620   1.000 -1.0065  3.3675 -1.3519
   15TCq1    H2  243   4.403   3.546   1.169 -1.1150 -0.6240  0.8443
   15TCq1    H3  244   4.542   3.154   1.062 -1.8648 -2.0251 -1.7797
   15TCq1    H4  245   4.127   3.268   1.005 -0.2178  0.3910  0.6391
   16MPD2     C  246   3.997   2.873   0.967  0.2715  0.0643 -0.9754
   16MPD2    C1  247   4.134   2.890   0.974 -0.5489 -0.5669 -0.9728
   16MPD2    C2  248   4.214   2.776   0.954 -0.6471  0.2451  0.4210
   16MPD2    C3  249   4.154   2.650   0.958  0.0533 -0.1439  0.0865
   16MPD2    C4  250   4.018   2.635   0.948 -0.1756  0.2297 -0.5667
   16MPD2    C5  251   3.942   2.749   0.952 -0.1867 -0.1658 -0.1375
   16MPD2     H  252   4.321   2.767   0.941 -0.7418  1.0775 -0.9308
   16MPD2    H1  253   3.967   2.540   0.958 -1.5611  1.0771  0.2593
   16MPD2    H2  254   3.923   2.952   0.975  0.3983 -0.1359  2.3540
   16MPD2    H3  255   3.836   2.740   0.969 -0.1808 -0.2840 -0.1607
   16MPD2     N  256   4.242   2.539   0.964  0.7335  0.2225  0.4263
   16MPD2    H5  257   4.341   2.556   0.977  0.6019 -0.5816  2.4859
   16MPD2    N1  258   4.181   3.023   0.974 -0.7820  0.3911 -0.2463
   16MPD2    H7  259   4.114   3.099   0.978  0.6391  1.6455 -0.2108
   17TMC1    C1  260   0.904   1.938   9.988 -0.0770  0.1599 -0.1395
   17TMC1    C2  261   0.944   1.867  10.099  0.1313 -0.4990  0.8112
   17TMC1    C3  262   0.863   1.764  10.141 -0.3030  0.6368  0.1397
   17TMC1    C4  263   0.775   1.926   9.938  0.0217 -0.1876 -0.9837
   17TMC1    C5  264   0.699   1.819   9.983  0.3591  0.0960  0.1614
   17TMC1    C6  265   0.744   1.733  10.083  0.6585 -0.0821  0.1494
   17TMC1     C  266   0.992   2.030   9.919 -0.5079 -0.7508  0.6558
   17TMC1     O  267   0.964   2.052   9.803 -0.0534 -0.0953 -1.0518
   17TMC1     H  268   1.042   1.869  10.147 -0.8625 -1.5460  2.8921
   17TMC1    H1  269   0.750   1.985   9.852 -1.6400 -1.4729 -1.3740
   17TMC1    H2  270   0.676   1.673  10.143  1.8340 -0.9302  0.6188
   17TMC1    C7  271   0.556   1.833   9.969 -0.1776  0.0872 -0.7735
   17TMC1    C8  272   0.900   1.691  10.262 -0.3370 -0.3713 -0.1629
   17TMC1    O1  273   0.508   1.944   9.982 -0.0817 -0.2186  0.0624
   17TMC1    O2  274   0.852   1.577  10.281  0.4800  0.3110 -0.1945
   17TMC1    O3  275   0.492   1.719   9.970  0.0469  0.2382 -0.4925
   17TMC1    H3  276   0.555   1.651   9.938  0.2114 -0.6247  1.6874
   17TMC1    O5  277   0.956   1.769  10.355  0.3218 -0.5008  0.0610
   17TMC1    H5  278   0.984   1.859  10.328 -0.6018 -0.2020  0.1120
   18MPD2     C  279   1.240   2.188   9.850  0.2865  0.2127 -0.3404
   18MPD2    C1  280   1.187   2.172   9.980 -0.1224  0.0197  0.0093
   18MPD2    C2  281   1.231   2.248  10.089 -0.3296  0.3895  0.2247
   18MPD2    C3  282   1.346   2.327  10.062 -0.3636 -0.8556 -0.1624
   18MPD2    C4  283   1.405   2.333   9.938 -0.1670  1.2476  0.8410
   18MPD2    C5  284   1.350   2.268   9.832 -0.1771 -0.9670  0.1399
   18MPD2     H  285   1.187   2.224  10.185 -1.3555  0.8448 -0.1342
   18MPD2    H1  286   1.492   2.395   9.920 -0.3686  1.2894  0.0333
   18MPD2    H2  287   1.213   2.129   9.764  0.1833  0.1157 -0.2411
   18MPD2    H3  288   1.403   2.251   9.739  0.8653 -0.4381  0.6359
   18MPD2     N  289   1.412   2.399  10.159 -0.3413  0.3077 -0.1732
   18MPD2    H5  290   1.499   2.442  10.130 -1.3604  2.9201  0.6026
   18MPD2    N1  291   1.086   2.078  10.007  0.0123  0.8026 -0.2556
   18MPD2    H7  292   1.069   2.062  10.105  0.2479  2.0279 -0.0103
   19TMC2    C1  293   3.791   3.236  14.076  0.1797 -0.6593 -0.6321
   19TMC2    C2  294   3.700   3.340  14.094 -0.7177 -0.1496  0.5025
   19TMC2    C3  295   3.567   3.306  14.098  0.9715  0.0226 -0.0534
   19TMC2    C4  296   3.756   3.101  14.086 -0.7025 -0.4942 -0.3841
   19TMC2    C5  297   3.624   3.079  14.106 -0.5120  0.1010  0.3556
   19TMC2    C6  298   3.529   3.174  14.096  0.0510  0.4909  0.7110
   19TMC2     C  299   3.928   3.271  14.089  0.3750 -0.8320  0.0768
   19TMC2     O  300   3.962   3.389  14.068 -0.6856 -0.3348 -0.4226
   19TMC2     H  301   3.716   3.447  14.089  1.2550 -0.5377 -1.8351
   19TMC2    H1  302   3.827   3.019  14.090 -0.0356  0.1535  1.2470
   19TMC2    H2  303   3.431   3.154  14.139 -0.4952  1.5568 -0.0268
   19TMC2    C7  304   3.567   2.944  14.102  0.0942  0.0008  0.2119
   19TMC2    C8  305   3.473   3.405  14.148  0.0336  0.0070  0.3349
   19TMC2    O1  306   3.645   2.853  14.123 -0.0205 -0.0213  0.4310
   19TMC2    O2  307   3.354   3.400  14.126 -0.1237  0.2801  0.2548
   19TMC2    O5  308   3.522   3.424  14.272 -0.2892 -0.3730 -0.6149
   19TMC2    H5  309   3.611   3.386  14.289 -0.3550 -0.2872 -0.0810
   20MPD2     C  310   4.224   3.268  14.115  0.6005  0.6612  0.2103
   20MPD2    C1  311   4.141   3.172  14.171 -0.1045 -0.4875 -0.0792
   20MPD2    C2  312   4.199   3.077  14.252 -0.3446  0.4085 -0.2193
   20MPD2    C3  313   4.340   3.067  14.272 -0.5728 -0.2369 -0.2058
   20MPD2    C4  314   4.417   3.168  14.216 -0.4464 -0.0435  0.1804
   20MPD2    C5  315   4.358   3.259  14.136 -0.3258  0.5119 -0.4738
   20MPD2     H  316   4.126   3.004  14.285  1.4248 -0.3627  1.9568
   20MPD2    H1  317   4.520   3.189  14.244  0.5385 -0.8869 -2.8030
   20MPD2    H2  318   4.191   3.354  14.057 -0.7517 -0.9518 -1.4395
   20MPD2    H3  319   4.425   3.337  14.099  0.5864  0.3619  0.8906
   20MPD2     N  320   4.393   2.974  14.359 -0.9320  0.3948 -0.4428
   20MPD2    H5  321   4.488   2.976  14.392 -0.4191 -1.4439 -1.8331
   20MPD2    N1  322   3.999   3.169  14.152  0.1856  0.4394 -1.1061
   20MPD2    H7  323   3.959   3.082  14.185  0.4485  1.5663  2.1470
   21TMC2    C1  324   1.248   3.201  14.781 -0.3845  0.4268 -0.3541
   21TMC2    C2  325   1.222   3.073  14.822 -0.5164  0.1465 -0.1597
   21TMC2    C3  326   1.107   3.055  14.898 -0.5601  0.1398 -0.5021
   21TMC2    C4  327   1.159   3.306  14.811 -0.3031  0.3300 -0.3769
   21TMC2    C5  328   1.050   3.281  14.886  0.1457  0.1260  0.3810
   21TMC2    C6  329   1.028   3.153  14.939  0.5263 -0.6347  0.6364
   21TMC2     C  330   1.382   3.223  14.733  0.3996  0.2944 -0.8094
   21TMC2     O  331   1.428   3.133  14.664 -0.2963 -0.5057  0.0025
   21TMC2     H  332   1.309   3.008  14.820 -0.9373 -0.4978  2.3810
   21TMC2    H1  333   1.167   3.400  14.757  1.5033  0.4199  0.0644
   21TMC2    H2  334   0.955   3.133  15.016 -0.9427 -3.1545 -1.3845
   21TMC2    C7  335   0.985   3.391  14.945  0.1949 -0.7060  0.1295
   21TMC2    C8  336   1.086   2.919  14.948 -0.0744 -0.2585 -1.1395
   21TMC2    O1  337   0.923   3.363  15.045 -0.6256 -0.0268  0.7072
   21TMC2    O2  338   0.996   2.885  15.023 -0.3460 -0.3922 -0.2841
   21TMC2    O5  339   1.118   2.844  14.846  0.0391  0.5728  0.5590
   21TMC2    H5  340   1.173   2.895  14.783 -1.3982  0.6019 -0.6774
   22MPD2     C  341   1.725   3.553  14.546 -0.2627 -0.3286 -0.3787
   22MPD2    C1  342   1.719   3.414  14.543 -0.9340 -0.0500 -0.0102
   22MPD2    C2  343   1.618   3.348  14.616  0.0099 -0.7708  0.4080
   22MPD2    C3  344   1.518   3.419  14.685  0.2053  0.4579  0.0395
   22MPD2    C4  345   1.530   3.555  14.692  0.1690 -0.4874  0.0466
   22MPD2    C5  346   1.631   3.621  14.621 -0.7161 -0.2309 -0.3040
   22MPD2     H  347   1.621   3.240  14.622 -1.2002 -0.9303 -1.8510
   22MPD2    H1  348   1.456   3.611  14.747  0.4501 -0.8572  0.7893
   22MPD2    H2  349   1.791   3.621  14.493  0.1249  1.7122  2.6869
   22MPD2    H3  350   1.627   3.729  14.634  0.8753 -0.4937  2.2583
   22MPD2     N  351   1.408   3.357  14.746  0.5590 -0.2520 -0.0807
   22MPD2    H5  352   1.359   3.416  14.812  1.2288  0.3457 -0.1258
   22MPD2    N1  353   1.814   3.339  14.472 -0.1927 -0.1618  0.1644
   22MPD2    H7  354   1.793   3.240  14.465  2.0459 -0.7707  2.0319
   23TMC2    C1  355   2.169   4.354  14.762 -0.0620  0.1965  0.1162
   23TMC2    C2  356   2.206   4.390  14.638  0.5679 -0.5890  0.3597
   23TMC2    C3  357   2.121   4.348  14.538 -0.2694  0.0418 -0.5607
   23TMC2    C4  358   2.060   4.271  14.783 -0.1796 -0.1764 -0.1787
   23TMC2    C5  359   1.984   4.233  14.676 -0.1068 -0.3889 -0.1844
   23TMC2    C6  360   2.005   4.276  14.547  0.7833  0.3872 -0.1324
   23TMC2     C  361   2.231   4.414  14.885  0.0938  0.2507  0.0970
   23TMC2     O  362   2.202   4.359  14.993 -0.2281 -0.1925 -0.2905
   23TMC2     H  363   2.296   4.442  14.609  0.8453 -0.3866  1.5824
   23TMC2    H1  364   2.036   4.241  14.885  0.1677  0.8098  0.1897
   23TMC2    H2  365   1.940   4.262  14.462  1.7239 -1.3934 -0.5584
   23TMC2    C7  366   1.857   4.178  14.708 -0.6146 -0.3115 -0.1118
   23TMC2    C8  367   2.152   4.402  14.402 -0.4850 -0.1066 -0.5893
   23TMC2    O1  368   1.848   4.133  14.820 -0.3297  0.1988  0.6204
   23TMC2    O2  369   2.266   4.431  14.373 -0.0886  0.3415  0.0765
   23TMC2    O5  370   2.040   4.471  14.365 -0.3929  0.1887  0.5726
   23TMC2    H5  371   1.957   4.460  14.416 -1.0308  1.6129 -0.1622
   24MPD2     C  372   2.485   0.032  15.161  0.0480  0.8091 -0.2864
   24MPD2    C1  373   2.464   4.638  15.191  0.3436 -0.4387 -0.0078
   24MPD2    C2  374   2.389   4.566  15.096  0.6762 -0.2692  1.4225
   24MPD2    C3  375   2.336   4.617  14.977  0.1061  0.2291 -0.3868
   24MPD2    C4  376   2.365   0.015  14.951  0.7726 -0.2787 -0.2688
   24MPD2    C5  377   2.433   0.084  15.044  0.1041  1.1939 -0.4253
   24MPD2     H  378   2.374   4.462  15.122 -2.5201 -0.2923 -0.4474
   24MPD2    H1  379   2.334   0.071  14.864 -2.3846 -2.8391 -0.8031
   24MPD2    H2  380   2.542   0.094  15.229 -0.0197  1.1999 -0.5885
   24MPD2    H3  381   2.455   0.186  15.014  2.8527  0.7377  0.0714
   24MPD2     N  382   2.276   4.542  14.869  0.0727  0.0461  0.8114
   24MPD2    H5  383   2.263   4.592  14.781  0.4783 -2.1290 -0.5046
   24MPD2    N1  384   2.516   4.575  15.312  0.2146  0.3506 -0.0884
   24MPD2    H7  385   2.506   4.474  15.305  1.6347  0.1679  0.4548
   25TMC2    C1  386   0.755   2.427  11.507  0.2562  0.4516 -0.6426
   25TMC2    C2  387   0.746   2.562  11.502 -0.6301 -0.1383  0.2056
   25TMC2    C3  388   0.680   2.619  11.604 -0.2427  0.8074  0.6883
   25TMC2    C4  389   0.682   2.355  11.596  0.4684  0.2166  0.2279
   25TMC2    C5  390   0.628   2.421  11.702 -0.1489 -0.2005 -0.1055
   25TMC2    C6  391   0.627   2.558  11.714  0.5667  0.3274 -0.3206
   25TMC2     C  392   0.773   2.354  11.381  0.1362  0.0238  0.3681
   25TMC2     O  393   0.765   2.423  11.282 -0.1002  0.4274 -0.8445
   25TMC2     H  394   0.801   2.625  11.434  0.3838 -1.3842 -0.1489
   25TMC2    H1  395   0.671   2.247  11.597  0.1258  0.2284 -1.4144
   25TMC2    H2  396   0.609   2.602  11.811 -1.0611 -0.3226 -0.3276
   25TMC2    C7  397   0.583   2.341  11.814  0.0873 -0.0067  0.1440
   25TMC2    C8  398   0.701   2.766  11.608 -0.6638 -0.3845  0.1038
   25TMC2    O1  399   0.629   2.230  11.842  0.4412  1.1325  0.1645
   25TMC2    O2  400   0.811   2.809  11.582 -0.5323  0.2535  0.5050
   25TMC2    O5  401   0.616   2.808  11.707 -0.2239 -0.3344  0.0768
   25TMC2    H5  402   0.531   2.762  11.720 -0.7461  0.1397 -1.6005
   26MPD2     C  403   0.785   1.956  11.072 -0.7562 -0.0230 -0.6805
   26MPD2    C1  404   0.796   1.907  11.197 -1.1456  0.9088  0.1128
   26MPD2    C2  405   0.799   1.992  11.306 -0.1508 -0.4984 -0.3997
   26MPD2    C3  406   0.801   2.131  11.285 -0.5998  0.4912 -0.3213
   26MPD2    C4  407   0.797   2.174  11.155 -0.7750  0.0579  0.3599
   26MPD2    C5  408   0.800   2.092  11.048  0.0759 -0.8999  0.1867
   26MPD2     H  409   0.791   1.962  11.410 -1.5212  1.0726 -0.0422
   26MPD2    H1  410   0.794   2.279  11.129 -1.6227 -0.0551  0.0009
   26MPD2    H2  411   0.779   1.895  10.983  2.2811 -0.6658 -0.4526
   26MPD2    H3  412   0.786   2.140  10.951  1.8474  0.2912  0.5209
   26MPD2     N  413   0.793   2.222  11.394 -0.1002  0.2155 -0.0761
   26MPD2    H5  414   0.804   2.186  11.488  0.7361  1.0633  0.1483
   26MPD2    N1  415   0.796   1.769  11.202 -0.0317 -0.0888  0.8119
   26MPD2    H7  416   0.815   1.712  11.120 -0.3549  3.2322 -1.5540
   27TMC2    C1  417   4.487   3.952  12.112  0.0215 -0.0991 -0.4492
   27TMC2    C2  418   4.413   4.025  12.019 -0.2084 -0.6321 -0.4322
   27TMC2    C3  419   4.427   4.161  12.026 -0.0825  0.5262  0.2574
   27TMC2    C4  420   4.578   4.009  12.200 -0.7968 -0.4704 -0.0551
   27TMC2    C5  421   4.596   4.148  12.185 -0.4173  0.3549  0.7263
   27TMC2    C6  422   4.521   4.223  12.098  0.1615 -0.0501  0.0552
   27TMC2     C  423   4.421   3.829  12.154  0.1094 -0.1556 -0.3976
   27TMC2     O  424   4.351   3.777  12.070  0.1004 -0.4576 -0.0014
   27TMC2     H  425   4.341   3.975  11.955  0.3567 -2.0096  0.0300
   27TMC2    H1  426   4.648   3.952  12.260  0.5698  1.3271  0.0900
   27TMC2    H2  427   4.533   4.331  12.091  0.8967 -0.2650 -1.9692
   27TMC2    C7  428   4.651   4.202  12.308  0.5363  0.8540 -0.8741
   27TMC2    C8  429   4.366   4.239  11.918  0.0058 -0.3249  0.2176
   27TMC2    O1  430   4.683   4.123  12.397  0.1974  0.5767  0.0998
   27TMC2    O2  431   4.419   4.349  11.903 -0.6479  0.9281 -0.0928
   27TMC2    O5  432   4.234   4.208  11.898  0.5403  0.0625 -0.3744
   27TMC2    H5  433   4.204   4.118  11.925  0.6723 -0.3277 -1.5034
   28MPD2     C  434   4.334   3.468  12.506 -0.1774  0.1180 -0.2327
   28MPD2    C1  435   4.386   3.583  12.568  0.0237 -0.4127  0.5834
   28MPD2    C2  436   4.411   3.694  12.490  0.2644 -0.0244 -0.5335
   28MPD2    C3  437   4.403   3.685  12.354 -0.4543 -0.0789  0.1145
   28MPD2    C4  438   4.365   3.564  12.290  0.1778 -0.5388  0.4650
   28MPD2    C5  439   4.332   3.458  12.369  0.0812  0.1341 -0.1038
   28MPD2     H  440   4.464   3.784  12.522  1.1700 -0.5094 -0.6731
   28MPD2    H1  441   4.354   3.551  12.183 -0.9870 -0.4086  0.5687
   28MPD2    H2  442   4.308   3.379  12.561 -0.5440 -0.6664 -1.6882
   28MPD2    H3  443   4.291   3.373  12.315 -0.0268 -0.3963  0.8125
   28MPD2     N  444   4.432   3.804  12.288  0.5674 -0.3203 -0.0851
   28MPD2    H5  445   4.464   3.880  12.348 -0.4136  1.0951 -1.3600
   28MPD2    N1  446   4.399   3.594  12.708  0.0344  0.6170 -0.3342
   28MPD2    H7  447   4.337   3.538  12.765  0.9244 -0.9576 -0.9091
   29TMC2    C1  448   0.002   1.859  14.386 -0.6688  0.1250 -0.1374
   29TMC2    C2  449   4.707   1.845  14.518  0.5515  0.5109  0.6162
   29TMC2    C3  450   4.694   1.956  14.594 -0.3279 -0.3727  0.0639
   29TMC2    C4  451   0.025   1.978  14.326 -0.0350 -0.1219  0.8746
   29TMC2    C5  452   4.732   2.085  14.407 -1.2576  0.5029  0.3955
   29TMC2    C6  453   4.701   2.083  14.538 -0.0567 -0.4571  0.1976
   29TMC2     C  454   0.019   1.739  14.311  1.1212  0.8322 -0.8860
   29TMC2     O  455   4.700   1.637  14.346 -0.3620  0.2793  0.3219
   29TMC2     H  456   4.699   1.752  14.573 -3.3499 -0.0280 -0.8698
   29TMC2    H1  457   0.025   1.997  14.219  0.3600  0.0975  0.9127
   29TMC2    H2  458   4.686   2.166  14.606 -0.6786  1.2647 -2.0678
   29TMC2    C7  459   0.048   2.213  14.361 -0.4756 -0.0219 -0.1050
   29TMC2    C8  460   4.663   1.951  14.736  0.6747 -0.5535 -1.0601
   29TMC2    O1  461   0.030   2.246  14.244  0.7134 -0.0071  0.7220
   29TMC2    O2  462   4.631   1.845  14.796 -0.5382  0.4028  0.3269
   29TMC2    O5  463   4.732   2.043  14.805 -0.0258 -0.0192 -0.3000
   29TMC2    H5  464   0.060   2.099  14.757  1.8459 -2.3244 -0.5102
   30MPD2     C  465   0.143   1.467  13.893 -0.3396  0.3174  0.1732
   30MPD2    C1  466   0.116   1.423  14.019 -0.3668  0.8677 -0.5278
   30MPD2    C2  467   0.096   1.520  14.114 -0.3577  1.1109 -0.7436
   30MPD2    C3  468   0.107   1.656  14.089 -0.3809 -0.5785 -0.5729
   30MPD2    C4  469   0.138   1.703  13.963  0.0362 -0.3600  0.8651
   30MPD2    C5  470   0.163   1.603  13.869  0.2203 -0.6626  0.1575
   30MPD2     H  471   0.084   1.494  14.219  1.9406 -0.8655 -0.9690
   30MPD2    H1  472   0.151   1.809  13.944  1.2716 -0.3655  1.7196
   30MPD2    H2  473   0.174   1.398  13.816 -0.8254  0.9680 -0.6209
   30MPD2    H3  474   0.210   1.627  13.773 -2.4518  0.2334 -0.9222
   30MPD2     N  475   0.098   1.750  14.195  0.6558 -0.0867  0.0418
   30MPD2    H5  476   0.123   1.846  14.172  2.4135 -0.1514  1.6808
   30MPD2    N1  477   0.120   1.285  14.054 -0.5682  0.0660 -0.0058
   30MPD2    H7  478   0.114   1.260  14.152 -1.1338 -0.9156 -0.2918
   31TMC2    C1  479   2.419   0.518  15.400 -0.1129 -0.4228 -0.2838
   31TMC2    C2  480   2.326   0.616  15.406 -1.0816  0.2559 -0.2684
   31TMC2    C3  481   2.241   0.622  15.508 -0.1749  0.0815  0.2428
   31TMC2    C4  482   2.427   0.416  15.486  0.1135  0.4464  0.0598
   31TMC2    C5  483   2.331   0.422  15.579 -0.2622  1.1299 -0.3691
   31TMC2    C6  484   2.236   0.521  15.594 -0.4090 -0.1625 -0.4231
   31TMC2     C  485   2.475   0.504  15.270  0.2173 -0.4743  0.1660
   31TMC2     O  486   2.424   0.569  15.177 -0.1993  0.1587 -0.2848
   31TMC2     H  487   2.320   0.705  15.345  0.5178  2.2614  2.5027
   31TMC2    H1  488   2.483   0.326  15.463  2.7001  1.9553  0.5521
   31TMC2    H2  489   2.171   0.522  15.681  0.8885 -1.3235  0.5571
   31TMC2    C7  490   2.348   0.328  15.687  0.9937  0.4291  0.3347
   31TMC2    C8  491   2.206   0.746  15.561  0.3870 -0.3032 -0.0434
   31TMC2    O1  492   2.462   0.286  15.703  0.3103  0.6749 -0.2433
   31TMC2    O2  493   2.116   0.813  15.506  0.5716 -0.4645  0.4295
   31TMC2    O5  494   2.317   0.784  15.628 -0.5485 -0.3495 -0.4909
   31TMC2    H5  495   2.374   0.708  15.652 -0.8506 -0.6771 -0.8165
   32MPD2     C  496   2.883   0.428  14.971 -0.2246 -0.0738  1.0389
   32MPD2    C1  497   2.762   0.483  14.943 -0.1250 -0.1272  0.6390
   32MPD2    C2  498   2.657   0.475  15.036  0.4294 -0.2042 -0.0288
   32MPD2    C3  499   2.680   0.420  15.162  0.5039 -0.0794  0.2563
   32MPD2    C4  500   2.798   0.361  15.185  0.4665  0.5923  0.2433
   32MPD2    C5  501   2.898   0.366  15.091  0.4644  0.4490  1.1797
   32MPD2     H  502   2.558   0.514  15.020  0.2391 -0.9536 -0.6671
   32MPD2    H1  503   2.818   0.316  15.282 -1.6536 -0.4340  0.1925
   32MPD2    H2  504   2.962   0.421  14.898 -0.8333 -2.6132  0.6145
   32MPD2    H3  505   2.993   0.315  15.103  1.1111  1.4262  0.2707
   32MPD2     N  506   2.585   0.419  15.269  0.2467  0.2534 -0.2928
   32MPD2    H5  507   2.601   0.382  15.362  2.4587  0.3062 -0.6506
   32MPD2    N1  508   2.744   0.567  14.826  0.0744 -0.2958 -0.5220
   32MPD2    H7  509   2.829   0.583  14.773  0.9766  1.0574  1.3414
   33TMC2    C1  510   2.228   3.043   9.992  0.5968  0.5342 -0.2380
   33TMC2    C2  511   2.287   2.972   9.892  0.8642 -0.4591 -0.8861
   33TMC2    C3  512   2.372   3.032   9.799  0.2183 -0.0244 -0.2182
   33TMC2    C4  513   2.282   3.167  10.023  0.1171  0.5432 -0.2483
   33TMC2    C5  514   2.379   3.216   9.938 -0.2325 -0.6058  0.0177
   33TMC2    C6  515   2.419   3.157   9.820  0.0132  0.1476  0.5361
   33TMC2     C  516   2.101   3.001  10.047 -0.3712 -0.3669  0.9291
   33TMC2     O  517   2.088   2.878  10.041  0.1401  0.0045  0.6454
   33TMC2     H  518   2.242   2.874   9.877  1.2098 -0.5781 -1.1572
   33TMC2    H1  519   2.239   3.233  10.098 -1.0365  0.6328 -1.0001
   33TMC2    H2  520   2.499   3.201   9.761 -0.7936  1.2713  0.2827
   33TMC2    C7  521   2.411   3.358   9.954  0.4819  0.3426 -1.2159
   33TMC2    C8  522   2.474   2.957   9.725  0.4308 -0.0615 -0.0584
   33TMC2    O1  523   2.394   3.406  10.069 -0.3918  0.2989  0.3219
   33TMC2    O2  524   2.598   2.973   9.724 -0.3986  0.0005 -0.0080
   33TMC2    O5  525   2.415   2.844   9.692 -0.3619 -0.4728  0.0114
   33TMC2    H5  526   2.318   2.857   9.683 -0.3520 -0.5567 -0.2188
   34MPD2     C  527   1.703   3.144  10.337  0.1005 -0.4594  1.1037
   34MPD2    C1  528   1.751   3.014  10.314 -0.1237 -0.3589  0.1808
   34MPD2    C2  529   1.864   3.000  10.228 -0.9356  0.3829 -0.1591
   34MPD2    C3  530   1.908   3.113  10.170  0.7131 -0.5882 -0.3389
   34MPD2    C4  531   1.859   3.239  10.189  0.3645 -0.1956 -0.3909
   34MPD2    C5  532   1.762   3.256  10.282 -0.2182 -0.1686  0.7208
   34MPD2     H  533   1.901   2.901  10.205 -0.8790  0.3843 -0.0732
   34MPD2    H1  534   1.887   3.312  10.114  1.1461 -0.6255 -0.5176
   34MPD2    H2  535   1.614   3.155  10.398 -0.3447  1.9611  0.0266
   34MPD2    H3  536   1.722   3.356  10.296 -0.4035 -0.3659  1.5990
   34MPD2     N  537   2.021   3.108  10.083 -0.7531 -0.4153  0.2373
   34MPD2    H5  538   2.052   3.198  10.048 -0.8854 -0.0886  0.9466
   34MPD2    N1  539   1.672   2.904  10.372  0.3259 -0.1332  0.1300
   34MPD2    H7  540   1.604   2.938  10.439  0.4004 -0.8511  0.5768
   35TMC2    C1  541   3.079   4.190  11.773 -0.0605 -0.4031  0.1288
   35TMC2    C2  542   3.019   4.284  11.693  0.7178  0.4116 -0.7354
   35TMC2    C3  543   2.891   4.259  11.660  0.2663  0.2190 -0.8372
   35TMC2    C4  544   3.010   4.089  11.837  0.1779  0.2398  0.4498
   35TMC2    C5  545   2.879   4.070  11.803  0.4311  0.7967 -0.0725
   35TMC2    C6  546   2.821   4.148  11.701 -0.4024 -0.3037  0.7960
   35TMC2     C  547   3.190   4.241  11.853 -0.7478  0.5208 -0.2531
   35TMC2     O  548   3.223   4.356  11.836  0.0033 -0.1857  0.4287
   35TMC2     H  549   3.071   4.368  11.648  1.8976  1.2378  2.1814
   35TMC2    H1  550   3.053   4.046  11.927 -1.6216  2.2492  2.2846
   35TMC2    H2  551   2.723   4.129  11.660 -0.1167 -1.5938  0.7175
   35TMC2    C7  552   2.803   3.962  11.865 -0.3494  0.1163  0.1136
   35TMC2    C8  553   2.810   4.340  11.567  0.2151 -0.4074  0.0045
   35TMC2    O1  554   2.878   3.882  11.920 -0.2046  0.1138  0.4592
   35TMC2    O2  555   2.726   4.288  11.497 -0.1349 -0.1922  0.0055
   35TMC2    O5  556   2.859   4.460  11.557 -0.2231  0.1269  0.1132
   35TMC2    H5  557   2.924   4.479  11.627  0.9354  1.0101 -1.2062
   36MPD2     C  558   3.476   4.217  12.273  0.4000  0.2818  0.3667
   36MPD2    C1  559   3.512   4.113  12.190 -0.1520  0.3513  1.1269
   36MPD2    C2  560   3.438   4.079  12.081 -0.1585 -0.3162 -0.3537
   36MPD2    C3  561   3.339   4.168  12.035 -0.5646 -0.2188 -0.2014
   36MPD2    C4  562   3.317   4.289  12.102 -0.2075  0.6710 -0.4920
   36MPD2    C5  563   3.385   4.306  12.224 -0.8781  0.1906  0.5898
   36MPD2     H  564   3.449   3.991  12.018  0.9896 -0.8252  0.5537
   36MPD2    H1  565   3.250   4.367  12.068 -2.4010 -0.5937  0.8877
   36MPD2    H2  566   3.526   4.252  12.362  0.2784 -1.2235  1.0172
   36MPD2    H3  567   3.367   4.397  12.279  2.1657  0.9816  0.2728
   36MPD2     N  568   3.266   4.145  11.915  0.7788  0.5002 -0.5203
   36MPD2    H5  569   3.246   4.047  11.898  1.2722  0.5745 -1.5465
   36MPD2    N1  570   3.619   4.030  12.235 -0.2782 -0.3467  0.6514
   36MPD2    H7  571   3.666   4.066  12.318  3.5613 -0.9216 -1.2763
   37TMC2    C1  572   0.816   4.097  12.134 -0.1657 -0.5034 -0.2783
   37TMC2    C2  573   0.714   4.042  12.070 -0.0836 -0.5099 -0.0899
   37TMC2    C3  574   0.743   3.940  11.985 -0.3919 -0.0358 -0.2052
   37TMC2    C4  575   0.954   4.061  12.111  0.2171  0.2597  0.0641
   37TMC2    C5  576   0.974   3.956  12.026  0.5831  0.6455 -0.1786
   37TMC2    C6  577   0.874   3.890  11.963  0.2104  0.3129 -0.7062
   37TMC2     C  578   0.790   4.183  12.245  0.0772  0.0952 -0.1784
   37TMC2     O  579   0.687   4.251  12.250 -0.0978  0.1517 -0.6209
   37TMC2     H  580   0.609   4.064  12.084  0.2394  0.1729  1.2667
   37TMC2    H1  581   1.033   4.106  12.170  0.0816  0.0524  0.4004
   37TMC2    H2  582   0.906   3.807  11.900  1.2397  0.3071 -0.1690
   37TMC2    C7  583   1.113   3.911  12.001 -0.4448  0.8869 -0.2144
   37TMC2    C8  584   0.632   3.852  11.948 -0.2958  0.0631  0.6051
   37TMC2    O1  585   1.193   3.918  12.096 -0.2722  0.1950 -0.4017
   37TMC2    O2  586   0.550   3.820  12.031 -0.1417 -0.3625 -0.3993
   37TMC2    O5  587   0.685   3.770  11.856 -0.0108 -0.2835  0.4509
   37TMC2    H5  588   0.759   3.807  11.803  0.1497  0.0789  0.9334
   38MPD2     C  589   0.875   4.309  12.731  1.2194  0.2196  0.3895
   38MPD2    C1  590   0.981   4.234  12.695 -0.7112  0.0117  0.1277
   38MPD2    C2  591   0.977   4.172  12.569  0.3323 -0.1008  0.2905
   38MPD2    C3  592   0.879   4.211  12.481  0.4868  0.3362 -0.2347
   38MPD2    C4  593   0.768   4.285  12.528  0.5212 -0.5682  0.1431
   38MPD2    C5  594   0.767   4.326  12.650 -0.3193  0.1019 -0.5414
   38MPD2     H  595   1.066   4.116  12.542  0.7419  0.0036  1.4257
   38MPD2    H1  596   0.678   4.308  12.473  0.1943 -1.5891  0.2360
   38MPD2    H2  597   0.881   4.366  12.823 -0.4190 -0.6258  1.0182
   38MPD2    H3  598   0.684   4.384  12.688 -1.1012 -1.1228 -0.4003
   38MPD2     N  599   0.884   4.161  12.346  1.2381  0.7893 -0.0225
   38MPD2    H5  600   0.959   4.094  12.332  0.9574  0.7823 -1.5240
   38MPD2    N1  601   1.103   4.218  12.766 -0.0905  0.0759  0.4593
   38MPD2    H7  602   1.177   4.178  12.709  0.1099 -2.3391  2.3976
   39TMC2    C1  603   0.050   2.282   1.462  0.2551 -0.0576  0.3694
   39TMC2    C2  604   0.057   2.414   1.501  0.1736 -0.4435 -0.6567
   39TMC2    C3  605   0.184   2.464   1.535  0.4735  0.4360 -0.2161
   39TMC2    C4  606   0.165   2.208   1.443 -0.5659 -0.1424  0.0891
   39TMC2    C5  607   0.286   2.256   1.484 -0.6410  0.3309 -0.6354
   39TMC2    C6  608   0.298   2.385   1.530 -0.0842 -0.1146 -0.5771
   39TMC2     C  609   4.658   2.216   1.461  0.6912  0.1446 -0.1759
   39TMC2     O  610   4.565   2.296   1.471  0.2401 -0.4921  0.4092
   39TMC2     H  611   4.703   2.474   1.512  1.3090  0.8535  1.7646
   39TMC2    H1  612   0.156   2.107   1.405  0.4670 -0.1081 -0.2490
   39TMC2    H2  613   0.397   2.424   1.551  0.3444 -2.3541  1.4952
   39TMC2    C7  614   0.376   2.161   1.530 -0.0139 -0.7404 -0.6519
   39TMC2    C8  615   0.186   2.596   1.597  0.0784  0.8098  0.3598
   39TMC2    O1  616   0.346   2.046   1.517  0.0403 -0.2078  0.4245
   39TMC2    O2  617   0.291   2.642   1.645  0.3542  0.2438  0.4201
   39TMC2    O5  618   0.094   2.665   1.524  0.9321  0.5302  0.0270
   39TMC2    H5  619   0.044   2.602   1.468  1.0352  0.5124 -0.0443
   40MPD2     C  620   4.573   1.860   1.438  0.4163 -0.1428 -0.3452
   40MPD2    C1  621   4.552   1.992   1.423 -0.1139 -0.0111 -0.0074
   40MPD2    C2  622   4.425   2.038   1.377 -0.9863  0.0039 -0.5983
   40MPD2    C3  623   4.333   1.949   1.329  0.1826  0.3041 -0.5334
   40MPD2    C4  624   4.355   1.815   1.350 -0.4856  0.1074 -0.1349
   40MPD2    C5  625   4.476   1.772   1.401 -0.0332 -0.2325 -0.2765
   40MPD2     H  626   4.411   2.142   1.353 -2.6299  0.0717  0.6072
   40MPD2    H1  627   4.296   1.742   1.295 -2.9485  0.9167  1.4752
   40MPD2    H2  628   4.664   1.811   1.470 -1.1241 -1.6636  1.7077
   40MPD2    H3  629   4.491   1.666   1.413 -0.4236 -0.1673  0.8128
   40MPD2     N  630   4.212   1.987   1.274 -0.5259  0.2699  0.2846
   40MPD2    H5  631   4.150   1.914   1.240 -1.6979  1.6580 -0.5753
   40MPD2    N1  632   4.664   2.079   1.454  0.2304  0.5209 -0.5963
   40MPD2    H7  633   0.012   2.030   1.481  0.0025  0.6041  0.2747
   41TMC2    C1  634   3.251   4.457  13.798  0.5673 -0.1585  0.3778
   41TMC2    C2  635   3.355   4.481  13.882 -0.2875  0.2288 -0.2263
   41TMC2    C3  636   3.453   4.567  13.843 -0.1732 -0.6227 -0.0550
   41TMC2    C4  637   3.243   4.504  13.666 -0.0420  0.0183  0.1354
   41TMC2    C5  638   3.338   4.598  13.635 -0.3872  0.3831  0.1872
   41TMC2    C6  639   3.443   4.627  13.716 -0.1944  0.7351 -0.3351
   41TMC2     C  640   3.127   4.400  13.849  0.2627 -0.6165  0.2585
   41TMC2     O  641   3.068   4.322  13.777  0.2077  0.6916  0.0926
   41TMC2     H  642   3.366   4.424  13.974  0.6538  1.9877  0.7391
   41TMC2    H1  643   3.151   4.481  13.612  0.5454  0.2129 -0.9413
   41TMC2    H2  644   3.524   4.693  13.685 -0.1787  1.3530  1.0401
   41TMC2    C7  645   3.348   4.651  13.500 -0.8102 -0.6441 -0.4289
   41TMC2    C8  646   3.584   4.563  13.907  0.0051 -0.0254 -0.3474
   41TMC2    O1  647   3.398   0.024  13.477 -0.5871 -0.3423  0.6427
   41TMC2    O2  648   3.628   4.467  13.971  0.0562  0.2644 -0.1352
   41TMC2    O5  649   3.608   4.689  13.932  0.5713  0.0873 -0.7366
   41TMC2    H5  650   3.545   0.015  13.892 -0.5769  0.6420  1.9208
   42MPD2     C  651   2.925   4.281  14.028 -0.2333  0.2429  0.3319
   42MPD2    C1  652   3.014   4.378  14.071  0.1802 -0.2646 -0.4975
   42MPD2    C2  653   3.005   4.441  14.195  1.0938  0.4907 -0.2566
   42MPD2    C3  654   2.907   4.396  14.282 -0.0055  0.3771 -0.2848
   42MPD2    C4  655   2.833   4.281  14.247 -0.6439 -0.3440  1.0026
   42MPD2    C5  656   2.846   4.227  14.127  0.7302  0.5552  0.4680
   42MPD2     H  657   3.077   4.521  14.209  1.6830  0.0538 -0.7451
   42MPD2    H1  658   2.781   4.228  14.325  1.3186  0.3306  2.7734
   42MPD2    H2  659   2.926   4.219  13.939 -2.7367 -0.9371  1.1083
   42MPD2    H3  660   2.787   4.138  14.112  0.3963  0.8207  0.2325
   42MPD2     N  661   2.895   4.450  14.408  0.1288  0.0104  0.2087
   42MPD2    H5  662   2.831   4.408  14.475  2.0135 -1.6280  1.0205
   42MPD2    N1  663   3.114   4.430  13.986  0.3466 -0.2056  0.4382
   42MPD2    H7  664   3.173   4.506  14.019  0.1084  0.1449  0.0633
   43TMC2    C1  665   0.633   3.124   0.611 -0.3897 -0.1737  0.4825
   43TMC2    C2  666   0.622   3.083   0.739  0.1494  0.2047  0.2093
   43TMC2    C3  667   0.572   3.171   0.826 -0.1884 -0.0008 -0.5554
   43TMC2    C4  668   0.605   3.247   0.560  0.5662 -0.1975 -0.4976
   43TMC2    C5  669   0.537   3.326   0.651  0.1229  0.6342 -0.5573
   43TMC2    C6  670   0.520   3.288   0.782 -0.3105 -0.3668  0.8779
   43TMC2     C  671   0.655   3.022   0.517  0.4181 -0.2912  0.3541
   43TMC2     O  672   0.725   2.932   0.560  0.6422 -0.8194  0.6525
   43TMC2     H  673   0.641   2.981   0.770  2.8873  0.7337  0.3420
   43TMC2    H1  674   0.631   3.286   0.463  0.2279  1.1079 -0.0629
   43TMC2    H2  675   0.462   3.349   0.850 -1.0895  0.7484 -0.7938
   43TMC2    C7  676   0.521   3.471   0.605 -0.1229 -0.2673  0.0054
   43TMC2    C8  677   0.552   3.137   0.966 -0.0368  0.6484  0.0434
   43TMC2    O1  678   0.532   3.485   0.482  0.4771  1.1145  0.4387
   43TMC2    O2  679   0.556   3.023   1.012 -0.7043  0.3938 -0.2285
   43TMC2    O5  680   0.596   3.253   1.037 -0.2904 -0.7051  0.1009
   43TMC2    H5  681   0.605   3.334   0.983  2.5575 -0.1366  1.4293
   44MPD2     C  682   0.571   2.810   0.051 -0.0906 -0.3026 -0.6176
   44MPD2    C1  683   0.655   2.765   0.153  0.3500 -0.0739  0.1055
   44MPD2    C2  684   0.656   2.832   0.278 -0.2639 -0.3882  0.8312
   44MPD2    C3  685   0.585   2.955   0.288  0.4752 -0.1462 -0.2962
   44MPD2    C4  686   0.510   3.000   0.183  0.0087  0.4936  0.1043
   44MPD2    C5  687   0.505   2.931   0.066 -0.0765 -0.5139  0.0885
   44MPD2     H  688   0.716   2.794   0.360  0.8004 -0.7764 -0.1336
   44MPD2    H1  689   0.454   3.093   0.182  1.2963  1.2796  0.7341
   44MPD2    H2  690   0.578   2.771  17.694 -1.4366  0.4827 -1.0133
   44MPD2    H3  691   0.446   2.972  17.728 -0.1102 -1.6912 -0.4765
   44MPD2     N  692   0.583   3.036   0.402 -0.3069 -0.0052 -0.0361
   44MPD2    H5  693   0.528   3.120   0.390  0.9460  1.0182  1.4233
   44MPD2    N1  694   0.740   2.653   0.138  0.4867  0.4166 -0.1714
   44MPD2    H7  695   0.799   2.628   0.217 -2.2282  1.6148  2.2241
   45TMC2    C1  696   0.643   4.615   9.753 -0.1909  0.6027 -0.3266
   45TMC2    C2  697   0.716   4.552   9.650  0.2166 -0.4771 -0.2866
   45TMC2    C3  698   0.824   4.622   9.600  0.4700 -0.6050 -0.0180
   45TMC2    C4  699   0.683   4.734   9.805 -0.6332 -0.2225  0.2255
   45TMC2    C5  700   0.799   0.053   9.752  0.0882 -0.1082  0.4326
   45TMC2    C6  701   0.876   4.732   9.656  0.2778 -0.4074 -0.1259
   45TMC2     C  702   0.553   4.532   9.819 -0.4709  0.1580  0.0604
   45TMC2     O  703   0.564   4.412   9.808  0.4619 -0.3168 -0.0779
   45TMC2     H  704   0.670   4.468   9.600  2.3519 -1.8336  0.0328
   45TMC2    H1  705   0.651   0.038   9.900  0.6743  0.0360  0.5581
   45TMC2    H2  706   0.960   0.040   9.604 -1.1366  1.5579 -0.7211
   45TMC2    C7  707   0.838   0.183   9.816 -0.1917  0.3479  0.1074
   45TMC2    C8  708   0.868   4.609   9.461  0.2947  0.0678 -0.6208
   45TMC2    O1  709   0.750   0.241   9.879  0.1997 -0.4580 -0.3425
   45TMC2    O2  710   0.903   4.707   9.396 -0.2557  0.0139  0.5183
   45TMC2    O5  711   0.812   4.499   9.405  0.3555 -0.0890  0.8198
   45TMC2    H5  712   0.805   4.427   9.472  1.3701 -1.3026 -0.3833
   46MPD2     C  713   0.308   4.437   9.984 -0.1760  0.3614  0.1472
   46MPD2    C1  714   0.326   4.560   9.918 -0.0569  0.5166 -0.7268
   46MPD2    C2  715   0.221   4.642   9.894 -0.1551 -0.0612  0.1153
   46MPD2    C3  716   0.094   4.594   9.916 -0.7813  0.2554  0.6219
   46MPD2    C4  717   0.079   4.484   9.997 -1.1208 -0.4881  0.1350
   46MPD2    C5  718   0.181   4.406  10.027  0.5050  0.2251 -0.4060
   46MPD2     H  719   0.234   4.728   9.829 -3.3097  0.7715  0.5750
   46MPD2    H1  720   4.714   4.455  10.025 -0.6360 -1.5145  0.8112
   46MPD2    H2  721   0.380   4.360  10.008 -1.7170 -0.8216  0.9575
   46MPD2    H3  722   0.154   4.313  10.076  0.7610  0.4835  0.2226
   46MPD2     N  723   4.726   4.683   9.880 -0.6323 -0.3899 -0.5403
   46MPD2    H5  724   0.014   0.021   9.815 -1.7427  1.0109  0.6593
   46MPD2    N1  725   0.453   4.610   9.866  0.5990 -0.0249 -0.5668
   46MPD2    H7  726   0.455   4.709   9.845  1.5293 -0.2048 -1.3658
   47TMC2    C1  727   2.836   1.229  10.026  0.0447 -0.4224 -0.4203
   47TMC2    C2  728   2.947   1.201   9.943 -0.1909  0.1381  0.1473
   47TMC2    C3  729   2.944   1.262   9.823 -0.7325  0.2443 -0.9194
   47TMC2    C4  730   2.739   1.318   9.991  0.1587 -0.2411 -0.0197
   47TMC2    C5  731   2.742   1.372   9.863  0.2593 -0.7477 -0.3409
   47TMC2    C6  732   2.843   1.344   9.776  0.5835  0.5213  0.0397
   47TMC2     C  733   2.817   1.148  10.146  0.4304 -0.3430  0.5629
   47TMC2     O  734   2.719   1.170  10.215 -0.1784 -0.4495  0.0484
   47TMC2     H  735   3.039   1.149   9.970  1.3715  2.7888 -0.0631
   47TMC2    H1  736   2.658   1.339  10.059 -0.1076  2.1301 -1.0344
   47TMC2    H2  737   2.842   1.377   9.672  0.4256 -0.9070 -0.4048
   47TMC2    C7  738   2.615   1.430   9.825 -0.0606  0.3114  0.6848
   47TMC2    C8  739   3.075   1.253   9.752  0.1111 -0.0447 -0.5199
   47TMC2    O1  740   2.523   1.440   9.906 -0.0855  0.7657 -0.0651
   47TMC2    O2  741   3.130   1.145   9.743  0.5167  0.3400  0.7313
   47TMC2    O5  742   3.130   1.375   9.752 -1.3635 -0.4361  0.0581
   47TMC2    H5  743   3.067   1.438   9.793 -1.4702  0.1624 -1.0240
   48MPD2     C  744   2.901   1.025  10.391  0.1407 -0.6315 -1.0487
   48MPD2    C1  745   2.933   0.973  10.267 -0.2814 -0.1940 -0.7676
   48MPD2    C2  746   3.013   0.862  10.264 -0.1478  1.2234 -0.8564
   48MPD2    C3  747   3.055   0.800  10.372 -0.3163 -0.1963  0.5370
   48MPD2    C4  748   3.029   0.863  10.498 -0.5321  0.3443  0.2386
   48MPD2    C5  749   2.959   0.977  10.503  0.2948  0.1888  0.1705
   48MPD2     H  750   3.042   0.824  10.166  2.6212 -1.4099  1.0026
   48MPD2    H1  751   3.075   0.839  10.593  0.0861 -0.9149 -0.3834
   48MPD2    H2  752   2.852   1.121  10.402  0.9684 -0.3659  0.2252
   48MPD2    H3  753   2.941   1.024  10.599 -0.5871  0.5131 -0.1521
   48MPD2     N  754   3.114   0.675  10.353 -0.6080 -0.0062  0.5888
   48MPD2    H5  755   3.117   0.644  10.257  2.4012  1.9784  0.0455
   48MPD2    N1  756   2.905   1.044  10.149 -0.3229  0.6514 -0.3764
   48MPD2    H7  757   2.940   1.015  10.058 -0.1779  2.7580 -0.9836
   49TMC2    C1  758   1.216   2.768  10.011 -0.2900 -0.0814 -0.1910
   49TMC2    C2  759   1.266   2.769   9.886 -0.6308  0.4476 -0.4576
   49TMC2    C3  760   1.224   2.664   9.803  0.6321 -0.6284  0.5791
   49TMC2    C4  761   1.119   2.683  10.053  0.0889 -0.8231 -0.6709
   49TMC2    C5  762   1.075   2.587   9.965 -0.6315  0.1878 -0.4081
   49TMC2    C6  763   1.129   2.573   9.842 -0.0451 -0.5835 -0.6507
   49TMC2     C  764   1.275   2.877  10.088  0.1807 -0.8980  0.1643
   49TMC2     O  765   1.356   2.953  10.035 -0.0822 -0.6577 -0.0741
   49TMC2     H  766   1.322   2.854   9.849  0.9726 -0.7593 -0.8298
   49TMC2    H1  767   1.061   2.712  10.140 -2.4135 -0.6551 -2.3846
   49TMC2    H2  768   1.099   2.498   9.769  0.8008 -0.9590 -0.6026
   49TMC2    C7  769   0.990   2.480  10.010 -1.0888 -0.6328  0.5393
   49TMC2    C8  770   1.303   2.630   9.682  0.3400  0.3989 -0.1360
   49TMC2    O1  771   0.939   2.407   9.926  0.7963  0.8294  0.9571
   49TMC2    O2  772   1.283   2.541   9.603 -1.0194  0.5549 -0.2722
   49TMC2    O5  773   1.428   2.673   9.709 -0.4624 -0.2713  0.4727
   49TMC2    H5  774   1.445   2.697   9.802  2.0971  0.9755 -0.3288
   50MPD2     C  775   1.321   3.081  10.297  0.8374  0.7360  0.3790
   50MPD2    C1  776   1.281   2.955  10.327 -0.1949 -0.5017 -0.3739
   50MPD2    C2  777   1.268   2.921  10.461  0.0746 -0.2348  0.0234
   50MPD2    C3  778   1.302   3.012  10.557 -0.3987 -0.2862 -0.1322
   50MPD2    C4  779   1.345   3.139  10.520  0.7849  0.4640 -0.3939
   50MPD2    C5  780   1.349   3.175  10.391  0.3102  0.3729 -0.1510
   50MPD2     H  781   1.247   2.820  10.494 -0.4318 -0.3223 -0.5749
   50MPD2    H1  782   1.355   3.214  10.598 -1.0433 -1.5208  1.7590
   50MPD2    H2  783   1.332   3.109  10.192  2.1964 -1.6223 -0.1136
   50MPD2    H3  784   1.392   3.269  10.358 -1.5739  0.0648 -3.4657
   50MPD2     N  785   1.295   2.984  10.697 -0.0167  0.4278 -0.1548
   50MPD2    H5  786   1.345   3.049  10.757 -2.7750  1.7142  0.7908
   50MPD2    N1  787   1.254   2.860  10.226  0.8436 -0.5794  0.2237
   50MPD2    H7  788   1.209   2.776  10.260  0.4951 -0.4988 -0.0343
   51TMC2    C1  789   1.409   2.028   1.160  0.2550 -0.3829 -0.5686
   51TMC2    C2  790   1.382   2.107   1.056  0.1732  0.8067 -0.3073
   51TMC2    C3  791   1.486   2.174   0.994 -0.4366 -0.4291 -0.2881
   51TMC2    C4  792   1.538   2.005   1.194 -0.0687  0.1557  0.2923
   51TMC2    C5  793   1.637   2.070   1.124 -0.6603  0.3954  0.5288
   51TMC2    C6  794   1.614   2.171   1.038 -0.3361  0.5302  0.3960
   51TMC2     C  795   1.306   1.938   1.218 -0.7270 -0.1383 -0.9574
   51TMC2     O  796   1.330   1.844   1.289 -0.6942 -0.0999  0.4162
   51TMC2     H  797   1.279   2.111   1.022 -0.6764  1.1442  2.3057
   51TMC2    H1  798   1.551   1.922   1.263  0.0335  0.3621  0.5207
   51TMC2    H2  799   1.688   2.235   0.990  0.6187 -1.5332 -0.8697
   51TMC2    C7  800   1.776   2.050   1.151  0.2614  0.0684  0.1531
   51TMC2    C8  801   1.468   2.243   0.874  0.2718  0.0314  0.6701
   51TMC2    O1  802   1.853   2.140   1.126  0.4648 -0.2152 -0.1657
   51TMC2    O2  803   1.548   2.334   0.839  0.3242  0.3944 -0.3406
   51TMC2    O5  804   1.372   2.184   0.798 -0.2208  0.0206  0.1657
   51TMC2    H5  805   1.358   2.091   0.827 -0.5148  0.1193  0.3414
   52MPD2     C  806   0.814   1.848   1.325  0.3303  0.6661  0.2242
   52MPD2    C1  807   0.911   1.752   1.296  0.2914 -0.3093 -0.0069
   52MPD2    C2  808   1.037   1.801   1.257  0.2561  0.0487  0.3630
   52MPD2    C3  809   1.055   1.940   1.252 -0.2487  0.2914 -0.1625
   52MPD2    C4  810   0.945   2.025   1.253 -0.4154  0.6462  0.6426
   52MPD2    C5  811   0.828   1.974   1.288  0.1970 -0.1303  0.4882
   52MPD2     H  812   1.112   1.730   1.223 -1.8977 -0.9533 -2.2751
   52MPD2    H1  813   0.951   2.129   1.225  0.4573  1.4480  3.8585
   52MPD2    H2  814   0.715   1.818   1.358 -0.7944  0.9034 -2.9039
   52MPD2    H3  815   0.739   2.031   1.311  0.1560 -0.3459  0.8534
   52MPD2     N  816   1.178   1.999   1.208 -0.0931  0.0446 -0.5510
   52MPD2    H5  817   1.186   2.099   1.196 -1.8187  0.2213 -0.2224
   52MPD2    N1  818   0.894   1.614   1.316 -0.0305  0.0025  0.0850
   52MPD2    H7  819   0.973   1.551   1.306 -0.0059  0.2772 -1.3835
   53TMC2    C1  820   1.849   3.914  11.916 -0.3705  0.0065 -0.6130
   53TMC2    C2  821   1.945   3.999  11.869  0.3783 -0.6316  0.0863
   53TMC2    C3  822   1.967   4.107  11.949  0.2053 -0.5664  0.5954
   53TMC2    C4  823   1.796   3.918  12.046  0.5236  0.5756  0.2456
   53TMC2    C5  824   1.826   4.024  12.119  0.1283 -0.1135  0.3626
   53TMC2    C6  825   1.906   4.122  12.077 -0.4597  0.3673 -0.3442
   53TMC2     C  826   1.752   3.859  11.821  0.0261  0.3966  0.8610
   53TMC2     O  827   1.784   3.852  11.703  0.0694 -0.2478 -0.1623
   53TMC2     H  828   1.981   3.995  11.767 -0.8166  0.7673 -0.3967
   53TMC2    H1  829   1.742   3.833  12.084  1.7980 -0.3967 -0.1194
   53TMC2    H2  830   1.926   4.214  12.130 -1.9428 -1.3165  3.1849
   53TMC2    C7  831   1.717   4.072  12.203 -0.3351  0.2118  0.5444
   53TMC2    C8  832   2.094   4.168  11.945  0.1586 -0.1004  0.2784
   53TMC2    O1  833   1.608   4.028  12.164  0.1120 -0.7802 -0.2060
   53TMC2    O2  834   2.112   4.261  12.019 -0.2329  0.2414  0.3188
   53TMC2    O5  835   2.179   4.079  11.879 -1.0342  0.0273 -0.5410
   53TMC2    H5  836   2.132   4.017  11.820  2.0218 -3.5023  0.7323
   54MPD2     C  837   1.497   3.789  11.683 -0.0147  0.1992  0.5549
   54MPD2    C1  838   1.503   3.833  11.813  0.2404 -0.0642 -0.2690
   54MPD2    C2  839   1.378   3.858  11.880  0.0526 -0.3046  0.6095
   54MPD2    C3  840   1.258   3.840  11.815  0.4671  0.2738 -0.2329
   54MPD2    C4  841   1.261   3.786  11.694 -0.0420  0.8519 -0.2273
   54MPD2    C5  842   1.380   3.756  11.626  0.3814  0.2755  0.3722
   54MPD2     H  843   1.387   3.871  11.987 -0.5767 -0.5900  0.6955
   54MPD2    H1  844   1.164   3.776  11.646  0.0931  0.9602 -0.5230
   54MPD2    H2  845   1.589   3.777  11.627 -0.9451  0.9355 -1.1698
   54MPD2    H3  846   1.380   3.714  11.526 -1.7947  2.8329 -0.7098
   54MPD2     N  847   1.130   3.867  11.870 -0.2516  0.0402 -0.5849
   54MPD2    H5  848   1.050   3.848  11.810  0.4975 -0.1427 -1.5363
   54MPD2    N1  849   1.625   3.850  11.880  0.5717 -1.0124 -0.1332
   54MPD2    H7  850   1.614   3.884  11.975 -1.0801 -2.3140  0.1327
   55TMC2    C1  851   2.963   2.498  17.319 -0.6312  0.3700 -0.5416
   55TMC2    C2  852   2.957   2.535  17.187 -0.1558  0.0415 -0.5518
   55TMC2    C3  853   2.974   2.437  17.092  0.3464 -0.4457 -0.2272
   55TMC2    C4  854   2.982   2.367  17.356 -0.5352  0.2522 -0.4943
   55TMC2    C5  855   2.981   2.274  17.258 -0.0096 -0.3757  0.7554
   55TMC2    C6  856   2.992   2.302  17.125  0.3370 -0.2206 -0.3249
   55TMC2     C  857   2.889   2.569  17.418  0.3679  0.3387 -0.2240
   55TMC2     O  858   2.854   2.496  17.513 -0.0514  0.1998  0.2173
   55TMC2     H  859   2.929   2.636  17.160 -0.3587 -0.0072 -0.5231
   55TMC2    H1  860   3.001   2.350  17.461 -1.0658 -0.5304 -0.5246
   55TMC2    H2  861   3.015   2.227  17.051  0.5284 -0.7308  0.2504
   55TMC2    C7  862   2.959   2.135  17.285 -0.5670 -0.2121 -0.3367
   55TMC2    C8  863   3.010   2.486  16.955  0.0747 -0.4705  0.1337
   55TMC2    O1  864   2.990   2.055  17.194 -0.3698 -0.2504  0.0415
   55TMC2    O2  865   3.068   2.590  16.943  0.4852  0.0397  0.2880
   55TMC2    O5  866   2.976   2.392  16.864 -0.6607 -0.0364 -0.1557
   55TMC2    H5  867   2.921   2.321  16.903  1.0529  0.4492  3.1403
   56MPD2     C  868   2.822   2.929  17.450  0.1445 -0.0599  0.3097
   56MPD2    C1  869   2.806   2.795  17.480  0.1722  0.3706 -0.2792
   56MPD2    C2  870   2.702   2.757  17.557 -0.4177  0.4402 -0.3215
   56MPD2    C3  871   2.603   2.840  17.598 -0.0852  0.2395 -0.0705
   56MPD2    C4  872   2.620   2.973  17.569  0.2988  0.0209 -0.2916
   56MPD2    C5  873   2.733   3.016  17.505 -0.2986 -0.1978 -0.3536
   56MPD2     H  874   2.697   2.654  17.591  0.6652  1.0751  1.7538
   56MPD2    H1  875   2.554   3.057  17.585  1.0610  0.7035 -0.7480
   56MPD2    H2  876   2.904   2.964  17.387 -0.4564 -1.0621 -1.0281
   56MPD2    H3  877   2.743   3.123  17.488  0.8109 -0.0745  1.1174
   56MPD2     N  878   2.490   2.791  17.667 -0.2521  0.3485 -0.5778
   56MPD2    H5  879   2.479   2.693  17.693 -0.5994  1.3945  3.1704
   56MPD2    N1  880   2.882   2.704  17.404 -0.3992 -0.0920 -0.1531
   56MPD2    H7  881   2.946   2.748  17.339 -1.7484  1.8435 -0.1644
   57TMC2    C1  882   2.153   3.269  13.518  0.1859 -0.1051  0.2917
   57TMC2    C2  883   2.118   3.138  13.527 -0.1091 -0.0480 -0.2498
   57TMC2    C3  884   2.208   3.053  13.467 -0.7456 -0.6045  0.7802
   57TMC2    C4  885   2.245   3.316  13.435 -0.2332  0.3136 -0.0663
   57TMC2    C5  886   2.314   3.228  13.358 -0.6547 -0.5264  0.7496
   57TMC2    C6  887   2.299   3.093  13.378  0.4206  0.0756  1.0910
   57TMC2     C  888   2.066   3.366  13.582 -0.7310  0.3969 -0.3067
   57TMC2     O  889   1.947   3.343  13.589  0.3943  0.0696 -0.2699
   57TMC2     H  890   2.045   3.105  13.600  1.5717  1.4133  2.0599
   57TMC2    H1  891   2.259   3.422  13.414  2.3587 -0.5236 -2.5600
   57TMC2    H2  892   2.351   3.015  13.324 -0.4527  1.7994 -2.2685
   57TMC2    C7  893   2.389   3.276  13.242  0.9596  0.3724 -0.6652
   57TMC2    C8  894   2.172   2.910  13.480  0.0463 -0.1826 -0.2869
   57TMC2    O1  895   2.456   3.377  13.255 -0.2881  0.2146  0.2077
   57TMC2    O2  896   2.062   2.858  13.487  0.5390 -0.2779 -0.3142
   57TMC2    O5  897   2.296   2.851  13.504  0.2419  0.3134 -0.8234
   57TMC2    H5  898   2.367   2.915  13.521 -0.0522  0.5056 -0.3264
   58MPD2     C  899   1.960   3.750  13.910  0.3505  0.5418 -0.6507
   58MPD2    C1  900   1.879   3.702  13.812 -0.2760 -0.3845 -0.1878
   58MPD2    C2  901   1.930   3.606  13.727  0.2380  0.0166  0.2712
   58MPD2    C3  902   2.065   3.555  13.739 -0.4923  0.3250  0.5305
   58MPD2    C4  903   2.136   3.609  13.839  0.0620 -0.0047  0.3001
   58MPD2    C5  904   2.086   3.702  13.918  0.1574 -0.7999 -0.5327
   58MPD2     H  905   1.856   3.564  13.659  2.2622 -1.8773 -0.7636
   58MPD2    H1  906   2.237   3.575  13.856 -0.2039 -0.4095  1.0408
   58MPD2    H2  907   1.930   3.836  13.970  1.2600  1.7752 -1.9623
   58MPD2    H3  908   2.149   3.738  13.999 -0.7941  1.8956 -0.9861
   58MPD2     N  909   2.130   3.457  13.656  0.4827  0.1926 -0.5946
   58MPD2    H5  910   2.230   3.443  13.661  0.4331  0.1766  0.3881
   58MPD2    N1  911   1.755   3.769  13.787 -0.4346  0.2458  1.1462
   58MPD2    H7  912   1.708   3.742  13.702  2.3525  1.1064 -0.6645
   59TMC2    C1  913   4.240   3.213  13.096  0.0092 -0.0007  0.2188
   59TMC2    C2  914   4.341   3.122  13.114 -0.1554  0.0105 -0.3693
   59TMC2    C3  915   4.355   3.032  13.013 -0.0576  0.4448  0.1660
   59TMC2    C4  916   4.157   3.209  12.990  0.1851  0.2486  0.4637
   59TMC2    C5  917   4.181   3.120  12.885  0.0249  0.3251 -0.2951
   59TMC2    C6  918   4.278   3.029  12.902 -0.2258 -0.1679  0.5265
   59TMC2     C  919   4.221   3.321  13.195 -0.0372 -0.0764  0.0155
   59TMC2     O  920   4.115   3.373  13.197 -0.3116 -0.5402 -0.2356
   59TMC2     H  921   4.421   3.129  13.188 -1.5394  0.5590  1.0780
   59TMC2    H1  922   4.084   3.289  12.982 -0.6384 -0.6648 -1.4084
   59TMC2    H2  923   4.287   2.950  12.828  2.7527  0.4939  0.1630
   59TMC2    C7  924   4.092   3.118  12.772  0.6846  0.0824  0.2181
   59TMC2    C8  925   4.448   2.925  13.039 -0.7038 -0.2329  0.5859
   59TMC2    O1  926   4.058   3.002  12.743 -0.8477  0.5782  0.2593
   59TMC2    O2  927   4.507   2.858  12.954 -0.0351 -0.5150 -0.1020
   59TMC2    O5  928   4.400   2.878  13.153 -0.4793  0.0330 -0.2321
   59TMC2    H5  929   4.362   2.951  13.206  0.9399  1.5625 -1.3167
   60MPD2     C  930   4.258   3.562  13.351  0.5012 -0.1973 -0.0652
   60MPD2    C1  931   4.362   3.484  13.306 -0.6137 -0.4222  0.0400
   60MPD2    C2  932   4.498   3.521  13.338  0.1101  0.2160  0.4370
   60MPD2    C3  933   4.521   3.633  13.411 -0.0894  0.5268  0.1055
   60MPD2    C4  934   4.418   3.717  13.441 -0.0539  0.4425 -0.2051
   60MPD2    C5  935   4.286   3.681  13.408  0.0434 -0.6987 -0.2280
   60MPD2     H  936   4.582   3.459  13.308  1.7640  2.3371  0.7196
   60MPD2    H1  937   4.438   3.816  13.480 -0.1717  0.9199 -1.3744
   60MPD2    H2  938   4.151   3.548  13.338  0.5373  0.9899 -1.5892
   60MPD2    H3  939   4.208   3.752  13.434  1.5355  0.4966  1.0262
   60MPD2     N  940   4.659   3.666  13.439 -0.0940  0.2919 -0.3767
   60MPD2    H5  941   4.733   3.605  13.405  1.6936  2.3760 -0.1969
   60MPD2    N1  942   4.336   3.359  13.246 -0.1347 -0.5387  0.0016
   60MPD2    H7  943   4.415   3.308  13.209 -1.5539 -2.4923 -0.3003
   61TMC2    C1  944   3.704   0.266  15.905 -0.0970 -0.6535  0.2862
   61TMC2    C2  945   3.662   0.222  16.029 -0.3333  0.9155 -0.9520
   61TMC2    C3  946   3.561   0.300  16.088 -0.0403  0.3836 -0.4933
   61TMC2    C4  947   3.643   0.367  15.837 -0.3610 -0.5152  0.3189
   61TMC2    C5  948   3.545   0.437  15.898 -0.3047 -0.2520  1.2404
   61TMC2    C6  949   3.497   0.396  16.018 -0.0538 -0.2171  0.6327
   61TMC2     C  950   3.818   0.200  15.842  0.0650  0.8667  0.7842
   61TMC2     O  951   3.888   0.136  15.922 -0.0256 -0.1863 -0.1525
   61TMC2     H  952   3.717   0.143  16.078 -1.9832  1.2553  1.4533
   61TMC2    H1  953   3.680   0.398  15.740 -0.0930 -1.0512  0.2483
   61TMC2    H2  954   3.410   0.446  16.060 -2.1692 -2.2278 -1.3268
   61TMC2    C7  955   3.545   0.573  15.864 -0.6295  0.2052 -0.0910
   61TMC2    C8  956   3.480   0.244  16.192  0.0655  0.4499  0.0293
   61TMC2    O1  957   3.559   0.599  15.744 -0.3442 -0.3498 -0.2628
   61TMC2    O2  958   3.360   0.247  16.159  0.1414  0.0829  0.2250
   61TMC2    O5  959   3.547   0.135  16.238  0.7955 -0.2622  0.1044
   61TMC2    H5  960   3.641   0.160  16.228  0.5798  0.4520 -0.0950
   62MPD2     C  961   4.064   0.140  15.667 -0.5678 -0.2256  0.0375
   62MPD2    C1  962   3.937   0.176  15.618 -0.4557 -0.5065 -0.1673
   62MPD2    C2  963   3.921   0.175  15.484 -0.7852 -0.4607 -0.7099
   62MPD2    C3  964   4.020   0.137  15.395 -0.3395 -0.9135 -0.2370
   62MPD2    C4  965   4.138   0.092  15.450 -0.5813 -0.7463 -0.2517
   62MPD2    C5  966   4.160   0.090  15.584 -0.0227  1.1398  0.7916
   62MPD2     H  967   3.829   0.212  15.441 -0.9674  0.3242  0.3526
   62MPD2    H1  968   4.213   0.044  15.388 -1.3319  1.7317 -3.0711
   62MPD2    H2  969   4.087   0.146  15.773  1.0211 -0.0446 -0.3188
   62MPD2    H3  970   4.258   0.060  15.619 -0.0834  0.0823  0.0811
   62MPD2     N  971   4.005   0.140  15.257 -0.1427  0.6163  0.0668
   62MPD2    H5  972   4.088   0.125  15.200  0.7467  1.6149  1.0770
   62MPD2    N1  973   3.831   0.212  15.703  0.4208  0.0278 -0.1777
   62MPD2    H7  974   3.746   0.235  15.651 -0.0083 -0.3412  0.3653
   63TMC2    C1  975   2.543   0.802  10.636  0.2545 -0.5995  0.2328
   63TMC2    C2  976   2.520   0.929  10.660 -0.2700 -0.5117 -0.1667
   63TMC2    C3  977   2.534   1.024  10.556 -0.7862 -0.3009  0.1876
   63TMC2    C4  978   2.587   0.752  10.512  0.1042  0.4084 -0.0730
   63TMC2    C5  979   2.597   0.848  10.409 -0.2555 -0.0848 -0.4012
   63TMC2    C6  980   2.564   0.979  10.433  0.2671 -0.7926 -0.9520
   63TMC2     C  981   2.488   0.704  10.727 -0.5078  0.0487 -0.6682
   63TMC2     O  982   2.387   0.740  10.782  0.0788  0.6020  0.5774
   63TMC2     H  983   2.495   0.948  10.764 -1.6606 -1.0727 -0.4035
   63TMC2    H1  984   2.596   0.647  10.488 -0.7759  0.0001  1.3582
   63TMC2    H2  985   2.561   1.050  10.351  0.0178 -0.4315 -0.6290
   63TMC2    C7  986   2.626   0.791  10.274 -0.9725 -0.4733 -0.0269
   63TMC2    C8  987   2.477   1.156  10.585 -0.1727 -0.3528 -0.1280
   63TMC2    O1  988   2.656   0.670  10.272 -0.0654 -0.3152 -0.3670
   63TMC2    O2  989   2.403   1.203  10.499  0.6864  0.2768  0.7408
   63TMC2    O5  990   2.572   1.222  10.648  0.2180 -0.2652  0.4600
   63TMC2    H5  991   2.639   1.167  10.695  1.7376  1.7864  0.6882
   64MPD2     C  992   2.513   0.311  11.044 -0.5677 -0.3494 -0.2193
   64MPD2    C1  993   2.613   0.299  10.954  0.2111  0.3932  0.3961
   64MPD2    C2  994   2.628   0.393  10.856 -0.5472  0.4114 -0.3914
   64MPD2    C3  995   2.538   0.497  10.845  0.5936  0.6498  0.6391
   64MPD2    C4  996   2.430   0.502  10.933 -0.7182  0.0311 -0.4056
   64MPD2    C5  997   2.423   0.412  11.035 -0.1096  0.0564 -0.2584
   64MPD2     H  998   2.712   0.385  10.788 -0.6137 -3.2455 -0.0581
   64MPD2    H1  999   2.361   0.585  10.940 -1.2828 -0.6895  2.5396
   64MPD2    H2 1000   2.494   0.244  11.127  0.5710  0.9197  1.0738
   64MPD2    H3 1001   2.355   0.426  11.119  0.8404 -0.6369  0.6277
   64MPD2     N 1002   2.558   0.594  10.745  0.7593  0.4648 -0.0320
   64MPD2    H5 1003   2.643   0.588  10.691 -0.0815  0.2566 -1.3311
   64MPD2    N1 1004   2.694   0.180  10.958  0.1309 -0.2684  0.0850
   64MPD2    H7 1005   2.765   0.185  10.886  0.7265 -0.7265  0.6461
   65TMC2    C1 1006   4.513   0.097  15.587  0.1776  0.3186  0.0002
   65TMC2    C2 1007   4.553   0.082  15.455  0.1828  0.6484 -0.0110
   65TMC2    C3 1008   4.529   0.185  15.372 -0.9442  0.9799  0.4757
   65TMC2    C4 1009   4.459   0.212  15.629  0.0551  0.9443 -0.5555
   65TMC2    C5 1010   4.434   0.309  15.540 -0.2738  0.2513 -0.0911
   65TMC2    C6 1011   4.469   0.297  15.410 -0.5005 -0.2302 -1.2828
   65TMC2     C 1012   4.523   4.724  15.684  0.0732 -0.3782 -0.1510
   65TMC2     O 1013   4.529   0.005  15.806 -0.1494 -0.0109 -0.6422
   65TMC2     H 1014   4.609   4.732  15.421 -0.8651  0.0695 -0.2728
   65TMC2    H1 1015   4.416   0.208  15.729 -1.3510 -0.2109 -1.2209
   65TMC2    H2 1016   4.449   0.375  15.337  2.3334 -0.4379 -2.3005
   65TMC2    C7 1017   4.327   0.402  15.571 -0.2902 -0.0645  0.2899
   65TMC2    C8 1018   4.570   0.177  15.230  0.0523  0.0010 -0.7994
   65TMC2    O1 1019   4.261   0.439  15.475  0.3510 -0.0237  0.3777
   65TMC2    O2 1020   4.588   0.276  15.161  0.5257 -0.0669 -0.0873
   65TMC2    O5 1021   4.564   0.052  15.191  0.2755  0.2206  0.0358
   65TMC2    H5 1022   4.528   4.733  15.264  1.9879  1.5929  1.8988
   66MPD2     C 1023   4.569   4.457  15.810  0.3033  0.3679 -0.1140
   66MPD2    C1 1024   4.528   4.475  15.683 -0.0224 -0.7052 -0.0012
   66MPD2    C2 1025   4.497   4.358  15.606 -0.1508  0.0028  0.5472
   66MPD2    C3 1026   4.511   4.228  15.653 -0.3915  0.6957 -0.2886
   66MPD2    C4 1027   4.566   4.214  15.776 -0.0990  0.0096  0.9303
   66MPD2    C5 1028   4.595   4.328  15.845 -0.1820  0.0848 -0.3695
   66MPD2     H 1029   4.461   4.375  15.505 -1.0707 -2.5188  0.4550
   66MPD2    H1 1030   4.592   4.118  15.819 -1.0579 -0.0047  1.4883
   66MPD2    H2 1031   4.583   4.530  15.890 -0.4437 -0.9870  1.2501
   66MPD2    H3 1032   4.633   4.300  15.943 -1.8584  1.3847  0.6386
   66MPD2     N 1033   4.467   4.111  15.588 -0.1266  0.0931 -0.4279
   66MPD2    H5 1034   4.465   4.030  15.648  2.0735  1.1651  1.0813
   66MPD2    N1 1035   4.508   4.601  15.623  0.6189  1.0519 -0.1812
   66MPD2    H7 1036   4.484   4.607  15.525 -0.4467 -1.0566 -0.0426
   67TMC2    C1 1037   0.028   3.562  14.321 -0.8598 -0.1426 -0.5860
   67TMC2    C2 1038   4.710   3.457  14.390  0.1728  0.8739 -0.4639
   67TMC2    C3 1039   0.016   3.441  14.521 -0.3727  0.7655  0.2668
   67TMC2    C4 1040   0.122   3.640  14.374  0.1007 -0.1380  0.3803
   67TMC2    C5 1041   0.172   3.614  14.502  0.5001 -1.2051 -0.4227
   67TMC2    C6 1042   0.116   3.512  14.571 -0.7991  0.6063 -0.3928
   67TMC2     C 1043   4.723   3.590  14.186  1.1001  0.9002 -1.1288
   67TMC2     O 1044   0.073   3.567  14.105  0.2371  0.0697  0.2944
   67TMC2     H 1045   4.640   3.388  14.343  0.8071 -1.0330  1.4195
   67TMC2    H1 1046   0.175   3.706  14.306  0.6880  2.0431  2.9422
   67TMC2    H2 1047   0.160   3.485  14.666 -1.5087  0.0388 -0.2231
   67TMC2    C7 1048   0.268   3.699  14.570 -0.1048 -0.5488 -0.7425
   67TMC2    C8 1049   4.732   3.306  14.574 -0.3079 -0.5214 -0.1260
   67TMC2    O1 1050   0.345   3.772  14.507  0.3317  0.1439  0.1719
   67TMC2    O2 1051   0.083   3.254  14.641  0.3096 -0.4639 -0.6202
   67TMC2    O5 1052   4.604   3.270  14.580 -0.7598 -0.3810 -0.5472
   67TMC2    H5 1053   4.539   3.331  14.537  1.0441  2.1507  0.3194
   68MPD2     C 1054   4.565   3.591  13.920 -0.0157  0.3004 -0.0265
   68MPD2    C1 1055   4.510   3.580  14.049  0.1790  0.3996  0.1014
   68MPD2    C2 1056   4.380   3.611  14.055  0.3949 -0.0167  0.3352
   68MPD2    C3 1057   4.300   3.641  13.947  0.0939 -0.2989  0.3966
   68MPD2    C4 1058   4.359   3.649  13.823  0.1185 -0.0310 -0.1512
   68MPD2    C5 1059   4.491   3.613  13.813 -0.3488  0.1065  0.3605
   68MPD2     H 1060   4.329   3.613  14.150  0.2506 -0.6465  0.2716
   68MPD2    H1 1061   4.303   3.678  13.735 -0.3911  0.5221  0.3566
   68MPD2    H2 1062   4.671   3.583  13.900 -0.1760 -1.4210 -0.1207
   68MPD2    H3 1063   4.536   3.622  13.715  0.7488 -1.5608  0.7218
   68MPD2     N 1064   4.164   3.678  13.947  0.3685 -0.1778  0.1606
   68MPD2    H5 1065   4.118   3.712  13.863 -2.8048  3.0577  3.2218
   68MPD2    N1 1066   4.585   3.579  14.171  0.6807 -0.5742  0.4877
   68MPD2    H7 1067   4.540   3.575  14.262 -1.2468  0.3036 -0.4298
   69TMC2    C1 1068   1.354   4.626  11.922  0.0758  0.2899  0.0811
   69TMC2    C2 1069   1.253   4.615  11.831  0.0464  0.1690  0.4209
   69TMC2    C3 1070   1.285   4.549  11.717 -0.1080  0.4154 -0.4740
   69TMC2    C4 1071   1.471   4.559  11.912 -0.3446  0.2920  0.1415
   69TMC2    C5 1072   1.489   4.490  11.799  0.0756  0.6152 -0.5648
   69TMC2    C6 1073   1.402   4.482  11.699  0.5055  0.2637  0.2685
   69TMC2     C 1074   1.336   4.710  12.044  0.2899 -0.5208  0.7881
   69TMC2     O 1075   1.413   4.695  12.137 -0.1542  0.0018 -0.2208
   69TMC2     H 1076   1.158   4.665  11.836  0.9300  1.8352  0.4340
   69TMC2    H1 1077   1.549   4.576  11.985 -0.1494  0.7583 -0.1733
   69TMC2    H2 1078   1.433   4.423  11.614  2.6551  1.1740  0.4326
   69TMC2    C7 1079   1.630   4.473  11.756 -0.0241 -0.6008  0.3002
   69TMC2    C8 1080   1.202   4.557  11.600  0.5720 -0.0071 -0.2730
   69TMC2    O1 1081   1.698   4.572  11.737  0.4872 -0.0491 -0.2561
   69TMC2    O2 1082   1.199   4.472  11.513  0.5845  0.8383  0.4054
   69TMC2    O5 1083   1.179   4.690  11.577 -0.8968 -0.1580  0.2532
   69TMC2    H5 1084   1.204   0.020  11.644  2.0320 -0.4643 -0.5298
   70MPD2     C 1085   1.055   0.212  12.122 -0.6243 -0.3961  0.0836
   70MPD2    C1 1086   1.163   0.122  12.145  0.6641 -0.0224 -0.2491
   70MPD2    C2 1087   1.185   0.078  12.273 -0.0626 -0.0550  0.1963
   70MPD2    C3 1088   1.109   0.124  12.382  0.5717 -0.2355  0.4799
   70MPD2    C4 1089   0.998   0.204  12.352 -0.9797 -0.0137 -0.1939
   70MPD2    C5 1090   0.979   0.253  12.227  0.2048  0.3102  0.2154
   70MPD2     H 1091   1.273   0.019  12.297 -1.9723 -2.3330  1.5494
   70MPD2    H1 1092   0.929   0.224  12.433 -0.6506 -0.0387  0.0918
   70MPD2    H2 1093   1.038   0.259  12.025 -1.2134 -0.8825 -0.0426
   70MPD2    H3 1094   0.901   0.323  12.202  0.7980  1.1544  0.7413
   70MPD2     N 1095   1.147   0.088  12.520  0.5934  0.4827 -0.3548
   70MPD2    H5 1096   1.228   0.026  12.523  1.6640  1.9984  1.6148
   70MPD2    N1 1097   1.233   0.072  12.034 -0.4905  0.0293 -0.2623
   70MPD2    H7 1098   1.205   0.103  11.942 -1.1903 -1.3633 -0.5137
   71TMC2    C1 1099   3.621   2.116   1.438  0.0132 -0.6926 -0.4859
   71TMC2    C2 1100   3.722   2.208   1.455 -1.0289 -0.1880  0.4782
   71TMC2    C3 1101   3.697   2.321   1.527 -0.7116  0.1273 -0.2327
   71TMC2    C4 1102   3.491   2.141   1.487  0.7563  1.1878  0.1800
   71TMC2    C5 1103   3.473   2.262   1.556 -0.0001 -0.2277 -0.1834
   71TMC2    C6 1104   3.574   2.346   1.579 -0.3845  0.0842 -0.4370
   71TMC2     C 1105   3.651   1.983   1.389 -1.4698  0.2815  0.0693
   71TMC2     O 1106   3.765   1.944   1.362 -0.6136  0.2078 -0.1826
   71TMC2     H 1107   3.824   2.183   1.432 -1.0166 -1.8354  2.4059
   71TMC2    H1 1108   3.418   2.061   1.491  0.2122  1.6576 -0.2818
   71TMC2    H2 1109   3.553   2.439   1.632 -2.4340 -0.4299 -0.3573
   71TMC2    C7 1110   3.340   2.292   1.610 -0.0527 -0.1498 -0.2141
   71TMC2    C8 1111   3.803   2.420   1.550 -0.0471 -0.1780  0.4291
   71TMC2    O1 1112   3.337   2.364   1.709 -0.0003  0.1358  0.1112
   71TMC2    O2 1113   3.899   2.417   1.478 -0.5451  0.1015 -0.5045
   71TMC2    O5 1114   3.788   2.471   1.678 -0.4657 -0.0365  0.0890
   71TMC2    H5 1115   3.711   2.431   1.724 -0.4938  0.8120  0.7752
   72MPD2     C 1116   3.469   1.562   1.168  0.1101  0.6241  0.2554
   72MPD2    C1 1117   3.597   1.592   1.202 -0.4890 -0.4191  0.2574
   72MPD2    C2 1118   3.626   1.705   1.263  0.0429 -0.4868  0.8883
   72MPD2    C3 1119   3.521   1.792   1.301 -0.0218  0.0470  0.5867
   72MPD2    C4 1120   3.389   1.755   1.270  0.6100 -0.6550  0.5629
   72MPD2    C5 1121   3.363   1.638   1.202  0.3300 -0.5208  0.0713
   72MPD2     H 1122   3.726   1.745   1.267  0.4558 -1.3582 -1.0991
   72MPD2    H1 1123   3.302   1.813   1.296  1.4149  0.6009  0.4267
   72MPD2    H2 1124   3.449   1.478   1.104  1.2566 -0.4261  1.2581
   72MPD2    H3 1125   3.261   1.610   1.179  0.5862 -0.4396 -1.1680
   72MPD2     N 1126   3.535   1.923   1.347 -0.4833  0.0688 -1.0277
   72MPD2    H5 1127   3.452   1.980   1.337 -0.4309  0.4656  0.7612
   72MPD2    N1 1128   3.713   1.519   1.159  0.4805 -0.1435 -0.0973
   72MPD2    H7 1129   3.805   1.557   1.180  0.8317 -0.5392 -0.9155
   73TMC2    C1 1130   3.471   2.290  13.206  0.1805  0.0117  0.2529
   73TMC2    C2 1131   3.541   2.313  13.085  0.5789  0.0814 -0.4422
   73TMC2    C3 1132   3.638   2.224  13.036 -0.0299 -0.7111 -0.0996
   73TMC2    C4 1133   3.504   2.175  13.272  0.4560  0.2280  0.2353
   73TMC2    C5 1134   3.612   2.102  13.230  0.1190 -0.9280  0.4394
   73TMC2    C6 1135   3.671   2.111  13.105  0.1846  0.7200 -0.1357
   73TMC2     C 1136   3.464   2.407  13.300 -0.1831  0.2389 -0.1308
   73TMC2     O 1137   3.523   2.385  13.405  0.5112  0.2826 -0.4027
   73TMC2     H 1138   3.502   2.391  13.020  2.8459  1.6315  0.0858
   73TMC2    H1 1139   3.460   2.166  13.370  0.5692 -0.4510  0.2198
   73TMC2    H2 1140   3.751   2.042  13.078 -0.6715 -1.3656  2.6141
   73TMC2    C7 1141   3.714   2.075  13.332  0.0253  0.5796 -0.0295
   73TMC2    C8 1142   3.678   2.252  12.898  0.7125 -0.6014 -0.5002
   73TMC2    O1 1143   3.801   1.993  13.313 -0.4381 -0.6831 -0.2324
   73TMC2    O2 1144   3.604   2.301  12.814  0.1645  0.1641 -1.0588
   73TMC2    O5 1145   3.795   2.193  12.878  0.2009  0.4367  0.3927
   73TMC2    H5 1146   3.845   2.168  12.958  0.9194  0.1996 -0.1318
   74MPD2     C 1147   3.413   2.895  13.445 -0.3009 -0.2991 -0.0752
   74MPD2    C1 1148   3.460   2.787  13.513  0.3699  0.0665  0.6152
   74MPD2    C2 1149   3.450   2.664  13.456 -0.8276 -0.2826 -0.3766
   74MPD2    C3 1150   3.399   2.646  13.327 -0.1367 -0.1624  0.3135
   74MPD2    C4 1151   3.359   2.755  13.259 -0.2269 -0.8003 -0.2040
   74MPD2    C5 1152   3.368   2.881  13.315 -0.1118  0.3363 -0.1010
   74MPD2     H 1153   3.490   2.573  13.501 -1.6069 -0.0009  0.8864
   74MPD2    H1 1154   3.318   2.741  13.160 -1.8931  2.2932  0.0453
   74MPD2    H2 1155   3.400   2.991  13.493  2.9607  0.3584 -0.4844
   74MPD2    H3 1156   3.338   2.966  13.255  0.8122 -0.3737 -1.5678
   74MPD2     N 1157   3.413   2.525  13.251 -0.1557 -0.5438 -0.1225
   74MPD2    H5 1158   3.378   2.535  13.157 -0.0894  0.8991 -0.0007
   74MPD2    N1 1159   3.525   2.811  13.637  0.0637 -0.2787 -0.0703
   74MPD2    H7 1160   3.528   2.907  13.671  1.0860 -0.3425  0.0102
   75TMC2    C1 1161   3.951   3.752  14.047 -0.0336  0.9377 -0.3044
   75TMC2    C2 1162   3.896   3.783  14.166  0.6326 -0.1266  0.2087
   75TMC2    C3 1163   3.775   3.840  14.161 -0.6117 -0.5742  0.2899
   75TMC2    C4 1164   3.885   3.762  13.928  0.2790 -0.4789 -0.4264
   75TMC2    C5 1165   3.766   3.838  13.925  0.3042  0.0053  0.1040
   75TMC2    C6 1166   3.707   3.866  14.041 -0.2196 -0.1735 -0.4683
   75TMC2     C 1167   4.075   3.671  14.058  0.5517  0.6240 -0.6907
   75TMC2     O 1168   4.109   3.653  14.175 -0.1009  0.3657 -0.3569
   75TMC2     H 1169   3.931   3.759  14.266  1.5751 -0.7163 -0.2688
   75TMC2    H1 1170   3.939   3.750  13.835  0.2713 -0.7637 -0.3918
   75TMC2    H2 1171   3.611   3.916  14.038 -0.7720 -1.1094  1.7321
   75TMC2    C7 1172   3.710   3.859  13.794 -0.2715  1.1682 -0.1540
   75TMC2    C8 1173   3.717   3.898  14.282  0.2083 -0.1367 -0.0672
   75TMC2    O1 1174   3.743   3.794  13.697  1.0340  0.4565 -0.1498
   75TMC2    O2 1175   3.594   3.913  14.298 -0.0941 -0.8059  0.1721
   75TMC2    O5 1176   3.811   3.984  14.328  0.0816 -0.3454  1.2147
   75TMC2    H5 1177   3.901   3.951  14.306 -1.0323 -1.4499 -1.5433
   76TMC2    C1 1178   2.749   3.926  12.236 -0.0176 -0.3314  0.2091
   76TMC2    C2 1179   2.628   3.854  12.236 -0.3975 -0.7618 -0.2135
   76TMC2    C3 1180   2.635   3.721  12.247 -0.0865  0.5700 -0.0591
   76TMC2    C4 1181   2.865   3.857  12.242 -0.5114 -0.2226  0.3895
   76TMC2    C5 1182   2.869   3.719  12.267  0.8510 -0.3110 -0.1904
   76TMC2    C6 1183   2.750   3.649  12.276 -0.1391 -0.5258  0.1142
   76TMC2     C 1184   2.736   4.063  12.192 -0.2323 -0.0462 -0.4288
   76TMC2     O 1185   2.621   4.107  12.200  0.1622  0.3969  0.0158
   76TMC2     H 1186   2.531   3.903  12.231  1.2421  2.6143  0.5181
   76TMC2    H1 1187   2.950   3.913  12.206 -1.0610  0.7367  0.5990
   76TMC2    H2 1188   2.749   3.541  12.283  0.4915 -0.1772  5.2248
   76TMC2    C7 1189   2.994   3.652  12.280 -0.3517 -0.1093  0.9719
   76TMC2    C8 1190   2.508   3.669  12.298  1.1424 -0.8573  0.2592
   76TMC2    O1 1191   2.988   3.529  12.254  0.0951 -0.1184 -0.5523
   76TMC2    O2 1192   2.401   3.695  12.247  0.0530 -0.3188  0.1895
   76TMC2    O5 1193   2.531   3.602  12.416 -0.2644 -0.7309  0.3483
   76TMC2    H5 1194   2.627   3.587  12.425 -0.5605 -1.5813  1.9716
   77MPD2     C 1195   2.878   4.491  11.942 -0.1485  0.1737  0.1098
   77MPD2    C1 1196   2.754   4.425  11.946  0.5621 -0.9293  0.0592
   77MPD2    C2 1197   2.743   4.303  12.015 -0.8991  0.5418 -0.7926
   77MPD2    C3 1198   2.851   4.254  12.095  1.2017 -0.0921 -0.2965
   77MPD2    C4 1199   2.972   4.319  12.092 -0.0998 -0.4017  0.0593
   77MPD2    C5 1200   2.980   4.434  12.016  0.2328 -0.6469  0.2920
   77MPD2     H 1201   2.652   4.244  12.013 -0.0889 -0.8547  2.7155
   77MPD2    H1 1202   3.059   4.291  12.149  0.7581 -0.9871 -1.5498
   77MPD2    H2 1203   2.899   4.583  11.888 -0.8942  1.0169  1.2751
   77MPD2    H3 1204   3.077   4.481  12.022 -0.3363  0.6938 -1.2071
   77MPD2     N 1205   2.857   4.131  12.168 -0.4356 -0.3163 -0.1040
   77MPD2    H5 1206   2.939   4.100  12.219  1.1757  2.2586 -1.1613
   77MPD2    N1 1207   2.637   4.467  11.877 -0.4233  0.4573 -0.3773
   77MPD2    H7 1208   2.551   4.422  11.908  0.6578 -0.4926  1.2388
   78TMC2    C1 1209   3.589   1.333   1.505  0.1538 -0.3299  0.2117
   78TMC2    C2 1210   3.482   1.245   1.530 -0.0198 -0.8973 -0.6357
   78TMC2    C3 1211   3.510   1.116   1.498 -0.5041  0.1719 -0.0496
   78TMC2    C4 1212   3.708   1.295   1.457 -0.8017  0.0760  0.1236
   78TMC2    C5 1213   3.733   1.164   1.436 -0.7005  0.0272 -0.0174
   78TMC2    C6 1214   3.635   1.071   1.458 -0.6623 -0.5044  0.4149
   78TMC2     C 1215   3.571   1.472   1.549 -0.8869  1.0167 -0.5054
   78TMC2     O 1216   3.674   1.526   1.591 -0.1264 -0.3208 -0.2966
   78TMC2     H 1217   3.382   1.280   1.551  0.2908 -1.4211  1.6648
   78TMC2    H1 1218   3.790   1.362   1.435  0.0446 -1.0346 -0.1082
   78TMC2    H2 1219   3.641   0.968   1.424  1.5045  0.2727 -1.5430
   78TMC2    C7 1220   3.848   1.122   1.368 -0.3662  1.0380  0.7590
   78TMC2    C8 1221   3.400   1.016   1.507  0.0934  0.5089  0.1140
   78TMC2    O1 1222   3.946   1.190   1.396  0.2661  0.2298  0.2792
   78TMC2    O2 1223   3.427   0.898   1.528  0.0658 -0.2433 -0.2030
   78TMC2    O5 1224   3.280   1.071   1.468  0.4743  0.0611  0.4351
   78TMC2    H5 1225   3.271   1.166   1.446 -0.5786 -0.2106 -0.2970
   79MPD1     C 1226   3.298   1.892   1.666  0.1686 -0.2189 -0.0892
   79MPD1    C1 1227   3.425   1.856   1.703  0.8043  0.3073 -1.0583
   79MPD1    C2 1228   3.471   1.724   1.676  0.0317 -0.0511  0.6814
   79MPD1    C3 1229   3.394   1.634   1.606 -0.2657  0.8022 -0.3151
   79MPD1    C4 1230   3.271   1.679   1.566 -0.4033  0.0808  0.2731
   79MPD1    C5 1231   3.221   1.802   1.601 -0.1030  0.5947 -0.6160
   79MPD1     H 1232   3.569   1.696   1.713 -0.0211  2.5963  2.8565
   79MPD1    H1 1233   3.209   1.614   1.505  1.2581 -1.2704  0.0086
   79MPD1    H2 1234   3.253   1.985   1.699 -0.4054 -0.5025 -0.0836
   79MPD1    H3 1235   3.120   1.825   1.568  1.1463  3.5743 -2.3815
   79MPD1     N 1236   3.441   1.509   1.554  0.3812 -0.0262 -0.9675
   79MPD1    H5 1237   3.372   1.452   1.507 -0.2203 -0.7944  0.8303
   79MPD1    N1 1238   3.500   1.939   1.789 -0.1859  0.1667 -0.1777
   79MPD1    H6 1239   3.480   2.037   1.769 -0.2231  0.3686  0.8496
   79MPD1    H7 1240   3.601   1.923   1.787 -0.2465 -0.3091  0.6178
   80TMC2    C1 1241   1.239   3.622  12.203  0.1792  0.3760 -0.0201
   80TMC2    C2 1242   1.235   3.570  12.075 -0.1975  0.0157 -0.2398
   80TMC2    C3 1243   1.114   3.531  12.027 -0.7079 -0.1368 -0.2767
   80TMC2    C4 1244   1.142   3.610  12.300  0.1090 -0.1729  0.3453
   80TMC2    C5 1245   1.030   3.540  12.255 -0.3171  0.2024 -0.3252
   80TMC2    C6 1246   1.015   3.509  12.118  0.0155  0.1703 -0.4437
   80TMC2     C 1247   1.372   3.657  12.235  0.2130  0.3299  0.0409
   80TMC2     O 1248   1.465   3.608  12.178 -0.5714  0.5069 -0.5451
   80TMC2     H 1249   1.317   3.569  12.003  0.1445  1.1513  0.1436
   80TMC2    H1 1250   1.149   3.645  12.402 -0.2618 -1.1032  0.6910
   80TMC2    H2 1251   0.918   3.473  12.083  0.1996 -0.2138 -0.5559
   80TMC2    C7 1252   0.916   3.531  12.341  0.2139  0.1342  0.2728
   80TMC2    C8 1253   1.081   3.569  11.893 -0.0219 -0.2483  0.3327
   80TMC2    O1 1254   0.810   3.580  12.306 -0.2015 -0.2876 -0.1676
   80TMC2    O2 1255   0.965   3.597  11.866  0.1501 -0.2800  0.2602
   80TMC2    O5 1256   1.169   3.492  11.818 -0.2743 -0.3608  0.7009
   80TMC2    H5 1257   1.244   3.459  11.872 -0.6460 -0.7676  0.9601
   81MPD2     C 1258   1.619   3.769  12.371  0.2519  0.3609  0.4149
   81MPD2    C1 1259   1.489   3.799  12.402  0.0701 -0.4164  0.3437
   81MPD2    C2 1260   1.468   3.884  12.511 -0.1175  0.1879 -0.4802
   81MPD2    C3 1261   1.571   3.927  12.590 -0.5140  0.8506 -0.8502
   81MPD2    C4 1262   1.699   3.888  12.559  0.2378 -0.6942  0.1880
   81MPD2    C5 1263   1.723   3.821  12.443 -0.0200  0.1490 -0.4778
   81MPD2     H 1264   1.366   3.907  12.540 -0.0813 -1.5587  1.0325
   81MPD2    H1 1265   1.790   3.920  12.610  0.0042  0.2991 -0.0236
   81MPD2    H2 1266   1.637   3.713  12.280  1.8595 -0.1273  1.0337
   81MPD2    H3 1267   1.824   3.792  12.415  0.4082  0.7511  0.4574
   81MPD2     N 1268   1.554   4.012  12.703 -0.2374 -0.1781 -1.0927
   81MPD2    H5 1269   1.635   4.022  12.762 -1.1372 -1.2259  0.3176
   81MPD2    N1 1270   1.373   3.751  12.336 -0.0394 -0.5465 -0.8744
   81MPD2    H7 1271   1.284   3.785  12.373  1.5213 -0.3722  2.6638
   82TMC2    C1 1272   4.503   3.470  11.289 -0.1021 -0.1059  0.0286
   82TMC2    C2 1273   4.623   3.472  11.355  0.3824 -0.5115 -0.0045
   82TMC2    C3 1274   4.688   3.348  11.350  0.6744 -0.5137 -0.1171
   82TMC2    C4 1275   4.449   3.362  11.216 -0.5548  0.2012  0.0589
   82TMC2    C5 1276   4.519   3.244  11.222 -0.1097  0.3113  0.2679
   82TMC2    C6 1277   4.639   3.237  11.281  0.2120  1.1938 -0.3704
   82TMC2     C 1278   4.407   3.552  11.354 -0.3409  1.4989  0.5263
   82TMC2     O 1279   4.289   3.519  11.334 -0.3877  0.7189  0.2226
   82TMC2     H 1280   4.655   3.547  11.427 -0.7235 -2.0373  2.0905
   82TMC2    H1 1281   4.354   3.372  11.166 -0.1475 -1.0011 -0.9392
   82TMC2    H2 1282   4.703   3.150  11.266 -1.6451  0.5071 -4.1304
   82TMC2    C7 1283   4.453   3.119  11.204  0.4064 -0.2526  0.6202
   82TMC2    C8 1284   0.097   3.344  11.375 -0.3658 -0.2769 -0.3742
   82TMC2    O1 1285   4.476   3.041  11.295 -0.5344 -0.5056  0.2305
   82TMC2    O2 1286   0.179   3.278  11.308 -0.8642  0.3918  0.0518
   82TMC2    O5 1287   0.128   3.436  11.465  0.4958  0.3815 -0.0641
   82TMC2    H5 1288   0.051   3.469  11.515  0.0886  2.5375 -2.0717
   83MPD2     C 1289   4.223   3.953  11.636  0.1165 -0.2509  0.0636
   83MPD2    C1 1290   4.163   3.834  11.596 -0.9784  0.7220 -0.0202
   83MPD2    C2 1291   4.232   3.737  11.519 -0.0489 -0.6089 -0.1186
   83MPD2    C3 1292   4.368   3.757  11.496 -0.2729 -0.4136  0.0680
   83MPD2    C4 1293   4.433   3.872  11.546 -0.3793 -0.1739  0.5640
   83MPD2    C5 1294   4.355   3.965  11.612 -0.1377 -0.2569 -0.6306
   83MPD2     H 1295   4.182   3.649  11.481  1.0417 -1.8632  1.3369
   83MPD2    H1 1296   4.539   3.887  11.534 -0.0803 -0.8808  2.4428
   83MPD2    H2 1297   4.156   4.022  11.687  0.5112  0.2300 -0.0653
   83MPD2    H3 1298   4.409   4.049  11.654  1.0293 -0.3951 -1.8417
   83MPD2     N 1299   4.449   3.665  11.417 -0.7035  0.1258  0.1244
   83MPD2    H5 1300   4.544   3.696  11.398 -0.8339  0.1681 -0.4688
   83MPD2    N1 1301   4.024   3.826  11.623 -0.3634  0.1952 -0.4878
   83MPD2    H7 1302   3.969   3.901  11.665  2.9836  0.8347  2.7487
   84TMC2    C1 1303   1.100   2.854  11.082  0.0425 -0.6275  0.3690
   84TMC2    C2 1304   1.174   2.933  11.154 -0.3011 -0.1455  0.5163
   84TMC2    C3 1305   1.292   2.984  11.099 -0.0607  0.2615 -0.0982
   84TMC2    C4 1306   1.126   2.811  10.954  0.3880  0.5701  0.2044
   84TMC2    C5 1307   1.231   2.877  10.902  0.1958  0.6592 -0.3277
   84TMC2    C6 1308   1.319   2.963  10.970  0.0774 -0.4912 -0.4837
   84TMC2     C 1309   0.972   2.805  11.137  0.3343 -0.5917 -0.7889
   84TMC2     O 1310   0.931   2.692  11.103 -0.2836  0.2394  0.0787
   84TMC2     H 1311   1.145   2.965  11.254  1.5989  0.6206  0.8155
   84TMC2    H1 1312   1.054   2.751  10.899  1.3437  0.8413 -1.3307
   84TMC2    H2 1313   1.412   2.981  10.917 -0.2723 -0.1620 -0.9933
   84TMC2    C7 1314   1.235   2.877  10.759  0.6355  0.3562  0.5062
   84TMC2    C8 1315   1.374   3.075  11.176  0.6213 -0.8262  0.0267
   84TMC2    O1 1316   1.166   2.788  10.707  0.2075  0.3045 -0.1386
   84TMC2    O2 1317   1.450   3.158  11.125 -0.1830 -0.0795  0.2767
   84TMC2    O5 1318   1.355   3.053  11.309 -0.2222 -0.6229 -0.2390
   84TMC2    H5 1319   1.320   2.963  11.326  2.9252 -2.1355 -1.7849
   85TMC2    C1 1320   2.015   1.035  16.255 -0.3063 -0.2665  0.1036
   85TMC2    C2 1321   1.901   1.095  16.206  0.0050  0.6421 -0.0448
   85TMC2    C3 1322   1.910   1.212  16.130  0.3536 -0.1086 -0.0021
   85TMC2    C4 1323   2.136   1.076  16.226 -0.5708  0.0234  0.2252
   85TMC2    C5 1324   2.146   1.192  16.150 -0.2169  0.3907  0.5027
   85TMC2    C6 1325   2.036   1.266  16.110 -0.0879 -0.2286 -0.2474
   85TMC2     C 1326   2.006   0.908  16.335  0.8308 -0.7321 -0.3696
   85TMC2     O 1327   2.102   0.868  16.392  0.5013 -0.2524 -0.0036
   85TMC2     H 1328   1.798   1.073  16.231 -0.2436 -1.2078 -2.6842
   85TMC2    H1 1329   2.226   1.020  16.247 -0.3798 -0.0350 -0.7412
   85TMC2    H2 1330   2.054   1.360  16.060 -2.0362 -0.9957 -2.3731
   85TMC2    C7 1331   2.273   1.196  16.073 -0.1047  0.0767 -0.6120
   85TMC2    C8 1332   1.788   1.280  16.083 -0.4578  0.8098  0.6826
   85TMC2    O1 1333   2.366   1.135  16.120  0.2481  0.3712  0.5637
   85TMC2    O2 1334   1.690   1.222  16.044  0.4240  0.2909  0.3498
   85TMC2    O5 1335   1.807   1.409  16.117  0.1604  0.1099 -0.9724
   85TMC2    H5 1336   1.899   1.442  16.130  0.1991 -0.9102  1.3768
   86MPD2     C 1337   1.742   0.521  16.553 -0.7834  0.0949  0.0895
   86MPD2    C1 1338   1.666   0.587  16.460 -0.2199 -0.8342  1.0833
   86MPD2    C2 1339   1.705   0.708  16.406 -0.3130 -0.0879 -0.4293
   86MPD2    C3 1340   1.836   0.759  16.435  0.2701 -0.2657 -0.1892
   86MPD2    C4 1341   1.918   0.682  16.518  0.3247 -0.1177 -0.2609
   86MPD2    C5 1342   1.868   0.576  16.584  0.6768 -0.4334 -0.3268
   86MPD2     H 1343   1.640   0.753  16.332 -1.3575 -0.3840  0.3112
   86MPD2    H1 1344   2.023   0.709  16.530  0.5458 -0.5302 -1.2830
   86MPD2    H2 1345   1.722   0.423  16.594  1.7324 -1.0729 -1.4471
   86MPD2    H3 1346   1.932   0.504  16.633 -0.3334  0.2759  2.0547
   86MPD2     N 1347   1.876   0.875  16.363  0.1096 -0.5678  0.5154
   86MPD2    H5 1348   1.811   0.915  16.296  0.2309 -0.5571  0.4039
   86MPD2    N1 1349   1.535   0.538  16.414 -0.2672 -0.3516  0.8701
   86MPD2    H7 1350   1.494   0.585  16.334  2.3225  2.0947  0.9592
   87TMC2    C1 1351   4.565   4.280   0.249 -0.3361 -0.2317  1.2667
   87TMC2    C2 1352   4.691   4.326   0.214 -0.4481  0.3768 -0.1298
   87TMC2    C3 1353   4.728   4.451   0.236  0.0681  0.6260 -0.0401
   87TMC2    C4 1354   4.475   4.362   0.308  0.2678 -0.2128  0.7965
   87TMC2    C5 1355   4.531   4.478   0.356 -0.4250 -0.5648  0.1330
   87TMC2    C6 1356   4.654   4.532   0.316  0.2854  0.3224  0.1339
   87TMC2     C 1357   4.552   4.135   0.260 -0.0602 -0.2416 -0.7376
   87TMC2     O 1358   4.635   4.059   0.216 -0.1621  0.4627  0.2174
   87TMC2     H 1359   0.031   4.266   0.165 -0.2246 -1.2809  2.2859
   87TMC2    H1 1360   4.377   4.327   0.339 -0.9431  1.3888 -1.2133
   87TMC2    H2 1361   4.684   4.635   0.333  0.3951  0.5553 -1.4036
   87TMC2    C7 1362   4.437   4.564   0.429  0.5489  0.3435 -0.0744
   87TMC2    C8 1363   0.132   4.488   0.211  0.1051  0.2809 -0.2960
   87TMC2    O1 1364   4.315   4.558   0.401 -0.5031  0.9131  0.1285
   87TMC2    O2 1365   0.220   4.401   0.202 -0.0139 -0.7563 -0.1754
   87TMC2    O5 1366   0.119   4.597   0.138 -0.0178 -0.2172  0.2221
   87TMC2    H5 1367   0.031   4.638   0.146 -0.6491 -1.7326  0.9980
   88MPD2     C 1368   4.532   0.078   0.682 -0.1774  0.1882  0.1837
   88MPD2    C1 1369   4.456   0.025   0.583 -0.4336 -0.1795  0.6144
   88MPD2    C2 1370   4.335   0.080   0.559  0.1527  0.4152  0.0840
   88MPD2    C3 1371   4.289   0.192   0.632 -0.4444 -0.1170 -0.0022
   88MPD2    C4 1372   4.370   0.243   0.725  0.2738  0.0185  0.3218
   88MPD2    C5 1373   4.489   0.185   0.753 -0.7108  0.2156  0.2775
   88MPD2     H 1374   4.272   0.051   0.476  0.9969  3.1176 -1.5127
   88MPD2    H1 1375   4.353   0.339   0.771 -2.9968  0.1781 -1.2698
   88MPD2    H2 1376   4.627   0.034   0.710  0.1507  0.1230 -1.0237
   88MPD2    H3 1377   4.554   0.224   0.830  1.3817  1.2076 -1.9852
   88MPD2     N 1378   4.169   0.256   0.604 -0.5211 -0.2959  0.6164
   88MPD2    H5 1379   4.141   0.329   0.669  3.0898 -1.1491  3.1076
   88MPD2    N1 1380   4.508   4.654   0.506  0.4323 -0.3413  0.3853
   88MPD2    H7 1381   4.607   4.634   0.513  0.0151 -2.5405 -0.2293
   89TMC2    C1 1382   1.218   2.173   1.641 -0.2312  0.6118  0.1658
   89TMC2    C2 1383   1.326   2.124   1.574  0.5560  0.0758 -0.1280
   89TMC2    C3 1384   1.419   2.220   1.540  0.1961 -0.1662  0.1533
   89TMC2    C4 1385   1.211   2.294   1.695  0.4440 -0.1849  1.0453
   89TMC2    C5 1386   1.301   2.385   1.656 -0.6451 -0.3753  0.1856
   89TMC2    C6 1387   1.406   2.352   1.570 -0.4736 -0.5268 -0.5120
   89TMC2     C 1388   1.101   2.080   1.647  0.2453 -0.4182 -0.0079
   89TMC2     O 1389   1.132   1.963   1.667 -0.8846 -0.6385  0.0278
   89TMC2     H 1390   1.329   2.025   1.530  1.2569  0.3431 -0.6847
   89TMC2    H1 1391   1.120   2.329   1.741  0.4407 -0.7952  1.5071
   89TMC2    H2 1392   1.479   2.427   1.539  0.9026 -1.9073 -0.5805
   89TMC2    C7 1393   1.263   2.524   1.669  0.6747  0.0659  0.4135
   89TMC2    C8 1394   1.537   2.178   1.470 -0.1277  0.4908 -0.2802
   89TMC2    O1 1395   1.148   2.540   1.704  0.0919  0.0978 -0.3524
   89TMC2    O2 1396   1.609   2.084   1.498  0.0688 -0.3048  0.0345
   89TMC2    O5 1397   1.565   2.281   1.387  0.0192 -0.7459  0.7037
   89TMC2    H5 1398   1.503   2.354   1.367  0.3894 -0.9347 -1.1106
   90MPD2     C 1399   0.603   1.964   1.627  0.2680 -0.3153  0.4964
   90MPD2    C1 1400   0.618   2.103   1.599 -0.0486 -0.3515  0.7977
   90MPD2    C2 1401   0.745   2.152   1.607  0.0773  0.0385 -0.2978
   90MPD2    C3 1402   0.855   2.079   1.639 -0.9006  0.2763 -0.7625
   90MPD2    C4 1403   0.841   1.942   1.653  0.3199  1.4132  0.1316
   90MPD2    C5 1404   0.715   1.887   1.643 -0.1581  0.1800  0.0023
   90MPD2     H 1405   0.755   2.256   1.577  0.4712 -0.6858 -2.6795
   90MPD2    H1 1406   0.917   1.866   1.670  0.9383  1.8854 -0.5197
   90MPD2    H2 1407   0.507   1.913   1.629 -1.2035  2.4257  1.0492
   90MPD2    H3 1408   0.711   1.782   1.667  1.6477  0.1840  0.3261
   90MPD2     N 1409   0.979   2.144   1.644  0.3570 -0.0995  0.1946
   90MPD2    H5 1410   0.979   2.244   1.627 -2.3987  0.2744  2.3643
   90MPD2    N1 1411   0.510   2.198   1.565  0.1610  0.1228  0.7276
   90MPD2    H7 1412   0.539   2.293   1.545  2.0083 -1.0228 -2.0558
   91TMC2    C1 1413   2.040   1.599  16.440  0.5816 -0.1891  0.0575
   91TMC2    C2 1414   2.123   1.647  16.530 -0.4374  0.1088  0.6100
   91TMC2    C3 1415   2.073   1.641  16.654  0.1828 -0.2374 -0.0251
   91TMC2    C4 1416   1.903   1.567  16.463 -0.6930  0.2500 -0.3616
   91TMC2    C5 1417   1.858   1.567  16.595  0.2225  0.2758 -0.3947
   91TMC2    C6 1418   1.942   1.608  16.689  0.6014 -1.2633 -0.0433
   91TMC2     C 1419   2.077   1.612  16.292  0.4414 -0.1080  0.4839
   91TMC2     O 1420   1.991   1.568  16.214 -0.0663  0.0230 -0.2009
   91TMC2     H 1421   2.210   1.703  16.499 -1.3046 -0.6224 -3.1024
   91TMC2    H1 1422   1.841   1.524  16.384  1.4171 -2.4388 -0.5705
   91TMC2    H2 1423   1.915   1.596  16.793  2.1341 -0.2810  0.4526
   91TMC2    C7 1424   1.716   1.555  16.637 -0.3761 -0.0458 -0.0112
   91TMC2    C8 1425   2.170   1.667  16.758 -0.0409 -0.7653  0.4027
   91TMC2    O1 1426   1.681   1.579  16.752 -0.1453 -0.1020  0.2158
   91TMC2    O2 1427   2.141   1.669  16.876 -0.8225  0.6008  0.6172
   91TMC2    O5 1428   2.288   1.626  16.713  0.5215 -0.1142  0.1477
   91TMC2    H5 1429   2.297   1.618  16.615  0.4330 -2.1773  0.2954
   92MPD2     C 1430   2.176   1.620  16.009  0.1698  0.8271 -0.6997
   92MPD2    C1 1431   2.247   1.653  16.120  0.3289 -0.3998  0.0489
   92MPD2    C2 1432   2.376   1.693  16.105 -0.5893  0.2886  0.1646
   92MPD2    C3 1433   2.443   1.691  15.979  0.4063 -1.1323  0.3065
   92MPD2    C4 1434   2.370   1.651  15.868  0.1808 -0.4395 -0.2275
   92MPD2    C5 1435   2.244   1.606  15.886 -0.3581  0.6410 -0.9575
   92MPD2     H 1436   2.432   1.714  16.196  1.1453  1.3716 -1.1551
   92MPD2    H1 1437   2.413   1.634  15.770  1.2710 -0.5867  0.2742
   92MPD2    H2 1438   2.073   1.588  16.009 -0.4171  2.6995 -0.9698
   92MPD2    H3 1439   2.197   1.562  15.799 -0.9982  0.5014 -0.5427
   92MPD2     N 1440   2.572   1.741  15.976  0.0808 -0.3199 -0.0351
   92MPD2    H5 1441   2.608   1.781  16.062 -1.9316  0.4893  0.4386
   92MPD2    N1 1442   2.201   1.655  16.258 -0.0380 -0.6640 -0.1434
   92MPD2    H7 1443   2.267   1.683  16.330 -0.3450 -0.2102 -0.0430
   93TMC2    C1 1444   3.846   1.574  14.113  0.0410  0.4648  0.8560
   93TMC2    C2 1445   3.770   1.623  14.219  0.3468  0.8531 -0.7695
   93TMC2    C3 1446   3.834   1.708  14.303 -0.0449 -0.5236 -0.5286
   93TMC2    C4 1447   3.973   1.612  14.089  0.1658 -1.1000 -0.3656
   93TMC2    C5 1448   4.020   1.714  14.164 -0.1746  0.7057 -0.0723
   93TMC2    C6 1449   3.956   1.765  14.276 -0.6416  0.5114  0.6201
   93TMC2     C 1450   3.771   1.503  14.010 -0.4886 -0.1930  0.5050
   93TMC2     O 1451   3.835   1.418  13.949  0.5412  0.0507  0.4490
   93TMC2     H 1452   3.670   1.590  14.246  0.8987 -1.5374 -1.6479
   93TMC2    H1 1453   4.023   1.565  14.005  0.2623  1.6646 -1.8180
   93TMC2    H2 1454   4.006   1.843  14.332  2.0210 -1.5256  1.0696
   93TMC2    C7 1455   4.127   1.785  14.094 -0.0026 -0.1347 -0.3938
   93TMC2    C8 1456   3.758   1.743  14.415 -0.1482  0.3940 -0.3777
   93TMC2    O1 1457   4.147   1.739  13.981  0.3943 -0.2306 -0.0109
   93TMC2    O2 1458   3.638   1.722  14.430 -0.2152  0.0406 -0.0943
   93TMC2    O5 1459   3.839   1.773  14.519  0.5445  0.0908  0.3813
   93TMC2    H5 1460   3.927   1.795  14.481 -0.6094  0.2403 -2.2034
   94MPD2     C 1461   3.563   1.426  13.799 -0.3805  0.3290  0.2730
   94MPD2    C1 1462   3.535   1.471  13.926 -0.0865 -0.6831 -0.1960
   94MPD2    C2 1463   3.410   1.486  13.965  0.3052 -0.2869 -0.3936
   94MPD2    C3 1464   3.303   1.467  13.886 -0.3807  0.1073 -0.4981
   94MPD2    C4 1465   3.329   1.426  13.758 -0.0049  0.5834  0.0488
   94MPD2    C5 1466   3.457   1.399  13.719  0.2600 -0.5950  0.8991
   94MPD2     H 1467   3.390   1.524  14.064  1.0217 -0.6148 -0.1315
   94MPD2    H1 1468   3.255   1.397  13.685 -2.0931  1.9968  1.6147
   94MPD2    H2 1469   3.663   1.417  13.760 -0.6207 -1.3111  0.0194
   94MPD2    H3 1470   3.467   1.359  13.619  1.4442  1.9503 -0.0073
   94MPD2     N 1471   3.168   1.472  13.929 -0.5123  0.4359  0.2128
   94MPD2    H5 1472   3.106   1.421  13.867 -1.7980  2.5048 -0.2267
   94MPD2    N1 1473   3.633   1.519  14.016 -0.1498  0.4016 -0.2592
   94MPD2    H7 1474   3.598   1.571  14.095 -0.4935 -1.2995  0.6910
   95TMC2    C1 1475   3.708   3.778  16.173  0.1989 -0.1962  0.4089
   95TMC2    C2 1476   3.679   3.683  16.268 -0.1359  0.1245  1.0805
   95TMC2    C3 1477   3.678   3.726  16.403 -0.1859  0.2957  0.2187
   95TMC2    C4 1478   3.715   3.911  16.210 -0.2036  0.6518 -0.6506
   95TMC2    C5 1479   3.709   3.953  16.341 -0.3533 -1.0985 -0.2385
   95TMC2    C6 1480   3.679   3.858  16.438  0.5853 -0.0632 -0.4347
   95TMC2     C 1481   3.770   3.755  16.042  0.5027 -0.4100  0.3570
   95TMC2     O 1482   3.816   3.850  15.979  0.4429  0.4795 -0.0066
   95TMC2     H 1483   3.690   3.578  16.241  2.3175  1.1055 -1.7203
   95TMC2    H1 1484   3.721   3.987  16.133 -0.3680  2.0971  0.7721
   95TMC2    H2 1485   3.681   3.875  16.545  0.2850  0.3234 -0.4917
   95TMC2    C7 1486   3.720   4.093  16.389 -0.1151 -0.3504 -0.3976
   95TMC2    C8 1487   3.707   3.619  16.496  0.5702  0.5770  0.3902
   95TMC2    O1 1488   3.715   4.108  16.510 -0.7897 -0.1873 -0.4535
   95TMC2    O2 1489   3.765   3.516  16.469 -0.0417  0.1843  0.0924
   95TMC2    O5 1490   3.651   3.652  16.616 -0.1756 -0.0297  0.3687
   95TMC2    H5 1491   3.598   3.735  16.621 -1.0389 -0.5335 -0.5811
   96MPD2     C 1492   3.882   3.464  15.631  0.3629  0.4810 -0.3217
   96MPD2    C1 1493   3.934   3.586  15.672  0.2407  0.2879 -0.0085
   96MPD2    C2 1494   3.890   3.640  15.792 -0.7921  0.4126 -0.4586
   96MPD2    C3 1495   3.800   3.570  15.876  0.0672 -0.3893 -0.2559
   96MPD2    C4 1496   3.751   3.445  15.830  1.1111  0.8022  0.3391
   96MPD2    C5 1497   3.795   3.396  15.708 -0.4184 -0.4555  0.0800
   96MPD2     H 1498   3.917   3.740  15.824  0.9037  0.3871 -1.8229
   96MPD2    H1 1499   3.679   3.387  15.887  0.9251 -0.2407 -0.9704
   96MPD2    H2 1500   3.890   3.425  15.530 -1.0939 -2.8024  0.8347
   96MPD2    H3 1501   3.773   3.295  15.676 -2.1122 -0.1797  0.3502
   96MPD2     N 1502   3.752   3.623  16.001  0.2767 -0.1749 -0.5534
   96MPD2    H5 1503   3.687   3.571  16.059 -0.3071  1.2127  0.0264
   96MPD2    N1 1504   4.017   3.657  15.584  0.1728 -0.3854  0.6372
   96MPD2    H7 1505   4.050   3.601  15.506  1.2131  0.1862  0.6663
   97TMC2    C1 1506   1.294   0.949   0.179  0.8022  0.1710 -0.2066
   97TMC2    C2 1507   1.304   0.883   0.058  0.1173  0.4001 -0.4778
   97TMC2    C3 1508   1.389   0.931  17.704  0.3474 -0.1722  0.3174
   97TMC2    C4 1509   1.344   1.074   0.181  0.7288  0.0170  0.2629
   97TMC2    C5 1510   1.412   1.126   0.081  0.6588 -0.0721  0.0871
   97TMC2    C6 1511   1.441   1.057  17.703 -0.1790  0.0654  0.3163
   97TMC2     C 1512   1.221   0.901   0.294  0.9575 -0.2086 -0.2567
   97TMC2     O 1513   1.179   0.985   0.375  0.3735  0.0152 -0.6141
   97TMC2     H 1514   1.276   0.778   0.055 -0.2194  0.4258  1.2203
   97TMC2    H1 1515   1.316   1.143   0.260 -1.2988  1.1288 -1.4266
   97TMC2    H2 1516   1.510   1.090  17.627 -1.5206  0.8680 -0.5464
   97TMC2    C7 1517   1.445   1.266   0.096 -0.8087  0.0522  0.4459
   97TMC2    C8 1518   1.406   0.837  17.602  1.7749 -0.5593 -0.4993
   97TMC2    O1 1519   1.490   1.306   0.203 -0.7080 -0.7360  0.7266
   97TMC2    O2 1520   1.308   0.771  17.572  0.0363  0.6511  0.1832
   97TMC2    O5 1521   1.488   0.889  17.510  0.4127 -0.2522 -0.0298
   97TMC2    H5 1522   1.565   0.935  17.549 -0.4794 -0.1268  1.5674
   98MPD2     C 1523   1.094   0.509   0.582 -0.2738 -0.2951  0.5989
   98MPD2    C1 1524   1.073   0.639   0.610 -0.1174 -0.2985  0.4788
   98MPD2    C2 1525   1.108   0.727   0.506  0.2602 -0.0232  0.2193
   98MPD2    C3 1526   1.170   0.681   0.389  0.2842 -0.1490 -1.0589
   98MPD2    C4 1527   1.192   0.549   0.371 -0.0784  0.7459  0.0106
   98MPD2    C5 1528   1.140   0.462   0.462 -0.5580 -0.0377  0.1914
   98MPD2     H 1529   1.075   0.831   0.504  2.1790  0.5183 -2.4833
   98MPD2    H1 1530   1.247   0.511   0.286  2.6923  0.9772  1.6906
   98MPD2    H2 1531   1.070   0.440   0.663 -2.2922 -0.5612 -0.2108
   98MPD2    H3 1532   1.138   0.356   0.440 -1.5793 -0.5668  2.8174
   98MPD2     N 1533   1.229   0.766   0.293 -0.2116 -0.3565  0.3294
   98MPD2    H5 1534   1.286   0.719   0.223 -1.1030 -1.3490  0.2691
   98MPD2    N1 1535   1.017   0.681   0.730 -0.1729  0.1192  0.3542
   98MPD2    H7 1536   0.987   0.604   0.789 -0.2084  1.1447  1.6697
   99TMC2    C1 1537   0.174   4.123   1.018  0.1747 -0.0076 -0.9667
   99TMC2    C2 1538   0.249   4.098   1.124  0.1597 -0.0699  0.0101
   99TMC2    C3 1539   0.199   4.134   1.247  0.4464  0.1240  0.1894
   99TMC2    C4 1540   0.066   4.210   1.016 -1.0139  0.3481 -0.1333
   99TMC2    C5 1541   0.014   4.232   1.137  0.6515  1.0540  0.6846
   99TMC2    C6 1542   0.083   4.203   1.251  0.1560 -0.4113 -0.1786
   99TMC2     C 1543   0.196   4.062   0.888 -0.4515 -0.0463 -0.3694
   99TMC2     O 1544   0.139   4.119   0.795 -1.0137  0.0750 -0.6827
   99TMC2     H 1545   0.346   4.050   1.118  1.1755  1.5733  3.3595
   99TMC2    H1 1546   0.015   4.234   0.924 -1.7481 -0.7655 -0.0202
   99TMC2    H2 1547   0.050   4.226   1.352 -0.1256  0.8418 -0.5618
   99TMC2    C7 1548   4.613   4.281   1.146  0.3050  0.1187  0.4518
   99TMC2    C8 1549   0.282   4.111   1.367  0.7132 -0.7806 -0.3626
   99TMC2    O1 1550   4.569   4.340   1.245  0.2774 -0.6232  0.1460
   99TMC2    O2 1551   0.275   4.175   1.471 -0.5577  0.4714  0.0514
   99TMC2    O5 1552   0.353   4.000   1.354 -0.8826 -0.0835  0.4682
   99TMC2    H5 1553   0.335   3.937   1.281 -0.1094 -1.3922  1.3917
  100MPD2     C 1554   0.270   3.909   0.657  0.3159  0.0257 -0.5632
  100MPD2    C1 1555   0.305   3.868   0.784  0.1705  0.6462  0.4906
  100MPD2    C2 1556   0.378   3.747   0.799 -0.6652  0.3748  0.2901
  100MPD2    C3 1557   0.405   3.673   0.685 -0.2743 -0.1022 -0.2563
  100MPD2    C4 1558   0.359   3.713   0.557  0.2465  0.5596 -0.1623
  100MPD2    C5 1559   0.288   3.831   0.549  0.2161  0.9324 -0.1636
  100MPD2     H 1560   0.418   3.728   0.898  3.1016 -0.3411 -1.3611
  100MPD2    H1 1561   0.362   3.648   0.470  0.3240  4.0546 -2.7309
  100MPD2    H2 1562   0.213   3.997   0.629  0.6876  0.7159  0.8820
  100MPD2    H3 1563   0.232   3.869   0.464 -0.3997 -2.0340 -1.0686
  100MPD2     N 1564   0.475   3.552   0.705 -0.0860  0.3929 -0.6201
  100MPD2    H5 1565   0.490   3.528   0.802 -0.4601 -2.3048 -1.2377
  100MPD2    N1 1566   0.272   3.946   0.896 -0.3575 -0.2615 -0.2165
  100MPD2    H7 1567   0.308   3.917   0.986 -1.1338 -1.0397 -0.1583
  101TMC2    C1 1568   0.205   4.635  13.095 -0.4372 -0.1832  0.5845
  101TMC2    C2 1569   0.084   4.688  13.125  0.2061  0.2124  0.7833
  101TMC2    C3 1570   0.059   0.081  13.085 -0.1823 -1.0571 -0.3152
  101TMC2    C4 1571   0.298   4.707  13.025  0.0333  0.0596  0.3132
  101TMC2    C5 1572   0.271   0.096  12.991 -0.4634 -0.6468  0.5191
  101TMC2    C6 1573   0.157   0.162  13.022  0.0727  0.3717 -0.0740
  101TMC2     C 1574   0.226   4.497  13.137 -0.1873  0.2076 -0.0733
  101TMC2     O 1575   0.133   4.448  13.201 -0.3035  0.0112  0.4355
  101TMC2     H 1576   0.019   4.642  13.198 -0.3194  0.9144  0.7564
  101TMC2    H1 1577   0.389   4.655  12.999 -0.8869 -1.0511 -0.6817
  101TMC2    H2 1578   0.140   0.264  12.991  0.2603 -0.4958 -3.0146
  101TMC2    C7 1579   0.354   0.163  12.894 -0.4199 -0.6594 -0.2231
  101TMC2    C8 1580   4.663   0.139  13.106  0.5139 -0.4419  0.9066
  101TMC2    O1 1581   0.327   0.279  12.868 -0.9799 -0.3619 -0.2091
  101TMC2    O2 1582   4.642   0.258  13.109 -0.2953  0.4976 -0.3567
  101TMC2    O5 1583   4.579   0.046  13.054  0.1237 -0.1554 -0.7525
  101TMC2    H5 1584   4.625   4.698  13.036  1.4154  0.2075  0.8619
  102MPD2     C 1585   0.487   4.263  13.025 -0.2242  0.6530  0.5542
  102MPD2    C1 1586   0.377   4.310  13.099  0.1480 -0.0728 -0.9904
  102MPD2    C2 1587   0.327   4.229  13.197  0.3280  0.4526  0.3333
  102MPD2    C3 1588   0.385   4.102  13.233  0.2601 -0.0653  0.6817
  102MPD2    C4 1589   0.495   4.068  13.158 -0.1464 -0.4449  0.1997
  102MPD2    C5 1590   0.541   4.139  13.053 -0.1113  0.6977 -0.0468
  102MPD2     H 1591   0.240   4.263  13.250 -1.0007 -0.2656 -1.3819
  102MPD2    H1 1592   0.553   3.977  13.170 -0.5164 -0.7503 -0.3136
  102MPD2    H2 1593   0.532   4.329  12.952 -0.9355 -0.0396 -0.5017
  102MPD2    H3 1594   0.628   4.094  13.006 -0.7724 -0.4044 -0.2158
  102MPD2     N 1595   0.334   4.025  13.332 -0.1272 -1.1003 -0.1917
  102MPD2    H5 1596   0.247   4.061  13.371 -0.0945 -3.2614  1.9387
  102MPD2    N1 1597   0.327   4.440  13.066  0.4509 -0.0865 -0.0214
  102MPD2    H7 1598   0.374   4.493  12.993  2.0603 -0.0406  1.0611
  103TMC2    C1 1599   3.521   3.929  12.804 -0.0110 -0.1800 -0.5529
  103TMC2    C2 1600   3.656   3.909  12.790  0.0237  0.5974 -0.4775
  103TMC2    C3 1601   3.728   4.005  12.865 -0.0369 -0.6676  0.3763
  103TMC2    C4 1602   3.465   4.011  12.896  0.3474 -0.0537 -0.1203
  103TMC2    C5 1603   3.544   4.083  12.979 -0.3639  0.6087 -0.0188
  103TMC2    C6 1604   3.679   4.088  12.954 -0.5294 -0.1344  0.5330
  103TMC2     C 1605   3.426   3.886  12.695  0.2060  0.5712 -0.7170
  103TMC2     O 1606   3.307   3.911  12.709  0.7952  0.3678 -0.1444
  103TMC2     H 1607   3.710   3.842  12.724 -1.6094 -1.6705  0.4558
  103TMC2    H1 1608   3.358   4.022  12.905  0.4395 -0.7104  1.6924
  103TMC2    H2 1609   3.745   4.167  12.986  0.0257 -0.4386  0.1458
  103TMC2    C7 1610   3.487   4.183  13.065  0.3995  0.3446  0.4001
  103TMC2    C8 1611   3.871   4.001  12.842  0.6366 -0.4650 -0.3926
  103TMC2    O1 1612   3.392   4.144  13.135 -0.1909 -0.0391  0.5308
  103TMC2    O2 1613   3.910   3.963  12.731  0.0387  0.3248 -0.7610
  103TMC2    O5 1614   3.923   3.956  12.962  0.0700 -0.2012  0.6331
  103TMC2    H5 1615   3.917   4.033  13.023 -1.5496 -0.2946  0.6056
  104MPD2     C 1616   3.481   3.650  12.415  0.5500 -0.5052 -0.6079
  104MPD2    C1 1617   3.419   3.754  12.483 -0.4149  0.3412  0.3050
  104MPD2    C2 1618   3.294   3.783  12.443 -0.3998 -0.7392 -0.1920
  104MPD2    C3 1619   3.218   3.694  12.370 -0.0407 -0.0338 -0.2200
  104MPD2    C4 1620   3.281   3.585  12.314 -0.9267  0.4285  0.1865
  104MPD2    C5 1621   3.414   3.565  12.328 -0.1178  0.2029  0.5315
  104MPD2     H 1622   3.240   3.868  12.483  1.4030 -0.3424  1.3963
  104MPD2    H1 1623   3.230   3.512  12.253  1.8391 -1.1642 -0.2168
  104MPD2    H2 1624   3.588   3.635  12.425  0.3692 -0.9771  0.6248
  104MPD2    H3 1625   3.467   3.488  12.274  1.4532  0.7440  1.2893
  104MPD2     N 1626   3.082   3.730  12.346 -0.1919  0.4606 -0.3291
  104MPD2    H5 1627   3.053   3.822  12.378 -0.6981  0.0746  0.3294
  104MPD2    N1 1628   3.491   3.814  12.594 -0.4661  0.5029  0.3702
  104MPD2    H7 1629   3.588   3.789  12.613  0.6063  2.9213 -2.0226
  105TMC2    C1 1630   4.696   3.273   0.235 -0.3168 -0.0790  0.8486
  105TMC2    C2 1631   4.657   3.150   0.279  0.1797 -0.2616  0.5381
  105TMC2    C3 1632   4.533   3.126   0.331  0.1431  0.0138  0.6850
  105TMC2    C4 1633   4.609   3.375   0.241 -0.3752  0.2460  0.1250
  105TMC2    C5 1634   4.485   3.353   0.296  0.7180 -0.3867 -0.6081
  105TMC2    C6 1635   4.445   3.233   0.339  0.1584  0.4301 -0.6193
  105TMC2     C 1636   0.074   3.274   0.145 -0.2653  0.5585 -0.3533
  105TMC2     O 1637   0.159   3.194   0.177  1.1375 -0.5467  0.6082
  105TMC2     H 1638   4.732   3.071   0.283 -0.9830 -1.4982 -2.0444
  105TMC2    H1 1639   4.636   3.475   0.208 -1.2887 -0.0408 -1.4982
  105TMC2    H2 1640   4.347   3.212   0.380  1.6914 -1.7093  1.9877
  105TMC2    C7 1641   4.394   3.468   0.329  0.0897 -0.1638  0.1569
  105TMC2    C8 1642   4.475   2.991   0.326  0.0800 -0.3821  0.3778
  105TMC2    O1 1643   4.279   3.440   0.363  0.0829  0.1117 -0.2113
  105TMC2    O2 1644   4.356   2.970   0.328  0.0204  0.4321 -0.2148
  105TMC2    O5 1645   4.558   2.888   0.351  0.0228 -0.3172 -0.0694
  105TMC2    H5 1646   4.653   2.909   0.349  0.5474 -2.6792  0.5942
  106MPD2     C 1647   0.398   3.485  17.545  0.1789 -0.0762 -0.5529
  106MPD2    C1 1648   0.283   3.566  17.549  0.6292 -0.4657  0.0054
  106MPD2    C2 1649   0.182   3.532  17.639  0.3362 -0.5699  0.4657
  106MPD2    C3 1650   0.191   3.423  17.717  0.2039  0.2861  0.1076
  106MPD2    C4 1651   0.307   3.348  17.714 -0.7462 -0.3453 -0.0281
  106MPD2    C5 1652   0.409   3.393  17.639  0.3223 -0.2177  0.2436
  106MPD2     H 1653   0.093   3.594  17.642  0.3241 -0.6018  0.7629
  106MPD2    H1 1654   0.322   3.270   0.044 -0.8741  0.7028  1.1250
  106MPD2    H2 1655   0.489   3.515  17.495  1.4224 -1.2344  1.0308
  106MPD2    H3 1656   0.501   3.336  17.649  1.5719  1.9393  1.1216
  106MPD2     N 1657   0.083   3.384   0.060  0.2977  0.4719 -0.1849
  106MPD2    H5 1658   0.005   3.449   0.048 -1.7959 -1.8366  0.8977
  106MPD2    N1 1659   0.261   3.671  17.453 -0.2312 -0.1377  0.7352
  106MPD2    H7 1660   0.184   3.734  17.472 -0.6166  0.2379 -2.0488
  107TMC2    C1 1661   0.387   3.419  11.738  0.7263 -0.2404 -0.6559
  107TMC2    C2 1662   0.474   3.515  11.704  0.0010 -0.5574 -0.5987
  107TMC2    C3 1663   0.539   3.511  11.585  0.0633  0.0864 -0.6431
  107TMC2    C4 1664   0.366   3.310  11.660  0.1085  0.3752 -0.3308
  107TMC2    C5 1665   0.447   3.300  11.550  0.2142 -0.3471  0.8430
  107TMC2    C6 1666   0.529   3.399  11.508  0.3195  0.1862 -0.1846
  107TMC2     C 1667   0.307   3.428  11.862  0.0809  0.3855 -0.8418
  107TMC2     O 1668   0.232   3.336  11.892 -0.0101 -0.3205  0.4582
  107TMC2     H 1669   0.506   3.589  11.777  0.0271 -1.4422  0.2801
  107TMC2    H1 1670   0.308   3.222  11.685 -0.3084  0.4457 -1.0206
  107TMC2    H2 1671   0.598   3.385  11.426 -0.9254 -0.3299 -1.1480
  107TMC2    C7 1672   0.451   3.173  11.483 -0.1722  0.0770 -0.2225
  107TMC2    C8 1673   0.627   3.617  11.542  0.2250 -0.0310 -0.0682
  107TMC2    O1 1674   0.350   3.103  11.495  0.7967  0.1910  0.2514
  107TMC2    O2 1675   0.692   3.590  11.444  0.1034 -0.2151 -0.1432
  107TMC2    O5 1676   0.547   3.730  11.557 -0.3079  0.5672 -0.5197
  107TMC2    H5 1677   0.474   3.724  11.622  1.5789  1.5377  1.6977
  108MPD2     C 1678   0.261   3.720  12.080  0.1056 -0.2434 -0.1296
  108MPD2    C1 1679   0.245   3.590  12.040  0.3000 -0.2472 -0.1069
  108MPD2    C2 1680   0.172   3.507  12.115  0.1349 -0.1832  0.2047
  108MPD2    C3 1681   0.108   3.553  12.230  0.2483  0.1853  0.0036
  108MPD2    C4 1682   0.122   3.688  12.263 -0.4583 -0.6453  0.4001
  108MPD2    C5 1683   0.204   3.768  12.193 -0.0462  0.8605  0.2209
  108MPD2     H 1684   0.168   3.399  12.102 -2.7270 -0.0664  0.1539
  108MPD2    H1 1685   0.047   3.728  12.332 -0.5446 -2.8926  1.6117
  108MPD2    H2 1686   0.313   3.789  12.015 -0.0284 -0.6059 -0.6134
  108MPD2    H3 1687   0.214   3.872  12.222 -1.8670  1.2093 -0.3924
  108MPD2     N 1688   0.040   3.467  12.320  0.4591  0.4045  0.3546
  108MPD2    H5 1689   0.018   3.508  12.410 -0.0452  1.4407 -0.2266
  108MPD2    N1 1690   0.312   3.553  11.922 -0.3373  0.2688  0.2190
  108MPD2    H7 1691   0.358   3.624  11.866  0.4317  1.3609  2.2109
  109TMC2    C1 1692   0.650   1.400   0.636  0.0074 -0.0840 -0.2678
  109TMC2    C2 1693   0.777   1.434   0.652 -0.3621  0.9080 -0.1145
  109TMC2    C3 1694   0.856   1.324   0.671  0.1530 -0.7569  0.1633
  109TMC2    C4 1695   0.596   1.271   0.621  0.1823 -0.5399  0.1972
  109TMC2    C5 1696   0.684   1.172   0.613 -0.3469 -0.2341 -0.3273
  109TMC2    C6 1697   0.811   1.194   0.650  0.3907  0.3441 -0.1817
  109TMC2     C 1698   0.561   1.482   0.709  0.3460  0.2875  0.5969
  109TMC2     O 1699   0.584   1.603   0.711  0.7484  0.7784  0.0573
  109TMC2     H 1700   0.795   1.530   0.700  0.2218  1.0121 -0.5430
  109TMC2    H1 1701   0.494   1.260   0.584 -0.0530 -1.7857  1.2332
  109TMC2    H2 1702   0.872   1.105   0.663 -1.8177 -0.8955  1.7180
  109TMC2    C7 1703   0.623   1.043   0.622 -0.1547  0.8717 -0.0878
  109TMC2    C8 1704   0.981   1.346   0.740 -0.2657  0.1731 -0.1270
  109TMC2    O1 1705   0.505   1.042   0.649  0.3649 -0.3076 -0.0682
  109TMC2    O2 1706   1.059   1.431   0.700 -0.4958 -0.0626  0.3941
  109TMC2    O5 1707   0.957   1.318   0.865 -0.0410 -0.1269  0.7720
  109TMC2    H5 1708   0.873   1.269   0.874  0.0859 -0.8322 -2.1651
  110MPD2     C 1709   0.149   1.568   1.008 -0.0560 -0.0234 -0.1928
  110MPD2    C1 1710   0.159   1.428   1.002  0.1961 -0.1965 -0.8999
  110MPD2    C2 1711   0.260   1.382   0.914 -0.5212 -0.2828 -0.2339
  110MPD2    C3 1712   0.340   1.467   0.838  0.0563 -0.2360  0.2562
  110MPD2    C4 1713   0.324   1.608   0.845  0.0786 -0.3476  0.4148
  110MPD2    C5 1714   0.227   1.656   0.930 -0.8940 -0.3178  0.0826
  110MPD2     H 1715   0.272   1.275   0.914  0.2145 -0.1946 -0.4337
  110MPD2    H1 1716   0.393   1.681   0.805  0.7434 -0.9523  0.4417
  110MPD2    H2 1717   0.067   1.609   1.066 -0.0804  0.8302 -0.8449
  110MPD2    H3 1718   0.218   1.762   0.950 -0.4529 -0.4337  0.8611
  110MPD2     N 1719   0.452   1.414   0.769 -0.0253  0.0826 -0.0209
  110MPD2    H5 1720   0.456   1.313   0.763 -3.1978 -0.0778  0.5707
  110MPD2    N1 1721   0.072   1.345   1.074 -0.1846  0.3454 -0.3775
  110MPD2    H7 1722   0.003   1.391   1.132 -0.2409 -1.3265  0.8816
  111TMC2    C1 1723   0.392   4.325  11.495  0.1319 -0.1659  0.0982
  111TMC2    C2 1724   0.304   4.216  11.480  0.0098  0.7160  0.0993
  111TMC2    C3 1725   0.360   4.091  11.481  0.5366 -0.2171  0.9592
  111TMC2    C4 1726   0.525   4.305  11.507 -0.4486  0.0207 -0.0371
  111TMC2    C5 1727   0.575   4.175  11.508  0.3726 -0.2814 -0.9351
  111TMC2    C6 1728   0.496   4.069  11.497  0.4636 -0.1039  0.6022
  111TMC2     C 1729   0.323   4.447  11.515 -0.0443 -0.7173 -0.3646
  111TMC2     O 1730   0.203   4.439  11.535  0.2424  0.3410 -0.1124
  111TMC2     H 1731   0.196   4.220  11.485  0.0749 -0.1377  2.0525
  111TMC2    H1 1732   0.599   4.383  11.506 -1.4443  0.9595 -0.9341
  111TMC2    H2 1733   0.536   3.970  11.517 -1.7397 -0.8078  1.4807
  111TMC2    C7 1734   0.708   4.153  11.545  0.3541 -0.2637 -0.2530
  111TMC2    C8 1735   0.282   3.983  11.427 -0.6382  0.4625  0.5858
  111TMC2    O1 1736   0.760   4.045  11.521 -0.2375  1.1087 -0.4617
  111TMC2    O2 1737   0.159   3.994  11.413 -0.2100  0.5453  0.3309
  111TMC2    O5 1738   0.367   3.926  11.339 -0.3515 -0.4425  0.3805
  111TMC2    H5 1739   0.464   3.937  11.348 -0.4975  0.2603  1.0910
  112MPD2     C 1740   0.210   0.176  11.581 -0.6357 -0.0118  0.4696
  112MPD2    C1 1741   0.309   0.173  11.486 -0.1876  0.4064 -0.2833
  112MPD2    C2 1742   0.382   0.061  11.468 -0.2971 -0.1129  0.0953
  112MPD2    C3 1743   0.348   4.689  11.538  0.3044  0.5427 -1.0288
  112MPD2    C4 1744   0.261   4.701  11.639 -0.7093  0.2672 -0.4060
  112MPD2    C5 1745   0.197   0.075  11.667  0.1829  0.7759  0.6984
  112MPD2     H 1746   0.451   0.055  11.385  0.2554 -2.5384  0.7258
  112MPD2    H1 1747   0.249   4.617  11.706  0.5550 -0.0358 -0.5627
  112MPD2    H2 1748   0.150   0.264  11.602 -2.8869 -1.6507  1.0000
  112MPD2    H3 1749   0.119   0.068  11.742 -0.7646  2.1230 -0.1571
  112MPD2     N 1750   0.400   4.563  11.511 -0.3470  0.8852  0.0085
  112MPD2    H5 1751   0.491   4.564  11.465  0.6083  0.7564  1.8732
  112MPD2    N1 1752   0.322   0.279  11.391 -0.4194 -0.4415  0.1960
  112MPD2    H7 1753   0.380   0.272  11.308  0.5962  0.2435  0.8343
  113TMC2    C1 1754   3.217   4.006   0.431 -0.0101 -0.0789  0.6125
  113TMC2    C2 1755   3.144   4.096   0.361 -0.1675  0.7471 -0.1435
  113TMC2    C3 1756   3.018   4.065   0.323  0.2532  0.7273 -0.2513
  113TMC2    C4 1757   3.168   3.887   0.467  0.1324  0.4195 -0.6934
  113TMC2    C5 1758   3.043   3.860   0.422  0.7161 -0.2154 -0.3015
  113TMC2    C6 1759   2.965   3.947   0.351  0.3021 -0.2485 -0.3291
  113TMC2     C 1760   3.352   4.053   0.457 -1.0169 -0.6934 -0.0143
  113TMC2     O 1761   3.364   4.176   0.481  0.2030 -0.3043  0.6368
  113TMC2     H 1762   3.197   4.178   0.314  2.8331  0.3840  2.6513
  113TMC2    H1 1763   3.220   3.822   0.536  1.5266  1.8396 -0.4126
  113TMC2    H2 1764   2.877   3.916   0.296  0.0631 -1.3158  0.6512
  113TMC2    C7 1765   2.975   3.747   0.477 -0.2261 -0.0308  0.3868
  113TMC2    C8 1766   2.939   4.164   0.244 -0.5158 -0.1653  0.4119
  113TMC2    O1 1767   2.854   3.755   0.485  0.8990 -0.0596 -0.3977
  113TMC2    O2 1768   2.890   4.137   0.137 -0.1493 -0.1256  0.0430
  113TMC2    O5 1769   2.965   4.282   0.297  0.2062 -0.1130  0.0014
  113TMC2    H5 1770   3.009   4.277   0.385 -1.3137 -0.6259  0.7220
  114MPD2     C 1771   3.855   4.000   0.471  0.2566 -0.0921 -0.3833
  114MPD2    C1 1772   3.783   4.104   0.511  0.1346  0.1787  0.0172
  114MPD2    C2 1773   3.644   4.098   0.504  0.1991 -0.2158 -0.1364
  114MPD2    C3 1774   3.585   3.978   0.456 -0.1342 -0.2157  0.0589
  114MPD2    C4 1775   3.667   3.871   0.429  0.0395  0.2703  0.1629
  114MPD2    C5 1776   3.796   3.879   0.435 -0.3294  0.1833  0.0433
  114MPD2     H 1777   3.586   4.178   0.548  1.8324  1.4493 -0.9708
  114MPD2    H1 1778   3.623   3.773   0.415 -1.4808  0.9685  0.0239
  114MPD2    H2 1779   3.962   4.001   0.457  0.2061 -0.8069 -0.7993
  114MPD2    H3 1780   3.848   3.788   0.410  0.2873  0.7151 -0.6109
  114MPD2     N 1781   3.448   3.953   0.441 -0.2106 -0.3292 -0.4452
  114MPD2    H5 1782   3.423   3.861   0.408 -0.6801 -0.4027  0.1103
  114MPD2    N1 1783   3.835   4.227   0.558 -0.4421  0.4339 -0.0159
  114MPD2    H7 1784   3.775   4.294   0.606 -1.4026  0.5074 -1.2972
  115TMC2    C1 1785   4.694   1.156   0.033  0.2815  0.2568  0.0266
  115TMC2    C2 1786   0.085   1.126   0.011 -0.3264 -0.2555 -0.2862
  115TMC2    C3 1787   0.173   1.230  17.743 -0.0779  0.1955 -0.7494
  115TMC2    C4 1788   4.653   1.282   0.059  0.5082  0.0652  0.2809
  115TMC2    C5 1789   0.005   1.389   0.062  0.0107  0.2780 -0.2258
  115TMC2    C6 1790   0.137   1.356   0.032  0.0630  0.5226  0.3963
  115TMC2     C 1791   4.597   1.048   0.012  0.5317  0.0359 -0.1610
  115TMC2     O 1792   4.643   0.937  17.733  0.2726 -0.0981  0.3266
  115TMC2     H 1793   0.119   1.026  17.728  1.8014  0.2286  0.6282
  115TMC2    H1 1794   4.549   1.304   0.081  0.3382  0.7866 -1.2707
  115TMC2    H2 1795   0.214   1.432   0.036 -0.5409  1.2021 -0.6744
  115TMC2    C7 1796   4.701   1.526   0.051 -0.9134 -0.6322  0.3402
  115TMC2    C8 1797   0.308   1.191  17.707  0.1234 -0.2287 -0.0528
  115TMC2    O1 1798   4.593   1.563   0.099 -0.6929 -0.2965  0.5170
  115TMC2    O2 1799   0.364   1.086  17.737 -0.0200  0.0064 -0.1699
  115TMC2    O5 1800   0.358   1.285  17.619  0.0522  0.0325  0.0232
  115TMC2    H5 1801   0.303   1.358  17.584  1.3031  1.9768  2.1060
  116MPD2     C 1802   4.116   0.904  17.633 -0.0082 -0.5118 -1.1242
  116MPD2    C1 1803   4.236   0.833  17.630 -0.7048 -0.8609  0.4651
  116MPD2    C2 1804   4.351   0.893  17.676  0.0338  0.2462  0.0739
  116MPD2    C3 1805   4.350   1.026  17.715 -0.3279  0.2413  0.2908
  116MPD2    C4 1806   4.243   1.103  17.687 -0.7280 -0.2790  0.0497
  116MPD2    C5 1807   4.123   1.038  17.656 -0.4523  0.0760  0.6273
  116MPD2     H 1808   4.443   0.836  17.687 -1.3853 -2.2607 -1.1090
  116MPD2    H1 1809   4.246   1.207  17.716  0.5741 -0.5057  0.6892
  116MPD2    H2 1810   4.022   0.854  17.613 -2.3299  2.2227  2.9351
  116MPD2    H3 1811   4.034   1.100  17.653 -0.3204  0.3366  2.1161
  116MPD2     N 1812   4.469   1.094   0.009 -0.4659  0.7718  0.0496
  116MPD2    H5 1813   4.455   1.194   0.012 -4.0970  0.2940 -0.2416
  116MPD2    N1 1814   4.222   0.698  17.587 -0.2845 -0.0094  0.1003
  116MPD2    H7 1815   4.127   0.670  17.562  0.9567 -2.7000 -1.5824
  117TMC2    C1 1816   3.323   2.086  14.095  0.5167 -0.2910 -0.2165
  117TMC2    C2 1817   3.437   2.007  14.106  0.6286  0.1566  0.1625
  117TMC2    C3 1818   3.557   2.072  14.130  0.5176  0.4886 -0.4481
  117TMC2    C4 1819   3.331   2.223  14.100  0.2930  0.0187  0.4541
  117TMC2    C5 1820   3.456   2.275  14.115  0.6126 -0.6258  0.6728
  117TMC2    C6 1821   3.569   2.205  14.139  0.2435  0.6504 -0.0162
  117TMC2     C 1822   3.188   2.023  14.092 -0.6424  0.4757  0.2646
  117TMC2     O 1823   3.192   1.911  14.132  0.6448 -0.3829  0.6573
  117TMC2     H 1824   3.433   1.899  14.113 -3.0310  0.3195  0.6228
  117TMC2    H1 1825   3.240   2.282  14.102  0.1151 -0.1648 -2.2066
  117TMC2    H2 1826   3.670   2.242  14.156  1.2364 -2.1728  0.3153
  117TMC2    C7 1827   3.482   2.416  14.092 -0.4530  0.1032 -0.2321
  117TMC2    C8 1828   3.686   1.997  14.144  0.6602 -0.1791  0.2310
  117TMC2    O1 1829   3.580   2.474  14.133  0.6956  0.8152 -0.8246
  117TMC2    O2 1830   3.793   2.042  14.161 -0.2089 -0.1312 -0.0617
  117TMC2    O5 1831   3.670   1.891  14.060  0.0075 -0.0841  0.4890
  117TMC2    H5 1832   3.583   1.887  14.015 -0.6437  0.2974  1.7130
  118MPD2     C 1833   3.265   2.608  13.876 -0.5168  0.2003 -0.3328
  118MPD2    C1 1834   3.367   2.591  13.963 -0.3831  0.2345  0.0176
  118MPD2    C2 1835   3.423   2.700  14.022  0.3644  0.4878  0.4272
  118MPD2    C3 1836   3.387   2.829  13.977  0.6747  0.2452  0.0019
  118MPD2    C4 1837   3.288   2.848  13.884 -0.0340 -0.3983  0.3361
  118MPD2    C5 1838   3.222   2.734  13.841  0.2357 -0.2132  0.4530
  118MPD2     H 1839   3.495   2.683  14.101  1.8585  0.0762 -1.0142
  118MPD2    H1 1840   3.261   2.944  13.840  0.4414 -0.0522  0.7906
  118MPD2    H2 1841   3.200   2.525  13.849  2.2373 -2.0440 -0.0573
  118MPD2    H3 1842   3.153   2.749  13.758  2.4044 -0.1939 -1.3569
  118MPD2     N 1843   3.452   2.938  14.025 -0.4607  0.0334  0.1151
  118MPD2    H5 1844   3.424   3.030  13.990 -1.1526 -0.2972 -0.2043
  118MPD2    N1 1845   3.381   2.458  14.016  0.5909 -0.4168 -0.0860
  118MPD2    H7 1846   3.321   2.386  13.977  0.7673 -1.1850  1.0684
  119TMC2    C1 1847   1.545   3.382  13.530  0.0384  0.0655 -0.4145
  119TMC2    C2 1848   1.618   3.303  13.443  0.1957  0.0665 -0.0764
  119TMC2    C3 1849   1.622   3.175  13.474 -0.4433 -0.1672  0.2637
  119TMC2    C4 1850   1.469   3.332  13.630  0.2953 -0.7258 -0.6461
  119TMC2    C5 1851   1.474   3.199  13.657 -0.0135  1.2357 -0.1641
  119TMC2    C6 1852   1.554   3.121  13.577 -0.2285  0.1241 -0.2682
  119TMC2     C 1853   1.552   3.534  13.520 -0.3011  0.2366  0.2958
  119TMC2     O 1854   1.479   3.606  13.590  0.4817  0.3568 -0.8263
  119TMC2     H 1855   1.640   3.330  13.341 -0.5545  1.1851  0.0496
  119TMC2    H1 1856   1.419   3.403  13.694  1.2796 -1.3030  0.7627
  119TMC2    H2 1857   1.581   3.020  13.608 -0.9760  0.8824  2.8879
  119TMC2    C7 1858   1.354   3.143  13.706  0.2728  0.2366 -0.3312
  119TMC2    C8 1859   1.700   3.082  13.393 -0.2217  0.5091 -0.2637
  119TMC2    O1 1860   1.323   3.040  13.642 -0.3147  0.1054 -0.5064
  119TMC2    O2 1861   1.707   2.958  13.420 -0.1181  0.2625 -0.5000
  119TMC2    O5 1862   1.810   3.145  13.353  0.0879  0.3308 -0.2035
  119TMC2    H5 1863   1.787   3.238  13.333 -2.0121  0.4387  2.8306
  120MPD2     C 1864   1.772   3.969  13.375 -0.2363  0.3811  0.3687
  120MPD2    C1 1865   1.646   3.939  13.418  0.6415 -0.3805 -0.1220
  120MPD2    C2 1866   1.606   3.809  13.435  0.0551 -0.6043 -1.3616
  120MPD2    C3 1867   1.705   3.707  13.431 -0.2211  0.5648 -0.4092
  120MPD2    C4 1868   1.836   3.741  13.392  0.6547  0.1419 -0.2975
  120MPD2    C5 1869   1.868   3.870  13.366 -0.3446 -0.2522  0.1502
  120MPD2     H 1870   1.502   3.794  13.460  0.3413  0.5098  0.4890
  120MPD2    H1 1871   1.911   3.663  13.396 -2.2221 -2.5888  0.1104
  120MPD2    H2 1872   1.799   4.074  13.369 -2.8281  0.9728 -0.9865
  120MPD2    H3 1873   1.969   3.899  13.340 -1.2774  0.8479 -2.2293
  120MPD2     N 1874   1.670   3.574  13.446  0.0266  0.1750 -0.8100
  120MPD2    H5 1875   1.730   3.506  13.400  1.6919  0.5009  0.9095
  120MPD2    N1 1876   1.553   4.044  13.445 -0.6031  0.1725  0.7791
  120MPD2    H7 1877   1.583   4.132  13.404 -0.8206 -0.9184 -1.7720
  121TMC2    C1 1878   2.869   0.499  14.360 -0.5727 -0.2462 -0.1100
  121TMC2    C2 1879   2.873   0.426  14.475  0.1922 -0.4926 -0.2659
  121TMC2    C3 1880   2.770   0.342  14.497 -0.4485 -0.2932  0.5456
  121TMC2    C4 1881   2.776   0.483  14.260  0.1413  0.3202  0.4444
  121TMC2    C5 1882   2.681   0.393  14.283 -0.1353 -0.0351 -0.3961
  121TMC2    C6 1883   2.675   0.317  14.401  0.1317  0.2905 -0.6336
  121TMC2     C 1884   2.996   0.578  14.338 -0.4445 -0.1159 -0.3000
  121TMC2     O 1885   3.096   0.557  14.408  0.2772 -0.0075 -0.3007
  121TMC2     H 1886   2.949   0.436  14.552 -1.3937 -0.4211  1.2910
  121TMC2    H1 1887   2.779   0.537  14.166 -0.2858 -3.2242 -1.6094
  121TMC2    H2 1888   2.590   0.252  14.420 -0.9753  1.1765 -2.5765
  121TMC2    C7 1889   2.631   0.336  14.162  0.1497  0.4178  0.4245
  121TMC2    C8 1890   2.784   0.254  14.610  0.5421  0.4569  0.2618
  121TMC2    O1 1891   2.694   0.341  14.060  0.4726  0.4979 -0.2054
  121TMC2    O2 1892   2.893   0.224  14.662  0.6031 -0.1068  0.2183
  121TMC2    O5 1893   2.674   0.245  14.675  0.7586 -0.3616 -0.3146
  121TMC2    H5 1894   2.594   0.283  14.633 -0.3404 -0.2562  1.8478
  122MPD2     C 1895   3.217   0.660  14.173 -0.3835  0.0948  0.0685
  122MPD2    C1 1896   3.088   0.695  14.146 -0.1804  0.0749 -0.1726
  122MPD2    C2 1897   3.058   0.750  14.023 -0.1377  0.3138 -0.0773
  122MPD2    C3 1898   3.161   0.770  13.928 -0.3605  0.0460 -0.4410
  122MPD2    C4 1899   3.288   0.733  13.960  0.2073 -0.4862  0.0962
  122MPD2    C5 1900   3.316   0.685  14.082 -0.5809  0.1280 -0.0304
  122MPD2     H 1901   2.955   0.769  13.997  0.4039  3.1460 -0.1610
  122MPD2    H1 1902   3.370   0.763  13.896 -1.1556 -0.7715 -1.7952
  122MPD2    H2 1903   3.256   0.610  14.261 -0.3056  1.3646  0.7594
  122MPD2    H3 1904   3.420   0.659  14.099 -0.3898 -1.6308 -3.6968
  122MPD2     N 1905   3.135   0.820  13.800  0.2592  0.0636  0.1494
  122MPD2    H5 1906   3.207   0.826  13.729  1.5305 -0.2323  1.4110
  122MPD2    N1 1907   2.978   0.665  14.229 -0.0455  0.8720  0.8440
  122MPD2    H7 1908   2.893   0.673  14.174 -0.0046  0.1226  0.6702
  123TMC2    C1 1909   0.798   3.531  11.081 -0.6329 -0.0363  0.7728
  123TMC2    C2 1910   0.728   3.633  11.136 -0.1731  0.0279  0.3554
  123TMC2    C3 1911   0.761   3.763  11.098  0.9460  0.3820  0.5869
  123TMC2    C4 1912   0.903   3.557  10.999  0.0841 -0.6605  0.2932
  123TMC2    C5 1913   0.931   3.680  10.953  0.0160 -0.0030 -0.1383
  123TMC2    C6 1914   0.856   3.790  10.998 -0.3600 -0.0211 -0.7260
  123TMC2     C 1915   0.728   3.411  11.080  0.3226  0.7187 -0.5383
  123TMC2     O 1916   0.648   3.405  11.173  0.1962  0.2458  0.4300
  123TMC2     H 1917   0.640   3.624  11.199  1.2131  1.9543  2.5872
  123TMC2    H1 1918   0.962   3.475  10.959 -0.0344  1.2323 -3.7695
  123TMC2    H2 1919   0.864   3.887  10.950 -2.2351 -0.6768 -2.3681
  123TMC2    C7 1920   0.973   3.681  10.816 -0.4491  0.1855 -0.4322
  123TMC2    C8 1921   0.708   3.883  11.159  0.4583  0.7898  0.1625
  123TMC2    O1 1922   0.893   3.613  10.755  0.2140 -0.8332  0.0458
  123TMC2    O2 1923   0.690   3.990  11.102  0.1470  0.1391 -0.6537
  123TMC2    O5 1924   0.653   3.853  11.273  0.6730  0.1374 -0.3620
  123TMC2    H5 1925   0.695   3.771  11.309  1.5184  0.7975  0.1412
  124MPD2     C 1926   0.510   3.007  10.886  0.5455  0.5826  0.7455
  124MPD2    C1 1927   0.568   3.073  10.781 -0.6054 -0.2300 -0.4532
  124MPD2    C2 1928   0.653   3.177  10.807 -0.4558 -0.1737 -0.4539
  124MPD2    C3 1929   0.665   3.221  10.936  0.4715  0.2873 -0.1002
  124MPD2    C4 1930   0.616   3.148  11.046  0.2516 -0.6009 -0.4550
  124MPD2    C5 1931   0.543   3.040  11.020 -0.2441 -0.0678 -0.4916
  124MPD2     H 1932   0.698   3.234  10.726  2.1745  0.8835  1.7374
  124MPD2    H1 1933   0.639   3.168  11.150 -0.3425 -2.6408  0.0541
  124MPD2    H2 1934   0.445   2.922  10.872  3.3904 -1.5676  0.6559
  124MPD2    H3 1935   0.496   2.978  11.095 -0.5874 -0.1697 -0.7923
  124MPD2     N 1936   0.727   3.348  10.960 -0.7504  0.3991  0.6599
  124MPD2    H5 1937   0.779   3.390  10.883 -1.2117  1.0390  0.7014
  124MPD2    N1 1938   0.538   3.022  10.650  0.2768 -0.5009  0.2397
  124MPD2    H7 1939   0.496   2.930  10.639 -1.2863  0.4472 -1.8169
  125TMC2    C1 1940   1.666   1.639   9.666  0.6113 -0.7399 -0.1491
  125TMC2    C2 1941   1.647   1.526   9.737 -0.1549 -0.2356 -0.1655
  125TMC2    C3 1942   1.755   1.465   9.799 -0.5339  0.4060 -0.4502
  125TMC2    C4 1943   1.789   1.694   9.655 -0.4582  0.5174 -0.2121
  125TMC2    C5 1944   1.898   1.632   9.720  0.0028  0.2766 -1.1727
  125TMC2    C6 1945   1.879   1.517   9.789 -0.1337  0.0404 -0.8833
  125TMC2     C 1946   1.553   1.714   9.612 -0.0704 -0.1099  0.5505
  125TMC2     O 1947   1.582   1.827   9.569  0.3336 -0.0447  0.6269
  125TMC2     H 1948   1.553   1.476   9.720  0.5023 -0.9402 -1.6673
  125TMC2    H1 1949   1.804   1.790   9.606  3.0182  1.5248  2.8918
  125TMC2    H2 1950   1.957   1.456   9.833  0.2203  1.2657  0.2019
  125TMC2    C7 1951   2.010   1.635   9.625 -0.0822  0.3061 -0.2383
  125TMC2    C8 1952   1.755   1.332   9.863 -0.6567  0.2560  0.0235
  125TMC2    O1 1953   1.982   1.673   9.509  0.3014 -0.2622  0.1187
  125TMC2    O2 1954   1.839   1.250   9.827 -0.2774  0.4567  0.3049
  125TMC2    O5 1955   1.621   1.306   9.885  0.4704 -0.3077 -0.2796
  125TMC2    H5 1956   1.567   1.387   9.900  0.9072 -0.1851  0.6178
  126MPD1     C 1957   1.070   1.879   9.564 -1.1997  0.2727 -0.6905
  126MPD1    C1 1958   1.068   1.754   9.620 -0.8455  0.1359 -0.1354
  126MPD1    C2 1959   1.183   1.682   9.647 -0.5048 -0.1762  0.1227
  126MPD1    C3 1960   1.302   1.733   9.605 -0.9286  0.1653 -0.1550
  126MPD1    C4 1961   1.304   1.861   9.547 -0.0858  0.7473 -0.1603
  126MPD1    C5 1962   1.189   1.935   9.533 -0.5482  0.8294  0.1805
  126MPD1     H 1963   1.167   1.586   9.694  0.3587 -0.8114 -0.8793
  126MPD1    H1 1964   1.400   1.906   9.523 -0.2483  0.1505 -1.8864
  126MPD1    H2 1965   0.975   1.930   9.550 -0.6768  1.2732 -0.6163
  126MPD1    H3 1966   1.196   2.037   9.497 -1.9789  0.7428 -0.3633
  126MPD1     N 1967   1.427   1.669   9.643  0.4049  0.0318 -0.1068
  126MPD1    H5 1968   1.414   1.582   9.695 -2.1656  0.5488  0.1101
  126MPD1    N1 1969   0.938   1.703   9.658 -0.5765  0.0486  0.2731
  126MPD1    H6 1970   0.860   1.768   9.660 -1.1271 -0.6880  1.8739
  126MPD1    H7 1971   0.946   1.651   9.745 -2.2881  0.9562  0.9629
  127TMC2    C1 1972   2.862   4.168  10.226  0.6833 -0.0895 -0.6397
  127TMC2    C2 1973   2.896   4.081  10.326 -0.2101 -1.1244 -0.5754
  127TMC2    C3 1974   2.826   3.971  10.334 -0.0142  0.8425  0.3469
  127TMC2    C4 1975   2.767   4.137  10.129  0.2379 -0.9821 -0.8719
  127TMC2    C5 1976   2.688   4.029  10.145 -0.2648 -0.8141  0.4711
  127TMC2    C6 1977   2.715   3.944  10.249 -0.3696  0.0158  0.7186
  127TMC2     C 1978   2.949   4.288  10.214 -0.0560 -0.2178  0.4132
  127TMC2     O 1979   3.004   4.328  10.314 -0.3217  0.2404  0.3762
  127TMC2     H 1980   2.971   4.109  10.398  1.1254 -0.2336 -2.3279
  127TMC2    H1 1981   2.746   4.198  10.042  0.5080  1.1485  0.5512
  127TMC2    H2 1982   2.649   3.864  10.282 -0.4428 -0.0780  0.3425
  127TMC2    C7 1983   2.597   3.993  10.036 -0.3563 -0.0206 -0.3175
  127TMC2    C8 1984   2.883   3.853  10.413 -0.1273 -0.6184  0.5297
  127TMC2    O1 1985   2.571   4.082   9.958  0.2253 -0.4738 -0.2407
  127TMC2    O2 1986   2.851   3.736  10.388 -0.4162  0.0936 -0.2542
  127TMC2    O5 1987   2.927   3.900  10.529 -0.9412  0.0081 -0.2468
  127TMC2    H5 1988   2.913   3.996  10.540 -0.1812 -0.1861  2.3896
  128MPD2     C 1989   3.011   4.503   9.917 -0.2857  0.6051 -0.2673
  128MPD2    C1 1990   2.995   4.477  10.053 -0.2737  0.5663  0.9082
  128MPD2    C2 1991   3.026   4.572  10.145  0.5809 -0.4367 -0.5623
  128MPD2    C3 1992   3.065   4.695  10.100  0.4658  0.2184 -1.2283
  128MPD2    C4 1993   3.076   4.727   9.968 -0.2042  0.4039 -0.0659
  128MPD2    C5 1994   3.059   4.626   9.876  0.4663  0.0138 -0.3757
  128MPD2     H 1995   3.028   4.554  10.252 -1.1358  1.0750 -0.2733
  128MPD2    H1 1996   3.091   0.092   9.930 -1.4187  0.3522 -0.6772
  128MPD2    H2 1997   2.981   4.433   9.840  0.6981  0.2374 -0.3102
  128MPD2    H3 1998   3.057   4.650   9.770  1.2764  1.4638 -0.0661
  128MPD2     N 1999   3.096   0.058  10.197  0.6060 -0.0979  0.2105
  128MPD2    H5 2000   3.094   0.018  10.291 -2.7149  0.5601  0.4305
  128MPD2    N1 2001   2.941   4.345  10.085 -0.0114  0.6178 -0.5200
  128MPD2    H7 2002   2.916   4.282  10.009  1.9178  1.4374 -1.8385
  129TMC2    C1 2003   1.032   0.565   2.055 -0.1064 -0.0491 -0.7236
  129TMC2    C2 2004   1.148   0.607   1.985 -0.4252 -0.3148 -0.4618
  129TMC2    C3 2005   1.247   0.515   1.953 -0.9235  0.4308 -0.4443
  129TMC2    C4 2006   1.013   0.436   2.075 -0.4684 -0.2920 -0.5352
  129TMC2    C5 2007   1.111   0.345   2.046 -0.6400 -0.0370 -0.2582
  129TMC2    C6 2008   1.229   0.384   1.990 -0.6366  0.9134  0.9645
  129TMC2     C 2009   0.915   0.649   2.049 -0.1718 -0.1833  1.2979
  129TMC2     O 2010   0.824   0.618   2.121  0.3281  0.2322 -0.2909
  129TMC2     H 2011   1.159   0.709   1.952 -1.1800  0.4339  1.5751
  129TMC2    H1 2012   0.919   0.401   2.117  0.2588 -0.2159  1.1530
  129TMC2    H2 2013   1.300   0.308   1.958 -0.9619  0.2368  1.8581
  129TMC2    C7 2014   1.068   0.212   2.012 -0.5417 -0.1431  0.8140
  129TMC2    C8 2015   1.384   0.558   1.944 -0.4569  0.6334 -0.2724
  129TMC2    O1 2016   0.955   0.201   1.958 -0.2158 -0.0902 -0.0779
  129TMC2    O2 2017   1.416   0.670   1.984 -0.6648  0.0588 -1.0251
  129TMC2    O5 2018   1.472   0.466   1.915  0.0292  0.0712  0.2918
  129TMC2    H5 2019   1.437   0.379   1.888 -1.4976  0.6549  0.3815
  130MPD2     C 2020   0.701   0.840   2.008 -0.1845  0.7228 -0.1568
  130MPD2    C1 2021   0.803   0.818   1.918  0.5044  0.2328  0.2533
  130MPD2    C2 2022   0.813   0.898   1.799  0.4360  0.3102 -0.6934
  130MPD2    C3 2023   0.717   0.991   1.773  0.1674 -0.1734 -1.3192
  130MPD2    C4 2024   0.613   1.016   1.859  0.4546 -0.4176 -0.1823
  130MPD2    C5 2025   0.617   0.943   1.979 -0.0261 -0.1637  0.6931
  130MPD2     H 2026   0.896   0.872   1.734  0.9430 -2.3443  0.9905
  130MPD2    H1 2027   0.547   1.100   1.841  1.7233  1.0631  1.9671
  130MPD2    H2 2028   0.683   0.792   2.103 -0.2352  3.2109  1.0975
  130MPD2    H3 2029   0.536   0.967   2.047 -1.6815  0.3575 -1.4616
  130MPD2     N 2030   0.727   1.061   1.647 -0.6624  0.1349  0.3656
  130MPD2    H5 2031   0.804   1.040   1.585 -0.6152 -1.4787  0.9791
  130MPD2    N1 2032   0.913   0.737   1.945  1.1145  0.1118  0.3788
  130MPD2    H7 2033   0.976   0.708   1.870 -0.4203 -2.1190 -0.0318
  131TMC2    C1 2034   0.729   3.829  10.000  0.2428  0.3082 -1.1646
  131TMC2    C2 2035   0.622   3.897  10.062 -0.4527  0.3041 -0.7544
  131TMC2    C3 2036   0.607   4.032  10.035  0.2436 -0.5920  0.3761
  131TMC2    C4 2037   0.825   3.902   9.932 -0.7082  0.2604  0.2569
  131TMC2    C5 2038   0.812   4.038   9.919  0.6552 -0.1309 -0.2472
  131TMC2    C6 2039   0.700   4.106   9.967  0.3981 -0.0026 -0.3110
  131TMC2     C 2040   0.743   3.687  10.021 -0.5977 -0.7342  0.7256
  131TMC2     O 2041   0.682   3.636  10.109 -0.0303 -0.2431  0.7294
  131TMC2     H 2042   0.552   3.831  10.112  0.8690 -1.2891 -1.0167
  131TMC2    H1 2043   0.921   3.856   9.910 -1.3814 -0.5657 -0.9409
  131TMC2    H2 2044   0.689   4.211   9.943 -2.3956 -0.1150  0.4852
  131TMC2    C7 2045   0.915   4.108   9.843  0.8468  0.8066  0.2005
  131TMC2    C8 2046   0.526   4.121  10.116  1.3702  0.2416 -0.1880
  131TMC2    O1 2047   0.977   4.044   9.763 -0.2662  0.0989  0.3183
  131TMC2    O2 2048   0.567   4.233  10.143  0.0499 -0.1896 -0.4372
  131TMC2    O5 2049   0.456   4.050  10.201  0.5514 -0.0901  0.2693
  131TMC2    H5 2050   0.401   3.979  10.161  0.3948  0.0880  0.1733
  132MPD2     C 2051   0.869   3.416   9.805 -0.7813  0.2173  0.5370
  132MPD2    C1 2052   0.798   3.476   9.907 -0.6052  0.2928  1.3498
  132MPD2    C2 2053   0.719   3.391   9.980  0.4444  0.1642  0.0687
  132MPD2    C3 2054   0.707   3.260   9.957  0.6906 -0.5000  0.2140
  132MPD2    C4 2055   0.785   3.201   9.855  0.1158 -0.7985  0.0525
  132MPD2    C5 2056   0.867   3.281   9.783 -0.1345 -0.3343 -0.2064
  132MPD2     H 2057   0.662   3.418  10.067  2.7659  1.7891  1.0862
  132MPD2    H1 2058   0.800   3.094   9.846  1.3482 -0.6645  0.3960
  132MPD2    H2 2059   0.928   3.468   9.731  0.4988  1.2555  2.2867
  132MPD2    H3 2060   0.937   3.244   9.709 -0.7470 -1.6741 -0.1061
  132MPD2     N 2061   0.648   3.181  10.060  0.0357 -0.5736 -0.2547
  132MPD2    H5 2062   0.598   3.237  10.130 -0.2180  0.6824 -1.4439
  132MPD2    N1 2063   0.798   3.620   9.915  0.0297  0.0721  0.3873
  132MPD2    H7 2064   0.845   3.679   9.847 -1.4850  0.8277  0.0035
  133TMC2    C1 2065   0.355   0.843   9.648  0.4016 -0.3477  0.3943
  133TMC2    C2 2066   0.348   0.982   9.648  0.0088 -0.8139 -0.0306
  133TMC2    C3 2067   0.450   1.048   9.581 -0.4034  0.7389  0.3134
  133TMC2    C4 2068   0.454   0.770   9.591  0.5726 -0.4198  0.3622
  133TMC2    C5 2069   0.569   0.841   9.552  0.5174  0.1326 -0.1473
  133TMC2    C6 2070   0.562   0.979   9.528  0.4970  0.0776 -0.5224
  133TMC2     C 2071   0.240   0.775   9.705 -0.3558 -0.3301  0.0033
  133TMC2     O 2072   0.228   0.653   9.681 -0.2562 -0.0797 -0.1307
  133TMC2     H 2073   0.261   1.035   9.683 -0.3085 -0.1518 -1.8033
  133TMC2    H1 2074   0.451   0.663   9.603 -0.2503 -0.4937 -0.4456
  133TMC2    H2 2075   0.652   1.029   9.494  1.1287 -0.9183 -0.3314
  133TMC2    C7 2076   0.694   0.763   9.522  0.6504 -0.3255 -0.1462
  133TMC2    C8 2077   0.447   1.195   9.578 -0.7705  0.2066 -0.1591
  133TMC2    O1 2078   0.802   0.815   9.531  0.0496 -0.7559  0.3021
  133TMC2    O2 2079   0.398   1.271   9.662  0.0251  0.6480 -0.1282
  133TMC2    O5 2080   0.523   1.235   9.473 -0.2444 -0.0029  0.1922
  133TMC2    H5 2081   0.557   1.161   9.418  0.2173  1.6966 -1.7991
  134MPD2     C 2082   0.008   0.911   9.957  0.2076 -0.1879 -0.3712
  134MPD2    C1 2083   0.062   0.815   9.878  0.0967  0.0598 -0.2532
  134MPD2    C2 2084   0.001   0.692   9.879  0.1282 -0.0267 -0.5083
  134MPD2    C3 2085   4.618   0.672   9.948 -0.3884  0.7965  0.1605
  134MPD2    C4 2086   4.559   0.782  10.018 -0.1204 -0.1304  0.0108
  134MPD2    C5 2087   4.635   0.897  10.037 -0.2974 -0.3367  0.1525
  134MPD2     H 2088   0.042   0.609   9.823  1.1163 -0.4042  0.7828
  134MPD2    H1 2089   4.473   0.771  10.083 -1.1435  0.0236 -1.3234
  134MPD2    H2 2090   0.061   1.005   9.970 -0.1859 -0.1116  0.7264
  134MPD2    H3 2091   4.609   0.964  10.117  1.1627  1.6436 -1.0229
  134MPD2     N 2092   4.557   0.539   9.948 -1.1204  0.2562  0.5461
  134MPD2    H5 2093   4.470   0.529   9.999 -0.4126  1.2567  1.9525
  134MPD2    N1 2094   0.168   0.857   9.794  0.3261  0.4834 -0.3344
  134MPD2    H7 2095   0.211   0.947   9.814 -1.1744  1.1733 -0.2400
  135TMC2    C1 2096   1.595   1.349  10.302  0.3217  0.5957  0.0612
  135TMC2    C2 2097   1.524   1.250  10.229 -0.5696 -0.1614  0.0272
  135TMC2    C3 2098   1.541   1.122  10.276 -0.8106  0.0408 -0.2807
  135TMC2    C4 2099   1.665   1.326  10.414 -0.0436  0.1083 -0.1230
  135TMC2    C5 2100   1.683   1.191  10.443 -0.3584 -0.4588  0.1724
  135TMC2    C6 2101   1.637   1.087  10.362  0.2730  0.0319  0.2319
  135TMC2     C 2102   1.618   1.468  10.229  0.1151 -0.2565  0.0029
  135TMC2     O 2103   1.549   1.482  10.125 -0.4818  0.2452  0.3214
  135TMC2     H 2104   1.466   1.267  10.140 -2.7917  0.6127  1.6277
  135TMC2    H1 2105   1.713   1.398  10.480  0.4218 -0.1118 -0.2168
  135TMC2    H2 2106   1.663   0.986  10.389 -0.3880 -0.0096  0.7058
  135TMC2    C7 2107   1.747   1.152  10.569  0.1077 -0.5189 -0.1131
  135TMC2    C8 2108   1.515   1.019  10.177 -0.7226 -0.5368  0.6361
  135TMC2    O1 2109   1.828   1.230  10.620  0.8650 -0.4471 -0.6699
  135TMC2    O2 2110   1.535   1.031  10.061  0.0018  0.0584 -0.2278
  135TMC2    O5 2111   1.487   0.905  10.238 -0.1404  0.1172  0.2431
  135TMC2    H5 2112   1.496   0.912  10.336  0.8144 -0.2072  0.1774
  136MPD2     C 2113   1.716   1.695  10.071 -0.1594 -0.3811 -0.3631
  136MPD2    C1 2114   1.796   1.618  10.157  0.6060 -0.0793  0.6424
  136MPD2    C2 2115   1.933   1.656  10.151  0.1452 -0.1375 -0.1634
  136MPD2    C3 2116   1.980   1.762  10.074 -0.5071  1.3706 -0.6382
  136MPD2    C4 2117   1.887   1.841  10.006 -0.2312  0.0522 -0.0517
  136MPD2    C5 2118   1.757   1.803  10.004  0.6854  0.4414 -0.1732
  136MPD2     H 2119   1.999   1.593  10.211  0.6208  0.0963 -0.4355
  136MPD2    H1 2120   1.909   1.923   9.939  0.8386  0.9103  1.3603
  136MPD2    H2 2121   1.610   1.681  10.051 -0.1731 -1.2071  0.2702
  136MPD2    H3 2122   1.682   1.853   9.944 -2.6682 -0.9384  2.9137
  136MPD2     N 2123   2.120   1.799  10.070  0.3468 -1.0604 -0.2961
  136MPD2    H5 2124   2.138   1.871  10.001 -2.1838  0.5286  0.6902
  136MPD2    N1 2125   1.750   1.509  10.235 -0.1568 -0.1680  0.1348
  136MPD2    H7 2126   1.817   1.462  10.295  0.7471  0.5007 -0.3406
  137TMC2    C1 2127   2.077   0.113   9.752  0.5695 -0.0921 -0.4684
  137TMC2    C2 2128   2.162   0.112   9.645  0.9282 -0.2334  0.1163
  137TMC2    C3 2129   2.216   0.235   9.603 -0.2223 -0.4028 -0.1732
  137TMC2    C4 2130   2.031   0.234   9.805 -0.8286  0.0900 -0.1203
  137TMC2    C5 2131   2.087   0.348   9.760  0.2900  0.1199  0.3110
  137TMC2    C6 2132   2.184   0.352   9.660  0.3768  0.2129  0.2777
  137TMC2     C 2133   2.066   4.736   9.847  0.4094  0.7938  1.1471
  137TMC2     O 2134   2.039   0.028   9.963  0.1149  0.0420 -0.1484
  137TMC2     H 2135   2.203   0.019   9.607 -1.4256 -0.5372 -1.6702
  137TMC2    H1 2136   1.958   0.230   9.885 -0.2862  2.1291  0.4902
  137TMC2    H2 2137   2.205   0.446   9.611  0.5558  1.2284  2.2737
  137TMC2    C7 2138   2.011   0.468   9.781  0.2359 -0.0729  0.3855
  137TMC2    C8 2139   2.247   0.253   9.464  0.5903 -0.6618 -0.0692
  137TMC2    O1 2140   2.061   0.576   9.764  0.1727 -0.9644 -0.6525
  137TMC2    O2 2141   2.322   0.342   9.425 -0.5595  0.0654  0.2523
  137TMC2    O5 2142   2.143   0.202   9.394  0.1996 -0.0527  0.0337
  137TMC2    H5 2143   2.092   0.145   9.456  0.5148 -0.5795 -0.1846
  138MPD2     C 2144   2.044   4.378   9.770  0.0893  0.6299  0.5492
  138MPD2    C1 2145   2.048   4.489   9.850  0.8282 -0.7080 -0.0559
  138MPD2    C2 2146   2.040   4.470   9.989 -0.0705 -0.2529  0.3929
  138MPD2    C3 2147   2.013   4.349  10.043 -0.9210  0.1166  0.5640
  138MPD2    C4 2148   2.003   4.242   9.960  0.5913 -1.0928 -0.4765
  138MPD2    C5 2149   2.009   4.261   9.825  0.1525 -0.1046 -0.2147
  138MPD2     H 2150   2.056   4.559  10.049  2.5338 -0.1771 -0.4130
  138MPD2    H1 2151   1.998   4.136   9.982 -0.0695 -1.2909 -1.5904
  138MPD2    H2 2152   2.065   4.400   9.666  1.3588  1.6861  1.0320
  138MPD2    H3 2153   2.002   4.177   9.756  2.7783 -0.3942 -0.1264
  138MPD2     N 2154   2.014   4.330  10.188  0.2987  0.5135  0.7215
  138MPD2    H5 2155   2.050   4.404  10.248 -1.3762  0.6307  1.5688
  138MPD2    N1 2156   2.070   4.609   9.784 -0.4110 -0.6361 -0.4953
  138MPD2    H7 2157   2.082   4.607   9.683  0.6382 -0.9275 -0.3625
  139TMC2    C1 2158   2.662   3.159  13.509 -0.3614 -0.1603 -0.3851
  139TMC2    C2 2159   2.780   3.209  13.458  0.0469  0.1200 -0.0197
  139TMC2    C3 2160   2.807   3.344  13.463  0.4960 -0.4547  0.7476
  139TMC2    C4 2161   2.573   3.255  13.573 -0.4656 -0.1668 -0.5433
  139TMC2    C5 2162   2.603   3.390  13.570  0.3935 -0.8268  0.8862
  139TMC2    C6 2163   2.727   3.440  13.521  0.0440  0.5007  0.7389
  139TMC2     C 2164   2.639   3.028  13.547  0.3377 -0.5567 -0.8586
  139TMC2     O 2165   2.520   3.000  13.554  0.5313 -0.4704  0.1390
  139TMC2     H 2166   2.857   3.137  13.431 -0.5927  0.8844 -3.9067
  139TMC2    H1 2167   2.482   3.221  13.622 -0.8272  2.0651  0.3611
  139TMC2    H2 2168   2.754   3.545  13.517 -0.0112  0.4418 -1.1936
  139TMC2    C7 2169   2.517   3.476  13.645 -0.5269 -0.5462 -0.5587
  139TMC2    C8 2170   2.892   3.404  13.360 -0.0215 -0.2907  0.6836
  139TMC2    O1 2171   2.398   3.459  13.644 -0.6362  0.4189 -0.3421
  139TMC2    O2 2172   2.908   3.527  13.362 -0.1033 -0.1013  0.1312
  139TMC2    O5 2173   2.864   3.336  13.248  0.2553  0.1583  0.2972
  139TMC2    H5 2174   2.837   3.243  13.262  0.3003  0.0363 -0.4071
  140MPD2     C 2175   2.865   2.781  13.695  0.3349  0.1878 -0.0850
  140MPD2    C1 2176   2.767   2.820  13.611  0.0483  0.6000 -0.6793
  140MPD2    C2 2177   2.684   2.724  13.553 -0.7690 -0.0708  0.3364
  140MPD2    C3 2178   2.711   2.590  13.570  0.0099 -0.2377  1.0473
  140MPD2    C4 2179   2.819   2.551  13.660 -0.0625 -0.5101  0.1656
  140MPD2    C5 2180   2.898   2.653  13.710  0.1175  0.6787 -0.0044
  140MPD2     H 2181   2.605   2.755  13.485 -0.8044  1.9988  1.2966
  140MPD2    H1 2182   2.840   2.447  13.685 -2.1158 -1.0892 -0.5358
  140MPD2    H2 2183   2.936   2.852  13.736  1.4617 -0.4392 -0.9755
  140MPD2    H3 2184   2.982   2.632  13.775  1.6719  2.0784 -1.5595
  140MPD2     N 2185   2.643   2.490  13.499 -0.0280 -0.1483  0.4791
  140MPD2    H5 2186   2.577   2.512  13.425 -1.2992  0.8585  1.9145
  140MPD2    N1 2187   2.752   2.956  13.577  0.5388  0.4743  0.0442
  140MPD2    H7 2188   2.839   3.004  13.599  0.6333  0.1374  0.4131
  141TMC2    C1 2189   2.948   4.564  14.611  0.8445  0.1414  0.3665
  141TMC2    C2 2190   2.929   4.450  14.684 -0.1637 -0.0192 -0.4859
  141TMC2    C3 2191   2.974   4.451  14.814  0.1062  0.4823 -0.2312
  141TMC2    C4 2192   3.007   4.677  14.670  0.2163 -0.1138 -0.3284
  141TMC2    C5 2193   3.054   4.666  14.799  0.5311 -0.5178  0.4337
  141TMC2    C6 2194   3.043   4.554  14.873  0.1669  0.7592  0.1581
  141TMC2     C 2195   2.965   4.554  14.467  0.9346 -0.2469 -0.4158
  141TMC2     O 2196   3.011   4.649  14.404  0.3743  0.1288 -1.1481
  141TMC2     H 2197   2.882   4.359  14.647 -1.1656 -0.1693  1.1921
  141TMC2    H1 2198   3.013   0.032  14.612  0.1818 -0.1812 -0.4375
  141TMC2    H2 2199   3.068   4.550  14.978 -0.6567  2.3177  0.4183
  141TMC2    C7 2200   3.151   0.027  14.848  0.2445  0.3512  0.6000
  141TMC2    C8 2201   2.918   4.361  14.910  0.1042 -0.3458  0.1252
  141TMC2    O1 2202   3.244   4.728  14.916  0.1367  0.2693 -0.4536
  141TMC2    O2 2203   2.878   4.396  15.022  0.1959  0.2361  0.2554
  141TMC2    O5 2204   2.880   4.241  14.857  0.3930  0.0178 -0.1947
  141TMC2    H5 2205   2.896   4.235  14.760  1.5886 -2.6280  0.1555
  142TMC2    C1 2206   1.018   3.166  10.141 -0.3284  0.4459  0.0141
  142TMC2    C2 2207   1.117   3.172  10.052 -1.1205 -0.1658 -0.4501
  142TMC2    C3 2208   1.195   3.289  10.044 -0.2242 -0.1224 -0.6159
  142TMC2    C4 2209   0.983   3.274  10.215  0.2942 -0.0742  0.5762
  142TMC2    C5 2210   1.056   3.385  10.213  0.4619 -0.6043  0.6404
  142TMC2    C6 2211   1.170   3.394  10.133  0.3960  0.1641  0.0736
  142TMC2     C 2212   0.957   3.036  10.165 -0.4708 -0.0258 -0.3233
  142TMC2     O 2213   0.953   2.953  10.077 -0.6232  0.4551 -0.0053
  142TMC2     H 2214   1.146   3.080  10.001  0.5202 -0.8962  1.8027
  142TMC2    H1 2215   0.895   3.263  10.278 -0.6815 -0.0858 -0.7747
  142TMC2    H2 2216   1.222   3.489  10.131 -0.6608  0.7622  1.0274
  142TMC2    C7 2217   1.035   3.475  10.320 -0.1357  0.1093 -0.0885
  142TMC2    C8 2218   1.313   3.278   9.964 -0.1785 -0.0360  0.0216
  142TMC2    O1 2219   0.963   3.437  10.414  0.4721 -0.1040 -0.4359
  142TMC2    O2 2220   1.319   3.193   9.873 -0.0135 -0.0842 -0.4355
  142TMC2    O5 2221   1.421   3.318  10.035  0.1339  1.1114  0.4694
  142TMC2    H5 2222   1.412   3.386  10.105 -0.9072  1.2554  0.1820
  143MPD2     C 2223   0.791   2.666  10.469 -0.3086 -0.2569 -0.5693
  143MPD2    C1 2224   0.774   2.693  10.340  0.7708 -0.0472  0.3058
  143MPD2    C2 2225   0.821   2.811  10.284 -0.4291  0.3078  0.1323
  143MPD2    C3 2226   0.888   2.898  10.357 -0.5055 -0.3513  0.0602
  143MPD2    C4 2227   0.903   2.877  10.492  0.0691 -0.3421 -0.3521
  143MPD2    C5 2228   0.855   2.760  10.544 -0.8639  0.3089  0.6356
  143MPD2     H 2229   0.807   2.832  10.179 -0.9143  0.1831  0.1730
  143MPD2    H1 2230   0.946   2.952  10.558  2.0291 -1.8609  0.0872
  143MPD2    H2 2231   0.755   2.578  10.522 -1.9601  1.4443  1.1066
  143MPD2    H3 2232   0.874   2.745  10.650 -0.1247  0.8249  0.5769
  143MPD2     N 2233   0.940   3.017  10.304 -0.4303 -0.5109 -0.3562
  143MPD2    H5 2234   0.966   3.084  10.376  0.6284  0.4590 -1.6376
  143MPD2    N1 2235   0.689   2.605  10.268 -0.1251 -0.1682 -0.4920
  143MPD2    H7 2236   0.642   2.536  10.325  1.5004  0.5241  1.6989
  144TMC2    C1 2237   4.150   2.613   0.625 -0.9687  0.0296  0.8363
  144TMC2    C2 2238   4.225   2.504   0.614  0.3941 -0.0071 -0.1659
  144TMC2    C3 2239   4.358   2.512   0.621 -0.2574  0.0153 -0.3137
  144TMC2    C4 2240   4.210   2.739   0.632 -0.1231  0.3422  0.4453
  144TMC2    C5 2241   4.347   2.747   0.641 -0.5346  0.7482 -0.5071
  144TMC2    C6 2242   4.425   2.634   0.624  0.5282  0.4114 -0.3358
  144TMC2     C 2243   4.007   2.600   0.600 -0.7350 -0.7485  0.1935
  144TMC2     O 2244   3.975   2.481   0.603  0.6476 -0.6542  1.1227
  144TMC2     H 2245   4.184   2.404   0.599 -1.5833  0.9921 -1.3130
  144TMC2    H1 2246   4.149   2.828   0.645 -0.5530  0.3090 -1.3157
  144TMC2    H2 2247   4.532   2.643   0.635  0.3644  0.8942  0.8251
  144TMC2    C7 2248   4.416   2.868   0.669  0.1471 -0.3140  0.2412
  144TMC2    C8 2249   4.429   2.389   0.623 -0.7237 -0.3633 -0.0219
  144TMC2    O1 2250   4.516   2.844   0.728  0.0294 -0.1446  0.5220
  144TMC2    O2 2251   4.382   2.278   0.595  0.2843  0.3193 -0.0435
  144TMC2    O5 2252   4.541   2.400   0.706 -0.6910  0.1246 -0.5429
  144TMC2    H5 2253   4.560   2.485   0.751 -1.6830  1.1868 -2.1506
  145MPD2     C 2254   3.529   2.772   0.560 -0.8179 -0.8167 -0.0889
  145MPD2    C1 2255   3.586   2.650   0.559 -0.2467  0.9228  0.4536
  145MPD2    C2 2256   3.725   2.635   0.573  0.4279  0.0582 -0.2803
  145MPD2    C3 2257   3.805   2.743   0.574  0.9620 -0.2706 -0.0728
  145MPD2    C4 2258   3.752   2.871   0.555 -0.7338  0.2317 -1.4225
  145MPD2    C5 2259   3.615   2.882   0.552 -0.3404 -0.1403  0.5529
  145MPD2     H 2260   3.762   2.533   0.578  1.1080  0.3959  1.4713
  145MPD2    H1 2261   3.811   2.962   0.553  0.8436 -0.7700 -1.2752
  145MPD2    H2 2262   3.423   2.785   0.546 -1.1498 -1.8325  1.5283
  145MPD2    H3 2263   3.563   2.978   0.551  1.3362  0.7287 -2.0589
  145MPD2     N 2264   3.939   2.717   0.590 -0.2289  0.3003  0.6911
  145MPD2    H5 2265   3.998   2.797   0.571  1.2706 -0.8118  0.6627
  145MPD2    N1 2266   3.512   2.535   0.527  0.5699  0.2734 -0.1777
  145MPD2    H7 2267   3.564   2.449   0.528  0.7500  0.3796 -0.5058
  146TMC2    C1 2268   0.929   0.587  12.352  0.2205 -0.1042 -0.3582
  146TMC2    C2 2269   0.961   0.625  12.223 -0.5169 -0.1640  0.3880
  146TMC2    C3 2270   1.092   0.608  12.187 -0.2926 -1.4865 -0.1433
  146TMC2    C4 2271   1.015   0.520  12.431  0.1915 -0.0406 -0.4407
  146TMC2    C5 2272   1.148   0.522  12.402 -0.4457  0.2200 -0.1336
  146TMC2    C6 2273   1.192   0.561  12.275  0.3066  0.1396 -0.1731
  146TMC2     C 2274   0.783   0.583  12.390  0.4270  0.5853 -0.9770
  146TMC2     O 2275   0.707   0.604  12.296 -0.3863 -0.2856  0.7676
  146TMC2     H 2276   0.886   0.665  12.155 -0.6657  0.9395  1.1926
  146TMC2    H1 2277   0.993   0.467  12.522 -0.5138 -0.0737 -0.6291
  146TMC2    H2 2278   1.290   0.543  12.233  0.8160  0.4566  0.8696
  146TMC2    C7 2279   1.251   0.463  12.483 -0.2324 -0.0822 -0.3940
  146TMC2    C8 2280   1.122   0.626  12.042 -0.0963 -0.3726 -0.0843
  146TMC2    O1 2281   1.350   0.416  12.425 -0.1617  0.0327  0.3794
  146TMC2    O2 2282   1.032   0.633  11.960 -0.0403  0.2376 -0.1080
  146TMC2    O5 2283   1.247   0.631  12.012 -0.1869 -0.0853  0.2646
  146TMC2    H5 2284   1.312   0.658  12.080 -1.2448 -1.2963  1.7686
  147MPD2     C 2285   1.446   0.309  12.929 -0.3122 -0.4876 -0.9767
  147MPD2    C1 2286   1.311   0.332  12.948  0.4235 -0.2981  0.0498
  147MPD2    C2 2287   1.237   0.382  12.842  0.3530  0.3920  0.4919
  147MPD2    C3 2288   1.289   0.393  12.716  1.3900  0.4716  1.1161
  147MPD2    C4 2289   1.421   0.349  12.693  0.3361 -0.4935 -0.4015
  147MPD2    C5 2290   1.495   0.317  12.805  0.2835  0.7953  0.2653
  147MPD2     H 2291   1.139   0.423  12.860  0.0051 -0.4595  0.5257
  147MPD2    H1 2292   1.462   0.332  12.594 -1.7099 -0.0054 -1.3313
  147MPD2    H2 2293   1.518   0.265  12.997 -1.5755 -2.2445 -0.7847
  147MPD2    H3 2294   1.592   0.269  12.796  0.5338  1.4858 -0.7392
  147MPD2     N 2295   1.209   0.449  12.613 -0.0126 -0.0039 -0.0267
  147MPD2    H5 2296   1.122   0.489  12.649  0.5638  1.1178  0.1097
  147MPD2    N1 2297   1.255   0.283  13.071  0.2767 -0.0518  0.8323
  147MPD2    H7 2298   1.318   0.257  13.146  0.2657  0.5030  1.0338
  148TMC2    C1 2299   0.150   4.608  10.807 -0.0595  0.0015 -0.5226
  148TMC2    C2 2300   0.273   4.665  10.836 -0.5256 -0.6870  0.1366
  148TMC2    C3 2301   0.376   4.579  10.863  0.6428  0.3060 -0.2060
  148TMC2    C4 2302   0.135   4.476  10.797  0.2804  0.2156 -0.4102
  148TMC2    C5 2303   0.244   4.397  10.803 -0.5037  0.6693 -0.2351
  148TMC2    C6 2304   0.368   4.452  10.822  0.0705  0.7206 -0.0494
  148TMC2     C 2305   0.039   4.694  10.788 -0.1244 -0.1166  0.2007
  148TMC2     O 2306   0.048   0.073  10.829 -0.6467 -0.4061 -0.0018
  148TMC2     H 2307   0.274   0.036  10.844 -3.3442 -0.6671  0.5421
  148TMC2    H1 2308   0.036   4.435  10.787 -0.1073  1.2809 -0.9886
  148TMC2    H2 2309   0.457   4.394  10.845 -0.9091 -0.7970 -0.0365
  148TMC2    C7 2310   0.223   4.253  10.800 -0.2558  0.8691 -1.0784
  148TMC2    C8 2311   0.516   4.629  10.872  0.2802  0.8627  0.0290
  148TMC2    O1 2312   0.108   4.213  10.788  0.1645  0.4400  0.1438
  148TMC2    O2 2313   0.618   4.570  10.843 -0.4981 -0.6846  0.1336
  148TMC2    O5 2314   0.506   0.005  10.953  0.0991 -0.2250  0.4872
  148TMC2    H5 2315   0.414   0.022  10.980 -0.1098 -0.5563 -0.0124
  149MPD2     C 2316   4.488   0.081  10.740 -0.0780 -0.2463  0.3724
  149MPD2    C1 2317   4.539   4.695  10.694 -0.1211 -0.3082 -0.2284
  149MPD2    C2 2318   4.451   4.602  10.641  0.6012  0.4578  0.1883
  149MPD2    C3 2319   4.315   4.627  10.624 -0.4870  0.6094  0.1788
  149MPD2    C4 2320   4.269   0.012  10.672 -0.0365  0.6475 -0.8585
  149MPD2    C5 2321   4.354   0.105  10.726  0.7017  0.0293  0.4737
  149MPD2     H 2322   4.496   4.509  10.612 -3.0760 -0.9361 -1.0676
  149MPD2    H1 2323   4.165   0.040  10.674 -0.6030 -1.5813  0.0496
  149MPD2    H2 2324   4.545   0.155  10.795 -2.6013  2.4015 -0.6157
  149MPD2    H3 2325   4.305   0.200  10.745  3.5541  1.4768  0.5065
  149MPD2     N 2326   4.233   4.526  10.580 -0.0869  0.0571 -0.1002
  149MPD2    H5 2327   4.136   4.540  10.607  0.0922 -0.7276  0.9691
  149MPD2    N1 2328   4.669   4.640  10.714  0.2482  0.1676 -0.5960
  149MPD2    H7 2329   4.687   4.544  10.685  0.5560  0.7536 -2.2975
  150TMC2    C1 2330   2.203   3.867  12.475  0.0807  0.1049  0.2467
  150TMC2    C2 2331   2.138   3.975  12.415 -0.6557 -0.2317  0.0794
  150TMC2    C3 2332   2.217   4.087  12.385  0.2204 -0.4558  1.0767
  150TMC2    C4 2333   2.329   3.874  12.528  0.2136 -0.1438 -0.2467
  150TMC2    C5 2334   2.394   3.997  12.513  0.4578 -0.2399 -0.8283
  150TMC2    C6 2335   2.335   4.108  12.447  0.2887 -0.1391  0.2206
  150TMC2     C 2336   2.142   3.736  12.477  1.1806 -0.0634 -0.0735
  150TMC2     O 2337   2.190   3.648  12.537  0.3391  0.1567 -0.1930
  150TMC2     H 2338   2.048   3.966  12.355 -0.0250  2.5109 -1.2576
  150TMC2    H1 2339   2.370   3.780  12.564  2.9716 -0.0048 -2.9615
  150TMC2    H2 2340   2.391   4.199  12.427 -0.3900 -0.0937 -1.4720
  150TMC2    C7 2341   2.531   4.022  12.540  0.1752 -0.0758 -0.3590
  150TMC2    C8 2342   2.141   4.204  12.342  0.5484  0.3043  0.5861
  150TMC2    O1 2343   2.583   4.128  12.501 -0.0432  0.3756  0.7612
  150TMC2    O2 2344   2.021   4.217  12.344 -0.1140 -0.1344 -0.4848
  150TMC2    O5 2345   2.227   4.301  12.304  0.6150 -0.4357 -0.2462
  150TMC2    H5 2346   2.305   4.266  12.255  0.4992  0.1166 -0.8254
  151MPD2     C 2347   1.836   3.375  12.301 -0.1128 -0.1055 -0.6995
  151MPD2    C1 2348   1.867   3.459  12.196  0.3724 -0.0858 -0.0287
  151MPD2    C2 2349   1.933   3.576  12.231 -0.4312 -0.0401 -0.5510
  151MPD2    C3 2350   1.977   3.607  12.358  0.2187  0.0718 -1.3718
  151MPD2    C4 2351   1.936   3.524  12.459 -0.0857  0.1294 -0.3586
  151MPD2    C5 2352   1.865   3.413  12.430 -0.7275  0.1487 -0.3048
  151MPD2     H 2353   1.969   3.645  12.156 -1.2644  0.5679 -0.3938
  151MPD2    H1 2354   1.967   3.537  12.562  1.0239 -0.1344 -0.6614
  151MPD2    H2 2355   1.787   3.280  12.286 -0.3118 -0.4704  2.2616
  151MPD2    H3 2356   1.863   3.336  12.507 -0.0423 -0.5338 -0.9650
  151MPD2     N 2357   2.060   3.717  12.375 -0.0885  0.5628 -0.0139
  151MPD2    H5 2358   2.077   3.773  12.292  1.5661 -1.8537 -1.3047
  151MPD2    N1 2359   1.813   3.432  12.073  0.1918  0.3165  1.1526
  151MPD2    H7 2360   1.762   3.346  12.056  1.5617 -0.3396  0.3418
  152TMC2    C1 2361   2.058   3.346  12.797 -0.4632  0.0243 -0.4051
  152TMC2    C2 2362   2.097   3.285  12.679 -0.0865  0.0461  0.3122
  152TMC2    C3 2363   2.212   3.333  12.619  0.0046  0.6210 -0.0139
  152TMC2    C4 2364   2.134   3.450  12.848  0.0505  0.0682 -0.0394
  152TMC2    C5 2365   2.251   3.488  12.795 -0.1444 -0.5128 -0.3947
  152TMC2    C6 2366   2.297   3.428  12.678 -0.4168  0.4697 -0.4987
  152TMC2     C 2367   1.942   3.292  12.868  0.6713 -0.2534  0.4848
  152TMC2     O 2368   1.894   3.364  12.955 -0.4415  0.5518  0.3290
  152TMC2     H 2369   2.034   3.209  12.635  0.8430 -0.6410  0.1653
  152TMC2    H1 2370   2.085   3.515  12.920  0.2760  1.0853 -0.7951
  152TMC2    H2 2371   2.385   3.455  12.621  0.8251 -1.9594  0.2628
  152TMC2    C7 2372   2.311   3.611  12.840  0.1052  0.2370  0.6891
  152TMC2    C8 2373   2.244   3.288  12.486  1.0767  0.3791  0.8973
  152TMC2    O1 2374   2.236   3.701  12.871 -0.1085  0.6715  0.1029
  152TMC2    O2 2375   2.186   3.198  12.433 -0.0290  0.1854  0.2861
  152TMC2    O5 2376   2.267   3.402  12.408 -0.0140 -0.0779  0.6079
  152TMC2    H5 2377   2.277   3.489  12.453  0.4169  0.2838 -0.1809
  153MPD2     C 2378   1.817   2.941  12.866  0.4106  0.3880 -1.1362
  153MPD2    C1 2379   1.813   3.075  12.892  0.4193  0.3692  0.0479
  153MPD2    C2 2380   1.708   3.126  12.951  0.6177 -0.6731  0.4612
  153MPD2    C3 2381   1.603   3.045  12.993  0.0151 -0.1670  0.1883
  153MPD2    C4 2382   1.613   2.910  12.972  0.4218  0.2388  0.3027
  153MPD2    C5 2383   1.719   2.859  12.905 -0.3693 -0.6830 -0.3491
  153MPD2     H 2384   1.697   3.234  12.957 -0.7561 -0.7652 -0.2408
  153MPD2    H1 2385   1.536   2.837  12.997  0.4835 -0.1955 -0.7394
  153MPD2    H2 2386   1.907   2.905  12.817  1.6817 -0.6705  1.9550
  153MPD2    H3 2387   1.724   2.753  12.883  2.5233 -0.3840 -1.1761
  153MPD2     N 2388   1.497   3.110  13.053  0.1747 -0.4281  0.1774
  153MPD2    H5 2389   1.491   3.211  13.057  1.0048 -0.4126  1.1873
  153MPD2    N1 2390   1.922   3.154  12.846  0.3087  0.3894 -0.2293
  153MPD2    H7 2391   1.994   3.109  12.790 -0.3533  1.7380 -2.1840
  154TMC2    C1 2392   3.858   4.025   0.105 -0.4657 -0.4458  0.0260
  154TMC2    C2 2393   3.967   4.108   0.079  0.3280 -0.0238  0.5070
  154TMC2    C3 2394   4.089   4.050   0.067  0.1445 -0.3491 -0.9344
  154TMC2    C4 2395   3.873   3.888   0.113  0.6148  0.2732  0.7392
  154TMC2    C5 2396   3.995   3.835   0.090  0.0421 -0.3422 -0.1728
  154TMC2    C6 2397   4.109   3.915   0.074  0.5771 -0.3516  0.4208
  154TMC2     C 2398   3.723   4.087   0.092 -0.2605  0.7082  0.0379
  154TMC2     O 2399   3.722   4.209   0.106 -0.2644 -0.0688 -0.6489
  154TMC2     H 2400   3.955   4.216   0.079  1.7861  0.1413  0.4811
  154TMC2    H1 2401   3.780   3.834   0.133  0.2012  0.5875 -0.3300
  154TMC2    H2 2402   4.211   3.881   0.058  0.2412 -1.1539 -0.0578
  154TMC2    C7 2403   3.997   3.693   0.060  0.0237  0.4430 -0.1109
  154TMC2    C8 2404   4.200   4.140   0.068  0.5640  0.0323 -0.4117
  154TMC2    O1 2405   3.886   3.642   0.058  0.4997 -0.0023 -0.0085
  154TMC2    O2 2406   4.196   4.251   0.118  0.0945 -0.2273  0.2555
  154TMC2    O5 2407   4.265   4.100  17.699 -0.0036  0.3436  0.2796
  154TMC2    H5 2408   4.229   4.024  17.648 -0.5513  1.6807 -1.3331
  155MPD2     C 2409   3.390   3.953  17.733 -0.1709  0.6923 -0.0365
  155MPD2    C1 2410   3.480   4.045   0.035  0.0382  0.6912  0.1151
  155MPD2    C2 2411   3.436   4.172   0.069  0.2649 -1.3550 -0.2800
  155MPD2    C3 2412   3.305   4.204   0.038 -0.4819 -0.2734 -0.6231
  155MPD2    C4 2413   3.226   4.110  17.726 -0.2487  0.2667 -0.0176
  155MPD2    C5 2414   3.258   3.979  17.697  0.1709 -0.0669 -0.6148
  155MPD2     H 2415   3.499   4.249   0.111 -3.4079  1.2473  0.4582
  155MPD2    H1 2416   3.121   4.134  17.716 -0.9975 -2.8509  0.3468
  155MPD2    H2 2417   3.432   3.853  17.720 -0.6989  0.2361  1.7083
  155MPD2    H3 2418   3.189   3.904  17.660 -0.5241  0.1225  0.3111
  155MPD2     N 2419   3.263   4.335   0.063 -0.1082 -0.0715 -0.1914
  155MPD2    H5 2420   3.325   4.392   0.121  0.0416 -0.5743  0.1430
  155MPD2    N1 2421   3.617   4.002   0.057  0.3283 -0.1919 -0.9627
  155MPD2    H7 2422   3.645   3.906   0.037 -2.2792 -1.3243  0.7675
  156TMC2    C1 2423   2.177   0.771  12.139 -0.5074 -0.2445  0.1790
  156TMC2    C2 2424   2.233   0.655  12.116  0.3485 -0.1420  0.5664
  156TMC2    C3 2425   2.266   0.631  11.989  0.2674 -0.1668  0.2475
  156TMC2    C4 2426   2.140   0.863  12.041 -0.8293 -0.0287  0.1911
  156TMC2    C5 2427   2.191   0.845  11.913  0.3297  0.3779 -0.0644
  156TMC2    C6 2428   2.261   0.726  11.887 -0.3858  0.2943 -0.9676
  156TMC2     C 2429   2.134   0.800  12.272  0.2434  0.3761 -0.8132
  156TMC2     O 2430   2.037   0.875  12.289 -0.0071 -0.4654 -0.1003
  156TMC2     H 2431   2.250   0.576  12.188  1.0919 -0.8839 -0.4096
  156TMC2    H1 2432   2.098   0.958  12.072 -1.2543  0.0206 -0.5459
  156TMC2    H2 2433   2.312   0.716  11.792 -1.7968 -0.8275 -1.6247
  156TMC2    C7 2434   2.250   0.956  11.852  0.4164 -0.2121  0.0424
  156TMC2    C8 2435   2.374   0.539  11.986  0.7158  0.1545 -0.1255
  156TMC2    O1 2436   2.362   0.946  11.800  0.1109  0.0865 -0.4005
  156TMC2    O2 2437   2.445   0.514  12.085 -0.0516  0.4448 -0.1535
  156TMC2    O5 2438   2.357   0.478  11.870  0.2789  0.0334  0.2137
  156TMC2    H5 2439   2.275   0.515  11.831  0.3127 -1.6758 -1.4699
  157MPD2     C 2440   2.282   0.738  12.598  0.0365  0.1311  0.1164
  157MPD2    C1 2441   2.210   0.800  12.504 -0.2257 -0.3851  0.6743
  157MPD2    C2 2442   2.136   0.905  12.551  0.4621  0.1029  0.3024
  157MPD2    C3 2443   2.137   0.950  12.681  0.3491  0.3135 -0.0527
  157MPD2    C4 2444   2.224   0.895  12.770  0.3583  0.5845  0.0200
  157MPD2    C5 2445   2.286   0.783  12.727  0.5685 -0.0859  0.6556
  157MPD2     H 2446   2.070   0.952  12.479 -0.4298 -0.2083  0.9184
  157MPD2    H1 2447   2.235   0.921  12.875  0.4712 -0.9763  0.3866
  157MPD2    H2 2448   2.338   0.649  12.576 -1.1276 -0.4850 -0.3568
  157MPD2    H3 2449   2.342   0.722  12.797  0.4467 -1.9376 -0.8534
  157MPD2     N 2450   2.059   1.068  12.714 -1.2388 -0.3126  0.1045
  157MPD2    H5 2451   1.995   1.093  12.640  1.0039 -0.7726 -1.9841
  157MPD2    N1 2452   2.214   0.745  12.374  0.7068  0.9489 -0.3128
  157MPD2    H7 2453   2.289   0.684  12.342 -0.2082 -0.4506  0.1889
  158TMC2    C1 2454   2.984   4.705  13.163 -0.0137  0.8802  0.6646
  158TMC2    C2 2455   3.064   4.719  13.052  0.3419  0.0110  0.5311
  158TMC2    C3 2456   3.007   4.678  12.934 -0.8290  0.0440 -0.1808
  158TMC2    C4 2457   2.854   4.657  13.163 -0.4641  0.1263  0.5616
  158TMC2    C5 2458   2.810   4.615  13.033 -0.0826  0.5285 -0.9325
  158TMC2    C6 2459   2.879   4.634  12.916  0.1481  0.0908  0.6571
  158TMC2     C 2460   3.020   0.039  13.284  0.2081 -0.2380  0.8225
  158TMC2     O 2461   3.098   0.136  13.278  0.2685  0.4540  0.1813
  158TMC2     H 2462   3.165   0.020  13.057  0.6349 -1.0421  2.5668
  158TMC2    H1 2463   2.786   4.663  13.247 -0.6524 -0.4623  0.4551
  158TMC2    H2 2464   2.841   4.605  12.819 -2.3743 -3.0321  2.5755
  158TMC2    C7 2465   2.672   4.587  13.013 -0.8209 -0.3344 -0.3493
  158TMC2    C8 2466   3.088   4.700  12.817 -0.3445 -0.0368 -0.5855
  158TMC2    O1 2467   2.626   4.628  12.907  0.2866 -0.1487  0.3205
  158TMC2    O2 2468   3.210   4.676  12.812 -0.3242 -0.1327  0.3497
  158TMC2    O5 2469   3.030   0.059  12.733 -0.1434  0.4935 -0.2729
  158TMC2    H5 2470   2.962   0.100  12.790  0.0603  0.3797  0.0589
  159MPD2     C 2471   2.998   0.068  13.791  0.2231  0.1814 -0.1822
  159MPD2    C1 2472   2.907   4.717  13.749 -0.1044 -0.0349 -0.7513
  159MPD2    C2 2473   2.899   4.689  13.618  0.5507 -0.2983 -1.1104
  159MPD2    C3 2474   2.986   0.004  13.528  0.1844 -0.3214 -1.0182
  159MPD2    C4 2475   3.079   0.093  13.570 -0.3361  0.9902  0.1382
  159MPD2    C5 2476   3.087   0.124  13.705  0.8414  0.2403 -0.5456
  159MPD2     H 2477   2.846   4.604  13.577 -1.3866  0.4550 -0.1512
  159MPD2    H1 2478   3.159   0.139  13.514 -0.2956  1.4714  0.5911
  159MPD2    H2 2479   3.003   0.099  13.895 -0.5312  0.1743 -0.1434
  159MPD2    H3 2480   3.170   0.186  13.738  1.0040 -0.7742  0.9309
  159MPD2     N 2481   2.967   4.706  13.394 -0.2765 -0.1996  0.7752
  159MPD2    H5 2482   2.910   4.625  13.371 -0.5151  0.1542  0.1076
  159MPD2    N1 2483   2.822   4.656  13.849  0.3282  0.7524  0.1537
  159MPD2    H7 2484   2.844   4.660  13.948  0.9481 -0.8077  0.0680
  160TMC2    C1 2485   2.500   2.627   1.399 -0.4187  0.0753  0.2251
  160TMC2    C2 2486   2.484   2.489   1.398  0.3173 -0.4514 -0.1430
  160TMC2    C3 2487   2.591   2.419   1.348 -0.1450 -0.0961 -0.3009
  160TMC2    C4 2488   2.616   2.694   1.363 -0.7670  0.2804 -0.2514
  160TMC2    C5 2489   2.724   2.615   1.335  0.2368  0.1986  0.5659
  160TMC2    C6 2490   2.715   2.481   1.331 -0.0038 -0.3011 -0.1069
  160TMC2     C 2491   2.394   2.701   1.449  0.1613 -0.4262 -0.1308
  160TMC2     O 2492   2.303   2.641   1.507 -0.1995  0.2024  0.3195
  160TMC2     H 2493   2.389   2.449   1.431  0.9027 -0.4254  1.5390
  160TMC2    H1 2494   2.630   2.799   1.386 -0.5846 -0.0108  0.9900
  160TMC2    H2 2495   2.798   2.416   1.307  0.8921  0.6767  0.3471
  160TMC2    C7 2496   2.850   2.671   1.292 -0.1719  0.1319 -0.2945
  160TMC2    C8 2497   2.585   2.270   1.328 -0.3886 -0.2892 -0.0584
  160TMC2    O1 2498   2.946   2.593   1.300 -0.0493  0.3604  0.0494
  160TMC2    O2 2499   2.664   2.222   1.251  0.4689 -0.1000 -0.0126
  160TMC2    O5 2500   2.461   2.218   1.350  0.1317 -0.1444 -0.7873
  160TMC2    H5 2501   2.426   2.265   1.429  0.8188  0.1702 -0.6716
  161MPD2     C 2502   2.246   2.916   1.602  0.2158 -0.3263 -0.0812
  161MPD2    C1 2503   2.319   2.934   1.487  0.5915 -1.1148 -0.5632
  161MPD2    C2 2504   2.316   3.056   1.427  0.8391  0.6625  0.1259
  161MPD2    C3 2505   2.229   3.161   1.467 -0.2938 -0.3642 -0.3177
  161MPD2    C4 2506   2.159   3.137   1.587 -0.0701  0.1030 -0.0347
  161MPD2    C5 2507   2.164   3.014   1.646  0.1172 -0.1001 -0.4104
  161MPD2     H 2508   2.383   3.070   1.342  1.1266  1.2284  0.4486
  161MPD2    H1 2509   2.094   3.212   1.630 -1.0972 -1.0684  0.4261
  161MPD2    H2 2510   2.248   2.820   1.653 -2.5687 -0.1302  0.3627
  161MPD2    H3 2511   2.103   2.988   1.732  1.3531 -1.1006  0.1699
  161MPD2     N 2512   2.203   3.275   1.392 -0.0560  0.5448 -0.2338
  161MPD2    H5 2513   2.134   3.344   1.421 -0.1902  0.5792 -0.6367
  161MPD2    N1 2514   2.402   2.835   1.430  0.2103  0.4042 -0.4298
  161MPD2    H7 2515   2.469   2.872   1.363 -0.4710  1.6370 -0.4393
  162TMC2    C1 2516   0.232   0.133   1.035 -0.5949 -0.3904  0.9890
  162TMC2    C2 2517   0.181   0.255   0.983 -0.1807 -0.0157  0.3348
  162TMC2    C3 2518   0.109   0.338   1.062 -0.0233  0.1618  0.1452
  162TMC2    C4 2519   0.221   0.092   1.167 -0.3118 -0.4723  0.1889
  162TMC2    C5 2520   0.128   0.174   1.230 -0.2742  0.1881  0.6348
  162TMC2    C6 2521   0.068   0.290   1.182 -0.3494  0.0802 -0.9011
  162TMC2     C 2522   0.319   0.059   0.946  0.3125 -0.6998 -0.1114
  162TMC2     O 2523   0.284   0.071   0.829 -0.2805  0.1683  0.7512
  162TMC2     H 2524   0.207   0.283   0.882  0.7999 -1.5089  0.1657
  162TMC2    H1 2525   0.248   4.729   1.200  2.5897 -0.2742 -1.6196
  162TMC2    H2 2526   0.008   0.354   1.246 -0.7953  1.2510 -2.5033
  162TMC2    C7 2527   0.122   0.172   1.375 -0.1339  0.2348  0.4419
  162TMC2    C8 2528   0.091   0.473   1.020 -0.4597 -0.3990 -0.0975
  162TMC2    O1 2529   0.044   0.249   1.434 -0.3159  0.2085 -0.0932
  162TMC2    O2 2530   0.175   0.548   0.975  0.3199 -0.0262 -0.7319
  162TMC2    O5 2531   4.705   0.509   1.061  0.4959 -0.0948 -0.3471
  162TMC2    H5 2532   4.652   0.436   1.099  0.1980 -1.0709 -2.6508
  163MPD2     C 2533   0.738   4.507   0.814  0.2056  0.1393 -0.8112
  163MPD2    C1 2534   0.633   4.565   0.740  1.1526 -0.0678  0.2134
  163MPD2    C2 2535   0.534   4.644   0.803  0.0327  0.1532  0.0279
  163MPD2    C3 2536   0.526   4.657   0.938 -0.2107 -0.2644  0.3912
  163MPD2    C4 2537   0.637   4.606   1.012  0.1733  0.2892 -0.3402
  163MPD2    C5 2538   0.742   4.540   0.947  0.0432  0.0364 -1.1143
  163MPD2     H 2539   0.473   4.712   0.746 -1.0886  0.3201  1.4238
  163MPD2    H1 2540   0.645   4.610   1.120 -0.7199 -1.0386 -0.2352
  163MPD2    H2 2541   0.820   4.446   0.777 -0.2040  0.2650 -1.9285
  163MPD2    H3 2542   0.824   4.511   1.011 -0.1036  1.2752 -0.3732
  163MPD2     N 2543   0.423   4.729   1.010  1.3045 -0.2662  0.2584
  163MPD2    H5 2544   0.434   0.002   1.111 -2.0933 -0.1478  0.6104
  163MPD2    N1 2545   0.645   4.542   0.601 -0.5594 -0.4357 -0.1617
  163MPD2    H7 2546   0.725   4.488   0.570  0.2156  0.9106 -0.4644
  164TMC2    C1 2547   0.921   4.206  10.889  0.9270 -0.0024  0.9580
  164TMC2    C2 2548   1.031   4.288  10.892 -0.1816 -0.9071  0.2842
  164TMC2    C3 2549   1.038   4.376  10.994  0.0488 -0.2384 -0.0539
  164TMC2    C4 2550   0.823   4.228  10.974  0.3119  0.2965  0.4015
  164TMC2    C5 2551   0.824   4.329  11.062 -0.0874  1.3177 -0.4806
  164TMC2    C6 2552   0.932   4.412  11.077  0.2714 -0.3096  0.2143
  164TMC2     C 2553   0.897   4.123  10.777 -0.6560  0.7519 -0.5261
  164TMC2     O 2554   0.795   4.058  10.770  0.2880 -0.2563 -0.5349
  164TMC2     H 2555   1.126   4.264  10.844 -0.1473 -2.0867  0.9408
  164TMC2    H1 2556   0.733   4.171  10.949  0.4790  0.3095 -0.2383
  164TMC2    H2 2557   0.938   4.489  11.153 -2.4255  0.2819 -0.1758
  164TMC2    C7 2558   0.699   4.377  11.122  0.3168  0.2049  1.6893
  164TMC2    C8 2559   1.148   4.462  11.021 -0.4892 -0.4047 -0.1757
  164TMC2    O1 2560   0.693   4.491  11.169 -0.3170 -0.4455  0.5079
  164TMC2    O2 2561   1.176   4.492  11.139 -0.3542  0.3618  0.3747
  164TMC2    O5 2562   1.182   4.521  10.906  0.0823  0.0666 -0.4657
  164TMC2    H5 2563   1.146   4.488  10.821 -1.1155 -0.2900  0.1844
  165TMC2    C1 2564   2.442   2.014   1.018 -0.2043 -0.5842  0.4138
  165TMC2    C2 2565   2.500   1.894   0.988 -0.5132 -0.1098 -0.2313
  165TMC2    C3 2566   2.626   1.895   0.938 -0.4578 -0.2453  0.6408
  165TMC2    C4 2567   2.505   2.131   0.986  0.5954 -0.7088  0.2529
  165TMC2    C5 2568   2.628   2.132   0.941 -0.5250 -0.0016 -1.1488
  165TMC2    C6 2569   2.689   2.012   0.908 -0.4092  1.0362  0.5825
  165TMC2     C 2570   2.314   2.024   1.103 -0.5347 -0.2941 -0.1913
  165TMC2     O 2571   2.248   2.129   1.098  0.3675  0.0181 -0.1208
  165TMC2     H 2572   2.459   1.804   1.031  1.6808 -1.7428 -1.5661
  165TMC2    H1 2573   2.455   2.216   1.031 -0.7522  0.7343 -3.9788
  165TMC2    H2 2574   2.797   2.004   0.898 -0.5111  1.5790 -0.9094
  165TMC2    C7 2575   2.708   2.248   0.944  0.5179  0.1349 -0.6846
  165TMC2    C8 2576   2.684   1.778   0.869 -0.0181 -0.0532 -0.2841
  165TMC2    O1 2577   2.827   2.239   0.919  0.2822  0.3259 -0.3271
  165TMC2    O2 2578   2.653   1.657   0.878 -0.3204 -0.3692 -1.2045
  165TMC2    O5 2579   2.721   1.824   0.755  0.0980 -0.5122 -0.4293
  165TMC2    H5 2580   2.713   1.921   0.740 -1.0261 -0.3798  0.9891
  166MPD2     C 2581   1.934   1.777   1.339  0.2008  0.0112 -0.2838
  166MPD2    C1 2582   1.933   1.882   1.253  0.4606  0.4098 -0.4780
  166MPD2    C2 2583   2.053   1.929   1.209  0.5573 -0.3866 -0.3416
  166MPD2    C3 2584   2.173   1.863   1.227  0.1670 -0.2543  0.7192
  166MPD2    C4 2585   2.171   1.753   1.308  0.4634 -0.0663  0.3844
  166MPD2    C5 2586   2.051   1.709   1.367  0.6942 -0.3467 -0.0486
  166MPD2     H 2587   2.046   2.017   1.147 -1.3589 -0.8074 -0.7327
  166MPD2    H1 2588   2.253   1.687   1.333  0.2770 -0.1040  0.8942
  166MPD2    H2 2589   1.840   1.739   1.378  0.8805 -1.7931 -0.3941
  166MPD2    H3 2590   2.048   1.616   1.423 -3.1952 -0.4229 -0.3804
  166MPD2     N 2591   2.293   1.910   1.175 -0.5907  0.5346  0.1869
  166MPD2    H5 2592   2.376   1.855   1.190 -0.0865  1.1513 -0.3255
  166MPD2    N1 2593   1.804   1.931   1.220 -0.2027 -0.4029 -0.0228
  166MPD2    H7 2594   1.727   1.867   1.237 -1.0942  0.7643  0.3575
  167TMC2    C1 2595   4.598   4.315  13.042  0.2026  0.2299 -0.0956
  167TMC2    C2 2596   4.532   4.361  13.157  0.0109  0.1260  0.6087
  167TMC2    C3 2597   4.510   4.267  13.260 -0.1196  0.1670  0.2303
  167TMC2    C4 2598   4.644   4.191  13.031 -0.2654  0.6140  0.0875
  167TMC2    C5 2599   4.607   4.101  13.127 -0.2040  0.0358  0.6144
  167TMC2    C6 2600   4.538   4.132  13.245  0.3356  0.1942  0.3729
  167TMC2     C 2601   4.615   4.417  12.937 -0.0063 -0.1304 -0.0200
  167TMC2     O 2602   4.626   4.533  12.978  0.3217  0.0690  0.5325
  167TMC2     H 2603   4.498   4.464  13.160 -2.0457 -0.5374 -0.1315
  167TMC2    H1 2604   4.700   4.162  12.943 -0.5956  0.0216  0.0735
  167TMC2    H2 2605   4.519   4.060  13.324  1.0058 -2.1388 -1.5903
  167TMC2    C7 2606   4.666   3.966  13.132  0.0004  0.3713  0.3773
  167TMC2    C8 2607   4.391   4.294  13.333  0.2364  0.4871 -0.0734
  167TMC2    O1 2608   4.640   3.890  13.224  0.1329 -0.1315 -0.0175
  167TMC2    O2 2609   4.301   4.359  13.277  0.0814  0.1847 -0.1357
  167TMC2    O5 2610   4.376   4.205  13.433 -0.1184  0.6287 -0.7524
  167TMC2    H5 2611   4.463   4.179  13.470 -0.2541  1.3743  0.0807
  168MPD2     C 2612   4.656   4.554  12.672 -0.4404 -0.2941  0.2782
  168MPD2    C1 2613   4.628   4.424  12.680  0.2932 -0.3380  0.3243
  168MPD2    C2 2614   4.628   4.349  12.565  0.2511  0.4098  0.3083
  168MPD2    C3 2615   4.638   4.409  12.438 -0.2320  0.3607 -0.1046
  168MPD2    C4 2616   4.662   4.542  12.434  0.2992 -0.3489  0.5871
  168MPD2    C5 2617   4.665   4.617  12.548  0.4423  0.0162 -0.2719
  168MPD2     H 2618   4.611   4.242  12.570 -1.9107  0.8173  1.6821
  168MPD2    H1 2619   4.683   4.584  12.336  1.5866  0.3896  1.1742
  168MPD2    H2 2620   4.676   4.616  12.758  1.1894  0.2090 -0.4599
  168MPD2    H3 2621   4.685   4.723  12.535  0.2068 -0.1296 -1.8877
  168MPD2     N 2622   4.634   4.338  12.315 -0.2052 -0.8098 -0.0461
  168MPD2    H5 2623   4.623   4.392  12.230 -0.8360  0.8918  1.1155
  168MPD2    N1 2624   4.622   4.359  12.810  0.0367 -0.0603 -0.5352
  168MPD2    H7 2625   4.604   4.260  12.795 -0.8647 -0.0587  0.5902
  169MPD1     C 2626   2.096   4.110   9.338 -0.0242  0.1506  0.2104
  169MPD1    C1 2627   2.158   4.004   9.279 -0.1584 -0.2523 -0.2021
  169MPD1    C2 2628   2.288   3.974   9.323  0.9267  0.3170  0.3204
  169MPD1    C3 2629   2.363   4.061   9.405 -0.2181  0.2177 -0.0438
  169MPD1    C4 2630   2.295   4.175   9.454  0.5923 -0.3731  0.4749
  169MPD1    C5 2631   2.164   4.202   9.416  0.0141  0.2366 -0.3732
  169MPD1     H 2632   2.330   3.883   9.282 -0.5816 -0.4481  0.4599
  169MPD1    H1 2633   2.342   4.239   9.528  1.7922 -0.5386 -0.1476
  169MPD1    H2 2634   1.990   4.119   9.318 -0.0342  1.8144  0.9768
  169MPD1    H3 2635   2.108   4.284   9.459 -0.8614 -0.3353 -0.4073
  169MPD1     N 2636   2.494   4.030   9.446  0.0661  0.1953  0.3061
  169MPD1    H5 2637   2.526   3.945   9.401 -2.0042  1.5821 -3.7514
  169MPD1    N1 2638   2.086   3.914   9.196 -0.2724 -0.3083 -0.6539
  169MPD1    H6 2639   2.143   3.855   9.136 -1.7354  0.2610 -2.6136
  169MPD1    H7 2640   2.021   3.966   9.138 -2.0821  0.5022  2.1079
  170MPD1     C 2641   1.725   1.660  13.396 -0.2754  0.0714  0.4345
  170MPD1    C1 2642   1.636   1.748  13.346  0.2362 -0.0989 -0.4602
  170MPD1    C2 2643   1.540   1.788  13.430 -0.4094  0.0173 -1.4523
  170MPD1    C3 2644   1.527   1.738  13.555  0.3837 -0.3552  0.0171
  170MPD1    C4 2645   1.618   1.642  13.597 -0.4465 -0.9763  0.0688
  170MPD1    C5 2646   1.716   1.609  13.519 -0.3423  0.4023 -0.0255
  170MPD1     H 2647   1.466   1.860  13.396 -0.3480  0.6711 -0.1977
  170MPD1    H1 2648   1.619   1.591  13.693  3.4102 -1.7162 -0.3348
  170MPD1    H2 2649   1.815   1.634  13.343 -0.3195 -1.2900  1.0071
  170MPD1    H3 2650   1.790   1.536  13.551  2.1873  2.2772 -1.7021
  170MPD1     N 2651   1.413   1.773  13.630  0.7609  0.5079  0.1878
  170MPD1    H5 2652   1.358   1.845  13.583 -0.4854  1.4711  3.1453
  170MPD1    N1 2653   1.661   1.806  13.221 -0.0157 -0.3803  0.5855
  170MPD1    H6 2654   1.576   1.809  13.166  0.5428  1.8627 -0.1503
  170MPD1    H7 2655   1.736   1.766  13.164  0.2628 -0.1414  0.7806
  171MPD1     C 2656   4.365   2.451  15.248  0.4575 -0.0613  0.1495
  171MPD1    C1 2657   4.475   2.526  15.290 -0.0071 -0.8091  0.2487
  171MPD1    C2 2658   4.547   2.495  15.403 -0.1714 -0.0426 -0.0328
  171MPD1    C3 2659   4.528   2.374  15.469 -0.5518 -0.9233  0.0644
  171MPD1    C4 2660   4.418   2.300  15.426 -0.2933  0.0123 -0.2326
  171MPD1    C5 2661   4.340   2.335  15.316 -0.8222 -0.0433  0.6739
  171MPD1     H 2662   4.625   2.566  15.429 -0.4192  0.3194 -0.2902
  171MPD1    H1 2663   4.393   2.204  15.470  0.7618 -0.1767 -0.0326
  171MPD1    H2 2664   4.299   2.489  15.171  1.8217  2.5156  0.2407
  171MPD1    H3 2665   4.248   2.283  15.293  0.9074 -1.7637 -2.2800
  171MPD1     N 2666   4.601   2.325  15.580 -0.1542  0.1518  0.0732
  171MPD1    H5 2667   4.551   2.247  15.620 -1.6711 -0.1395 -2.3914
  171MPD1    N1 2668   4.491   2.656  15.237  0.2029  0.2619  0.0277
  171MPD1    H6 2669   4.491   2.657  15.135 -3.7088 -2.0086  0.0178
  171MPD1    H7 2670   4.584   2.686  15.263 -0.2870  0.0844  1.9764
  172MPD1     C 2671   3.366   1.869   0.351 -0.6129  0.2699 -0.1689
  172MPD1    C1 2672   3.406   1.955   0.452  0.1074  0.1073 -0.1184
  172MPD1    C2 2673   3.514   2.047   0.437 -0.3281  1.0209 -0.2006
  172MPD1    C3 2674   3.588   2.039   0.317 -0.4146  0.5673 -0.1981
  172MPD1    C4 2675   3.541   1.952   0.218 -0.5062 -0.2150 -1.0362
  172MPD1    C5 2676   3.428   1.875   0.231 -0.2146 -0.2569  0.3138
  172MPD1     H 2677   3.546   2.112   0.517  2.0227 -1.5058  0.9159
  172MPD1    H1 2678   3.587   1.942   0.121  0.8001  1.0030 -0.5416
  172MPD1    H2 2679   3.282   1.801   0.359 -1.0865  0.7969 -0.6629
  172MPD1    H3 2680   3.405   1.823   0.139  1.0773 -0.2608 -0.0103
  172MPD1     N 2681   3.696   2.118   0.292  0.2739 -0.4760 -0.0808
  172MPD1    H5 2682   3.748   2.099   0.207 -0.4226 -1.0275 -0.3846
  172MPD1    N1 2683   3.350   1.939   0.576 -0.1757 -0.1074  0.5602
  172MPD1    H6 2684   3.365   2.009   0.648 -1.7845 -1.1983  1.9527
  172MPD1    H7 2685   3.252   1.909   0.579  0.4202 -2.0787  0.1643
  173MPD1     C 2686   0.434   2.303  13.777  0.2482 -0.1813  0.2156
  173MPD1    C1 2687   0.529   2.210  13.741 -0.3767  0.1305 -0.3996
  173MPD1    C2 2688   0.530   2.088  13.804 -0.1844  0.2443  0.3794
  173MPD1    C3 2689   0.432   2.057  13.897  0.3610 -1.1671 -0.2918
  173MPD1    C4 2690   0.329   2.145  13.921  0.3735 -0.6280 -0.5089
  173MPD1    C5 2691   0.328   2.271  13.859 -0.3418 -0.6875 -0.3669
  173MPD1     H 2692   0.610   2.019  13.780  0.2127  0.5774  0.7298
  173MPD1    H1 2693   0.250   2.120  13.992  0.5295 -1.0865 -0.5023
  173MPD1    H2 2694   0.442   2.403  13.736 -2.2538 -0.6621 -1.4173
  173MPD1    H3 2695   0.244   2.335  13.879 -0.6886 -1.3480  0.2978
  173MPD1     N 2696   0.454   1.936  13.965 -0.4185 -0.2180  0.3549
  173MPD1    H5 2697   0.522   1.871  13.926 -1.0644  0.3147 -1.6892
  173MPD1    N1 2698   0.639   2.256  13.667 -0.3433 -0.1761  0.1654
  173MPD1    H6 2699   0.676   2.173  13.621 -0.0556 -0.0089  0.0905
  173MPD1    H7 2700   0.608   2.324  13.598 -1.0820 -0.0013  0.6741
  174MPD1     C 2701   0.540   0.946  13.953 -0.0185  0.1024 -0.8313
  174MPD1    C1 2702   0.465   1.046  13.896  0.1736  0.3030  0.2480
  174MPD1    C2 2703   0.453   1.173  13.949  0.1633  0.2889  0.6480
  174MPD1    C3 2704   0.516   1.199  14.071 -0.1961  0.0446 -0.5638
  174MPD1    C4 2705   0.595   1.099  14.126  0.3442 -0.0067 -0.3267
  174MPD1    C5 2706   0.609   0.975  14.066  0.3006 -0.4835 -0.2634
  174MPD1     H 2707   0.390   1.246  13.899 -1.8642 -2.8303 -1.3743
  174MPD1    H1 2708   0.662   1.118  14.209  0.7920 -1.4839 -0.3427
  174MPD1    H2 2709   0.551   0.850  13.905 -1.8772 -2.3368  3.6647
  174MPD1    H3 2710   0.670   0.896  14.109 -0.5180 -1.7109 -1.3232
  174MPD1     N 2711   0.524   1.328  14.123 -0.0558 -0.2339 -0.3375
  174MPD1    H5 2712   0.565   1.335  14.216  1.5196 -0.5173 -1.0055
  174MPD1    N1 2713   0.395   1.026  13.780 -1.0079  0.1704  0.0929
  174MPD1    H6 2714   0.360   0.930  13.774  0.4432 -0.1748 -2.9017
  174MPD1    H7 2715   0.313   1.086  13.771 -0.8076  0.4750  0.3250
  175MPD1     C 2716   3.235   3.649  15.710 -0.4636  0.0770  0.3742
  175MPD1    C1 2717   3.354   3.681  15.775 -0.4419 -0.2747 -0.5068
  175MPD1    C2 2718   3.402   3.580  15.860 -0.7313  0.4563  0.2017
  175MPD1    C3 2719   3.324   3.470  15.904  0.8391 -0.0158 -0.4673
  175MPD1    C4 2720   3.204   3.444  15.832 -0.0073 -0.2592  0.9247
  175MPD1    C5 2721   3.162   3.535  15.737 -0.4466  0.1744  0.0438
  175MPD1     H 2722   3.499   3.594  15.905 -0.0787 -1.4078 -0.6062
  175MPD1    H1 2723   3.143   3.356  15.846 -0.4141 -0.2279 -0.7167
  175MPD1    H2 2724   3.209   3.711  15.624 -0.0443  1.1968  1.0505
  175MPD1    H3 2725   3.066   3.523  15.688 -0.2269  0.4049 -0.4482
  175MPD1     N 2726   3.361   3.372  16.001 -0.3562  0.2258 -0.1391
  175MPD1    H5 2727   3.301   3.290  16.003 -0.9571  0.6696 -0.0404
  175MPD1    N1 2728   3.433   3.788  15.726 -0.2852 -0.1710 -0.6025
  175MPD1    H6 2729   3.513   3.812  15.786 -1.2861 -2.2405  1.5795
  175MPD1    H7 2730   3.381   3.869  15.693 -1.9045 -1.0251 -0.1518
  176MPD1     C 2731   0.299   0.490   0.615 -0.2761 -0.2908  0.2007
  176MPD1    C1 2732   0.306   0.624   0.614  0.4044 -0.1787 -0.1404
  176MPD1    C2 2733   0.340   0.696   0.497 -0.3750  1.1380 -0.7215
  176MPD1    C3 2734   0.365   0.627   0.383 -0.0473 -0.4060  0.1521
  176MPD1    C4 2735   0.355   0.497   0.383 -0.0708 -0.0488 -0.3964
  176MPD1    C5 2736   0.324   0.422   0.495  0.0686  0.3878  0.3853
  176MPD1     H 2737   0.340   0.804   0.505  1.0381  1.0938 -0.0641
  176MPD1    H1 2738   0.363   0.435   0.294  0.5358 -0.5162 -0.0195
  176MPD1    H2 2739   0.281   0.432   0.704 -1.9383 -0.5396 -0.2938
  176MPD1    H3 2740   0.312   0.315   0.489 -1.7778  0.5893  0.3415
  176MPD1     N 2741   0.390   0.708   0.270 -0.4035 -0.8084  0.1907
  176MPD1    H5 2742   0.378   0.809   0.278  0.6681 -0.5623 -1.1188
  176MPD1    N1 2743   0.257   0.689   0.726 -0.4145 -0.5435  0.6989
  176MPD1    H6 2744   0.294   0.783   0.744  0.3880 -0.7459  0.1017
  176MPD1    H7 2745   0.268   0.637   0.813  2.9147 -2.6563 -0.9837
  177MPD1     C 2746   3.883   4.721  10.468  0.8428 -0.2954  0.2975
  177MPD1    C1 2747   3.822   4.718  10.342  0.7555  0.1069 -0.7714
  177MPD1    C2 2748   3.699   0.040  10.334  0.3390  0.1048  0.1755
  177MPD1    C3 2749   3.633   0.097  10.444  0.0552 -0.1039  0.1038
  177MPD1    C4 2750   3.702   0.107  10.561 -0.3732  0.0304 -0.3470
  177MPD1    C5 2751   3.823   0.048  10.572  0.3281  0.2637 -0.3389
  177MPD1     H 2752   3.651   0.045  10.237  0.7982  2.1180  0.0647
  177MPD1    H1 2753   3.661   0.140  10.656  0.6131  1.4367 -0.4163
  177MPD1    H2 2754   3.976   4.669  10.491  0.9593 -1.1515 -2.0900
  177MPD1    H3 2755   3.865   0.043  10.672 -0.9870  1.6625  0.2740
  177MPD1     N 2756   3.500   0.152  10.424  0.2980  0.3159  0.0111
  177MPD1    H5 2757   3.451   0.142  10.336 -0.6965  1.2636  0.4593
  177MPD1    N1 2758   3.877   4.659  10.223  0.4838  0.2542  0.7563
  177MPD1    H6 2759   3.843   4.700  10.136  2.6808  0.9733  0.2497
  177MPD1    H7 2760   3.976   4.636  10.218  0.1702 -1.3311  1.8395
  178MPD1     C 2761   0.819   0.628   0.123  0.2643 -0.4219 -0.0683
  178MPD1    C1 2762   0.788   0.540   0.023  0.3317 -0.0367  0.0098
  178MPD1    C2 2763   0.870   0.526  17.661  0.1340 -0.2485 -0.4246
  178MPD1    C3 2764   0.981   0.607  17.654 -0.0227  0.3543 -0.1629
  178MPD1    C4 2765   1.000   0.712  17.738 -0.3458 -0.6057  0.4712
  178MPD1    C5 2766   0.918   0.719   0.106  0.4996 -0.3704  0.1850
  178MPD1     H 2767   0.854   0.447  17.587  0.7173  0.2057 -1.0325
  178MPD1    H1 2768   1.084   0.779  17.722 -0.8551  0.4580  2.2011
  178MPD1    H2 2769   0.748   0.627   0.206 -0.7719 -0.1456 -0.9512
  178MPD1    H3 2770   0.937   0.800   0.176 -0.8875 -0.6504  0.8941
  178MPD1     N 2771   1.087   0.601  17.559 -0.3258 -0.3001  1.1281
  178MPD1    H5 2772   1.164   0.666  17.567 -0.7118  0.1050  1.5715
  178MPD1    N1 2773   0.699   0.434   0.046 -0.1407 -0.4355 -0.3754
  178MPD1    H6 2774   0.622   0.480   0.094  1.0193 -0.1448  1.2211
  178MPD1    H7 2775   0.668   0.392  17.703 -2.8136 -0.0880  0.4161
  179MPD1     C 2776   1.466   3.380  15.599 -0.0519 -0.7606  0.4847
  179MPD1    C1 2777   1.397   3.309  15.693 -0.2245 -0.1105 -0.1643
  179MPD1    C2 2778   1.312   3.373  15.779  0.1904 -0.0976  0.2065
  179MPD1    C3 2779   1.284   3.506  15.756 -0.2040  0.2494  0.0978
  179MPD1    C4 2780   1.354   3.582  15.659  0.6079  0.3871 -0.0616
  179MPD1    C5 2781   1.439   3.513  15.575 -0.4668  0.5570  0.0288
  179MPD1     H 2782   1.275   3.335  15.874 -0.4845  0.3634  0.1259
  179MPD1    H1 2783   1.340   3.689  15.657 -0.7752  0.1949 -0.4092
  179MPD1    H2 2784   1.535   3.329  15.532 -0.1734  1.6686 -1.4915
  179MPD1    H3 2785   1.484   3.563  15.491  0.7954 -0.1054  0.3208
  179MPD1     N 2786   1.191   3.572  15.840 -0.8825 -0.1406 -0.0241
  179MPD1    H5 2787   1.145   3.516  15.912  0.0966 -0.7495  0.1237
  179MPD1    N1 2788   1.456   3.184  15.720 -0.0172  0.3022 -0.0148
  179MPD1    H6 2789   1.465   3.133  15.632  1.5693  0.6790 -0.0754
  179MPD1    H7 2790   1.395   3.130  15.780  0.1842  3.1253  2.7280
  180MPD1     C 2791   1.085   0.881  15.303  0.0395 -0.1324  0.2355
  180MPD1    C1 2792   0.951   0.855  15.319 -0.0401  0.0382 -0.1323
  180MPD1    C2 2793   0.897   0.761  15.228 -0.3402  0.7414  0.5181
  180MPD1    C3 2794   0.968   0.688  15.131  0.1112 -0.3944 -0.2557
  180MPD1    C4 2795   1.101   0.723  15.113 -0.0182 -0.5305 -0.2192
  180MPD1    C5 2796   1.160   0.818  15.198  0.5725 -0.5945 -0.2413
  180MPD1     H 2797   0.795   0.725  15.236 -0.2667 -0.0829 -2.2259
  180MPD1    H1 2798   1.171   0.668  15.050 -0.2812 -2.3507  1.0506
  180MPD1    H2 2799   1.142   0.937  15.377 -0.2003  0.6043 -0.1369
  180MPD1    H3 2800   1.264   0.846  15.192  0.4967  0.0371  1.3299
  180MPD1     N 2801   0.905   0.578  15.062  0.2789  0.2684 -0.5089
  180MPD1    H5 2802   0.814   0.547  15.096  0.5102  0.5575  0.3801
  180MPD1    N1 2803   0.881   0.893  15.431  0.0529 -0.9034 -0.2841
  180MPD1    H6 2804   0.783   0.915  15.415  0.8505  2.4575 -0.4971
  180MPD1    H7 2805   0.925   0.970  15.481 -1.5480 -0.2336  0.0822
  181MPD1     C 2806   1.971   2.020  10.547 -0.1894 -0.2176  0.1988
  181MPD1    C1 2807   1.993   1.976  10.421 -0.1517  0.0576  0.0281
  181MPD1    C2 2808   2.105   2.030  10.357  0.1726  1.1147 -0.1508
  181MPD1    C3 2809   2.192   2.112  10.418  0.0360 -0.5045  0.6037
  181MPD1    C4 2810   2.175   2.130  10.551 -0.2442 -0.5414  0.6192
  181MPD1    C5 2811   2.064   2.090  10.614 -0.2741  0.2228  0.2417
  181MPD1     H 2812   2.113   2.010  10.251 -0.5524  0.5990 -0.1137
  181MPD1    H1 2813   2.258   2.174  10.606 -0.7519 -0.6714  1.4907
  181MPD1    H2 2814   1.884   1.984  10.602 -1.9080  1.1550 -1.6153
  181MPD1    H3 2815   2.072   2.091  10.722 -1.8425 -3.2835  0.3821
  181MPD1     N 2816   2.293   2.187  10.355  0.0058  0.2158 -0.2169
  181MPD1    H5 2817   2.336   2.259  10.411  0.1125 -0.4186  0.5239
  181MPD1    N1 2818   1.894   1.923  10.345 -0.2976  0.0373 -0.4262
  181MPD1    H6 2819   1.839   1.852  10.393  1.2804 -0.3916  0.7187
  181MPD1    H7 2820   1.925   1.882  10.257 -2.2588 -1.9151 -0.2100
  182MPD1     C 2821   4.054   2.104   0.659 -0.1256  0.2657  0.4757
  182MPD1    C1 2822   4.113   2.025   0.563 -0.5473 -0.1242 -0.0971
  182MPD1    C2 2823   4.035   1.931   0.501  0.8341  0.4706  0.0962
  182MPD1    C3 2824   3.896   1.914   0.528 -0.0071  0.2796 -0.0200
  182MPD1    C4 2825   3.840   2.007   0.616 -0.4322  0.8114  0.1258
  182MPD1    C5 2826   3.913   2.101   0.673  0.4282 -0.1377 -0.2964
  182MPD1     H 2827   4.078   1.870   0.423  0.3126 -0.3426  0.4457
  182MPD1    H1 2828   3.732   2.002   0.625 -0.4908 -0.6255 -1.3151
  182MPD1    H2 2829   4.114   2.187   0.696 -0.5027 -0.1010  1.9098
  182MPD1    H3 2830   3.867   2.172   0.740 -1.2882  0.5158 -2.1753
  182MPD1     N 2831   3.821   1.815   0.465  0.4909 -0.5660  0.2138
  182MPD1    H5 2832   3.724   1.819   0.495  0.2775 -1.3887 -0.3593
  182MPD1    N1 2833   4.252   2.030   0.547  0.0209  0.3981 -0.3287
  182MPD1    H6 2834   4.290   2.123   0.559  0.9337 -0.4357  3.3965
  182MPD1    H7 2835   4.281   1.991   0.457  3.4061  0.8448  0.5561
  183MPD1     C 2836   3.749   2.557   9.132 -0.1543  0.4467 -0.6726
  183MPD1    C1 2837   3.715   2.429   9.164 -0.0690  0.1204 -0.1169
  183MPD1    C2 2838   3.624   2.411   9.266  0.2506 -0.3592 -0.0828
  183MPD1    C3 2839   3.552   2.519   9.313  0.0646  0.5484  0.1574
  183MPD1    C4 2840   3.572   2.648   9.270  0.6789 -0.4206 -0.4918
  183MPD1    C5 2841   3.677   2.662   9.180 -0.5161  0.0141  0.0190
  183MPD1     H 2842   3.600   2.307   9.289 -1.0627  0.4768  2.2388
  183MPD1    H1 2843   3.514   2.733   9.303  2.0585  0.9476 -1.5524
  183MPD1    H2 2844   3.823   2.582   9.057  0.5714  2.7244  0.7860
  183MPD1    H3 2845   3.701   2.759   9.138  4.7426 -0.3332  2.2340
  183MPD1     N 2846   3.446   2.500   9.407 -0.2906 -0.0656 -0.0447
  183MPD1    H5 2847   3.400   2.583   9.442 -0.8304 -1.0937  1.6607
  183MPD1    N1 2848   3.787   2.322   9.110  0.6814  0.7258  0.3457
  183MPD1    H6 2849   3.730   2.237   9.111  0.6485  0.7287 -2.2826
  183MPD1    H7 2850   3.801   2.343   9.012 -0.7943 -1.0256 -0.2317
  184MPD1     C 2851   2.362   4.039  10.295 -0.4111  0.1503  0.0663
  184MPD1    C1 2852   2.455   4.091  10.388 -0.1825  0.3374 -0.8315
  184MPD1    C2 2853   2.498   4.216  10.369 -0.3744 -0.0012  0.4524
  184MPD1    C3 2854   2.474   4.286  10.250  0.0877 -0.1907  0.2973
  184MPD1    C4 2855   2.385   4.231  10.152 -0.0767  0.4011  0.0747
  184MPD1    C5 2856   2.328   4.109  10.181  0.9885 -0.2542 -0.4369
  184MPD1     H 2857   2.573   4.247  10.441 -1.1645 -0.0055  1.2698
  184MPD1    H1 2858   2.365   4.282  10.059 -1.7599  1.7933  1.2058
  184MPD1    H2 2859   2.302   3.949  10.306  1.5026 -0.8151  2.8734
  184MPD1    H3 2860   2.256   4.065  10.113  1.5071  0.3639 -1.4019
  184MPD1     N 2861   2.523   4.414  10.224  0.2920 -0.2069  0.2700
  184MPD1    H5 2862   2.486   4.462  10.143 -0.3478  0.1862  0.7974
  184MPD1    N1 2863   2.478   4.026  10.510  0.6738 -0.3459  0.7798
  184MPD1    H6 2864   2.469   3.926  10.493 -0.5793 -0.3154  1.2479
  184MPD1    H7 2865   2.572   4.050  10.540  0.8071  0.1912 -0.0791
  185MPD1     C 2866   2.412   4.637   9.461  0.2068  0.1277 -0.2595
  185MPD1    C1 2867   2.508   4.734   9.489 -0.5578 -0.1069  0.6080
  185MPD1    C2 2868   2.571   0.000   9.608  0.5195 -0.3933 -0.3577
  185MPD1    C3 2869   2.531   4.651   9.710  0.3735 -0.4982  0.0460
  185MPD1    C4 2870   2.423   4.574   9.688 -0.6330 -0.2356 -0.0628
  185MPD1    C5 2871   2.366   4.560   9.566  0.8069 -0.3495 -0.0430
  185MPD1     H 2872   2.655   0.069   9.611  1.0864 -1.0859 -0.4584
  185MPD1    H1 2873   2.390   4.505   9.765 -1.4102  0.3483  0.1236
  185MPD1    H2 2874   2.359   4.620   9.368 -2.4855  1.0522  1.1271
  185MPD1    H3 2875   2.300   4.477   9.543  0.8924 -0.8128  1.3812
  185MPD1     N 2876   2.597   4.637   9.837  0.6121 -0.1446  0.0098
  185MPD1    H5 2877   2.562   4.573   9.908  0.4882  2.4179  2.2509
  185MPD1    N1 2878   2.555   0.079   9.382  0.3137 -0.0257  0.5192
  185MPD1    H6 2879   2.474   0.090   9.322  0.6588  1.6312  0.3731
  185MPD1    H7 2880   2.588   0.161   9.433  0.3039 -0.2103  0.8234
  186MPD1     C 2881   0.517   4.602  15.747  0.4249 -0.2193 -0.6199
  186MPD1    C1 2882   0.581   4.697  15.814  0.2219  0.0919 -0.4260
  186MPD1    C2 2883   0.676   4.657  15.904 -0.0538 -0.1386 -0.1891
  186MPD1    C3 2884   0.730   4.527  15.907 -0.4425 -0.2638 -0.1793
  186MPD1    C4 2885   0.670   4.428  15.830  0.1717 -0.1928 -0.3904
  186MPD1    C5 2886   0.563   4.476  15.754  0.0648 -0.5254 -0.4867
  186MPD1     H 2887   0.730   4.736  15.956 -0.2799 -1.2073  1.6488
  186MPD1    H1 2888   0.700   4.324  15.827 -2.1282 -0.9157  1.8557
  186MPD1    H2 2889   0.434   4.609  15.678  0.0157  1.8819  0.0721
  186MPD1    H3 2890   0.505   4.416  15.685  0.1514  0.3605 -1.3267
  186MPD1     N 2891   0.838   4.486  15.989 -0.3231 -0.4198  0.5556
  186MPD1    H5 2892   0.856   4.387  16.001 -1.5325 -0.4050  2.5558
  186MPD1    N1 2893   0.523   0.089  15.814 -0.1659  0.5708 -0.0410
  186MPD1    H6 2894   0.595   0.160  15.828  0.9923 -1.0645  2.3178
  186MPD1    H7 2895   0.473   0.122  15.732  0.2536  1.6391  0.1282
  187MPD1     C 2896   1.083   1.493   0.082  0.2409 -0.3632 -0.1314
  187MPD1    C1 2897   1.015   1.372   0.051  0.1030 -0.3250  0.2113
  187MPD1    C2 2898   0.927   1.374  17.688  0.4017 -0.5805  0.2408
  187MPD1    C3 2899   0.926   1.481  17.599  0.2812 -0.4119 -0.1116
  187MPD1    C4 2900   1.001   1.588  17.619  0.3821 -0.6381  0.5036
  187MPD1    C5 2901   1.065   1.601   0.002  0.1815  0.4511  0.7546
  187MPD1     H 2902   0.866   1.285  17.679  1.2344 -1.2408  1.1959
  187MPD1    H1 2903   1.009   1.669  17.548 -0.5536  0.3573  1.5255
  187MPD1    H2 2904   1.138   1.511   0.174 -1.9352  2.3041  0.6280
  187MPD1    H3 2905   1.113   1.696   0.022 -0.1396  1.0382 -1.3489
  187MPD1     N 2906   0.847   1.485  17.484  0.1099  0.0045 -0.6761
  187MPD1    H5 2907   0.863   1.562  17.420 -0.7900  1.1793  0.5112
  187MPD1    N1 2908   1.043   1.253   0.122 -0.2866 -0.4870  0.2287
  187MPD1    H6 2909   0.963   1.191   0.130 -0.8387  0.1277 -0.4858
  187MPD1    H7 2910   1.083   1.261   0.215 -0.8805  1.3026  0.3232
  188MPD1     C 2911   0.581   0.705   9.890  0.2255 -0.0023 -0.3747
  188MPD1    C1 2912   0.615   0.575   9.907 -0.8837 -0.2313 -0.1579
  188MPD1    C2 2913   0.538   0.507  10.002 -0.3701 -0.0523 -0.0988
  188MPD1    C3 2914   0.441   0.577  10.077  0.1167  0.1127  0.2340
  188MPD1    C4 2915   0.416   0.710  10.056 -0.4276  0.0096  0.1033
  188MPD1    C5 2916   0.494   0.777   9.962  0.1678 -0.5879 -0.6697
  188MPD1     H 2917   0.559   0.402  10.018 -1.5281 -0.5696 -2.0005
  188MPD1    H1 2918   0.338   0.764  10.108 -1.8135 -1.5493 -0.3436
  188MPD1    H2 2919   0.628   0.773   9.820  1.6342 -2.0238 -1.3997
  188MPD1    H3 2920   0.469   0.879   9.932 -1.4318 -0.6789  0.3251
  188MPD1     N 2921   0.363   0.515  10.188 -0.2805 -0.1231 -0.1556
  188MPD1    H5 2922   0.295   0.576  10.233  0.3831 -0.1856  0.9191
  188MPD1    N1 2923   0.680   0.508   9.807 -0.1546 -0.0013  0.2628
  188MPD1    H6 2924   0.745   0.567   9.756 -1.1005  0.6632 -0.1955
  188MPD1    H7 2925   0.725   0.420   9.827 -2.2329 -1.2299 -0.4613
  189MPD1     C 2926   1.970   1.896   0.911 -0.1613 -0.3956  0.0658
  189MPD1    C1 2927   1.953   2.004   0.827  0.1830  0.2683 -0.0982
  189MPD1    C2 2928   1.842   2.019   0.749  0.0690  0.5741 -1.0846
  189MPD1    C3 2929   1.745   1.923   0.747  0.6320 -0.2530  0.1765
  189MPD1    C4 2930   1.772   1.814   0.826  0.4193  0.2481  0.0537
  189MPD1    C5 2931   1.876   1.804   0.912 -0.2168  0.1855  0.1594
  189MPD1     H 2932   1.846   2.104   0.682 -2.2487  1.3715 -0.1992
  189MPD1    H1 2933   1.696   1.737   0.821 -0.9320  1.4700  1.6192
  189MPD1    H2 2934   2.061   1.877   0.966  0.4841  0.1826 -0.8080
  189MPD1    H3 2935   1.885   1.724   0.985  1.3022 -0.0009 -0.2313
  189MPD1     N 2936   1.642   1.928   0.659  0.5177 -0.1352  0.5064
  189MPD1    H5 2937   1.585   1.844   0.656  1.6351 -0.8923  0.1955
  189MPD1    N1 2938   2.060   2.092   0.817 -0.1889 -0.5905 -0.2277
  189MPD1    H6 2939   2.029   2.186   0.794 -0.3766 -0.6347 -0.1552
  189MPD1    H7 2940   2.115   2.097   0.903 -1.0514 -1.4960  0.3648
  190MPD1     C 2941   0.828   1.291  15.658  0.2740 -0.3953 -0.1806
  190MPD1    C1 2942   0.966   1.320  15.651  0.0878 -0.4052 -0.2334
  190MPD1    C2 2943   1.054   1.215  15.666  0.5795 -0.2774  0.0245
  190MPD1    C3 2944   1.012   1.087  15.702 -0.1189  0.5174 -0.1950
  190MPD1    C4 2945   0.881   1.059  15.713 -0.0593 -0.0659 -1.2243
  190MPD1    C5 2946   0.793   1.165  15.687 -0.5785 -0.1328  0.9263
  190MPD1     H 2947   1.157   1.244  15.650  0.8047 -1.3848 -0.5465
  190MPD1    H1 2948   0.833   0.967  15.743 -0.6963  0.5235 -0.4216
  190MPD1    H2 2949   0.744   1.359  15.651  0.4637 -0.0003  1.5922
  190MPD1    H3 2950   0.688   1.150  15.710 -1.0469  0.6093 -0.7325
  190MPD1     N 2951   1.105   0.997  15.747 -0.6320 -0.5073 -0.0531
  190MPD1    H5 2952   1.204   1.019  15.738 -0.1747 -2.0960  1.0339
  190MPD1    N1 2953   1.009   1.436  15.589  0.1832  0.4596  0.1111
  190MPD1    H6 2954   0.958   1.519  15.619 -0.0404  0.4827 -0.3376
  190MPD1    H7 2955   1.104   1.467  15.610  0.8485 -0.1018 -2.1054
  191MPD1     C 2956   0.595   0.971  13.140 -0.0653  0.3844  0.7025
  191MPD1    C1 2957   0.493   0.932  13.056 -0.1233 -0.1486 -0.0527
  191MPD1    C2 2958   0.372   0.992  13.067  0.9005  0.6120  0.4409
  191MPD1    C3 2959   0.342   1.084  13.166  0.0631  0.1773 -0.3364
  191MPD1    C4 2960   0.444   1.118  13.249  1.0527  0.4015  0.5404
  191MPD1    C5 2961   0.570   1.067  13.238 -0.2652  0.0592  0.1300
  191MPD1     H 2962   0.296   0.960  12.997 -0.2374  1.4207  1.2977
  191MPD1    H1 2963   0.436   1.198  13.322 -0.5001  0.6617  0.0798
  191MPD1    H2 2964   0.692   0.922  13.132  0.2606  0.9119  1.4154
  191MPD1    H3 2965   0.646   1.090  13.312 -1.5887  2.8461  0.5996
  191MPD1     N 2966   0.209   1.135  13.168 -0.1291 -0.6735 -0.2727
  191MPD1    H5 2967   0.141   1.079  13.117  0.0368 -0.1945 -1.0302
  191MPD1    N1 2968   0.521   0.850  12.947  0.7106 -0.5327  1.0777
  191MPD1    H6 2969   0.603   0.789  12.952  2.0501  1.0786 -1.1907
  191MPD1    H7 2970   0.443   0.790  12.920  0.4147  0.9938 -1.4492
  192MPD1     C 2971   3.950   0.965  13.115  1.0958  0.7164 -0.0198
  192MPD1    C1 2972   4.070   0.897  13.124 -0.2836  0.1796  0.0536
  192MPD1    C2 2973   4.189   0.968  13.146 -0.7509  0.5379  0.0738
  192MPD1    C3 2974   4.194   1.104  13.151 -0.0983  0.4371 -0.1746
  192MPD1    C4 2975   4.077   1.175  13.137  0.3804 -0.2993  0.1750
  192MPD1    C5 2976   3.957   1.107  13.123 -0.0784  0.5630  0.0220
  192MPD1     H 2977   4.282   0.915  13.162 -1.5130 -0.9963 -0.5297
  192MPD1    H1 2978   4.073   1.283  13.146  1.0489 -0.3459  0.9951
  192MPD1    H2 2979   3.858   0.919  13.080  0.1128  1.3882  1.6880
  192MPD1    H3 2980   3.861   1.157  13.111  1.2663  2.5773 -2.2758
  192MPD1     N 2981   4.308   1.186  13.172  0.4871  0.5238  0.3753
  192MPD1    H5 2982   4.292   1.286  13.177  0.0007  0.4004  1.3798
  192MPD1    N1 2983   4.077   0.758  13.129  0.4586  0.4546 -0.5713
  192MPD1    H6 2984   4.171   0.722  13.116  0.6221  0.2894  0.9921
  192MPD1    H7 2985   4.009   0.709  13.071  2.2418 -2.3675 -0.2642
  193MPD1     C 2986   4.116   3.001  16.620  0.4398 -0.7053 -0.2345
  193MPD1    C1 2987   4.228   2.989  16.533 -0.3677 -0.1163 -0.5943
  193MPD1    C2 2988   4.351   2.987  16.594  0.5245  0.5316  0.3539
  193MPD1    C3 2989   4.362   3.002  16.735 -0.2494 -0.7693  1.0702
  193MPD1    C4 2990   4.256   3.010  16.822 -0.5097  0.3034 -0.1635
  193MPD1    C5 2991   4.130   3.011  16.759 -0.9260  0.0416 -0.9555
  193MPD1     H 2992   4.435   2.966  16.528 -0.7461 -0.5507 -0.9017
  193MPD1    H1 2993   4.263   3.007  16.930  0.3049  1.9990 -0.1615
  193MPD1    H2 2994   4.023   3.009  16.566  1.1022 -0.4308 -1.3394
  193MPD1    H3 2995   4.039   3.022  16.817  0.0755  0.4536  0.5496
  193MPD1     N 2996   4.487   3.016  16.799 -0.7196  0.0446 -0.7416
  193MPD1    H5 2997   4.482   3.041  16.897 -1.0249 -0.9681 -0.4931
  193MPD1    N1 2998   4.214   3.001  16.395  0.0439 -0.3122  0.5708
  193MPD1    H6 2999   4.275   2.936  16.347  1.7306 -0.4467  2.8820
  193MPD1    H7 3000   4.121   2.993  16.356 -0.0662  0.5123  0.6486
  194MPD1     C 3001   2.281   0.450  16.667 -0.0250  0.2963 -1.0643
  194MPD1    C1 3002   2.307   0.342  16.579  0.4748 -0.1119  0.0841
  194MPD1    C2 3003   2.317   0.215  16.633 -0.1101  0.4817 -0.6267
  194MPD1    C3 3004   2.276   0.194  16.765  0.2146  0.2654  0.0646
  194MPD1    C4 3005   2.248   0.301  16.844  0.0709 -0.2450 -0.3292
  194MPD1    C5 3006   2.248   0.428  16.798 -0.0108 -0.0068 -0.1825
  194MPD1     H 3007   2.335   0.137  16.560 -0.0826 -0.0492 -0.0458
  194MPD1    H1 3008   2.211   0.298  16.946 -1.2429  1.1597 -0.7613
  194MPD1    H2 3009   2.274   0.551  16.627  2.8323  0.1958 -1.8223
  194MPD1    H3 3010   2.209   0.504  16.865  1.1733 -1.2083  1.8792
  194MPD1     N 3011   2.262   0.070  16.823  0.2289  0.1047  0.5974
  194MPD1    H5 3012   2.220   0.082  16.915 -1.2591 -0.8038  0.0367
  194MPD1    N1 3013   2.337   0.369  16.446  0.2478 -0.2580 -0.3188
  194MPD1    H6 3014   2.337   0.285  16.388  0.3612 -0.7486  0.3986
  194MPD1    H7 3015   2.273   0.436  16.405  0.8053 -0.8895 -2.2140
  195MPD1     C 3016   4.670   2.491   0.396  0.6840 -1.2613  0.0685
  195MPD1    C1 3017   4.588   2.390   0.338 -0.5426 -0.4859  0.4222
  195MPD1    C2 3018   4.620   2.256   0.344  0.0311 -0.1312 -0.1704
  195MPD1    C3 3019   4.733   2.210   0.408  0.2135 -0.4258 -0.0675
  195MPD1    C4 3020   0.072   2.307   0.469 -0.1090 -0.3242 -0.0340
  195MPD1    C5 3021   0.041   2.437   0.469 -0.6635 -0.0297 -0.3105
  195MPD1     H 3022   4.566   2.184   0.284 -0.4062 -1.2752  1.6001
  195MPD1    H1 3023   0.151   2.269   0.533 -0.6856 -0.2543  0.7221
  195MPD1    H2 3024   4.638   2.594   0.391  2.0794 -0.7419  1.5980
  195MPD1    H3 3025   0.107   2.503   0.525 -1.4314  3.2156 -3.1845
  195MPD1     N 3026   0.031   2.078   0.412 -0.1511 -0.7359 -0.2834
  195MPD1    H5 3027   0.125   2.059   0.448  0.5295 -0.7476 -2.0443
  195MPD1    N1 3028   4.499   2.442   0.242  0.3368  0.4047  0.2080
  195MPD1    H6 3029   4.435   2.372   0.206 -1.1097  1.5177  0.5712
  195MPD1    H7 3030   4.444   2.520   0.280  1.0385  1.9005 -1.8326
  196MPD1     C 3031   3.701   0.896   0.415  0.6984 -0.7058 -0.0882
  196MPD1    C1 3032   3.805   0.991   0.404 -0.3976 -0.0418 -0.2187
  196MPD1    C2 3033   3.857   1.046   0.520 -0.8872 -0.5275 -0.2602
  196MPD1    C3 3034   3.827   0.991   0.643  0.4308 -0.5246  0.2876
  196MPD1    C4 3035   3.730   0.895   0.648 -0.1293  0.2016 -0.9101
  196MPD1    C5 3036   3.662   0.848   0.539 -0.0660 -0.7060  0.4899
  196MPD1     H 3037   3.927   1.128   0.517  1.4556 -2.5126 -0.5587
  196MPD1    H1 3038   3.692   0.858   0.742  0.7087  2.8151  0.4648
  196MPD1    H2 3039   3.663   0.837   0.332  0.7524  1.7567 -1.8680
  196MPD1    H3 3040   3.592   0.766   0.546 -0.3360 -0.7143 -2.3303
  196MPD1     N 3041   3.854   1.052   0.770  0.0021  0.4174  0.2103
  196MPD1    H5 3042   3.798   1.024   0.850 -1.6872  1.9227 -0.4615
  196MPD1    N1 3043   3.834   1.043   0.277 -0.2154  0.1253 -0.2410
  196MPD1    H6 3044   3.807   0.981   0.201 -1.8678  2.3312 -1.4367
  196MPD1    H7 3045   3.934   1.052   0.259 -0.6458  0.1259 -2.5621
  197MPD1     C 3046   3.154   3.023  17.613  0.2006 -0.0973 -0.1568
  197MPD1    C1 3047   3.202   2.915  17.551 -0.0904 -0.0218 -0.7765
  197MPD1    C2 3048   3.305   2.942  17.461 -0.1817  0.6325  0.4474
  197MPD1    C3 3049   3.337   3.071  17.430  0.2046  0.1906 -0.3859
  197MPD1    C4 3050   3.301   3.178  17.510  0.4676 -0.0583  0.2388
  197MPD1    C5 3051   3.208   3.151  17.602  0.8579 -0.0878 -0.9652
  197MPD1     H 3052   3.350   2.857  17.410  2.2475  0.4531  2.9197
  197MPD1    H1 3053   3.326   3.280  17.484  0.5309 -0.1982 -0.2535
  197MPD1    H2 3054   3.067   3.013  17.677  1.0870 -0.7757  0.9398
  197MPD1    H3 3055   3.158   3.233  17.653 -0.1163 -1.2840 -0.0027
  197MPD1     N 3056   3.432   3.094  17.327  0.2075  0.1872 -0.6540
  197MPD1    H5 3057   3.467   3.189  17.321 -1.2903  0.7144 -1.1403
  197MPD1    N1 3058   3.169   2.789  17.592 -0.0784 -0.4412  0.2148
  197MPD1    H6 3059   3.185   2.716  17.523 -2.0208 -0.5773 -0.1130
  197MPD1    H7 3060   3.080   2.774  17.639 -0.5342 -0.2243 -0.5791
  198MPD1     C 3061   0.439   0.930  15.843  0.1291  0.0291 -0.2516
  198MPD1    C1 3062   0.557   0.889  15.903 -0.4392 -0.0796  0.5028
  198MPD1    C2 3063   0.644   0.982  15.958  0.9553  0.2295 -0.1288
  198MPD1    C3 3064   0.612   1.116  15.962  0.7068 -0.0456  0.0953
  198MPD1    C4 3065   0.491   1.149  15.904 -0.1841  0.3673 -0.5564
  198MPD1    C5 3066   0.404   1.057  15.854  0.5563  0.7749 -0.1327
  198MPD1     H 3067   0.741   0.949  15.993  0.2595 -1.5906  0.0870
  198MPD1    H1 3068   0.450   1.250  15.905  0.1679  0.5243 -1.8243
  198MPD1    H2 3069   0.371   0.871  15.784 -0.0742  0.0060  0.0064
  198MPD1    H3 3070   0.310   1.090  15.810  0.2888  1.1311  0.7086
  198MPD1     N 3071   0.696   1.203  16.023 -0.7239 -0.3978 -0.7834
  198MPD1    H5 3072   0.778   1.159  16.063 -0.1076 -1.0329 -2.7210
  198MPD1    N1 3073   0.597   0.752  15.890 -0.4215  0.2127  0.4057
  198MPD1    H6 3074   0.521   0.684  15.884  0.2923 -0.5615  0.1409
  198MPD1    H7 3075   0.672   0.719  15.950  0.0718  0.3662 -0.1277
  199MPD1     C 3076   2.293   3.323  10.830 -0.1819  0.1375  0.2517
  199MPD1    C1 3077   2.225   3.224  10.759 -0.2872  0.3747 -0.3506
  199MPD1    C2 3078   2.285   3.178  10.647  0.3510 -0.1152  0.1807
  199MPD1    C3 3079   2.416   3.215  10.617 -0.4696  0.0068  0.2955
  199MPD1    C4 3080   2.481   3.313  10.688  0.5051  0.0481  0.2334
  199MPD1    C5 3081   2.419   3.369  10.792 -1.0465 -0.4336  0.7199
  199MPD1     H 3082   2.241   3.109  10.575 -0.3500  1.2996 -0.7562
  199MPD1    H1 3083   2.580   3.348  10.663  0.6739 -1.3565 -1.0592
  199MPD1    H2 3084   2.247   3.364  10.919 -1.6727 -0.3018 -0.3123
  199MPD1    H3 3085   2.466   3.445  10.853 -0.2187 -1.0641  0.8708
  199MPD1     N 3086   2.493   3.162  10.510  0.3678  0.5321  0.7817
  199MPD1    H5 3087   2.592   3.183  10.503  0.0250  1.0645 -2.4998
  199MPD1    N1 3088   2.091   3.187  10.776  0.5169 -0.4000 -0.2862
  199MPD1    H6 3089   2.061   3.222  10.867 -3.7795 -2.3770 -0.9413
  199MPD1    H7 3090   2.079   3.087  10.763 -0.8315 -0.1557 -0.9486
  200MPD1     C 3091   2.519   3.064  14.777 -0.3342  0.1538  0.1378
  200MPD1    C1 3092   2.409   2.982  14.776  0.9569 -0.2036 -0.0711
  200MPD1    C2 3093   2.432   2.850  14.763  0.2855  0.4546  0.0484
  200MPD1    C3 3094   2.560   2.799  14.734 -0.2036 -0.9975  0.2863
  200MPD1    C4 3095   2.663   2.883  14.719  0.2671 -0.9339  0.5122
  200MPD1    C5 3096   2.643   3.018  14.742 -0.3270 -0.0048 -0.3963
  200MPD1     H 3097   2.352   2.780  14.784  0.5142  0.4648  0.9608
  200MPD1    H1 3098   2.754   2.857  14.667 -1.7070 -0.4537 -3.1685
  200MPD1    H2 3099   2.510   3.170  14.795  0.4723  0.2930 -0.3006
  200MPD1    H3 3100   2.725   3.089  14.738 -1.0139  0.8600  1.4850
  200MPD1     N 3101   2.580   2.665  14.691  0.0998 -0.0981  0.3029
  200MPD1    H5 3102   2.504   2.612  14.650  1.6951 -0.4273 -2.2184
  200MPD1    N1 3103   2.284   3.024  14.813  0.3075  0.4276  0.4686
  200MPD1    H6 3104   2.213   2.962  14.774  1.3694 -2.7909  3.6309
  200MPD1    H7 3105   2.263   3.122  14.795 -1.1293  0.0697  0.1525
  201MPD1     C 3106   3.735   1.837  13.645 -0.2092 -0.5403 -0.3298
  201MPD1    C1 3107   3.832   1.784  13.725 -0.4992 -0.3326 -0.1650
  201MPD1    C2 3108   3.865   1.654  13.709  0.0229  0.7878 -0.2667
  201MPD1    C3 3109   3.800   1.571  13.614  0.3473 -0.6029  0.1694
  201MPD1    C4 3110   3.695   1.616  13.542  0.3387 -0.1654  0.2809
  201MPD1    C5 3111   3.666   1.748  13.558  0.2462 -0.3514  0.3198
  201MPD1     H 3112   3.945   1.607  13.765 -1.8285  0.8212  2.3950
  201MPD1    H1 3113   3.633   1.557  13.475  0.6571  0.5063 -0.6131
  201MPD1    H2 3114   3.716   1.944  13.648  2.6731 -0.0558  0.6725
  201MPD1    H3 3115   3.583   1.794  13.507  0.9051 -1.6769 -1.9488
  201MPD1     N 3116   3.852   1.446  13.592  0.0794  0.6826 -0.0572
  201MPD1    H5 3117   3.942   1.421  13.631 -0.2223  0.9888  0.8202
  201MPD1    N1 3118   3.917   1.868  13.810  0.3875 -0.7745  0.9214
  201MPD1    H6 3119   3.854   1.932  13.857 -0.9647 -0.4243 -1.3735
  201MPD1    H7 3120   3.959   1.815  13.886 -0.5660 -2.3406  0.3558
  202MPD1     C 3121   4.086   1.764   9.334  0.2221 -0.1124  0.2538
  202MPD1    C1 3122   4.145   1.652   9.389  0.0689  0.1235  0.2691
  202MPD1    C2 3123   4.073   1.601   9.497 -0.3830 -0.0987  0.1548
  202MPD1    C3 3124   3.988   1.682   9.577  0.3831 -0.3057  0.1880
  202MPD1    C4 3125   3.951   1.803   9.529 -0.1752  0.5346  0.3536
  202MPD1    C5 3126   3.998   1.840   9.407 -0.4438  0.0634  0.0876
  202MPD1     H 3127   4.113   1.515   9.549 -1.1651 -1.7741 -2.0250
  202MPD1    H1 3128   3.890   1.868   9.591  2.8069  2.0779  1.6893
  202MPD1    H2 3129   4.119   1.805   9.240  0.5821 -2.2735 -0.5549
  202MPD1    H3 3130   3.967   1.936   9.367 -1.5139  0.1610  1.1618
  202MPD1     N 3131   3.928   1.638   9.699  0.3912 -0.0383 -0.1836
  202MPD1    H5 3132   3.868   1.712   9.736 -0.8453 -1.3141  0.3774
  202MPD1    N1 3133   4.199   1.564   9.297  0.4996  0.1407 -0.1955
  202MPD1    H6 3134   4.261   1.502   9.348  0.2641 -1.1599 -1.5136
  202MPD1    H7 3135   4.260   1.609   9.229 -1.8338  1.2759 -1.5255
  203MPD1     C 3136   2.062   1.893  12.399  0.0014 -0.1954  0.0668
  203MPD1    C1 3137   2.157   1.849  12.316 -0.5669  1.3091 -0.1719
  203MPD1    C2 3138   2.271   1.790  12.374 -0.0257 -0.3227  0.3463
  203MPD1    C3 3139   2.285   1.776  12.517 -0.2878  0.4823 -0.5273
  203MPD1    C4 3140   2.183   1.819  12.597 -0.5033  0.3895 -0.0192
  203MPD1    C5 3141   2.066   1.866  12.532 -0.8214 -0.7614  1.1427
  203MPD1     H 3142   2.345   1.751  12.305  0.0522 -0.5323  0.5488
  203MPD1    H1 3143   2.181   1.819  12.705  0.2710  1.6003 -0.0002
  203MPD1    H2 3144   1.970   1.939  12.366 -0.8555 -1.3253  0.8541
  203MPD1    H3 3145   1.983   1.892  12.597 -0.0441 -0.5064  2.0377
  203MPD1     N 3146   2.406   1.720  12.567  0.4368 -0.7608  0.0794
  203MPD1    H5 3147   2.467   1.684  12.495  1.6504  1.5174 -0.0155
  203MPD1    N1 3148   2.146   1.879  12.178 -0.4330 -0.1396  0.4461
  203MPD1    H6 3149   2.218   1.837  12.120 -0.8415  0.6118 -0.6043
  203MPD1    H7 3150   2.051   1.857  12.149 -0.2053 -0.6010  0.0552
  204MPD1     C 3151   2.508   3.444  17.461  0.4391  0.0457  0.2646
  204MPD1    C1 3152   2.417   3.342  17.463  0.7905 -0.2776  0.2786
  204MPD1    C2 3153   2.449   3.240  17.373 -0.4938  1.3956  0.0975
  204MPD1    C3 3154   2.566   3.228  17.303  0.2768 -0.5271  0.2230
  204MPD1    C4 3155   2.662   3.326  17.307  0.1414  0.2512  0.7310
  204MPD1    C5 3156   2.627   3.434  17.390  0.2570 -0.0028  0.3546
  204MPD1     H 3157   2.372   3.164  17.364 -0.5473  1.5291 -0.5803
  204MPD1    H1 3158   2.760   3.331  17.261  0.7191 -2.3395  1.7047
  204MPD1    H2 3159   2.493   3.531  17.524  0.1795 -0.1874  0.5242
  204MPD1    H3 3160   2.697   3.517  17.391  0.0407  0.1863 -0.3865
  204MPD1     N 3161   2.581   3.105  17.229  0.0778  0.8713 -0.3316
  204MPD1    H5 3162   2.508   3.034  17.233  0.3362  0.5220 -1.6553
  204MPD1    N1 3163   2.296   3.355  17.537  0.0785 -0.0125  0.4852
  204MPD1    H6 3164   2.299   3.432  17.604 -2.3116  0.5192 -0.0067
  204MPD1    H7 3165   2.272   3.269  17.586  1.8269 -1.2259 -0.7987
  205MPD1     C 3166   2.030   2.019  16.464  0.1980 -0.0841 -0.1374
  205MPD1    C1 3167   2.139   1.988  16.388  0.1442 -0.6749  0.0293
  205MPD1    C2 3168   2.258   1.954  16.453  1.3818 -0.1252  0.2017
  205MPD1    C3 3169   2.267   1.974  16.591 -0.3117  0.2324  0.0471
  205MPD1    C4 3170   2.156   1.998  16.666 -0.8977 -0.0839  0.4058
  205MPD1    C5 3171   2.042   2.033  16.600 -0.2519 -0.3167 -0.7308
  205MPD1     H 3172   2.339   1.916  16.393 -0.2642  0.3499 -2.3522
  205MPD1    H1 3173   2.168   1.993  16.774 -0.8484 -0.2887  0.3906
  205MPD1    H2 3174   1.937   2.040  16.412  0.6995  0.7447 -0.6971
  205MPD1    H3 3175   1.955   2.048  16.664  0.4244 -1.2440  0.3994
  205MPD1     N 3176   2.387   1.952  16.657 -0.5380  0.2439 -0.1055
  205MPD1    H5 3177   2.384   1.953  16.759  1.2992  0.4713 -0.0597
  205MPD1    N1 3178   2.117   1.971  16.248 -0.0587 -0.0104  0.2609
  205MPD1    H6 3179   2.055   2.044  16.215 -2.0532 -1.4340  0.8387
  205MPD1    H7 3180   2.207   1.973  16.200  0.3404  1.4847  1.0951
  206MPD1     C 3181   2.690   4.671  17.070 -0.9429 -0.2845  0.4762
  206MPD1    C1 3182   2.715   4.551  17.015  0.0361 -0.6896 -0.0581
  206MPD1    C2 3183   2.698   4.533  16.880  0.3318 -0.5843  0.2812
  206MPD1    C3 3184   2.638   4.625  16.803 -0.3824  0.8801  0.4583
  206MPD1    C4 3185   2.605   0.005  16.861  0.6056 -0.6063 -0.6921
  206MPD1    C5 3186   2.631   0.031  16.990  0.2082 -0.1793 -0.3151
  206MPD1     H 3187   2.723   4.435  16.841 -1.0279 -0.4121 -0.9972
  206MPD1    H1 3188   2.549   0.074  16.799  2.3728  1.7983  0.3690
  206MPD1    H2 3189   2.715   4.695  17.172 -1.5266  2.8215 -0.1076
  206MPD1    H3 3190   2.612   0.129  17.034 -0.3591 -0.5563  0.2833
  206MPD1     N 3191   2.606   4.604  16.670  0.4070  0.0733 -0.0668
  206MPD1    H5 3192   2.568   4.692  16.637 -1.3759  0.3091  2.5790
  206MPD1    N1 3193   2.783   4.458  17.091  0.6667  0.1512 -0.5462
  206MPD1    H6 3194   2.781   4.363  17.055 -1.3524  0.6263 -1.7296
  206MPD1    H7 3195   2.747   4.461  17.186 -0.4223  1.2459 -0.9807
  207MPD1     C 3196   0.357   1.987   9.410 -0.2875  0.1469  0.9112
  207MPD1    C1 3197   0.383   2.122   9.419 -0.6811  0.0188  0.0538
  207MPD1    C2 3198   0.396   2.178   9.544 -0.0318  0.1958 -0.0861
  207MPD1    C3 3199   0.403   2.101   9.656 -0.3074  0.6859  0.1121
  207MPD1    C4 3200   0.386   1.964   9.650 -0.4193  0.5940 -0.0017
  207MPD1    C5 3201   0.365   1.914   9.523 -0.0136 -0.2846 -1.2503
  207MPD1     H 3202   0.404   2.286   9.548  0.5984  0.1065  1.1250
  207MPD1    H1 3203   0.399   1.891   9.729  0.9836  0.4639 -0.3479
  207MPD1    H2 3204   0.338   1.938   9.315  2.1676  0.4246  0.2614
  207MPD1    H3 3205   0.362   1.806   9.524  0.4126 -0.2843  0.2155
  207MPD1     N 3206   0.451   2.149   9.779  0.1916  0.2954 -0.0913
  207MPD1    H5 3207   0.446   2.079   9.852 -2.2652  0.3114 -0.2166
  207MPD1    N1 3208   0.353   2.203   9.308 -0.5437 -0.0835 -0.2323
  207MPD1    H6 3209   0.388   2.167   9.219  0.1490 -2.1374  0.8927
  207MPD1    H7 3210   0.394   2.297   9.308  2.6601 -1.4908 -0.3297
  208MPD1     C 3211   4.137   2.602  17.441 -0.4307 -0.9630 -0.1360
  208MPD1    C1 3212   4.140   2.475  17.504 -0.3886 -0.5644 -0.5059
  208MPD1    C2 3213   4.095   2.370  17.421 -0.0928  0.0176 -0.3816
  208MPD1    C3 3214   4.051   2.388  17.295 -0.0860  0.2949 -0.6346
  208MPD1    C4 3215   4.044   2.518  17.242 -0.8234 -0.7770  0.1685
  208MPD1    C5 3216   4.093   2.619  17.318  0.1996  0.5039 -0.2503
  208MPD1     H 3217   4.098   2.272  17.467 -0.6806 -0.0134 -0.4055
  208MPD1    H1 3218   3.991   2.542  17.150 -0.3668  0.3245  0.1923
  208MPD1    H2 3219   4.161   2.689  17.500  0.5156 -1.5540  0.3511
  208MPD1    H3 3220   4.080   2.720  17.283  1.3520  0.5124 -0.6331
  208MPD1     N 3221   3.999   2.277  17.222  0.2071  0.2104 -0.7496
  208MPD1    H5 3222   3.990   2.190  17.272  1.1735  0.9577  0.7125
  208MPD1    N1 3223   4.155   2.460  17.644 -0.2590  0.2056  0.1099
  208MPD1    H6 3224   4.169   2.370  17.688 -0.5686  0.8850  1.6047
  208MPD1    H7 3225   4.211   2.538  17.677 -1.8149  1.3664  0.0083
  209MPD1     C 3226   0.138   1.214  11.144  0.3372  0.3683  0.0493
  209MPD1    C1 3227   0.109   1.263  11.020 -0.5603 -0.8679  0.2640
  209MPD1    C2 3228   0.180   1.382  10.980  0.2334  0.1042 -0.8834
  209MPD1    C3 3229   0.255   1.453  11.077  0.3618 -0.5145 -0.0193
  209MPD1    C4 3230   0.270   1.400  11.206 -0.2164 -0.3565  0.3117
  209MPD1    C5 3231   0.224   1.276  11.228  0.3153 -0.7214  0.2070
  209MPD1     H 3232   0.180   1.420  10.879 -2.1817  1.3861 -0.4017
  209MPD1    H1 3233   0.325   1.451  11.284  0.9415  0.0720 -0.7787
  209MPD1    H2 3234   0.091   1.119  11.170 -1.1117  0.6594 -1.5422
  209MPD1    H3 3235   0.236   1.239  11.329 -0.1761  0.7163  0.7979
  209MPD1     N 3236   0.312   1.580  11.048 -0.5718 -0.0778 -0.2426
  209MPD1    H5 3237   0.309   1.609  10.950 -2.9447  1.9720  0.4426
  209MPD1    N1 3238   0.044   1.182  10.932  0.3178  0.2553  0.3908
  209MPD1    H6 3239   4.697   1.141  10.974 -1.2579  1.4205 -1.5884
  209MPD1    H7 3240   0.002   1.241  10.860  0.9067 -0.9970 -0.9996
  210MPD1     C 3241   0.291   2.433  11.573  0.8004  0.0371 -0.1826
  210MPD1    C1 3242   0.293   2.473  11.448  0.7372 -0.4973  0.6999
  210MPD1    C2 3243   0.334   2.384  11.355  0.2884  0.0834 -0.2097
  210MPD1    C3 3244   0.382   2.258  11.396  0.0165 -0.1040  0.0356
  210MPD1    C4 3245   0.381   2.227  11.529 -0.2275 -0.0661  0.6926
  210MPD1    C5 3246   0.331   2.316  11.614  0.3277  0.2894 -0.1837
  210MPD1     H 3247   0.323   2.407  11.249  3.6322  1.2860 -0.2805
  210MPD1    H1 3248   0.405   2.132  11.577  0.7457 -1.2036 -2.1036
  210MPD1    H2 3249   0.266   2.501  11.654  0.6828 -0.2515  0.0206
  210MPD1    H3 3250   0.304   2.292  11.716 -1.6905 -1.0743 -1.0270
  210MPD1     N 3251   0.419   2.149  11.307  0.4018  0.5416  0.1265
  210MPD1    H5 3252   0.445   2.061  11.351  1.8062  0.8228 -0.1662
  210MPD1    N1 3253   0.246   2.594  11.405  0.2826 -0.4161  0.2407
  210MPD1    H6 3254   0.222   2.653  11.484 -0.2469 -1.1384  0.6169
  210MPD1    H7 3255   0.316   2.641  11.347  0.9432 -1.0551  0.5282
  211MPD1     C 3256   3.610   1.468  15.836  0.3927  0.2958  0.0115
  211MPD1    C1 3257   3.610   1.601  15.836 -0.1801 -0.1381  0.4640
  211MPD1    C2 3258   3.492   1.677  15.856  0.3552 -0.3892  0.4325
  211MPD1    C3 3259   3.369   1.610  15.865  0.1515  0.1390  0.0205
  211MPD1    C4 3260   3.369   1.469  15.862  0.7502  0.3212  0.1365
  211MPD1    C5 3261   3.486   1.401  15.854 -0.3642 -0.4243  0.2459
  211MPD1     H 3262   3.486   1.785  15.862 -0.7505 -0.4567  0.4527
  211MPD1    H1 3263   3.285   1.404  15.884  0.3597  0.8114  0.0855
  211MPD1    H2 3264   3.702   1.413  15.821 -0.4413 -0.6088 -1.8393
  211MPD1    H3 3265   3.488   1.293  15.850 -2.0275 -0.4404 -0.4363
  211MPD1     N 3266   3.250   1.690  15.879  0.0266  0.1550 -1.0166
  211MPD1    H5 3267   3.264   1.791  15.879  1.4901 -0.0397 -1.3588
  211MPD1    N1 3268   3.737   1.662  15.844  0.2181  0.2808  0.3041
  211MPD1    H6 3269   3.797   1.611  15.780  0.5019  1.8766 -0.7162
  211MPD1    H7 3270   3.726   1.758  15.812 -2.4307 -0.2888 -0.5304
  212MPD1     C 3271   1.914   0.188  16.378 -0.7246 -0.6813  0.0234
  212MPD1    C1 3272   1.778   0.194  16.382  0.2286 -0.1792  0.4923
  212MPD1    C2 3273   1.704   0.103  16.455  0.1192  0.2031  0.2815
  212MPD1    C3 3274   1.774   0.017  16.540  0.2519 -0.5574 -0.3825
  212MPD1    C4 3275   1.911   0.016  16.548 -0.5905  0.7060 -0.2116
  212MPD1    C5 3276   1.984   0.106  16.470  0.2255  0.0628 -0.1337
  212MPD1     H 3277   1.596   0.100  16.448  0.2864 -3.0979 -0.8420
  212MPD1    H1 3278   1.966   4.692  16.620 -2.5107 -0.2962  0.4087
  212MPD1    H2 3279   1.970   0.249  16.308 -2.1884  0.9529  0.2681
  212MPD1    H3 3280   2.092   0.114  16.479  0.2234  0.3498 -0.3613
  212MPD1     N 3281   1.720   4.672  16.639 -0.3944 -0.2192 -0.0725
  212MPD1    H5 3282   1.780   4.621  16.703  0.2549  1.2009  0.4572
  212MPD1    N1 3283   1.718   0.284  16.292  0.3017  0.5438  0.2649
  212MPD1    H6 3284   1.769   0.371  16.305  0.2203  0.3822  1.6584
  212MPD1    H7 3285   1.626   0.299  16.333  0.3716 -0.2176  0.7001
  213MPD1     C 3286   0.294   0.505  15.854  0.6483  0.7251  0.3768
  213MPD1    C1 3287   0.367   0.548  15.746 -0.0386  0.8607 -0.1727
  213MPD1    C2 3288   0.285   0.569  15.628  0.6035 -0.1177 -0.2295
  213MPD1    C3 3289   0.147   0.572  15.630 -0.1163  0.2351  0.2560
  213MPD1    C4 3290   0.083   0.549  15.746 -0.1133  0.7537 -0.0020
  213MPD1    C5 3291   0.161   0.519  15.858  0.2107  0.2890 -0.6826
  213MPD1     H 3292   0.347   0.568  15.539  0.4605  0.4227 -0.3351
  213MPD1    H1 3293   4.713   0.565  15.762 -0.3449 -0.0930 -0.7569
  213MPD1    H2 3294   0.347   0.494  15.948 -2.2428  0.4462  1.9546
  213MPD1    H3 3295   0.098   0.500  15.945  1.3773 -0.1367  0.0622
  213MPD1     N 3296   0.078   0.602  15.510 -0.5582  0.3613 -0.4027
  213MPD1    H5 3297   0.140   0.612  15.430 -1.1695  0.3662 -0.8765
  213MPD1    N1 3298   0.499   0.496  15.736  0.1208 -0.8271  0.6769
  213MPD1    H6 3299   0.538   0.500  15.830  0.9592 -0.7985  0.3299
  213MPD1    H7 3300   0.553   0.545  15.665  1.4521  0.2860  2.4591
  214MPD1     C 3301   3.823   0.603  15.142 -0.0372  0.0532 -0.6515
  214MPD1    C1 3302   3.910   0.663  15.055 -0.5586  0.7864 -0.8756
  214MPD1    C2 3303   4.041   0.665  15.085 -0.2958 -0.0978 -0.4087
  214MPD1    C3 3304   4.091   0.602  15.200  0.8105 -0.2561 -0.3328
  214MPD1    C4 3305   4.005   0.533  15.281  0.3285 -0.1514 -0.4864
  214MPD1    C5 3306   3.869   0.535  15.254 -0.0660  0.7087  0.2821
  214MPD1     H 3307   4.109   0.707  15.012 -0.9117  2.0547  0.2578
  214MPD1    H1 3308   4.047   0.486  15.369 -0.5099  1.3779  0.7389
  214MPD1    H2 3309   3.716   0.596  15.130 -0.1242  0.6956 -0.2506
  214MPD1    H3 3310   3.795   0.510  15.329  1.8317  1.1664  2.3123
  214MPD1     N 3311   4.229   0.597  15.239  0.2239 -0.0669 -0.1498
  214MPD1    H5 3312   4.243   0.545  15.324  0.4161 -0.0208 -0.1540
  214MPD1    N1 3313   3.873   0.743  14.947 -0.7763  0.1691 -0.6793
  214MPD1    H6 3314   3.783   0.727  14.903  0.7287  0.0142 -3.6770
  214MPD1    H7 3315   3.952   0.746  14.884  1.1001  0.9757  1.6868
  215MPD1     C 3316   0.113   1.817  10.743 -0.3345 -0.1948 -0.0435
  215MPD1    C1 3317   0.054   1.746  10.842  0.3819  0.2705 -0.0239
  215MPD1    C2 3318   0.042   1.806  10.967  0.7205 -1.1072 -0.7025
  215MPD1    C3 3319   0.085   1.935  10.996  0.5652  0.0221 -0.7170
  215MPD1    C4 3320   0.139   2.004  10.891  0.3243 -0.3256 -0.2199
  215MPD1    C5 3321   0.159   1.942  10.769  0.4032  0.4936 -0.0534
  215MPD1     H 3322   0.001   1.746  11.048 -0.2122  2.3417  1.3538
  215MPD1    H1 3323   0.181   2.103  10.908 -1.9606  0.6630 -0.4217
  215MPD1    H2 3324   0.140   1.784  10.644 -0.4526 -1.9053  0.4904
  215MPD1    H3 3325   0.219   1.993  10.694 -0.7305  1.1218 -0.5217
  215MPD1     N 3326   0.063   1.976  11.132  0.1497 -0.0884  0.2260
  215MPD1    H5 3327   0.020   1.916  11.201 -0.2142 -0.4675 -0.3264
  215MPD1    N1 3328   4.729   1.626  10.813  0.7639 -0.0590  0.0071
  215MPD1    H6 3329   0.014   1.590  10.720 -1.3111 -0.6943 -0.2085
  215MPD1    H7 3330   4.705   1.568  10.893 -1.4141  0.6321 -0.1581
  216MPD1     C 3331   1.602   0.198  17.062 -0.8971  1.0611 -0.1793
  216MPD1    C1 3332   1.602   0.109  17.167  0.1458 -1.0018 -0.3958
  216MPD1    C2 3333   1.685   4.727  17.162 -0.9406  0.2759 -0.1897
  216MPD1    C3 3334   1.758   4.700  17.057  0.1551 -0.6334 -0.0106
  216MPD1    C4 3335   1.765   0.060  16.954 -1.0603 -0.4336 -0.3429
  216MPD1    C5 3336   1.675   0.166  16.951  0.5807  0.2864  0.0895
  216MPD1     H 3337   1.693   4.663  17.249 -1.1285 -0.5051 -0.7521
  216MPD1    H1 3338   1.827   0.054  16.865 -0.7556  1.8935 -0.3028
  216MPD1    H2 3339   1.538   0.285  17.060 -0.7840  1.1448 -0.1330
  216MPD1    H3 3340   1.669   0.239  16.870 -2.3687  0.5513  0.5272
  216MPD1     N 3341   1.833   4.579  17.048  0.4016 -0.1110 -0.5405
  216MPD1    H5 3342   1.814   4.519  17.128  0.2215 -0.9299 -1.2090
  216MPD1    N1 3343   1.547   0.137  17.294 -0.2326  0.6633  0.0146
  216MPD1    H6 3344   1.529   0.051  17.345 -0.0884 -0.0023 -1.0519
  216MPD1    H7 3345   1.462   0.192  17.286 -0.1319  1.2872  3.4143
  217MPD1     C 3346   2.709   1.984   9.285  0.7047 -0.3050 -0.1282
  217MPD1    C1 3347   2.582   2.009   9.329 -0.0703  0.0424 -0.9352
  217MPD1    C2 3348   2.542   1.959   9.453 -0.1790 -0.5311 -0.4096
  217MPD1    C3 3349   2.634   1.921   9.549  0.8075 -0.4354 -0.3253
  217MPD1    C4 3350   2.762   1.906   9.508 -0.2235  0.8495  0.5445
  217MPD1    C5 3351   2.798   1.932   9.379  0.0794 -0.5901 -0.1660
  217MPD1     H 3352   2.441   1.976   9.487  0.0378 -2.2001  1.0887
  217MPD1    H1 3353   2.840   1.870   9.574 -0.7200 -0.7267  0.2561
  217MPD1    H2 3354   2.731   1.991   9.179 -1.2579  1.9650 -0.3767
  217MPD1    H3 3355   2.903   1.918   9.356  1.0783  0.6780  3.5085
  217MPD1     N 3356   2.602   1.879   9.685  0.0728  0.1570 -0.2820
  217MPD1    H5 3357   2.678   1.856   9.748 -0.9133 -0.4372  0.6878
  217MPD1    N1 3358   2.491   2.054   9.234 -0.1592 -0.7562  0.1899
  217MPD1    H6 3359   2.406   2.085   9.281 -0.8916  0.1754 -1.7932
  217MPD1    H7 3360   2.527   2.135   9.184 -0.1935  0.4141  2.0489
  218MPD1     C 3361   3.893   0.875  12.655 -0.8542  0.1587 -0.1579
  218MPD1    C1 3362   3.986   0.821  12.736 -0.0862  0.4267 -0.1364
  218MPD1    C2 3363   4.082   0.904  12.788 -0.4437  0.8549 -0.2538
  218MPD1    C3 3364   4.076   1.038  12.759 -0.3789  0.2670 -0.2477
  218MPD1    C4 3365   3.974   1.096  12.685  0.0502 -0.4284 -0.4002
  218MPD1    C5 3366   3.876   1.007  12.631 -0.5014  0.0603  0.2879
  218MPD1     H 3367   4.160   0.869  12.855  0.0734  1.0555 -0.7534
  218MPD1    H1 3368   3.963   1.202  12.664  2.0583 -0.1626 -0.1216
  218MPD1    H2 3369   3.822   0.806  12.611 -0.0427 -1.2799  0.7824
  218MPD1    H3 3370   3.798   1.034  12.560 -0.9163 -0.1039  0.6861
  218MPD1     N 3371   4.178   1.121  12.808 -0.3017  0.0375 -0.2342
  218MPD1    H5 3372   4.264   1.082  12.845  0.1450  0.5333 -0.7481
  218MPD1    N1 3373   4.027   0.683  12.725  0.2237  0.4012  0.8114
  218MPD1    H6 3374   3.939   0.632  12.723  0.0281  0.7069  1.7771
  218MPD1    H7 3375   4.080   0.652  12.806 -1.5642  0.1284  1.8786
  219MPD1     C 3376   4.465   2.175  12.897  0.0952 -0.6358 -0.2920
  219MPD1    C1 3377   4.376   2.102  12.977 -0.6893  0.4296 -0.1921
  219MPD1    C2 3378   4.356   1.967  12.972 -0.3241 -0.6766 -0.3396
  219MPD1    C3 3379   4.448   1.891  12.892 -0.1557  0.2280  0.2933
  219MPD1    C4 3380   4.548   1.958  12.821 -0.1214  0.0765 -0.8445
  219MPD1    C5 3381   4.548   2.093  12.823 -0.0071  0.2950  0.4573
  219MPD1     H 3382   4.285   1.920  13.038  1.6384 -0.7690  1.7027
  219MPD1    H1 3383   4.630   1.897  12.786  2.1811  1.6267  1.8528
  219MPD1    H2 3384   4.473   2.283  12.901  3.0346 -0.8532 -0.0492
  219MPD1    H3 3385   4.635   2.127  12.768 -0.4634 -0.3629 -0.6809
  219MPD1     N 3386   4.440   1.749  12.880 -0.0632  0.6935  0.1147
  219MPD1    H5 3387   4.507   1.706  12.817 -0.4317 -1.4911  1.2219
  219MPD1    N1 3388   4.292   2.174  13.064 -0.5671 -0.1649  0.0888
  219MPD1    H6 3389   4.268   2.114  13.142 -0.4653  3.0585  2.6029
  219MPD1    H7 3390   4.345   2.244  13.115 -0.3859 -1.2032  1.3066
  220MPD1     C 3391   0.044   2.824  10.438 -0.0443 -0.0208  0.6409
  220MPD1    C1 3392   0.010   2.790  10.570  0.1100  0.0697 -0.4795
  220MPD1    C2 3393   4.643   2.700  10.591  0.7978 -0.4419  0.6306
  220MPD1    C3 3394   4.561   2.660  10.489  0.2510 -0.5426 -0.6688
  220MPD1    C4 3395   4.588   2.708  10.365  0.2381 -0.3384 -0.0589
  220MPD1    C5 3396   4.695   2.789  10.341  0.1835  0.2596 -0.5400
  220MPD1     H 3397   4.626   2.662  10.692 -2.5396  0.9991  0.6226
  220MPD1    H1 3398   4.543   2.669  10.274 -1.0129  0.6659  0.1319
  220MPD1    H2 3399   0.142   2.865  10.416  0.1780 -0.2220  1.2603
  220MPD1    H3 3400   4.720   2.811  10.238  2.3008  0.2887 -0.0185
  220MPD1     N 3401   4.475   2.556  10.514  0.1819 -0.2777 -0.6237
  220MPD1    H5 3402   4.474   2.522  10.610  1.3107  1.6513  0.0833
  220MPD1    N1 3403   0.096   2.819  10.673  0.2230  0.6855 -0.2867
  220MPD1    H6 3404   0.144   2.907  10.653  0.8289  0.4996  0.3547
  220MPD1    H7 3405   0.055   2.823  10.765 -3.2446  1.7032 -1.8810
  221MPD1     C 3406   3.555   0.130  17.393 -0.0692 -0.3115 -0.3907
  221MPD1    C1 3407   3.642   0.175  17.298  1.0310  0.0432  0.4486
  221MPD1    C2 3408   3.601   0.262  17.197 -0.7045 -0.3546 -0.8887
  221MPD1    C3 3409   3.481   0.322  17.207  0.1729  0.1015 -0.2056
  221MPD1    C4 3410   3.395   0.285  17.302 -0.1432 -0.1486 -0.1021
  221MPD1    C5 3411   3.428   0.188  17.396  0.4582  0.4261 -0.1832
  221MPD1     H 3412   3.664   0.278  17.110 -0.6084  2.0140 -0.3926
  221MPD1    H1 3413   3.297   0.330  17.311 -0.5723 -0.9436 -0.6902
  221MPD1    H2 3414   3.575   0.068  17.479  1.7753 -0.6978 -1.0834
  221MPD1    H3 3415   3.359   0.163  17.476  3.1788  2.3488  2.7462
  221MPD1     N 3416   3.421   0.420  17.119  0.2703 -0.2864 -0.1574
  221MPD1    H5 3417   3.326   0.446  17.144 -0.0427 -2.5089  0.9374
  221MPD1    N1 3418   3.772   0.112  17.274  0.4128 -0.4815 -0.3353
  221MPD1    H6 3419   3.837   0.182  17.238  0.8772 -0.1922  1.0452
  221MPD1    H7 3420   3.805   0.061  17.356 -2.8587 -1.2251  0.4921
  222MPD1     C 3421   1.533   4.046  17.444 -0.0644  0.6981 -0.0617
  222MPD1    C1 3422   1.521   4.181  17.420 -0.4310  0.5370  0.2108
  222MPD1    C2 3423   1.571   4.265  17.523  0.4229 -0.2692  0.1876
  222MPD1    C3 3424   1.607   4.208  17.643 -0.0680  0.4422  0.3180
  222MPD1    C4 3425   1.584   4.074  17.670  0.0356  0.1949 -0.0710
  222MPD1    C5 3426   1.557   3.995  17.567 -0.7684  0.0794 -0.6634
  222MPD1     H 3427   1.581   4.373  17.517 -0.8560  0.0308  3.2235
  222MPD1    H1 3428   1.574   4.035   0.027 -0.1168 -0.5279 -0.3625
  222MPD1    H2 3429   1.503   3.970  17.373 -0.9856 -0.1608  1.2404
  222MPD1    H3 3430   1.548   3.888  17.578 -0.5336  0.0686 -0.5661
  222MPD1     N 3431   1.645   4.276   0.015  0.5374 -0.3936 -0.2157
  222MPD1    H5 3432   1.680   4.227   0.097  0.8238 -0.7427 -0.5464
  222MPD1    N1 3433   1.499   4.221  17.285  0.3873 -0.1948 -0.3448
  222MPD1    H6 3434   1.440   4.159  17.230  0.0195 -0.3582  0.2352
  222MPD1    H7 3435   1.474   4.319  17.271 -1.6276 -0.7666 -0.7654
  223MPD1     C 3436   2.198   3.980   0.566 -0.5526 -0.0385 -0.3737
  223MPD1    C1 3437   2.068   3.963   0.525 -0.5286  0.2693 -0.3527
  223MPD1    C2 3438   2.004   4.058   0.448  0.5763  0.2643 -0.1476
  223MPD1    C3 3439   2.067   4.175   0.403  0.1171  0.0176  0.1496
  223MPD1    C4 3440   2.196   4.193   0.450 -0.0232  0.1953 -0.2696
  223MPD1    C5 3441   2.262   4.091   0.520  0.5978  0.0284 -0.1910
  223MPD1     H 3442   1.902   4.036   0.418  0.4598  1.0569 -0.3344
  223MPD1    H1 3443   2.259   4.279   0.432 -0.1790  0.4144  0.2374
  223MPD1    H2 3444   2.251   3.902   0.620 -0.8403 -0.9155 -1.3401
  223MPD1    H3 3445   2.368   4.104   0.536  0.6862 -0.6042 -0.2843
  223MPD1     N 3446   1.993   4.275   0.341  0.5305 -0.0796  0.3221
  223MPD1    H5 3447   1.895   4.253   0.324  0.9892 -1.4441 -0.5336
  223MPD1    N1 3448   2.012   3.839   0.548 -0.2036  0.4593 -0.2236
  223MPD1    H6 3449   1.913   3.860   0.564 -0.4487 -0.9391  0.0977
  223MPD1    H7 3450   2.046   3.789   0.630  1.4980 -0.0807 -1.2572
  224MPD1     C 3451   3.440   2.458   8.800  0.5276 -0.8539 -0.4057
  224MPD1    C1 3452   3.452   2.322   8.797 -0.1587  0.3060  0.5205
  224MPD1    C2 3453   3.401   2.259   8.906  1.1020  0.2236 -0.4088
  224MPD1    C3 3454   3.335   2.323   9.014 -0.0817  0.3458 -0.0597
  224MPD1    C4 3455   3.313   2.457   9.005  0.4299 -0.2617  0.2336
  224MPD1    C5 3456   3.376   2.527   8.903 -0.0399 -0.3817  0.2989
  224MPD1     H 3457   3.407   2.151   8.914  0.4357  0.1765 -0.5802
  224MPD1    H1 3458   3.263   2.510   9.085  0.6683  1.1051 -0.5209
  224MPD1    H2 3459   3.494   2.515   8.725 -0.6037 -1.1217 -1.4225
  224MPD1    H3 3460   3.375   2.635   8.896  1.9313 -0.5029 -1.7804
  224MPD1     N 3461   3.270   2.259   9.119  0.1311  0.0294  0.0654
  224MPD1    H5 3462   3.212   2.321   9.175 -0.0289  0.7923 -0.9358
  224MPD1    N1 3463   3.542   2.260   8.711 -0.6064 -0.1091 -0.0205
  224MPD1    H6 3464   3.506   2.165   8.701 -1.6900  0.4114 -1.1424
  224MPD1    H7 3465   3.544   2.293   8.615  0.2437 -0.4785 -0.1277
  225MPD1     C 3466   3.845   2.562  13.357  1.1027  0.2692  0.4280
  225MPD1    C1 3467   3.903   2.475  13.276  0.1837  0.0422  0.6459
  225MPD1    C2 3468   3.895   2.485  13.141 -0.5153  0.1947  0.4201
  225MPD1    C3 3469   3.817   2.593  13.085  0.5322 -0.1777  0.1132
  225MPD1    C4 3470   3.755   2.681  13.164  0.0315 -0.6362  0.5652
  225MPD1    C5 3471   3.762   2.660  13.299  0.8951 -0.1831  0.4732
  225MPD1     H 3472   3.948   2.414  13.079  0.0405 -0.2617  1.4212
  225MPD1    H1 3473   3.699   2.766  13.127 -1.3442 -1.6681  0.2875
  225MPD1    H2 3474   3.860   2.550  13.464 -0.0744 -2.4035  0.2930
  225MPD1    H3 3475   3.709   2.726  13.367  0.6036 -0.6333  0.6763
  225MPD1     N 3476   3.802   2.613  12.943  0.4367 -0.1866 -0.3950
  225MPD1    H5 3477   3.736   2.679  12.903  0.0295  0.2270  0.9321
  225MPD1    N1 3478   3.983   2.372  13.329  0.1719  0.2188 -0.6288
  225MPD1    H6 3479   3.989   2.293  13.266 -0.1119  1.1389 -1.8145
  225MPD1    H7 3480   3.965   2.341  13.424 -1.7596  0.8104 -0.8034
  226MPD1     C 3481   3.000   3.942   9.349 -0.0027  0.0095  0.2877
  226MPD1    C1 3482   3.068   4.003   9.453 -0.2081 -0.0099 -0.3425
  226MPD1    C2 3483   3.139   3.927   9.537  0.3043  0.0122  0.4828
  226MPD1    C3 3484   3.133   3.782   9.530 -0.3475 -1.2502  0.5198
  226MPD1    C4 3485   3.066   3.724   9.430  0.7758  0.3279 -0.6549
  226MPD1    C5 3486   2.994   3.803   9.342 -0.2818 -0.1124  0.3025
  226MPD1     H 3487   3.197   3.973   9.616  1.5929 -1.0272  0.1426
  226MPD1    H1 3488   3.059   3.616   9.416 -0.9470  0.4398 -0.7098
  226MPD1    H2 3489   2.951   4.000   9.272 -0.7623 -0.8346  0.1306
  226MPD1    H3 3490   2.951   3.764   9.251  1.0831  0.5606 -0.6326
  226MPD1     N 3491   3.196   3.706   9.632 -0.6004  0.4132 -0.4222
  226MPD1    H5 3492   3.250   3.756   9.702  0.4552 -2.0113  0.4984
  226MPD1    N1 3493   3.098   4.139   9.456  0.4013  0.1610 -0.1211
  226MPD1    H6 3494   3.105   4.175   9.551 -0.4743  1.0239 -0.3770
  226MPD1    H7 3495   3.038   4.202   9.403 -0.3180 -0.3028  0.1388
  227MPD1     C 3496   3.732   4.047  10.210 -0.9620  0.6507  0.6321
  227MPD1    C1 3497   3.675   4.072  10.086  0.4065  0.3799 -0.4563
  227MPD1    C2 3498   3.603   3.971  10.021 -0.7307  0.0587 -0.8411
  227MPD1    C3 3499   3.577   3.845  10.076  0.0104 -0.6275  0.7276
  227MPD1    C4 3500   3.622   3.825  10.203  0.6823 -0.4189  0.0341
  227MPD1    C5 3501   3.703   3.923  10.265 -0.6811  0.4042  0.2204
  227MPD1     H 3502   3.569   4.002   9.922  2.5365  2.4278 -1.2090
  227MPD1    H1 3503   3.594   3.738  10.260 -0.0694 -0.3471 -0.2224
  227MPD1    H2 3504   3.796   4.118  10.262 -0.2768 -0.2157  0.9768
  227MPD1    H3 3505   3.735   3.912  10.368 -0.0468 -2.4294 -0.2912
  227MPD1     N 3506   3.487   3.756  10.010  0.4926 -0.6018  0.2773
  227MPD1    H5 3507   3.435   3.802   9.935 -0.4772 -1.9373  0.1178
  227MPD1    N1 3508   3.701   4.190  10.014 -0.1004  0.7466 -0.2189
  227MPD1    H6 3509   3.639   4.222   9.940 -0.0623 -2.4076 -1.5989
  227MPD1    H7 3510   3.731   4.269  10.071 -1.8965  0.9072  0.5146
  228MPD1     C 3511   1.698   4.468  13.482 -0.7110 -0.0064  0.0499
  228MPD1    C1 3512   1.708   4.555  13.383 -0.4929 -0.7953 -0.4684
  228MPD1    C2 3513   1.597   4.631  13.353  0.1568  0.0539  0.0265
  228MPD1    C3 3514   1.480   4.606  13.420 -0.0351 -0.2140 -0.2958
  228MPD1    C4 3515   1.472   4.505  13.502 -0.3570  0.6044  0.5508
  228MPD1    C5 3516   1.577   4.434  13.536 -0.0402  0.0425  0.4387
  228MPD1     H 3517   1.599   4.710  13.279 -0.8869  0.7176  0.7004
  228MPD1    H1 3518   1.377   4.471  13.542  0.1988  0.1009  1.4476
  228MPD1    H2 3519   1.782   4.404  13.506 -0.9409 -1.0016 -1.8108
  228MPD1    H3 3520   1.555   4.360  13.613  0.3576 -1.9967 -1.4195
  228MPD1     N 3521   1.375   4.698  13.397  0.1567  0.6894  0.1603
  228MPD1    H5 3522   1.399   0.046  13.345  2.2931  0.9383  1.5826
  228MPD1    N1 3523   1.831   4.590  13.333 -0.3190 -0.1276  0.2915
  228MPD1    H6 3524   1.827   4.639  13.244  1.9509 -1.5181 -0.5812
  228MPD1    H7 3525   1.898   4.513  13.331 -0.6864 -0.5443  3.8962
  229MPD1     C 3526   1.283   4.276  15.425 -0.7167 -0.7902  0.3251
  229MPD1    C1 3527   1.286   4.194  15.313  0.3227  0.2865  0.5579
  229MPD1    C2 3528   1.251   4.059  15.323 -0.0007 -0.2914  0.0702
  229MPD1    C3 3529   1.229   4.002  15.449 -0.5097 -0.8074  0.4012
  229MPD1    C4 3530   1.233   4.081  15.562 -0.8608  0.0014 -0.2144
  229MPD1    C5 3531   1.265   4.217  15.549  0.0140  0.2850 -0.6776
  229MPD1     H 3532   1.224   4.010  15.231  0.5395  0.8860 -0.7137
  229MPD1    H1 3533   1.204   4.045  15.660 -0.4551  1.7305  0.5503
  229MPD1    H2 3534   1.307   4.382  15.418 -2.0765 -0.5160 -0.2057
  229MPD1    H3 3535   1.266   4.285  15.633 -3.2437  1.8205 -1.8883
  229MPD1     N 3536   1.184   3.868  15.466  0.3026 -0.4922 -0.6922
  229MPD1    H5 3537   1.152   3.843  15.559  0.3440 -3.5842 -1.5219
  229MPD1    N1 3538   1.270   4.255  15.186 -0.7052  0.8673 -0.3773
  229MPD1    H6 3539   1.291   4.354  15.177 -0.5310  0.6278 -2.7878
  229MPD1    H7 3540   1.313   4.196  15.114 -2.1480 -0.0036 -0.5320
  230MPD1     C 3541   0.388   3.259  15.718  0.3654 -0.1460  0.8623
  230MPD1    C1 3542   0.414   3.254  15.588 -0.3751  0.3359  0.4865
  230MPD1    C2 3543   0.535   3.310  15.536 -0.3595  0.2477  0.1417
  230MPD1    C3 3544   0.619   3.377  15.613 -0.5073  0.4371 -0.2685
  230MPD1    C4 3545   0.584   3.390  15.741 -0.1409  0.4784 -0.7548
  230MPD1    C5 3546   0.472   3.333  15.795 -0.5265 -0.3861  0.5014
  230MPD1     H 3547   0.549   3.317  15.429 -2.0599  1.1061 -0.0233
  230MPD1    H1 3548   0.650   3.442  15.810  1.5342 -1.7288 -0.7020
  230MPD1    H2 3549   0.299   3.223  15.768 -0.0379 -0.6962 -0.2447
  230MPD1    H3 3550   0.447   3.330  15.901 -4.0194  0.8893 -0.2798
  230MPD1     N 3551   0.734   3.423  15.545  0.3643 -0.6974  0.2232
  230MPD1    H5 3552   0.755   3.394  15.449 -0.5606  1.7141 -0.6928
  230MPD1    N1 3553   0.316   3.222  15.501 -0.7280 -0.1721  0.0331
  230MPD1    H6 3554   0.355   3.205  15.409 -1.2558  0.0729 -0.2365
  230MPD1    H7 3555   0.278   3.135  15.538  1.8053 -1.4831 -0.5062
  231MPD1     C 3556   4.041   0.830  15.535 -0.2009  1.0401 -0.2070
  231MPD1    C1 3557   3.994   0.865  15.415 -0.8845  0.1476  0.1837
  231MPD1    C2 3558   4.077   0.922  15.318  0.0082  0.2269 -0.8121
  231MPD1    C3 3559   4.214   0.933  15.338  0.4421 -0.0953  0.1086
  231MPD1    C4 3560   4.255   0.887  15.459 -0.2639  0.2091 -0.0086
  231MPD1    C5 3561   4.175   0.834  15.561  0.1164  0.3206 -0.4309
  231MPD1     H 3562   4.032   0.963  15.228 -0.0729 -1.7989 -1.7018
  231MPD1    H1 3563   4.361   0.878  15.482 -0.3314 -0.9872 -0.1972
  231MPD1    H2 3564   3.985   0.784  15.615  0.0295  0.6476 -0.2700
  231MPD1    H3 3565   4.221   0.793  15.651 -0.3439  1.3045  0.2531
  231MPD1     N 3566   4.291   0.994  15.238  0.5631  0.1750  0.1464
  231MPD1    H5 3567   4.239   1.015  15.154  1.7820 -3.2603 -1.4404
  231MPD1    N1 3568   3.852   0.885  15.397  0.2589  0.0498  0.5184
  231MPD1    H6 3569   3.835   0.900  15.298  1.6744  0.9700  0.4121
  231MPD1    H7 3570   3.795   0.810  15.434 -0.4917  0.7441  0.7700
  232MPD1     C 3571   2.479   3.063   0.277 -0.2950 -0.0679  0.0769
  232MPD1    C1 3572   2.391   2.986   0.350 -0.9303 -0.0104 -0.6121
  232MPD1    C2 3573   2.256   3.007   0.343 -0.0862  0.1163  0.1049
  232MPD1    C3 3574   2.212   3.118   0.269  0.1464 -0.0952 -0.0954
  232MPD1    C4 3575   2.298   3.200   0.199  0.8919 -0.1068 -0.2725
  232MPD1    C5 3576   2.432   3.169   0.200  0.1834  0.3163 -0.3884
  232MPD1     H 3577   2.190   2.927   0.375 -0.4532  0.7231  0.8643
  232MPD1    H1 3578   2.273   3.294   0.152  0.8373  0.7699  1.5095
  232MPD1    H2 3579   2.583   3.035   0.268 -0.7915 -1.0461 -2.7900
  232MPD1    H3 3580   2.502   3.219   0.135 -0.3464  0.6895 -0.6767
  232MPD1     N 3581   2.067   3.134   0.276  1.1807  0.4408 -0.1483
  232MPD1    H5 3582   2.024   3.068   0.341  0.1693  0.4240 -0.8426
  232MPD1    N1 3583   2.438   2.875   0.416 -0.7386 -0.4204  0.1320
  232MPD1    H6 3584   2.536   2.892   0.441  0.1123 -1.9138 -2.1869
  232MPD1    H7 3585   2.386   2.843   0.497 -2.3745  0.2047 -0.6924
  233MPD1     C 3586   2.463   1.303  17.504 -0.7346 -0.2987 -0.4710
  233MPD1    C1 3587   2.580   1.371  17.529 -0.3907  0.0172 -0.2336
  233MPD1    C2 3588   2.598   1.419  17.654  0.9684 -0.3929  0.1979
  233MPD1    C3 3589   2.512   1.378   0.013 -0.2615  0.7170  0.0505
  233MPD1    C4 3590   2.400   1.301  17.730  0.1891 -0.0137  0.2558
  233MPD1    C5 3591   2.378   1.261  17.602 -0.0856  0.2341 -0.3911
  233MPD1     H 3592   2.686   1.480  17.667 -0.4493  1.9835 -1.4323
  233MPD1    H1 3593   2.324   1.270   0.057  1.1378  0.1420  1.3522
  233MPD1    H2 3594   2.434   1.275  17.403 -1.9807 -1.4952  0.2081
  233MPD1    H3 3595   2.281   1.219  17.576 -0.1627  0.9656 -1.2829
  233MPD1     N 3596   2.546   1.423   0.139  0.3396 -0.2423  0.1359
  233MPD1    H5 3597   2.628   1.482   0.149 -0.6450  1.3150 -0.8339
  233MPD1    N1 3598   2.666   1.414  17.424  0.0220  0.4437 -0.1101
  233MPD1    H6 3599   2.764   1.404  17.450 -0.2803 -1.0738  0.4566
  233MPD1    H7 3600   2.653   1.360  17.339  0.0535 -1.8283  1.3462
  234MPD1     C 3601   3.480   0.480  10.181 -0.7306 -0.2425  0.0239
  234MPD1    C1 3602   3.458   0.517  10.048  0.4488 -0.5927 -0.3212
  234MPD1    C2 3603   3.451   0.653  10.019  0.1599  0.0025 -0.2936
  234MPD1    C3 3604   3.448   0.737  10.133  0.6260 -0.4334 -0.5710
  234MPD1    C4 3605   3.466   0.692  10.262 -0.1607 -0.1716  0.5661
  234MPD1    C5 3606   3.483   0.566  10.286  0.2964  0.4961  0.4262
  234MPD1     H 3607   3.433   0.686   9.917 -1.5483  0.2007  0.0700
  234MPD1    H1 3608   3.463   0.759  10.347  1.5879  0.4921  0.0976
  234MPD1    H2 3609   3.482   0.375  10.208  1.2571 -0.1292  0.2838
  234MPD1    H3 3610   3.507   0.527  10.385 -0.6786  0.1472  0.5203
  234MPD1     N 3611   3.431   0.878  10.110 -0.2380  0.0324 -0.4701
  234MPD1    H5 3612   3.426   0.889  10.009 -0.6035  0.0693 -0.4493
  234MPD1    N1 3613   3.471   0.411   9.948  0.1022  0.2790 -0.3241
  234MPD1    H6 3614   3.430   0.328   9.991  1.4703 -0.2388 -0.0260
  234MPD1    H7 3615   3.418   0.430   9.863  0.3775 -0.0325 -0.5633
  235MPD1     C 3616   0.099   2.355  10.055  1.1046  0.7065  0.1329
  235MPD1    C1 3617   0.159   2.436   9.962  0.7667  0.1510  0.1497
  235MPD1    C2 3618   0.230   2.550  10.009 -0.3706  0.2333 -0.0082
  235MPD1    C3 3619   0.241   2.568  10.145  0.5457  0.3238  0.0594
  235MPD1    C4 3620   0.188   2.481  10.240  0.0183  0.5104  0.5857
  235MPD1    C5 3621   0.119   2.377  10.189 -0.4690 -0.5511 -0.1074
  235MPD1     H 3622   0.270   2.621   9.938  1.6861  0.9636  1.9074
  235MPD1    H1 3623   0.198   2.495  10.347 -1.8832 -0.6193  0.9010
  235MPD1    H2 3624   0.029   2.277  10.028  1.7816  0.0997  0.1433
  235MPD1    H3 3625   0.063   2.321  10.264 -3.7596  0.7473 -1.5612
  235MPD1     N 3626   0.308   2.685  10.183 -0.2835  0.0221  0.0313
  235MPD1    H5 3627   0.326   2.745  10.103 -1.3172  0.0778 -0.1534
  235MPD1    N1 3628   0.113   2.435   9.828 -0.2964 -0.1009  0.4025
  235MPD1    H6 3629   0.175   2.478   9.760 -0.7356  1.0201  0.7223
  235MPD1    H7 3630   0.083   2.345   9.790  0.3973  0.6508 -1.8772
  236MPD1     C 3631   3.326   4.139  10.442  0.5976 -0.2522  0.5004
  236MPD1    C1 3632   3.400   4.236  10.383 -0.4772 -0.4455 -0.5781
  236MPD1    C2 3633   3.539   4.236  10.406  0.1895  0.0942 -0.5732
  236MPD1    C3 3634   3.598   4.136  10.488 -0.3265  0.4178 -0.3493
  236MPD1    C4 3635   3.517   4.043  10.556 -0.3169  0.4400 -0.0798
  236MPD1    C5 3636   3.380   4.045  10.521  0.0781  0.1770  0.2646
  236MPD1     H 3637   3.596   4.321  10.369  0.7706 -0.0463  0.0145
  236MPD1    H1 3638   3.558   3.968  10.623  2.4784  0.4210 -1.8005
  236MPD1    H2 3639   3.219   4.129  10.427  0.4211  3.6451 -0.7909
  236MPD1    H3 3640   3.318   3.961  10.551  1.7845 -0.7728  1.1434
  236MPD1     N 3641   3.731   4.148  10.525 -0.4529  0.3767 -0.2515
  236MPD1    H5 3642   3.771   4.064  10.567 -0.9651 -0.1706 -0.8612
  236MPD1    N1 3643   3.339   4.324  10.297  0.4322  0.3460  0.0923
  236MPD1    H6 3644   3.374   4.420  10.291 -0.1896  0.5419 -0.5189
  236MPD1    H7 3645   3.241   4.337  10.322  0.1002 -1.7002 -0.1473
  237MPD1     C 3646   0.287   2.480  15.340  0.2907  0.3982  0.3495
  237MPD1    C1 3647   0.293   2.349  15.383  0.3246  0.2775  0.2217
  237MPD1    C2 3648   0.194   2.264  15.347  0.1951  0.2735 -0.0337
  237MPD1    C3 3649   0.088   2.298  15.268 -0.2429 -0.0367  0.4803
  237MPD1    C4 3650   0.091   2.428  15.216 -0.7154  0.2228 -0.0355
  237MPD1    C5 3651   0.185   2.515  15.258  0.3287  0.3569  0.2207
  237MPD1     H 3652   0.201   2.176  15.411  0.9542  0.1691 -0.2530
  237MPD1    H1 3653   0.019   2.461  15.142 -0.2539  0.3821 -0.4149
  237MPD1    H2 3654   0.362   2.557  15.350  0.1382  0.5029  0.6632
  237MPD1    H3 3655   0.173   2.606  15.199 -1.7533  0.0051  0.1093
  237MPD1     N 3656   4.718   2.210  15.234  0.1627 -0.5025  0.2769
  237MPD1    H5 3657   4.644   2.247  15.175  0.2930 -1.8283 -0.7126
  237MPD1    N1 3658   0.398   2.304  15.458  0.6019  0.1117  0.3166
  237MPD1    H6 3659   0.425   2.207  15.440 -0.5376 -0.1918  0.2289
  237MPD1    H7 3660   0.473   2.372  15.468  0.6435  0.3652 -1.8082
  238MPD1     C 3661   1.423   1.527  15.048 -0.2011  0.4880 -0.1306
  238MPD1    C1 3662   1.334   1.464  15.121  0.5722 -0.2590 -0.0396
  238MPD1    C2 3663   1.285   1.347  15.065 -0.2260 -0.1893 -0.4562
  238MPD1    C3 3664   1.299   1.318  14.931  0.0283  0.4409  0.7239
  238MPD1    C4 3665   1.389   1.390  14.860  0.1051  0.0415  0.0670
  238MPD1    C5 3666   1.452   1.500  14.918 -0.5181  0.0813 -0.1302
  238MPD1     H 3667   1.212   1.287  15.118  1.9137 -2.2738  0.1243
  238MPD1    H1 3668   1.411   1.370  14.756 -1.7101 -0.8921 -0.1334
  238MPD1    H2 3669   1.460   1.620  15.089 -0.8593  0.0621  1.3953
  238MPD1    H3 3670   1.527   1.554  14.862 -0.7479  0.8363  0.3010
  238MPD1     N 3671   1.242   1.204  14.862 -0.9502  0.2217  0.1298
  238MPD1    H5 3672   1.260   1.199  14.762 -1.4926 -3.3149  0.1875
  238MPD1    N1 3673   1.306   1.499  15.255  0.3951  0.4362  0.4947
  238MPD1    H6 3674   1.220   1.457  15.289  0.0067  0.4269 -0.5022
  238MPD1    H7 3675   1.313   1.600  15.271  0.0238  0.1096  2.7046
  239MPD1     C 3676   1.828   2.463  15.050 -0.1884  0.1209 -0.0756
  239MPD1    C1 3677   1.692   2.494  15.042  0.1880 -0.1676 -0.7604
  239MPD1    C2 3678   1.615   2.412  14.970  0.2401  0.3078 -0.3974
  239MPD1    C3 3679   1.670   2.302  14.905 -0.0497  0.0438  0.2843
  239MPD1    C4 3680   1.803   2.268  14.921  0.4736 -0.1107 -0.2377
  239MPD1    C5 3681   1.883   2.348  14.998  0.4569  0.5630 -0.5087
  239MPD1     H 3682   1.515   2.451  14.955  0.4838  1.5181  1.1876
  239MPD1    H1 3683   1.843   2.177  14.879 -0.1546  0.4312 -1.9982
  239MPD1    H2 3684   1.886   2.525  15.118  3.3139 -0.9792 -2.0331
  239MPD1    H3 3685   1.987   2.323  15.018 -0.1877 -1.9969 -0.3233
  239MPD1     N 3686   1.595   2.221  14.815 -0.1536  0.1556 -0.0936
  239MPD1    H5 3687   1.640   2.146  14.764  0.5431 -0.3073  1.1951
  239MPD1    N1 3688   1.639   2.598  15.123  0.2803  0.5945  0.1423
  239MPD1    H6 3689   1.704   2.671  15.150  1.4024 -0.5404  0.5260
  239MPD1    H7 3690   1.556   2.643  15.085 -0.2891  1.0257  1.9328
  240MPD1     C 3691   1.437   1.387  14.083  0.0629 -0.0805  0.0188
  240MPD1    C1 3692   1.306   1.398  14.043 -0.6807  0.8895  0.1616
  240MPD1    C2 3693   1.207   1.378  14.136  0.4583  0.0734  0.5628
  240MPD1    C3 3694   1.227   1.373  14.268 -0.5386 -0.3682  0.1743
  240MPD1    C4 3695   1.358   1.372  14.308 -0.6474 -0.4246 -0.0777
  240MPD1    C5 3696   1.465   1.386  14.220 -0.3559 -0.2249  0.3574
  240MPD1     H 3697   1.105   1.370  14.099  1.3703  0.2263 -1.9516
  240MPD1    H1 3698   1.377   1.374  14.414 -1.0128 -2.9900  0.0251
  240MPD1    H2 3699   1.515   1.381  14.008 -0.1344 -0.1639 -0.1818
  240MPD1    H3 3700   1.566   1.376  14.259  0.0561  1.9868 -0.1500
  240MPD1     N 3701   1.123   1.335  14.360 -0.3291  0.0861 -0.6611
  240MPD1    H5 3702   1.028   1.337  14.324 -0.3473  1.8274 -0.5141
  240MPD1    N1 3703   1.281   1.380  13.908  0.4012 -0.3785  0.6978
  240MPD1    H6 3704   1.351   1.419  13.845 -0.3516 -0.3821 -0.1426
  240MPD1    H7 3705   1.193   1.427  13.888  0.7464 -0.2269 -0.4877
  241MPD1     C 3706   0.937   1.614  15.331 -0.1435  0.3451 -0.1254
  241MPD1    C1 3707   0.840   1.531  15.293  0.2907 -0.0782  0.4127
  241MPD1    C2 3708   0.835   1.481  15.164 -0.7524 -0.1513  0.0986
  241MPD1    C3 3709   0.940   1.511  15.075  0.0399  0.4148 -0.2709
  241MPD1    C4 3710   1.029   1.611  15.108  0.4361  0.0898  0.1003
  241MPD1    C5 3711   1.021   1.659  15.239 -0.1113  0.3996  0.4753
  241MPD1     H 3712   0.764   1.408  15.128 -1.0292 -1.0127  2.4303
  241MPD1    H1 3713   1.111   1.644  15.045 -0.6268  1.5542 -0.5248
  241MPD1    H2 3714   0.947   1.652  15.432 -0.8693  1.8136 -0.6100
  241MPD1    H3 3715   1.097   1.734  15.260  0.1471  0.5826 -1.1286
  241MPD1     N 3716   0.949   1.446  14.945 -0.2535  0.4932 -0.7245
  241MPD1    H5 3717   1.002   1.497  14.875  0.3421  0.1689 -0.5078
  241MPD1    N1 3718   0.738   1.515  15.388 -0.2511  1.0793  0.6874
  241MPD1    H6 3719   0.690   1.425  15.389 -0.1975  1.0662  1.4585
  241MPD1    H7 3720   0.766   1.539  15.483  2.3130  4.9295 -1.0210
  242MPD1     C 3721   1.031   0.532  15.756 -0.2075 -0.7960  0.2268
  242MPD1    C1 3722   0.979   0.566  15.635 -0.1186  0.1828 -0.2799
  242MPD1    C2 3723   1.001   0.485  15.527 -0.2828 -0.2592  0.7934
  242MPD1    C3 3724   1.084   0.373  15.544 -0.6987 -0.4915  0.0672
  242MPD1    C4 3725   1.141   0.344  15.668  0.0494  0.0588  0.0093
  242MPD1    C5 3726   1.113   0.425  15.774  0.4076  0.8279 -0.3050
  242MPD1     H 3727   0.956   0.513  15.432  1.9895 -0.3327 -0.3182
  242MPD1    H1 3728   1.203   0.258  15.691 -0.9185 -0.5916  0.1919
  242MPD1    H2 3729   1.005   0.586  15.847  0.4309  0.6256 -0.4312
  242MPD1    H3 3730   1.146   0.392  15.872 -1.4643  0.6764  0.2901
  242MPD1     N 3731   1.116   0.284  15.438  0.4919 -0.3204 -0.5033
  242MPD1    H5 3732   1.182   0.208  15.450  0.2737 -0.3166  0.6946
  242MPD1    N1 3733   0.892   0.676  15.616  0.5399 -0.5562 -0.3861
  242MPD1    H6 3734   0.925   0.749  15.678 -3.3137  0.5244  0.4176
  242MPD1    H7 3735   0.895   0.717  15.523 -2.5092 -0.0647 -0.2723
  243MPD1     C 3736   2.418   3.614  17.088  0.5121 -0.1548 -1.0162
  243MPD1    C1 3737   2.424   3.678  16.970 -0.0883  0.0989  0.4510
  243MPD1    C2 3738   2.438   3.608  16.854 -0.1445  0.1234  0.3674
  243MPD1    C3 3739   2.470   3.473  16.853  0.4177  0.6286 -0.3076
  243MPD1    C4 3740   2.479   3.411  16.978  0.5689 -0.0328  0.0195
  243MPD1    C5 3741   2.438   3.482  17.088  0.2740  0.2853 -0.2972
  243MPD1     H 3742   2.423   3.652  16.756  3.7174 -1.2581 -0.8740
  243MPD1    H1 3743   2.510   3.308  16.992 -0.6902 -0.3054  0.8218
  243MPD1    H2 3744   2.401   3.660  17.184  0.6644  1.2955 -1.6889
  243MPD1    H3 3745   2.448   3.429  17.182 -0.1161 -0.6468 -0.7793
  243MPD1     N 3746   2.512   3.412  16.728  0.5197  0.1194 -0.6016
  243MPD1    H5 3747   2.517   3.468  16.643 -1.9603  2.1492  0.5901
  243MPD1    N1 3748   2.386   3.815  16.972 -0.2005 -0.1289 -0.4426
  243MPD1    H6 3749   2.401   3.863  16.884  2.4682 -0.3859 -0.1342
  243MPD1    H7 3750   2.444   3.867  17.038 -1.5838 -0.7743  1.2840
  244MPD1     C 3751   3.129   2.735  16.403  1.3613 -0.1111  0.3353
  244MPD1    C1 3752   3.069   2.739  16.530 -0.4854  0.5733  0.0581
  244MPD1    C2 3753   3.006   2.856  16.557 -0.0515  0.0314  0.6339
  244MPD1    C3 3754   3.003   2.964  16.468 -0.1778 -0.2320 -0.0605
  244MPD1    C4 3755   3.081   2.957  16.354  0.2427 -0.0331 -0.0733
  244MPD1    C5 3756   3.148   2.845  16.323  0.5292  0.7960  0.1119
  244MPD1     H 3757   2.940   2.863  16.643 -0.1009  1.4072  0.4871
  244MPD1    H1 3758   3.110   3.043  16.293  0.8952 -0.0315  0.2334
  244MPD1    H2 3759   3.176   2.644  16.368  0.8382 -0.0003 -0.6705
  244MPD1    H3 3760   3.200   2.829  16.229 -0.3075  0.3950 -0.2802
  244MPD1     N 3761   2.919   3.076  16.499 -0.0425  0.6804  0.3361
  244MPD1    H5 3762   2.857   3.066  16.579 -2.6612 -3.6822 -2.2185
  244MPD1    N1 3763   3.030   2.629  16.613  0.0200  0.4573  0.0268
  244MPD1    H6 3764   3.027   2.646  16.713 -2.0142 -0.5461  0.1432
  244MPD1    H7 3765   3.085   2.543  16.611 -3.3512 -1.6818 -0.8972
  245MPD1     C 3766   3.823   3.254  13.492 -0.3788  0.4061  0.4586
  245MPD1    C1 3767   3.757   3.333  13.580 -0.5013 -0.0772 -0.1078
  245MPD1    C2 3768   3.753   3.468  13.559 -0.8477  0.1113 -0.5218
  245MPD1    C3 3769   3.804   3.523  13.443 -0.0605  0.2406  0.1843
  245MPD1    C4 3770   3.859   3.438  13.348 -0.0401  0.4722 -0.3797
  245MPD1    C5 3771   3.856   3.300  13.369  0.6875 -0.5560  0.6716
  245MPD1     H 3772   3.703   3.530  13.632 -0.5319 -2.4440  1.8796
  245MPD1    H1 3773   3.916   3.477  13.264  0.0838 -0.5490 -0.7605
  245MPD1    H2 3774   3.825   3.147  13.508  0.6476 -0.0020 -2.3450
  245MPD1    H3 3775   3.908   3.241  13.294 -0.5615 -0.3830 -0.3281
  245MPD1     N 3776   3.802   3.665  13.441 -0.0781 -0.2290 -0.5543
  245MPD1    H5 3777   3.765   3.707  13.526 -3.1102  1.2116 -2.5715
  245MPD1    N1 3778   3.700   3.281  13.698  0.1052 -0.1141  0.0931
  245MPD1    H6 3779   3.775   3.217  13.723 -0.4046 -0.3149  1.0784
  245MPD1    H7 3780   3.691   3.352  13.769 -2.4325 -1.3813  1.0192
  246MPD1     C 3781   0.925   0.336   9.400  0.0165  0.3615 -0.2252
  246MPD1    C1 3782   0.790   0.310   9.369 -1.0719  0.1691 -0.1151
  246MPD1    C2 3783   0.708   0.418   9.395 -0.2327  0.1677  0.9984
  246MPD1    C3 3784   0.751   0.537   9.455  0.2487  0.4599  0.1241
  246MPD1    C4 3785   0.880   0.544   9.500  0.3009 -0.3404 -0.7078
  246MPD1    C5 3786   0.968   0.451   9.457 -0.0183 -0.1091  0.5036
  246MPD1     H 3787   0.603   0.408   9.370  0.2129 -2.0430 -0.0333
  246MPD1    H1 3788   0.920   0.640   9.530  0.3598 -1.2524  2.1262
  246MPD1    H2 3789   1.000   0.260   9.378  0.4387  0.9719 -0.8758
  246MPD1    H3 3790   1.074   0.453   9.481  0.5397  3.9501 -2.4604
  246MPD1     N 3791   0.663   0.642   9.470 -0.2077  0.2146  0.0732
  246MPD1    H5 3792   0.567   0.625   9.442  1.1572 -3.1399 -2.6883
  246MPD1    N1 3793   0.756   0.199   9.296  0.2146 -0.0384  0.3868
  246MPD1    H6 3794   0.667   0.166   9.332  0.1732  1.4727  1.6980
  246MPD1    H7 3795   0.814   0.117   9.313  2.1889  0.7929 -2.3716
  247MPD1     C 3796   3.684   4.600  16.341 -0.2625 -0.0741 -0.0115
  247MPD1    C1 3797   3.709   4.520  16.452  0.4773  0.1580  0.9201
  247MPD1    C2 3798   3.728   4.384  16.439  0.8684  0.1267 -0.3470
  247MPD1    C3 3799   3.721   4.326  16.313 -0.4917  0.7495  0.4025
  247MPD1    C4 3800   3.715   4.409  16.205  0.0461  0.3557  0.0175
  247MPD1    C5 3801   3.698   4.544  16.218 -0.1512  0.2567 -0.3214
  247MPD1     H 3802   3.747   4.331  16.531 -0.6562 -1.6732 -1.0788
  247MPD1    H1 3803   3.720   4.366  16.105 -0.0911 -0.3431  0.3066
  247MPD1    H2 3804   3.672   4.708  16.349 -1.4297 -0.3827  2.3053
  247MPD1    H3 3805   3.683   4.607  16.130 -0.2775  2.5502  1.3306
  247MPD1     N 3806   3.736   4.189  16.288 -0.3921  0.0157 -0.4254
  247MPD1    H5 3807   3.756   4.168  16.191  0.7902  3.2450 -0.8666
  247MPD1    N1 3808   3.712   4.576  16.577 -0.3638  0.4014  1.1859
  247MPD1    H6 3809   3.765   4.662  16.577  0.3560 -0.0525 -0.9420
  247MPD1    H7 3810   3.752   4.511  16.645  1.8138  0.0084 -0.4824
  248MPD1     C 3811   4.204   3.237  17.706 -0.2010 -0.0611 -0.1026
  248MPD1    C1 3812   4.307   3.327  17.716  0.1781 -0.8383 -0.4039
  248MPD1    C2 3813   4.273   3.458  17.723 -0.2390  0.4156 -0.0329
  248MPD1    C3 3814   4.142   3.496   0.003 -0.6132  0.5999  0.0400
  248MPD1    C4 3815   4.035   3.408   0.000 -0.2951  0.3451  0.6652
  248MPD1    C5 3816   4.071   3.274  17.727 -0.3112 -0.5059  0.0990
  248MPD1     H 3817   4.354   3.528  17.733  0.4380 -0.3319 -0.3012
  248MPD1    H1 3818   3.935   3.439   0.028 -0.7875 -0.2221 -0.4654
  248MPD1    H2 3819   4.230   3.132  17.701 -1.1453 -0.4336  2.8612
  248MPD1    H3 3820   3.997   3.196  17.717  0.3567 -0.8681 -2.0042
  248MPD1     N 3821   4.120   3.632   0.035  0.2899 -0.2095  0.1250
  248MPD1    H5 3822   4.204   3.689   0.026  0.4909 -0.4245  0.6495
  248MPD1    N1 3823   4.438   3.281  17.695 -0.5398  0.5659 -0.1303
  248MPD1    H6 3824   4.462   3.189  17.728 -0.6451  0.2785 -0.8449
  248MPD1    H7 3825   4.506   3.355  17.710 -1.3814  1.5575 -1.1164
  249MPD1     C 3826   0.826   2.171  10.386  0.1850 -0.1925  0.8106
  249MPD1    C1 3827   0.878   2.281  10.447 -0.0782  0.4431  0.3752
  249MPD1    C2 3828   0.927   2.383  10.368  0.2867  0.2520 -0.1548
  249MPD1    C3 3829   0.926   2.372  10.232 -0.1038 -0.8939  0.2939
  249MPD1    C4 3830   0.867   2.258  10.170  0.1184 -0.5590 -0.1696
  249MPD1    C5 3831   0.825   2.162  10.253  1.1138 -0.0956 -0.3961
  249MPD1     H 3832   0.988   2.466  10.401 -2.8345  0.7048  4.5177
  249MPD1    H1 3833   0.867   2.253  10.062 -0.4523  1.1157 -0.2415
  249MPD1    H2 3834   0.773   2.096  10.444 -0.9761 -0.3936 -0.5153
  249MPD1    H3 3835   0.766   2.080  10.213  0.5703 -0.8869  1.9937
  249MPD1     N 3836   0.984   2.470  10.148 -0.0906 -0.1803 -0.0714
  249MPD1    H5 3837   1.035   2.544  10.195 -1.0238  0.2113  0.3162
  249MPD1    N1 3838   0.883   2.291  10.586 -0.4097  0.4156  0.2612
  249MPD1    H6 3839   0.907   2.383  10.621 -0.7207  0.6120 -0.0429
  249MPD1    H7 3840   0.802   2.251  10.634 -0.7008  1.0011  0.2552
  250MPD2     C 3841   1.852   2.540  12.977 -0.4668  0.5006  0.1999
  250MPD2    C1 3842   1.853   2.516  12.843 -0.3634 -0.7668 -0.2321
  250MPD2    C2 3843   1.744   2.449  12.796  0.5775 -0.3341 -0.0650
  250MPD2    C3 3844   1.649   2.392  12.875  0.2822 -0.1893 -0.2935
  250MPD2    C4 3845   1.636   2.436  13.001 -0.5429 -0.6603 -0.2077
  250MPD2    C5 3846   1.740   2.512  13.054  0.1141 -0.2154  0.5729
  250MPD2     H 3847   1.751   2.420  12.691  2.5336  2.6479 -0.7571
  250MPD2    H1 3848   1.553   2.406  13.064  1.0252 -1.0846  1.6460
  250MPD2    H2 3849   1.939   2.587  13.023 -0.4589  1.0458 -0.3793
  250MPD2    H3 3850   1.742   2.540  13.159 -0.0835 -1.5683  0.9365
  250MPD2     N 3851   1.546   2.310  12.826  1.1079 -0.2289 -0.1255
  250MPD2    H5 3852   1.478   2.275  12.892 -0.7815  1.4351 -1.1992
  250MPD2    N1 3853   1.961   2.566  12.777 -0.4462  0.2989  0.0231
  250MPD2    H7 3854   2.029   2.624  12.826  1.9118 -1.0898 -1.5964
  251TMC3    C1 3855   2.096   2.623  12.590  0.3212 -0.2583 -0.4492
  251TMC3    C2 3856   2.105   2.754  12.623  0.0823 -0.5138 -0.5914
  251TMC3    C3 3857   2.220   2.823  12.615  0.2115 -0.1047  0.1516
  251TMC3    C4 3858   2.204   2.550  12.546  0.0865 -0.2133  0.2185
  251TMC3    C5 3859   2.322   2.618  12.545 -0.1878 -0.3232  0.3291
  251TMC3    C6 3860   2.331   2.753  12.577 -0.8528  0.3135  0.4232
  251TMC3     C 3861   1.989   2.543  12.647  0.9130 -1.0433  0.0226
  251TMC3     O 3862   1.940   2.464  12.566  0.3578 -0.4221  0.4892
  251TMC3     H 3863   2.019   2.810  12.657  2.3022  1.3149  2.0144
  251TMC3    H1 3864   2.191   2.445  12.523  0.3241 -0.1400 -0.2574
  251TMC3    H2 3865   2.427   2.802  12.588 -1.5173  1.4528  1.2441
  251TMC3    C7 3866   2.432   2.545  12.588  0.4146 -0.6446 -0.4045
  251TMC3    C8 3867   2.235   2.943  12.701 -0.5067 -0.6761  0.8701
  251TMC3    O1 3868   2.473   2.594  12.689 -0.6848 -0.2810  0.4435
  251TMC3    O2 3869   2.136   2.970  12.771 -0.3547 -0.3769  0.2411
  252TMC3    C1 3870   2.686   4.026   9.574  0.1966  0.4481 -0.8254
  252TMC3    C2 3871   2.752   4.071   9.688 -0.4738 -0.2362 -0.3399
  252TMC3    C3 3872   2.822   3.976   9.763  1.7708 -0.4846 -0.2581
  252TMC3    C4 3873   2.701   3.895   9.531 -0.3830 -0.1287 -0.0764
  252TMC3    C5 3874   2.770   3.809   9.606 -1.0080  0.0961 -0.3699
  252TMC3    C6 3875   2.835   3.845   9.720 -0.2097  0.2136  0.1300
  252TMC3     C 3876   2.567   4.094   9.539 -0.6242 -0.4824 -0.8297
  252TMC3     O 3877   2.556   4.207   9.590  0.0439  0.1908 -0.1665
  252TMC3     H 3878   2.757   4.176   9.716 -2.7837 -0.7453  2.0297
  252TMC3    H1 3879   2.647   3.842   9.453  1.3986 -1.0192 -0.7291
  252TMC3    H2 3880   2.901   3.773   9.768  1.4083  0.0519 -2.3269
  252TMC3    C7 3881   2.753   3.672   9.578  0.5679 -0.3131 -0.2797
  252TMC3    C8 3882   2.925   4.025   9.870 -0.6411 -0.2876  0.4412
  252TMC3    O1 3883   2.723   3.635   9.466  0.1497 -0.5261  0.2829
  252TMC3    O2 3884   2.966   4.141   9.870 -0.1782  0.2169 -0.0774
  253MPD2     C 3885   4.014   2.284  14.722 -0.0004  0.3078 -0.1271
  253MPD2    C1 3886   3.915   2.208  14.780  0.2804 -0.0168 -0.9689
  253MPD2    C2 3887   3.896   2.201  14.918  0.0515  0.0964  0.3133
  253MPD2    C3 3888   3.963   2.291  15.002  0.7914  0.2217 -0.0583
  253MPD2    C4 3889   4.052   2.374  14.939  0.6267 -0.5552  0.2735
  253MPD2    C5 3890   4.081   2.364  14.809  0.2810  0.4713 -0.1763
  253MPD2     H 3891   3.821   2.131  14.955 -1.0744  0.2219 -1.7393
  253MPD2    H1 3892   4.097   2.461  14.984  1.6543 -1.3116  0.7008
  253MPD2    H2 3893   4.032   2.298  14.616 -2.2941 -0.9256 -0.6643
  253MPD2    H3 3894   4.154   2.432  14.768  0.0675  1.1827  0.6144
  253MPD2     N 3895   3.939   2.306  15.141 -0.1072 -0.5448 -1.1275
  253MPD2    H5 3896   3.978   2.387  15.188  0.3016 -2.1181  1.1894
  253MPD2    N1 3897   3.824   2.135  14.707  0.3976 -0.2609 -0.8450
  253MPD2    H7 3898   3.747   2.088  14.754 -0.4454  1.5154 -0.4596
  254TMC3    C1 3899   3.830   2.270  15.345 -0.1099  0.0067  0.0142
  254TMC3    C2 3900   3.708   2.274  15.396 -0.0919 -0.0408  0.8543
  254TMC3    C3 3901   3.689   2.312  15.528 -0.6456  0.0643 -1.0219
  254TMC3    C4 3902   3.940   2.310  15.421 -0.1925  0.1767  0.1001
  254TMC3    C5 3903   3.916   2.354  15.553 -0.2050  0.0597 -0.6092
  254TMC3    C6 3904   3.791   2.351  15.611 -0.2659  0.6971 -0.4165
  254TMC3     C 3905   3.852   2.226  15.209  0.6762 -0.7817 -1.2085
  254TMC3     O 3906   3.768   2.145  15.166 -0.4304 -0.3371  0.2077
  254TMC3     H 3907   3.625   2.247  15.330 -2.6553  2.2597  3.1527
  254TMC3    H1 3908   4.045   2.304  15.394 -0.2624 -1.6167  0.2201
  254TMC3    H2 3909   3.772   2.387  15.712  0.3756 -1.8211  0.5857
  254TMC3    C7 3910   4.025   2.408  15.635  0.0635 -0.3602 -0.5778
  254TMC3    C8 3911   3.559   2.326  15.583 -0.1488  0.4210  0.1618
  254TMC3    O1 3912   4.122   2.460  15.585  0.1093  0.1683  0.6453
  254TMC3    O2 3913   3.549   2.401  15.685 -0.0814 -0.0243  1.0668
  255MPD2     C 3914   1.518   4.478  10.998  0.1770  0.0611 -0.1146
  255MPD2    C1 3915   1.606   4.571  10.953  0.0730  0.1596  0.3448
  255MPD2    C2 3916   1.717   4.519  10.881 -0.4426 -0.7106 -0.5938
  255MPD2    C3 3917   1.729   4.388  10.847  0.0527 -0.0560 -0.3555
  255MPD2    C4 3918   1.630   4.300  10.879  0.4419 -0.0039  0.2217
  255MPD2    C5 3919   1.531   4.348  10.959 -0.1053  0.2748  0.2543
  255MPD2     H 3920   1.795   4.591  10.855 -0.7282 -0.2088 -0.0802
  255MPD2    H1 3921   1.644   4.197  10.849 -2.3860 -0.2229 -0.3157
  255MPD2    H2 3922   1.434   4.499  11.063 -0.9683 -0.0383 -1.5571
  255MPD2    H3 3923   1.456   4.275  10.988 -3.2610  3.0507 -0.9102
  255MPD2     N 3924   1.835   4.347  10.762 -0.0827  0.4698 -0.1756
  255MPD2    H5 3925   1.917   4.406  10.767 -1.6928  2.5433  1.9464
  255MPD2    N1 3926   1.589   4.708  10.988  0.0380  0.2441 -0.0466
  255MPD2    H7 3927   1.509   0.003  11.042  0.1575  0.2125  0.1501
  256TMC3    C1 3928   1.608   0.211  10.968 -0.0959  0.3903  0.7810
  256TMC3    C2 3929   1.688   0.321  10.994  0.2275 -0.0371  1.1572
  256TMC3    C3 3930   1.630   0.441  10.988 -0.4475  0.3104 -0.0976
  256TMC3    C4 3931   1.474   0.230  10.928 -0.2180  0.1496 -0.5287
  256TMC3    C5 3932   1.422   0.351  10.930 -0.0465  0.0094 -0.1065
  256TMC3    C6 3933   1.492   0.460  10.958 -0.4118  0.0635  0.0530
  256TMC3     C 3934   1.670   0.074  10.947  0.3686  0.3230  0.0676
  256TMC3     O 3935   1.771   0.080  10.873 -0.7026 -0.1673 -0.0050
  256TMC3     H 3936   1.796   0.322  11.004  0.4966 -0.7518 -1.7694
  256TMC3    H1 3937   1.431   0.149  10.871  0.9123 -2.1537  1.8821
  256TMC3    H2 3938   1.442   0.554  10.939  1.1524  0.5949 -1.4446
  256TMC3    C7 3939   1.296   0.360  10.847 -0.0392  0.4995  0.4819
  256TMC3    C8 3940   1.711   0.558  10.996  0.4712  0.5204  0.2367
  256TMC3    O1 3941   1.272   0.457  10.772 -0.5766  0.0855  0.1968
  256TMC3    O2 3942   1.816   0.546  11.059 -0.0192  0.1660 -0.1470
  257MPD2     C 3943   0.938   2.347  13.381 -0.6678 -0.3677  0.1063
  257MPD2    C1 3944   0.903   2.224  13.343  0.2715 -0.1689  0.1871
  257MPD2    C2 3945   0.927   2.122  13.434  0.1020 -0.4351 -0.0210
  257MPD2    C3 3946   0.972   2.145  13.559 -0.0437 -0.2403  0.0007
  257MPD2    C4 3947   1.005   2.277  13.592  0.6120  0.8356 -0.2442
  257MPD2    C5 3948   0.990   2.384  13.504 -0.1065  0.7862 -0.0905
  257MPD2     H 3949   0.910   2.018  13.410  1.6065 -0.9890  1.2620
  257MPD2    H1 3950   1.050   2.306  13.686  0.8059 -3.5782  0.9957
  257MPD2    H2 3951   0.939   2.425  13.305  1.4252 -1.4712 -1.0319
  257MPD2    H3 3952   1.029   2.480  13.535 -0.4242  0.7932  0.2830
  257MPD2     N 3953   0.991   2.038  13.648  0.9332 -0.4327  1.1550
  257MPD2    H5 3954   0.990   1.946  13.606 -2.3762 -0.3274  0.9863
  257MPD2    N1 3955   0.835   2.210  13.216  0.1689  0.0185 -0.3623
  257MPD2    H7 3956   0.815   2.294  13.163  0.3060 -0.8524 -1.7836
  258TMC3    C1 3957   1.086   1.933  13.830 -0.0356 -0.1340  0.1865
  258TMC3    C2 3958   1.177   1.869  13.753  0.2535  0.5681  0.5289
  258TMC3    C3 3959   1.260   1.777  13.812  0.3237  0.5635  0.2620
  258TMC3    C4 3960   1.079   1.920  13.964  0.3825  0.5668 -0.0896
  258TMC3    C5 3961   1.162   1.825  14.019 -0.5296  0.2203  0.2158
  258TMC3    C6 3962   1.247   1.750  13.943 -0.8379 -0.0244 -0.6699
  258TMC3     C 3963   1.025   2.050  13.779 -0.8042 -0.0625  0.0284
  258TMC3     O 3964   1.031   2.141  13.858  0.1307 -0.4102  0.2359
  258TMC3     H 3965   1.196   1.902  13.651 -0.3180 -0.0052  0.2337
  258TMC3    H1 3966   1.007   1.972  14.026 -1.5422  0.3956 -2.1691
  258TMC3    H2 3967   1.298   1.665  13.987 -1.0494  0.2834  0.1771
  258TMC3    C7 3968   1.174   1.804  14.163  0.6567  0.4985 -1.3604
  258TMC3    C8 3969   1.370   1.712  13.749  0.9268  0.3000  0.6394
  258TMC3    O1 3970   1.074   1.824  14.225  0.9112  0.2026 -0.4005
  258TMC3    O2 3971   1.444   1.643  13.819 -0.2238 -0.0148 -0.3664
  259MPD2     C 3972   0.313   4.097   0.058  0.4777  0.6081  0.5175
  259MPD2    C1 3973   0.381   4.057   0.168  0.4170 -0.0206 -0.3296
  259MPD2    C2 3974   0.463   3.948   0.154  0.6763 -0.3784 -0.3122
  259MPD2    C3 3975   0.479   3.884   0.027 -0.0957 -0.2465 -0.1118
  259MPD2    C4 3976   0.402   3.928  17.663 -0.0346 -0.0478 -0.5687
  259MPD2    C5 3977   0.317   4.029  17.684 -0.0093  0.3369 -0.3668
  259MPD2     H 3978   0.527   3.914   0.235  0.1753  6.3220  2.9810
  259MPD2    H1 3979   0.395   3.883  17.565  0.0981 -2.4356  0.5191
  259MPD2    H2 3980   0.238   4.176   0.064 -1.0585 -0.8985  1.1824
  259MPD2    H3 3981   0.253   4.065  17.604  1.3478  0.4620 -1.3831
  259MPD2     N 3982   0.550   3.762   0.014  0.6220  0.2060 -0.2632
  259MPD2    H5 3983   0.582   3.719   0.100  1.3645 -0.7790 -1.0215
  259MPD2    N1 3984   0.358   4.131   0.287  0.4161 -0.9630 -0.5665
  259MPD2    H7 3985   0.286   4.203   0.278  0.7794 -0.7024 -1.3776
  260TMC3    C1 3986   0.689   3.597  17.667 -0.5655  0.3156  0.1961
  260TMC3    C2 3987   0.794   3.576  17.574  0.1250  0.0161  0.4160
  260TMC3    C3 3988   0.894   3.492  17.614  0.7479  0.5407  0.3895
  260TMC3    C4 3989   0.686   3.532   0.043 -0.9626 -0.1850 -0.5872
  260TMC3    C5 3990   0.783   3.443   0.073  0.1098  0.8547  0.3054
  260TMC3    C6 3991   0.891   3.420  17.734  0.8365  0.4769 -0.6712
  260TMC3     C 3992   0.601   3.709  17.641  0.6665 -0.2803  0.0611
  260TMC3     O 3993   0.601   3.756  17.526  0.5603 -0.7890  0.4411
  260TMC3     H 3994   0.801   3.632  17.482 -0.5590 -0.9972 -0.2545
  260TMC3    H1 3995   0.606   3.545   0.115 -3.1978 -0.8931 -2.9211
  260TMC3    H2 3996   0.973   3.355   0.019 -0.6917 -0.9728  0.4620
  260TMC3    C7 3997   0.781   3.381   0.203 -0.1956 -0.0981 -0.3690
  260TMC3    C8 3998   1.017   3.476  17.529  0.1781 -0.4420 -0.4155
  260TMC3    O1 3999   0.740   3.462   0.279  0.0518 -0.1420 -0.0173
  260TMC3    O2 4000   0.999   3.478  17.408 -0.5805 -0.3106 -0.2746
  261MPD2     C 4001   0.951   2.206  12.231  0.5730  0.7316  0.5731
  261MPD2    C1 4002   1.086   2.224  12.229 -0.4009  0.2949 -0.1212
  261MPD2    C2 4003   1.132   2.293  12.118  0.4846 -0.1939  0.2120
  261MPD2    C3 4004   1.056   2.325  12.007  0.0044  0.0819  0.0654
  261MPD2    C4 4005   0.923   2.311  12.017 -0.3978  0.4129  0.5717
  261MPD2    C5 4006   0.875   2.257  12.130 -0.6130 -0.0524  0.1112
  261MPD2     H 4007   1.239   2.307  12.100  1.1690 -2.3518  2.6172
  261MPD2    H1 4008   0.850   2.337  11.941 -1.7400  1.5176  2.2343
  261MPD2    H2 4009   0.902   2.161  12.316  0.5551 -1.0018 -0.3649
  261MPD2    H3 4010   0.768   2.240  12.131 -0.2334 -2.4487 -0.4353
  261MPD2     N 4011   1.123   2.368  11.890 -0.4013  0.2112  0.2952
  261MPD2    H5 4012   1.224   2.367  11.894 -0.3275 -0.4822 -1.6652
  261MPD2    N1 4013   1.174   2.184  12.333 -0.1781  0.1526  0.0767
  261MPD2    H7 4014   1.274   2.195  12.320 -0.4138  1.8472 -0.2872
  262TMC3    C1 4015   1.140   2.448  11.663 -0.3265 -0.2181 -0.0953
  262TMC3    C2 4016   1.097   2.550  11.586 -0.2560  0.4266  0.7319
  262TMC3    C3 4017   1.188   2.628  11.511 -0.5108  0.2846 -0.3025
  262TMC3    C4 4018   1.271   2.418  11.670  0.0602  0.0863 -0.1706
  262TMC3    C5 4019   1.356   2.485  11.596  0.6780 -1.3044  0.7070
  262TMC3    C6 4020   1.312   2.567  11.492 -0.3112  0.4203  0.1107
  262TMC3     C 4021   1.054   2.419  11.777  0.3453  0.0885 -0.2406
  262TMC3     O 4022   0.937   2.449  11.770 -0.2403 -0.8121  0.3729
  262TMC3     H 4023   1.007   2.598  11.623 -1.7574 -2.2324  0.5540
  262TMC3    H1 4024   1.312   2.339  11.731  0.3479  0.5880  0.2766
  262TMC3    H2 4025   1.373   2.627  11.425 -0.3479 -1.5982 -1.7212
  262TMC3    C7 4026   1.498   2.492  11.627 -1.2256 -0.6147 -0.3709
  262TMC3    C8 4027   1.185   2.778  11.501 -0.7548 -0.2890  0.9751
  262TMC3    O1 4028   1.544   2.404  11.691 -0.0628  0.3768  0.0342
  262TMC3    O2 4029   1.284   2.834  11.449  0.4465 -0.6092 -0.8435
  263MPD2     C 4030   2.605   1.257  11.531  0.3166  0.7898  0.6354
  263MPD2    C1 4031   2.704   1.345  11.511 -0.8264  0.1766 -0.3361
  263MPD2    C2 4032   2.678   1.440  11.416 -0.5607  0.2815 -0.1525
  263MPD2    C3 4033   2.555   1.450  11.356 -0.5257  0.8895 -0.4429
  263MPD2    C4 4034   2.461   1.361  11.378 -0.4475 -0.5342 -0.0820
  263MPD2    C5 4035   2.481   1.265  11.472 -0.4789 -0.1436  0.4435
  263MPD2     H 4036   2.756   1.511  11.391  0.6174 -0.2170  2.1064
  263MPD2    H1 4037   2.366   1.358  11.326 -0.9833  2.0346  0.7677
  263MPD2    H2 4038   2.628   1.181  11.605 -0.4537 -0.6538 -0.6172
  263MPD2    H3 4039   2.409   1.194  11.510 -0.4354 -0.0442  0.7166
  263MPD2     N 4040   2.531   1.566  11.273  0.4363  1.0489  0.4502
  263MPD2    H5 4041   2.605   1.634  11.257  1.7198  0.1079  2.4073
  263MPD2    N1 4042   2.822   1.329  11.592  0.2799  0.1328  0.6281
  263MPD2    H7 4043   2.819   1.255  11.661  0.3217 -0.1638  0.3128
  264TMC3    C1 4044   2.416   1.694  11.115 -0.7182  0.2814  0.0564
  264TMC3    C2 4045   2.315   1.787  11.114  0.1483 -0.0881  0.2350
  264TMC3    C3 4046   2.290   1.860  11.003 -0.6253 -0.5603 -0.0186
  264TMC3    C4 4047   2.508   1.683  11.009  0.0018  0.0062  0.5363
  264TMC3    C5 4048   2.467   1.747  10.896  0.1048  0.2120 -0.4691
  264TMC3    C6 4049   2.363   1.839  10.895  0.0949  0.0269  0.2919
  264TMC3     C 4050   2.411   1.592  11.215  0.3381  0.3344  0.6985
  264TMC3     O 4051   2.299   1.555  11.259  0.0696  0.0181  0.4174
  264TMC3     H 4052   2.248   1.794  11.199  0.1906  0.0119  0.2601
  264TMC3    H1 4053   2.592   1.615  11.013  0.2829  0.3313  0.2135
  264TMC3    H2 4054   2.341   1.902  10.809  0.9059 -2.3510 -1.6739
  264TMC3    C7 4055   2.573   1.750  10.788  0.1471 -0.4421 -0.4090
  264TMC3    C8 4056   2.260   2.003  11.025  0.0510 -0.0522 -0.1916
  264TMC3    O1 4057   2.686   1.708  10.817 -0.5155  0.2869  0.3329
  264TMC3    O2 4058   2.270   2.073  10.927 -0.3425  0.2637 -0.7550
  265MPD2     C 4059   0.160   1.684  15.738 -0.0288 -0.2851  0.0131
  265MPD2    C1 4060   0.178   1.799  15.655  0.6620 -0.1534 -0.6387
  265MPD2    C2 4061   0.225   1.782  15.530 -0.1028 -0.7760  0.4015
  265MPD2    C3 4062   0.264   1.653  15.480 -0.4356  0.1670  0.0022
  265MPD2    C4 4063   0.230   1.545  15.559  0.2860 -0.2617  0.7556
  265MPD2    C5 4064   0.178   1.562  15.684  0.0969  0.3077  0.3325
  265MPD2     H 4065   0.234   1.873  15.470  1.2201 -0.7835  0.5930
  265MPD2    H1 4066   0.259   1.445  15.531 -1.6080 -1.3440  2.6336
  265MPD2    H2 4067   0.137   1.696  15.843 -0.4845  0.7276 -0.2010
  265MPD2    H3 4068   0.159   1.470  15.738 -0.3288  0.0506 -0.2553
  265MPD2     N 4069   0.313   1.621  15.351  0.3795  0.5396  0.3375
  265MPD2    H5 4070   0.325   1.521  15.334 -0.7117  0.4764 -0.0737
  265MPD2    N1 4071   0.138   1.931  15.692 -0.1142 -0.5766 -0.6262
  265MPD2    H7 4072   0.159   2.007  15.629 -0.0360 -0.0073  0.0849
  266TMC3    C1 4073   0.103   2.111  15.818 -0.2361  0.3585 -0.0544
  266TMC3    C2 4074   0.119   2.172  15.941 -0.5292  0.3766  0.2738
  266TMC3    C3 4075   0.073   2.301  15.965  0.3457  0.5410 -0.7213
  266TMC3    C4 4076   0.044   2.177  15.721  0.1124  0.2162  0.6423
  266TMC3    C5 4077   0.015   2.309  15.752  0.2149 -0.6565 -0.0430
  266TMC3    C6 4078   0.020   2.382  15.869 -0.0919  0.2459 -0.2827
  266TMC3     C 4079   0.097   1.970  15.820 -0.1945  0.4105 -0.4221
  266TMC3     O 4080   0.098   1.917  15.928 -0.1277  0.3846  0.0062
  266TMC3     H 4081   0.161   2.118  16.025  0.1859 -1.1582 -1.0613
  266TMC3    H1 4082   0.034   2.129  15.625  0.3348  1.6629 -0.0965
  266TMC3    H2 4083   4.725   2.485  15.876 -0.0394  0.1445  1.5362
  266TMC3    C7 4084   4.701   2.389  15.640 -0.5106 -0.5561  0.1722
  266TMC3    C8 4085   0.066   2.349  16.101  0.5590  0.2148 -0.7191
  266TMC3    O1 4086   4.732   2.507  15.627 -0.4454 -0.2376 -0.0552
  266TMC3    O2 4087   0.093   2.263  16.180  0.4713  0.4766  0.0151
  267MPD2     C 4088   1.939   3.877  17.637  0.4526  0.1031 -0.0704
  267MPD2    C1 4089   2.025   3.979  17.623 -0.5397  0.8843 -0.2479
  267MPD2    C2 4090   2.036   4.032  17.500  0.3651 -0.2066  0.7038
  267MPD2    C3 4091   1.958   3.991  17.392  0.1580  0.1261  0.6263
  267MPD2    C4 4092   1.875   3.883  17.408 -0.1582  0.5003  0.5969
  267MPD2    C5 4093   1.863   3.825  17.531  0.2862 -0.3013  0.2609
  267MPD2     H 4094   2.096   4.121  17.495  1.6026 -1.1185 -0.8797
  267MPD2    H1 4095   1.811   3.849  17.327  0.6630 -1.2821  0.7141
  267MPD2    H2 4096   1.921   3.836  17.736 -1.3146 -0.2988 -0.5484
  267MPD2    H3 4097   1.807   3.734  17.545  0.2882 -0.5786 -1.5947
  267MPD2     N 4098   1.957   4.058  17.271 -0.3869 -0.9787  0.2196
  267MPD2    H5 4099   1.887   4.023  17.207 -1.0815 -0.0037  0.4481
  267MPD2    N1 4100   2.094   4.028  17.736 -0.8170 -0.2331  0.7271
  267MPD2    H7 4101   2.091   3.972   0.077  0.4222 -1.1092  0.1920
  268TMC3    C1 4102   2.251   4.143   0.118 -0.1561 -0.3954 -0.0052
  268TMC3    C2 4103   2.306   4.263   0.149  0.4402 -0.1909 -0.6708
  268TMC3    C3 4104   2.425   4.277   0.213  0.2419  0.3812 -0.4225
  268TMC3    C4 4105   2.311   4.022   0.149 -0.5138  0.6609 -0.1922
  268TMC3    C5 4106   2.429   4.044   0.214  0.5090  0.5086 -0.7116
  268TMC3    C6 4107   2.487   4.165   0.238  0.2676 -0.4415  0.2577
  268TMC3     C 4108   2.175   4.137  17.741 -1.0398 -0.1583 -0.0141
  268TMC3     O 4109   2.202   4.233  17.672  0.0552 -0.2876 -0.3568
  268TMC3     H 4110   2.253   4.356   0.130  2.5294  1.9286  3.8372
  268TMC3    H1 4111   2.267   3.929   0.116 -3.3539  1.5696  1.0234
  268TMC3    H2 4112   2.580   4.173   0.293 -0.1387 -0.4497  0.9483
  268TMC3    C7 4113   2.488   3.931   0.285 -0.3612  0.0876 -0.1937
  268TMC3    C8 4114   2.500   4.374   0.141  0.3300 -0.0943  0.2150
  268TMC3    O1 4115   2.599   3.955   0.330 -0.5411  0.1767  0.3406
  268TMC3    O2 4116   2.558   4.467   0.201 -0.3980  0.5577  0.0341
  269MPD2     C 4117   2.750   2.836  16.067  0.8846 -0.7380  0.2447
  269MPD2    C1 4118   2.670   2.833  15.956 -0.0271  0.2571 -1.2121
  269MPD2    C2 4119   2.624   2.949  15.896 -0.1165  0.0575 -0.0956
  269MPD2    C3 4120   2.663   3.077  15.938 -1.0396  0.0335 -0.3290
  269MPD2    C4 4121   2.725   3.076  16.056 -0.0372  0.5110 -0.2551
  269MPD2    C5 4122   2.772   2.962  16.113  0.3154  0.1524 -0.2338
  269MPD2     H 4123   2.555   2.941  15.813 -1.8370  0.0515  1.3319
  269MPD2    H1 4124   2.758   3.170  16.100 -0.1967  0.6320 -0.3953
  269MPD2    H2 4125   2.781   2.760  16.138 -0.1457 -1.2116  0.1895
  269MPD2    H3 4126   2.822   2.972  16.208  1.6120  3.2716 -1.2287
  269MPD2     N 4127   2.621   3.196  15.868  0.2755  0.2015  0.3544
  269MPD2    H5 4128   2.582   3.180  15.776 -2.9722 -0.5882  1.8436
  269MPD2    N1 4129   2.662   2.702  15.897 -0.3301 -0.0537 -0.1768
  269MPD2    H7 4130   2.713   2.631  15.948 -2.1570 -2.1418 -1.2604
  270TMC3    C1 4131   2.548   2.510  15.818 -0.4121 -0.2505 -0.0155
  270TMC3    C2 4132   2.419   2.458  15.807  0.7433 -0.6079 -0.1491
  270TMC3    C3 4133   2.415   2.317  15.832  0.3803 -0.2094 -0.1229
  270TMC3    C4 4134   2.662   2.432  15.855  0.2003 -0.3731 -0.6070
  270TMC3    C5 4135   2.641   2.300  15.883  0.2314 -0.8104  0.9785
  270TMC3    C6 4136   2.518   2.243  15.873  0.2664  0.5083 -0.6588
  270TMC3     C 4137   2.564   2.655  15.810 -0.3610 -0.1509  0.0176
  270TMC3     O 4138   2.491   2.722  15.736  0.4184 -0.3744 -0.1368
  270TMC3     H 4139   2.335   2.524  15.787  1.6021  0.4640 -0.2401
  270TMC3    H1 4140   2.763   2.470  15.845  0.8316 -1.2151  2.4556
  270TMC3    H2 4141   2.514   2.137  15.898 -0.4365  1.3706  2.8570
  270TMC3    C7 4142   2.749   2.216  15.847  0.2227 -0.1240 -0.3177
  270TMC3    C8 4143   2.355   2.245  15.722  0.5145  0.2199 -0.1045
  270TMC3    O1 4144   2.860   2.233  15.894  0.2957  0.2720 -0.2180
  270TMC3    O2 4145   2.413   2.143  15.689 -0.0235  0.7316  0.2904
  271MPD2     C 4146   2.021   2.152  13.936  1.1253 -0.4968 -0.5496
  271MPD2    C1 4147   1.987   2.186  14.063  0.4014 -0.2662 -0.1332
  271MPD2    C2 4148   1.898   2.292  14.076 -0.3983 -0.4674 -0.0395
  271MPD2    C3 4149   1.823   2.338  13.976 -0.1548  0.0783 -0.2513
  271MPD2    C4 4150   1.842   2.290  13.846  0.9457  0.1225 -0.2318
  271MPD2    C5 4151   1.950   2.207  13.825  0.8527 -0.1807 -0.0314
  271MPD2     H 4152   1.874   2.331  14.174 -0.0999  0.7382 -0.4444
  271MPD2    H1 4153   1.790   2.312  13.754 -0.9026 -1.3640  0.4427
  271MPD2    H2 4154   2.092   2.072  13.914  1.9309 -0.6694  2.6797
  271MPD2    H3 4155   1.966   2.169  13.725 -1.1445  0.6444 -0.6551
  271MPD2     N 4156   1.721   2.431  13.988  0.5036 -0.1321 -0.2058
  271MPD2    H5 4157   1.677   2.458  13.900  0.3998  0.4809  0.0345
  271MPD2    N1 4158   2.049   2.143  14.173 -0.7519  0.4536 -0.1147
  271MPD2    H7 4159   1.994   2.157  14.258  0.0104 -1.3829  0.6833
  272TMC3    C1 4160   2.199   2.049  14.321 -0.4292 -0.9561 -0.4342
  272TMC3    C2 4161   2.294   1.956  14.347 -0.5136  0.4692 -0.1319
  272TMC3    C3 4162   2.381   1.976  14.450  0.9454 -0.0170 -0.1687
  272TMC3    C4 4163   2.169   2.135  14.422  0.4148  0.7165 -0.6440
  272TMC3    C5 4164   2.249   2.151  14.537  0.4398  0.6792  0.4564
  272TMC3    C6 4165   2.362   2.072  14.544  0.0121  0.2660  0.0713
  272TMC3     C 4166   2.162   2.074  14.186 -0.6945 -0.3531 -0.0422
  272TMC3     O 4167   2.220   2.013  14.100  0.0584  0.3826 -0.0563
  272TMC3     H 4168   2.296   1.873  14.277  2.1444  1.1233 -0.8252
  272TMC3    H1 4169   2.088   2.208  14.415 -1.0612 -0.8662  0.0543
  272TMC3    H2 4170   2.409   2.069  14.641 -0.8864 -2.5438  0.4104
  272TMC3    C7 4171   2.223   2.254  14.632  0.1435 -0.3816  0.0712
  272TMC3    C8 4172   2.507   1.921  14.419  0.8668 -0.3256  0.3901
  272TMC3    O1 4173   2.106   2.290  14.627 -0.1924  0.1826  0.2586
  272TMC3    O2 4174   2.540   1.922  14.301 -0.0603  0.3555  0.1566
  273MPD2     C 4175   3.719   0.101  12.016  1.0749 -0.0369  0.1617
  273MPD2    C1 4176   3.810   0.209  12.005 -0.7274  0.1602  0.1482
  273MPD2    C2 4177   3.793   0.298  11.901  0.2457 -0.6891 -0.0939
  273MPD2    C3 4178   3.686   0.289  11.809  0.1057  0.4072  0.5371
  273MPD2    C4 4179   3.602   0.182  11.829 -0.0121 -0.4354 -0.0243
  273MPD2    C5 4180   3.611   0.097  11.932 -0.2570  0.1461 -0.1716
  273MPD2     H 4181   3.874   0.367  11.884  1.5873 -1.7843  1.9829
  273MPD2    H1 4182   3.518   0.170  11.761  1.1482  2.2071 -1.9271
  273MPD2    H2 4183   3.734   0.041  12.105  1.4951 -1.6720 -1.0212
  273MPD2    H3 4184   3.543   0.013  11.940 -0.2396 -0.0034 -1.4803
  273MPD2     N 4185   3.674   0.386  11.704 -0.5098  0.3427 -0.0982
  273MPD2    H5 4186   3.606   0.370  11.630 -0.5658 -2.3728  0.5316
  273MPD2    N1 4187   3.899   0.240  12.116  0.0884 -0.2668 -0.1756
  273MPD2    H7 4188   3.886   0.178  12.195 -0.6995  2.3238  1.7021
  274TMC3    C1 4189   3.704   0.589  11.585  0.3439 -0.3787  0.2206
  274TMC3    C2 4190   3.623   0.552  11.481 -0.6713 -0.2892  0.5019
  274TMC3    C3 4191   3.565   0.643  11.400 -0.7239 -0.2596 -0.0509
  274TMC3    C4 4192   3.744   0.723  11.601 -0.1061  0.7388  0.0855
  274TMC3    C5 4193   3.677   0.815  11.522 -0.1988 -0.0081 -0.0040
  274TMC3    C6 4194   3.592   0.780  11.414  0.7327 -0.2663  0.1731
  274TMC3     C 4195   3.740   0.509  11.701  0.0382  0.4086 -0.0347
  274TMC3     O 4196   3.796   0.562  11.798 -0.3401 -0.0448  0.1927
  274TMC3     H 4197   3.594   0.448  11.471  3.9852 -1.5294 -0.3695
  274TMC3    H1 4198   3.807   0.748  11.685  2.6565 -1.6819 -1.2613
  274TMC3    H2 4199   3.527   0.855  11.370 -0.7368 -2.1528 -0.8715
  274TMC3    C7 4200   3.651   0.946  11.576 -0.3415 -0.1434  0.2970
  274TMC3    C8 4201   3.448   0.607  11.329 -0.1323  0.3410  0.7436
  274TMC3    O1 4202   3.604   1.025  11.499 -0.2440 -0.0424  0.1119
  274TMC3    O2 4203   3.396   0.500  11.341  0.4809  0.4627  0.1249
  275MPD2     C 4204   4.064   2.586  14.512  0.6085 -0.4562  0.0236
  275MPD2    C1 4205   3.963   2.647  14.588 -0.9059  0.0698 -0.3517
  275MPD2    C2 4206   3.829   2.643  14.546  0.2068  0.2446  0.0499
  275MPD2    C3 4207   3.792   2.584  14.426 -0.3152 -1.2563 -0.1440
  275MPD2    C4 4208   3.889   2.519  14.357  0.0333 -0.7093  0.2076
  275MPD2    C5 4209   4.023   2.531  14.397 -0.6458  0.1899  0.0440
  275MPD2     H 4210   3.753   2.680  14.614 -2.3517 -1.5434 -1.8411
  275MPD2    H1 4211   3.875   2.488  14.254 -0.5719  0.3071 -0.0092
  275MPD2    H2 4212   4.169   2.585  14.537  0.2315  1.0750  1.6860
  275MPD2    H3 4213   4.100   2.497  14.329 -0.9425 -2.4938  1.0360
  275MPD2     N 4214   3.657   2.606  14.373 -0.2413  0.5071 -0.2880
  275MPD2    H5 4215   3.626   2.557  14.290  1.7103  1.7473 -1.7649
  275MPD2    N1 4216   3.994   2.718  14.706 -0.0152  0.8170  0.1076
  275MPD2    H7 4217   3.917   2.771  14.747  0.7826  1.8493  0.2849
  276TMC3    C1 4218   4.105   2.775  14.898 -0.4398  0.4823 -0.0410
  276TMC3    C2 4219   3.990   2.729  14.957  0.8576  0.2489  0.4926
  276TMC3    C3 4220   3.932   2.809  15.051  0.5669 -0.0677 -0.6543
  276TMC3    C4 4221   4.156   2.902  14.929  0.7003  0.4603 -0.7139
  276TMC3    C5 4222   4.088   2.981  15.018  0.1534  0.0752  0.3397
  276TMC3    C6 4223   3.972   2.938  15.081  0.2227 -0.2569  0.5581
  276TMC3     C 4224   4.122   2.735  14.760  0.4755 -0.4410 -0.7241
  276TMC3     O 4225   4.231   2.690  14.732 -0.2403  0.4669 -0.0917
  276TMC3     H 4226   3.954   2.631  14.931  0.4042  0.3191  0.8471
  276TMC3    H1 4227   4.254   2.934  14.894 -0.0872  4.1990  0.4398
  276TMC3    H2 4228   3.917   3.001  15.152  0.2535 -0.4027  0.7111
  276TMC3    C7 4229   4.117   3.121  15.033  0.1923  0.8598 -0.4885
  276TMC3    C8 4230   3.781   2.797  15.066 -0.1622  0.0977 -0.0186
  276TMC3    O1 4231   4.055   3.176  15.128  0.3395  0.3713 -0.3882
  276TMC3    O2 4232   3.720   2.875  15.138  0.2836  0.2154 -0.2674
  277MPD2     C 4233   0.449   2.510  13.343  0.0773  0.2301  0.4119
  277MPD2    C1 4234   0.330   2.525  13.411  0.5448 -0.4495 -0.4689
  277MPD2    C2 4235   0.255   2.413  13.440 -0.3633 -0.6481  0.2815
  277MPD2    C3 4236   0.301   2.288  13.425  0.7701  0.9586  0.0098
  277MPD2    C4 4237   0.422   2.275  13.361 -0.1863 -0.4428  0.4552
  277MPD2    C5 4238   0.493   2.385  13.318 -0.2718  0.3643 -0.2544
  277MPD2     H 4239   0.159   2.421  13.490 -0.4805  2.2632 -0.4089
  277MPD2    H1 4240   0.458   2.176  13.334  0.4163  0.4205 -1.9684
  277MPD2    H2 4241   0.516   2.590  13.313  1.3029  0.3196  3.3855
  277MPD2    H3 4242   0.580   2.366  13.256  1.8185 -2.7833  3.6975
  277MPD2     N 4243   0.222   2.177  13.463  0.4942 -0.0294 -0.0532
  277MPD2    H5 4244   0.132   2.194  13.507  0.7721 -0.0101  0.5114
  277MPD2    N1 4245   0.289   2.658  13.453  0.3593 -0.1762  0.0614
  277MPD2    H7 4246   0.337   2.739  13.416 -0.9639 -0.0290 -1.3170
  278TMC3    C1 4247   0.178   1.966  13.550 -0.1691  0.3467 -0.4268
  278TMC3    C2 4248   0.160   1.832  13.517 -0.1054 -0.3231 -0.0949
  278TMC3    C3 4249   0.054   1.769  13.577  0.2133  0.0886  0.2570
  278TMC3    C4 4250   0.114   2.025  13.652 -0.9377 -0.4597  0.2772
  278TMC3    C5 4251   0.016   1.961  13.720  0.3198  0.3365 -0.4666
  278TMC3    C6 4252   4.720   1.828  13.679  0.1878  0.0125 -0.1521
  278TMC3     C 4253   0.267   2.045  13.467  0.5265  0.0918  0.0433
  278TMC3     O 4254   0.365   1.998  13.409 -0.0148 -0.3432 -0.1687
  278TMC3     H 4255   0.211   1.775  13.441 -0.5449 -0.9190  0.0572
  278TMC3    H1 4256   0.153   2.123  13.679  1.4154 -1.3593  0.1029
  278TMC3    H2 4257   4.635   1.783  13.728  1.6973 -0.5030  1.9712
  278TMC3    C7 4258   4.687   2.022  13.839 -0.0586  0.2089 -0.2605
  278TMC3    C8 4259   0.035   1.625  13.556 -0.0789 -0.4063  0.4528
  278TMC3    O1 4260   0.018   2.115  13.886 -0.0776  0.0789  0.0793
  278TMC3    O2 4261   0.133   1.563  13.525  0.1650 -0.1224  0.1290
  279MPD2     C 4262   4.184   1.923  17.722 -0.1962  0.5059  0.3444
  279MPD2    C1 4263   4.217   2.049   0.013 -0.0531  0.3123  0.6703
  279MPD2    C2 4264   4.322   2.104  17.686  0.6262 -0.5470  0.2374
  279MPD2    C3 4265   4.385   2.042  17.581 -0.3677 -0.1928  0.2005
  279MPD2    C4 4266   4.353   1.912  17.557 -0.0741  0.1625 -0.0765
  279MPD2    C5 4267   4.253   1.851  17.623  1.0159 -0.2099 -0.3729
  279MPD2     H 4268   4.331   2.210  17.707  1.0119 -0.9893  2.3345
  279MPD2    H1 4269   4.391   1.882  17.459  0.3162  0.6046 -0.0616
  279MPD2    H2 4270   4.094   1.873   0.014  0.6682  0.0171  1.8350
  279MPD2    H3 4271   4.221   1.753  17.590 -0.6495 -0.0391  0.7355
  279MPD2     N 4272   4.477   2.110  17.499  0.1302  0.0824  0.1242
  279MPD2    H5 4273   4.509   2.064  17.415  1.1268 -0.6497  0.9164
  279MPD2    N1 4274   4.143   2.113   0.118  0.1561  0.5374  0.0192
  279MPD2    H7 4275   4.054   2.071   0.142  0.9080 -0.2760  1.4611
  280TMC3    C1 4276   4.064   2.300   0.240  0.1529  0.1425  0.1599
  280TMC3    C2 4277   3.949   2.234   0.272  0.1151 -0.4905  0.6706
  280TMC3    C3 4278   3.838   2.308   0.308 -0.7776 -0.2488  0.1699
  280TMC3    C4 4279   4.063   2.438   0.250  0.0038  0.1538 -0.0527
  280TMC3    C5 4280   3.944   2.507   0.270 -0.5298 -0.8342  0.7667
  280TMC3    C6 4281   3.828   2.443   0.306  0.2422  0.8138  0.4553
  280TMC3     C 4282   4.175   2.239   0.170 -0.0101 -0.4135  0.8834
  280TMC3     O 4283   4.275   2.305   0.157  0.4651  0.2272 -0.1227
  280TMC3     H 4284   3.953   2.126   0.282 -1.6906 -0.7086 -0.8401
  280TMC3    H1 4285   4.151   2.493   0.217 -0.4517 -0.1555 -1.7831
  280TMC3    H2 4286   3.730   2.488   0.321 -0.3129  0.4355 -1.9209
  280TMC3    C7 4287   3.954   2.655   0.257  0.4353  0.0041 -0.8374
  280TMC3    C8 4288   3.723   2.234   0.362 -0.0961 -0.2720 -0.0354
  280TMC3    O1 4289   4.067   2.694   0.250 -0.0606  0.3065  0.1293
  280TMC3    O2 4290   3.658   2.296   0.446 -0.4945  0.0467  0.3227
  281TMC3    C1 4291   2.584   2.289  13.406  0.1270  0.2793 -0.4848
  281TMC3    C2 4292   2.587   2.335  13.279 -0.0893  0.8395 -0.7703
  281TMC3    C3 4293   2.528   2.257  13.185 -0.8958 -0.0003  1.4311
  281TMC3    C4 4294   2.552   2.165  13.434 -0.6331 -0.1497 -0.2728
  281TMC3    C5 4295   2.506   2.082  13.339 -0.1329  0.8644 -0.1570
  281TMC3    C6 4296   2.477   2.132  13.211  0.2429  0.1798 -0.1073
  281TMC3     C 4297   2.663   2.354  13.503 -0.3294 -0.4500  0.0118
  281TMC3     O 4298   2.742   2.281  13.566  0.5089 -0.1703  0.2241
  281TMC3     H 4299   2.614   2.437  13.254 -1.8173  0.9813 -2.0484
  281TMC3    H1 4300   2.547   2.139  13.539  2.3312 -0.2993 -0.1939
  281TMC3    H2 4301   2.432   2.070  13.134 -0.9130  0.7512  0.1170
  281TMC3    C7 4302   2.434   1.962  13.377  0.1480 -0.3497 -0.1559
  281TMC3    C8 4303   2.548   2.299  13.049  0.8260 -0.3674  0.9426
  281TMC3    O1 4304   2.344   1.925  13.307 -0.2130  0.8252  0.4667
  281TMC3    O2 4305   2.584   2.415  13.024 -0.6574 -0.1588 -1.2672
  282MPD2     C 4306   0.418   3.939  15.005  0.4217 -0.1571 -0.1904
  282MPD2    C1 4307   0.289   3.890  15.024 -0.0689 -0.1929  0.1351
  282MPD2    C2 4308   0.227   3.812  14.924 -0.9408 -0.0044  0.3474
  282MPD2    C3 4309   0.291   3.798  14.803  0.3734 -0.1410 -0.2754
  282MPD2    C4 4310   0.416   3.850  14.784 -0.5720 -0.2432 -0.4775
  282MPD2    C5 4311   0.480   3.917  14.887  0.1453  0.2063 -0.1375
  282MPD2     H 4312   0.135   3.758  14.939 -2.2248  2.2074  0.4056
  282MPD2    H1 4313   0.471   3.825  14.694 -0.7236 -0.5055 -0.4978
  282MPD2    H2 4314   0.471   3.997  15.080  0.3873 -0.2353 -0.1060
  282MPD2    H3 4315   0.579   3.954  14.866  1.1844 -3.2358 -1.3727
  282MPD2     N 4316   0.227   3.711  14.704 -0.8554 -0.8139  0.4132
  282MPD2    H5 4317   0.134   3.675  14.722 -1.3513 -0.3009 -1.0684
  282MPD2    N1 4318   0.229   3.913  15.146 -0.1573 -0.0752  0.0796
  282MPD2    H7 4319   0.290   3.958  15.214 -1.0563 -0.2266  0.9736
  283TMC3    C1 4320   0.071   3.935  15.317  0.4825 -0.2956  0.7393
  283TMC3    C2 4321   0.131   4.041  15.374  0.2364 -0.2266 -0.1940
  283TMC3    C3 4322   0.100   4.045  15.510 -1.0657  0.7763  0.6356
  283TMC3    C4 4323   4.729   3.850  15.386 -0.5583  0.1357  0.2823
  283TMC3    C5 4324   4.696   3.865  15.514  0.1519 -0.2699 -0.2928
  283TMC3    C6 4325   0.016   3.966  15.580 -0.8418 -0.5846  0.6186
  283TMC3     C 4326   0.101   3.887  15.184 -0.0449 -0.1318  0.1437
  283TMC3     O 4327   0.020   3.821  15.120  0.2421  0.3590  0.1449
  283TMC3     H 4328   0.207   4.100  15.324  0.8864 -0.4532  0.5191
  283TMC3    H1 4329   4.678   3.770  15.333 -0.1295  1.0092 -1.4476
  283TMC3    H2 4330   4.716   3.985  15.680  2.4913  1.5751  1.3960
  283TMC3    C7 4331   4.600   3.777  15.582 -0.0543 -0.3061  0.1093
  283TMC3    C8 4332   0.130   4.169  15.579 -0.3005 -0.2784  0.2511
  283TMC3    O1 4333   4.556   3.814  15.690  0.4909  0.5181 -0.5930
  283TMC3    O2 4334   0.169   4.160  15.697  0.6751 -0.2955  0.0846
  284MPD2     C 4335   2.272   2.839  12.211 -0.4909 -0.0139  0.3038
  284MPD2    C1 4336   2.329   2.837  12.088 -0.0525  0.2435  0.3893
  284MPD2    C2 4337   2.291   2.732  12.000  0.0792  0.3880  0.5728
  284MPD2    C3 4338   2.217   2.626  12.049  0.2356 -0.3137  0.1389
  284MPD2    C4 4339   2.151   2.640  12.173  0.0617 -0.1271  0.0378
  284MPD2    C5 4340   2.174   2.749  12.252 -0.1795  0.4675  0.2819
  284MPD2     H 4341   2.341   2.724  11.904 -0.2290  0.4125  0.4116
  284MPD2    H1 4342   2.075   2.572  12.209 -0.5812 -0.5139 -2.0820
  284MPD2    H2 4343   2.297   2.918  12.282  0.3107 -1.2020  1.3490
  284MPD2    H3 4344   2.120   2.773  12.343 -0.8790 -0.7236  0.1706
  284MPD2     N 4345   2.206   2.496  11.982 -0.2167 -0.6455 -0.1351
  284MPD2    H5 4346   2.154   2.427  12.035 -0.8815  0.3603  0.5008
  284MPD2    N1 4347   2.425   2.932  12.033 -0.1368 -0.3482 -0.2904
  284MPD2    H7 4348   2.451   2.922  11.935 -0.4693 -1.1956 -0.2921
  285TMC3    C1 4349   2.576   3.113  12.007 -0.6715 -0.5385  1.0078
  285TMC3    C2 4350   2.600   3.057  11.886  0.3185  0.0592 -0.3106
  285TMC3    C3 4351   2.693   3.124  11.810  0.0527  0.1228 -0.5470
  285TMC3    C4 4352   2.634   3.230  12.054 -0.0688  0.1734 -0.8545
  285TMC3    C5 4353   2.722   3.291  11.973 -1.0205  0.0044 -0.0957
  285TMC3    C6 4354   2.745   3.241  11.853 -0.1063  0.1600 -0.4366
  285TMC3     C 4355   2.479   3.047  12.092 -0.1518  0.9674  0.2818
  285TMC3     O 4356   2.450   3.099  12.201  0.2593  0.6320 -0.7527
  285TMC3     H 4357   2.578   2.956  11.851  0.8821 -0.5405  1.0632
  285TMC3    H1 4358   2.600   3.280  12.144  1.0699  1.4069 -1.1119
  285TMC3    H2 4359   2.796   3.304  11.782 -0.5512  0.1397 -0.7744
  285TMC3    C7 4360   2.716   3.433  11.964 -0.5577 -0.2084 -0.6575
  285TMC3    C8 4361   2.700   3.084  11.674 -0.4518  0.3478 -0.3096
  285TMC3    O1 4362   2.824   3.492  11.942 -0.0043  0.5016  0.8669
  285TMC3    O2 4363   2.640   2.986  11.639  0.2271  0.0148 -0.1095
  286MPD2     C 4364   3.622   2.838   1.194 -0.7636 -0.0627  0.6855
  286MPD2    C1 4365   3.585   2.747   1.100 -0.1138 -0.1385 -0.3872
  286MPD2    C2 4366   3.642   2.622   1.095 -0.1485  0.7815 -0.6832
  286MPD2    C3 4367   3.730   2.593   1.194  0.0033  0.7410  0.4396
  286MPD2    C4 4368   3.779   2.684   1.284  0.1537  0.3435 -0.3186
  286MPD2    C5 4369   3.727   2.813   1.277 -0.1368  0.4045 -0.2565
  286MPD2     H 4370   3.607   2.554   1.019 -0.3559 -1.4761  1.4230
  286MPD2    H1 4371   3.850   2.652   1.360  0.8499  1.0976 -0.6483
  286MPD2    H2 4372   3.572   2.934   1.189 -1.5123 -0.4985 -0.0098
  286MPD2    H3 4373   3.757   2.890   1.346  0.1312 -0.0684  0.1529
  286MPD2     N 4374   3.783   2.454   1.209  0.2153  0.0410 -0.1490
  286MPD2    H5 4375   3.864   2.440   1.268 -0.8571  0.7176  1.4933
  286MPD2    N1 4376   3.485   2.774   1.002 -0.9337  0.5836  0.0161
  286MPD2    H7 4377   3.453   2.703   0.937 -2.9321 -0.2160  1.8249
  287TMC3    C1 4378   3.821   2.229   1.149 -0.1833 -0.1354 -0.0286
  287TMC3    C2 4379   3.786   2.132   1.064 -0.9601  0.3475  0.2004
  287TMC3    C3 4380   3.873   2.031   1.043 -0.5296  0.4868  0.2525
  287TMC3    C4 4381   3.947   2.228   1.203 -1.1742  0.4100 -0.1876
  287TMC3    C5 4382   4.033   2.123   1.185  0.2672 -0.4469  0.6880
  287TMC3    C6 4383   3.998   2.022   1.094  0.7498  0.1971  0.8113
  287TMC3     C 4384   3.735   2.344   1.139 -0.1365  0.4214  0.2175
  287TMC3     O 4385   3.631   2.335   1.075 -0.2705 -0.7394  0.1220
  287TMC3     H 4386   3.682   2.110   1.043 -0.0528 -1.2442 -2.5778
  287TMC3    H1 4387   3.987   2.304   1.269 -1.1391  1.3085 -1.2417
  287TMC3    H2 4388   4.054   1.929   1.082 -0.9634 -0.8246  0.8128
  287TMC3    C7 4389   4.159   2.117   1.253 -0.8073  0.0193  0.6364
  287TMC3    C8 4390   3.825   1.913   0.972  0.9707  1.3348 -0.4271
  287TMC3    O1 4391   4.210   2.221   1.293  0.3098 -0.2157  0.0570
  287TMC3    O2 4392   3.707   1.893   0.982 -0.3296 -0.0838 -0.1309
  288TMC3    C1 4393   0.476   1.558  14.146  0.0845 -0.0104  0.1015
  288TMC3    C2 4394   0.429   1.552  14.279 -0.1182  0.1985  0.2305
  288TMC3    C3 4395   0.392   1.667  14.347  0.5428 -0.1005  0.9121
  288TMC3    C4 4396   0.492   1.681  14.090 -0.4267  0.2835 -0.1470
  288TMC3    C5 4397   0.455   1.793  14.153 -0.5890  0.1553  0.0588
  288TMC3    C6 4398   0.410   1.790  14.282 -0.0495 -0.0190 -0.0732
  288TMC3     C 4399   0.491   1.445  14.059  0.7578 -0.5400  0.0504
  288TMC3     O 4400   0.482   1.465  13.937  0.1824 -0.2476 -0.4617
  288TMC3     H 4401   0.418   1.451  14.317  1.2106 -0.9814 -2.4691
  288TMC3    H1 4402   0.536   1.684  13.991 -0.7656  1.0209 -0.2773
  288TMC3    H2 4403   0.377   1.882  14.329  1.2778  0.9170 -0.9769
  288TMC3    C7 4404   0.393   1.905  14.081 -0.3599  0.3612 -0.0759
  288TMC3    C8 4405   0.352   1.682  14.484 -0.0489 -0.4924 -0.1653
  288TMC3    O1 4406   0.299   1.954  14.142 -0.1067 -0.1818 -0.9306
  288TMC3    O2 4407   0.362   1.795  14.529  0.4121 -0.4445  0.6388
  289MPD2     C 4408   0.737   0.739  14.357  0.2635 -0.7628  0.6098
  289MPD2    C1 4409   0.682   0.854  14.413 -0.4274 -0.2397 -0.3082
  289MPD2    C2 4410   0.542   0.872  14.404 -0.0707  0.8999 -0.1530
  289MPD2    C3 4411   0.466   0.787  14.334 -0.0232  0.7520 -0.1852
  289MPD2    C4 4412   0.523   0.679  14.271  1.0603  0.2700  0.3293
  289MPD2    C5 4413   0.658   0.658  14.278 -0.1421  0.1191 -0.1423
  289MPD2     H 4414   0.501   0.962  14.449 -1.7306  0.2384 -0.3459
  289MPD2    H1 4415   0.463   0.610  14.213  1.8352 -0.9649  1.0001
  289MPD2    H2 4416   0.844   0.720  14.363  0.4886 -0.1303 -1.4614
  289MPD2    H3 4417   0.696   0.567  14.234 -0.6954 -0.5776  0.8213
  289MPD2     N 4418   0.328   0.810  14.314  0.3093 -0.6609  0.2550
  289MPD2    H5 4419   0.266   0.754  14.257  0.2069 -2.3531  2.0385
  289MPD2    N1 4420   0.768   0.951  14.473 -0.6804 -0.2619 -0.0581
  289MPD2    H7 4421   0.867   0.935  14.453 -0.1031  2.3256  0.7819
  290TMC3    C1 4422   0.156   0.958  14.248 -0.4913 -0.2942  0.0738
  290TMC3    C2 4423   0.187   1.066  14.172 -0.3518  0.1706  0.0735
  290TMC3    C3 4424   0.132   1.063  14.047  0.4468  0.0580 -0.9809
  290TMC3    C4 4425   0.071   0.854  14.207 -0.5361 -0.4358  0.1872
  290TMC3    C5 4426   0.013   0.870  14.087 -0.7179 -0.0234  0.8846
  290TMC3    C6 4427   0.048   0.967  13.999  0.5076 -0.1578 -0.1610
  290TMC3     C 4428   0.265   0.931  14.336  0.4688 -0.1263 -0.2092
  290TMC3     O 4429   0.296   1.032  14.407 -0.7439 -0.5624  0.3891
  290TMC3     H 4430   0.272   1.130  14.193 -0.8473  0.1482  2.1281
  290TMC3    H1 4431   0.039   0.775  14.273 -0.5586 -0.1363  0.5406
  290TMC3    H2 4432   0.002   0.979  13.902  1.5674 -1.4309 -0.8105
  290TMC3    C7 4433   4.603   0.835  14.067  0.6934 -0.8850 -1.2135
  290TMC3    C8 4434   0.133   1.184  13.975  0.7011  0.4265  0.1228
  290TMC3    O1 4435   4.531   0.892  13.987 -0.3023  0.3890 -0.4353
  290TMC3    O2 4436   0.127   1.175  13.853  0.3376  0.1985 -0.1705
  291MPD2     C 4437   4.187   1.281   0.364  0.4536  0.0994 -0.2719
  291MPD2    C1 4438   4.314   1.236   0.362 -0.0749  0.2219 -0.3551
  291MPD2    C2 4439   4.420   1.322   0.405  1.1683 -0.2361 -0.0143
  291MPD2    C3 4440   4.390   1.453   0.450 -0.0401  0.1435 -0.1789
  291MPD2    C4 4441   4.262   1.500   0.441  0.5373  0.3638  0.8469
  291MPD2    C5 4442   4.159   1.414   0.403  0.4686 -0.1542  0.1680
  291MPD2     H 4443   4.523   1.290   0.411  1.2239  0.1835  1.1897
  291MPD2    H1 4444   4.253   1.607   0.450 -0.1988  0.5146 -1.8948
  291MPD2    H2 4445   4.095   1.227   0.346  0.2577  0.3371  0.0119
  291MPD2    H3 4446   4.059   1.454   0.396  1.1571  0.8788 -3.8960
  291MPD2     N 4447   4.487   1.544   0.476  0.1354  0.4842  0.4517
  291MPD2    H5 4448   4.452   1.634   0.506  0.0763 -0.3267  2.8443
  291MPD2    N1 4449   4.345   1.101   0.326 -0.1636 -0.1668  0.4096
  291MPD2    H7 4450   4.438   1.073   0.357 -0.2253 -1.0572 -0.2199
  292TMC3    C1 4451   4.311   0.867   0.300 -0.1574 -0.0596  0.2406
  292TMC3    C2 4452   4.394   0.855   0.409  0.0447 -0.2234 -0.2388
  292TMC3    C3 4453   4.414   0.724   0.453 -0.0247  0.6476 -0.1056
  292TMC3    C4 4454   4.248   0.767   0.230  0.0795 -0.3286  0.1797
  292TMC3    C5 4455   4.274   0.644   0.281  0.4084  0.0022  0.1316
  292TMC3    C6 4456   4.347   0.622   0.393 -0.5104 -0.8188  0.2856
  292TMC3     C 4457   4.253   1.003   0.286  0.9673 -0.2273  0.1216
  292TMC3     O 4458   4.138   1.017   0.243  0.3937  0.4004 -0.5824
  292TMC3     H 4459   4.413   0.938   0.477  1.7558 -0.1411 -0.8188
  292TMC3    H1 4460   4.189   0.790   0.142 -1.0783 -0.4433  0.9262
  292TMC3    H2 4461   4.370   0.521   0.425  0.2796 -0.9278 -0.6237
  292TMC3    C7 4462   4.223   0.526   0.216  0.0547  0.1424 -0.8453
  292TMC3    C8 4463   4.403   0.707   0.594  0.2970  0.8271  0.1621
  292TMC3    O1 4464   4.286   0.421   0.232  0.0057 -0.4595 -0.0037
  292TMC3    O2 4465   4.491   0.754   0.661  0.3057 -0.4129  0.1452
  293MPD2     C 4466   1.104   2.387  12.754  0.1028 -0.0117  0.5546
  293MPD2    C1 4467   1.039   2.296  12.827 -0.5694  0.2834  0.0402
  293MPD2    C2 4468   1.072   2.285  12.966 -0.6841  0.3685  0.1141
  293MPD2    C3 4469   1.171   2.370  13.019 -0.6614  0.2110  0.2563
  293MPD2    C4 4470   1.245   2.451  12.932 -0.0739 -0.3723 -0.0707
  293MPD2    C5 4471   1.210   2.458  12.802 -0.2807 -0.5443 -0.0070
  293MPD2     H 4472   1.016   2.218  13.030 -1.0452  2.6968  2.2621
  293MPD2    H1 4473   1.326   2.515  12.966  0.7790 -1.1149 -0.7239
  293MPD2    H2 4474   1.083   2.405  12.649  2.0815  1.4094  0.3922
  293MPD2    H3 4475   1.264   2.524  12.736  0.2571  0.3499  1.3200
  293MPD2     N 4476   1.204   2.353  13.153 -0.2148 -0.7411 -0.0445
  293MPD2    H5 4477   1.176   2.270  13.204 -0.9606  0.9559  2.3191
  293MPD2    N1 4478   0.931   2.237  12.766 -0.1525 -0.0794 -0.3014
  293MPD2    H7 4479   0.903   2.266  12.673  1.4888  0.8080 -0.5170
  294TMC3    C1 4480   0.745   2.104  12.719  0.0088 -0.5209  0.0104
  294TMC3    C2 4481   0.713   1.970  12.711  1.1934  0.4062  0.1805
  294TMC3    C3 4482   0.628   1.927  12.613  0.5618 -0.0309  0.0501
  294TMC3    C4 4483   0.683   2.196  12.640  0.2242 -0.3711  0.5260
  294TMC3    C5 4484   0.596   2.146  12.544  0.8373  0.0306 -0.2276
  294TMC3    C6 4485   0.565   2.015  12.529 -0.1362 -0.4004  0.3472
  294TMC3     C 4486   0.860   2.130  12.814 -0.1140 -1.0382  0.2758
  294TMC3     O 4487   0.889   2.057  12.908  0.4209  0.0642  0.0107
  294TMC3     H 4488   0.747   1.906  12.792 -0.0586 -3.3674 -2.2637
  294TMC3    H1 4489   0.721   2.297  12.627 -0.1157 -0.3472 -0.3267
  294TMC3    H2 4490   0.490   1.993  12.454 -1.6542 -1.0895  2.0606
  294TMC3    C7 4491   0.530   2.251  12.457  0.1260  0.2596 -0.3887
  294TMC3    C8 4492   0.605   1.785  12.608  0.0021 -0.8191  0.2875
  294TMC3    O1 4493   0.513   2.356  12.521 -0.5700  0.2100  0.1870
  294TMC3    O2 4494   0.628   1.720  12.706 -0.4081  0.4323 -0.1413
  295MPD2     C 4495   1.272   0.730   1.189  0.2132  0.7882 -0.0243
  295MPD2    C1 4496   1.226   0.812   1.092 -0.9840 -0.5485  0.4954
  295MPD2    C2 4497   1.140   0.914   1.130  1.2221 -0.3411 -0.4607
  295MPD2    C3 4498   1.110   0.928   1.271 -0.0879 -0.2203  0.0664
  295MPD2    C4 4499   1.144   0.836   1.364 -0.5585  0.2455 -0.3321
  295MPD2    C5 4500   1.236   0.739   1.321  0.0629 -0.6590 -0.5345
  295MPD2     H 4501   1.109   0.992   1.061 -0.6635 -0.0492  0.7247
  295MPD2    H1 4502   1.121   0.849   1.470  1.1286  0.2849  0.0301
  295MPD2    H2 4503   1.354   0.660   1.177 -1.0188 -0.2100 -2.4554
  295MPD2    H3 4504   1.283   0.676   1.396  0.4678  2.3084  1.7232
  295MPD2     N 4505   1.024   1.025   1.318  0.1297 -0.3777 -0.4679
  295MPD2    H5 4506   0.989   1.009   1.412  2.4527 -0.0104  0.4595
  295MPD2    N1 4507   1.266   0.808   0.959  0.1664  0.3171  0.9577
  295MPD2    H7 4508   1.244   0.892   0.906 -1.1638 -0.6020  0.0434
  296TMC3    C1 4509   0.864   1.197   1.323  0.2030 -0.2183  0.4930
  296TMC3    C2 4510   0.872   1.333   1.314  0.3090 -0.2538  0.1369
  296TMC3    C3 4511   0.776   1.409   1.381  0.2227  1.2344  0.1144
  296TMC3    C4 4512   0.771   1.133   1.398 -0.0516  0.1741  0.3247
  296TMC3    C5 4513   0.683   1.207   1.467  0.0120 -0.0470 -0.1361
  296TMC3    C6 4514   0.675   1.343   1.445  0.5993 -0.0244 -0.6169
  296TMC3     C 4515   0.970   1.125   1.253  0.2262  0.3211 -0.0244
  296TMC3     O 4516   0.991   1.162   1.139  0.7172 -0.0652 -0.4251
  296TMC3     H 4517   0.961   1.373   1.265  0.9945 -1.4991  0.3782
  296TMC3    H1 4518   0.775   1.025   1.400  0.4304  0.1956  0.6291
  296TMC3    H2 4519   0.606   1.411   1.495  1.6458  1.2754 -0.9323
  296TMC3    C7 4520   0.648   1.159   1.592  1.2919  0.4035 -0.1198
  296TMC3    C8 4521   0.782   1.554   1.374 -0.5161  0.1376 -0.4962
  296TMC3    O1 4522   0.549   1.217   1.639 -0.4375  0.0957  0.0370
  296TMC3    O2 4523   0.690   1.609   1.438 -0.1630  0.5111  0.0211
  297MPD2     C 4524   3.775   2.732  16.075 -0.5110  0.5957 -0.2064
  297MPD2    C1 4525   3.764   2.875  16.051 -0.3913 -0.0981 -0.0721
  297MPD2    C2 4526   3.874   2.930  15.990  0.3699 -0.5262 -0.3045
  297MPD2    C3 4527   3.988   2.863  15.966  0.5785  0.0615  0.0530
  297MPD2    C4 4528   3.995   2.727  15.983  0.3697 -0.0767  0.2481
  297MPD2    C5 4529   3.886   2.662  16.042  0.0010  0.1798  0.1809
  297MPD2     H 4530   3.882   3.035  15.966 -2.8431  0.2160  1.8788
  297MPD2    H1 4531   4.086   2.670  15.970  0.3018 -0.0886 -0.1682
  297MPD2    H2 4532   3.687   2.684  16.117  0.7448 -1.0861  0.5051
  297MPD2    H3 4533   3.878   2.555  16.059 -2.0502  0.5563  1.5682
  297MPD2     N 4534   4.098   2.946  15.926 -0.9546  0.3922 -0.4475
  297MPD2    H5 4535   4.079   3.039  15.892  0.0395  0.9157  0.4151
  297MPD2    N1 4536   3.654   2.959  16.087 -0.4073  0.0862  0.0848
  297MPD2    H7 4537   3.667   3.056  16.062 -1.4282 -0.3694 -2.1335
  298TMC3    C1 4538   3.462   3.037  16.201 -0.0962  0.0341 -0.0083
  298TMC3    C2 4539   3.486   3.149  16.128 -0.0417 -0.4681  0.6677
  298TMC3    C3 4540   3.464   3.269  16.182  0.5896  0.4803  0.4749
  298TMC3    C4 4541   3.426   3.052  16.335 -0.4754 -0.5751 -0.0625
  298TMC3    C5 4542   3.424   3.175  16.394 -0.2972 -0.2845 -0.0495
  298TMC3    C6 4543   3.427   3.283  16.311 -0.8087 -0.6753 -0.2048
  298TMC3     C 4544   3.545   2.927  16.165  0.7835  0.1326  0.0678
  298TMC3     O 4545   3.512   2.819  16.210  0.0051  0.2089  0.1230
  298TMC3     H 4546   3.503   3.141  16.021  0.2974  0.3102  0.6695
  298TMC3    H1 4547   3.414   2.964  16.398  2.4152 -0.9326 -0.0247
  298TMC3    H2 4548   3.424   3.384  16.350  3.2709 -0.2529 -0.9903
  298TMC3    C7 4549   3.365   3.192  16.531 -0.1692 -0.7820 -0.2150
  298TMC3    C8 4550   3.458   3.381  16.097 -0.3077  0.0965  0.7994
  298TMC3    O1 4551   3.321   3.307  16.558 -0.2784 -0.1523 -0.6971
  298TMC3    O2 4552   3.531   3.474  16.114 -0.5025 -0.0056  0.0368
  299MPD2     C 4553   3.827   2.279  11.010 -0.5483  0.6142  0.3907
  299MPD2    C1 4554   3.884   2.377  10.932  0.0407  0.4682  0.4718
  299MPD2    C2 4555   3.828   2.396  10.810 -0.3890 -1.1715  0.2838
  299MPD2    C3 4556   3.710   2.335  10.769  0.3048  0.7307  0.0692
  299MPD2    C4 4557   3.653   2.234  10.852  0.4054 -0.9487 -0.4571
  299MPD2    C5 4558   3.717   2.204  10.970 -1.0094 -0.2252 -0.6266
  299MPD2     H 4559   3.874   2.465  10.740 -2.2701  0.7643  0.9628
  299MPD2    H1 4560   3.562   2.179  10.830  0.6316 -0.5548 -2.3376
  299MPD2    H2 4561   3.865   2.261  11.110  0.1059  0.6188  0.1422
  299MPD2    H3 4562   3.675   2.125  11.030 -1.1242 -0.3196 -0.8327
  299MPD2     N 4563   3.630   2.383  10.664  0.2446  0.3577 -0.3704
  299MPD2    H5 4564   3.536   2.344  10.663  0.2006  0.4002  2.0731
  299MPD2    N1 4565   3.998   2.448  10.980  0.1332 -0.2560  0.1923
  299MPD2    H7 4566   4.044   2.411  11.062 -0.7439  0.8687  1.1984
  300TMC3    C1 4567   3.546   2.520  10.497  0.4011  0.3527  0.1343
  300TMC3    C2 4568   3.570   2.624  10.403 -0.3253 -0.2235  0.3090
  300TMC3    C3 4569   3.480   2.642  10.305  0.4839 -0.3220 -0.2450
  300TMC3    C4 4570   3.432   2.446  10.484  0.1861  0.2645 -0.2134
  300TMC3    C5 4571   3.356   2.463  10.372  0.2777 -0.3518 -0.3265
  300TMC3    C6 4572   3.372   2.565  10.281 -0.4201  0.5406 -1.2586
  300TMC3     C 4573   3.647   2.502  10.596 -0.0077  0.3473 -0.0003
  300TMC3     O 4574   3.745   2.571  10.581 -0.1066 -0.1561  0.2385
  300TMC3     H 4575   3.671   2.663  10.395 -0.2092 -0.3393  1.1446
  300TMC3    H1 4576   3.403   2.363  10.549 -0.6382 -0.5469 -1.6213
  300TMC3    H2 4577   3.304   2.568  10.197 -0.9682  1.1115 -0.7986
  300TMC3    C7 4578   3.233   2.402  10.354 -0.0905 -0.1311 -0.5624
  300TMC3    C8 4579   3.465   2.782  10.292  0.7407 -0.1442  0.0078
  300TMC3    O1 4580   3.209   2.361  10.244  0.1125 -0.0854  0.0110
  300TMC3    O2 4581   3.362   2.816  10.232  0.4302  0.0539  0.1722
  301MPD2     C 4582   1.830   4.057   1.584 -0.4147 -0.4069  0.0756
  301MPD2    C1 4583   1.739   3.980   1.515 -0.3962  1.0834  0.1482
  301MPD2    C2 4584   1.797   3.874   1.439 -0.4813 -0.9614  0.2088
  301MPD2    C3 4585   1.933   3.848   1.443 -0.7285 -0.0181  0.5392
  301MPD2    C4 4586   2.013   3.930   1.527 -0.3040 -0.0307  0.1761
  301MPD2    C5 4587   1.956   4.022   1.606 -0.2801  0.2922  0.5082
  301MPD2     H 4588   1.728   3.813   1.381  0.3887  0.5254 -2.3584
  301MPD2    H1 4589   2.120   3.917   1.535 -0.4409  0.2834  2.5722
  301MPD2    H2 4590   1.797   4.146   1.637  1.6064  1.2442 -1.4382
  301MPD2    H3 4591   2.014   4.080   1.677 -1.7733  0.0372  1.9267
  301MPD2     N 4592   1.997   3.742   1.363  0.3141 -0.6548  0.3017
  301MPD2    H5 4593   2.096   3.724   1.379  0.8961  1.6989 -0.7067
  301MPD2    N1 4594   1.603   4.008   1.495  0.4880  0.1415  0.2689
  301MPD2    H7 4595   1.546   3.955   1.430  2.1813  0.6911 -1.6287
  302TMC3    C1 4596   2.028   3.580   1.199  0.2876  0.8894  0.2968
  302TMC3    C2 4597   2.118   3.500   1.263  0.2044 -0.1815 -0.1756
  302TMC3    C3 4598   2.200   3.421   1.196 -0.1365 -0.4191 -0.1656
  302TMC3    C4 4599   2.009   3.559   1.062 -0.9553 -0.0993  0.2836
  302TMC3    C5 4600   2.101   3.482   0.996  0.0190  0.3136 -0.3842
  302TMC3    C6 4601   2.201   3.417   1.057  0.5965  0.4258  0.2936
  302TMC3     C 4602   1.932   3.663   1.272  0.3971 -0.0435  0.2703
  302TMC3     O 4603   1.819   3.681   1.225  0.4941  0.4670  0.0756
  302TMC3     H 4604   2.143   3.530   1.365  1.7804  2.5477 -1.3493
  302TMC3    H1 4605   1.926   3.615   1.019 -1.3106 -0.8096  0.0412
  302TMC3    H2 4606   2.270   3.351   1.006 -1.0639  0.2405 -1.7339
  302TMC3    C7 4607   2.098   3.480   0.856 -0.2524  0.5640  0.1760
  302TMC3    C8 4608   2.258   3.302   1.266  0.0499 -0.1442  0.2416
  302TMC3    O1 4609   2.204   3.451   0.800  0.2641 -0.3985  0.2529
  302TMC3    O2 4610   2.350   3.245   1.208  0.5492 -0.2903  0.0726
  303MPD2     C 4611   1.623   2.254  10.995 -0.7392  0.3833 -0.3345
  303MPD2    C1 4612   1.608   2.128  10.938 -0.3337  0.3404 -0.0490
  303MPD2    C2 4613   1.641   2.111  10.804  0.3609 -0.2931 -0.0474
  303MPD2    C3 4614   1.682   2.216  10.720 -0.5189 -0.1188  0.3055
  303MPD2    C4 4615   1.698   2.341  10.780 -0.4075  0.5933 -0.5929
  303MPD2    C5 4616   1.664   2.356  10.914 -0.5374 -0.3281  0.0967
  303MPD2     H 4617   1.626   2.015  10.758  1.0023 -0.5003  0.1684
  303MPD2    H1 4618   1.724   2.425  10.717  1.6874  0.2990 -0.1276
  303MPD2    H2 4619   1.600   2.271  11.100  2.4675 -0.8901  0.5713
  303MPD2    H3 4620   1.678   2.457  10.948 -1.4713 -0.8185  1.9318
  303MPD2     N 4621   1.700   2.196  10.580  0.2863  0.2661  0.6051
  303MPD2    H5 4622   1.666   2.112  10.535  0.1314  0.5761  0.1517
  303MPD2    N1 4623   1.567   2.034  11.033  0.5525 -0.6567 -0.4767
  303MPD2    H7 4624   1.548   2.065  11.128 -1.6503 -1.3689 -0.6787
  304TMC3    C1 4625   1.525   1.829  11.135 -0.6841 -0.8029 -0.1178
  304TMC3    C2 4626   1.404   1.855  11.190  1.1931  0.6045  0.3662
  304TMC3    C3 4627   1.324   1.756  11.233 -0.2181  0.1978 -0.1834
  304TMC3    C4 4628   1.576   1.701  11.152  0.1050  0.3856  0.9841
  304TMC3    C5 4629   1.508   1.602  11.222 -0.2591 -0.5109  0.2916
  304TMC3    C6 4630   1.374   1.633  11.255 -1.5965  0.3566 -0.5040
  304TMC3     C 4631   1.572   1.901  11.018  0.4968  0.1043 -0.0508
  304TMC3     O 4632   1.598   1.837  10.914 -0.2090 -0.0804  0.2845
  304TMC3     H 4633   1.372   1.959  11.181 -0.0144  0.1030 -1.1851
  304TMC3    H1 4634   1.676   1.688  11.113  0.1572  1.4755  0.7586
  304TMC3    H2 4635   1.321   1.548  11.297 -0.4786  0.9866  2.1673
  304TMC3    C7 4636   1.546   1.468  11.196  0.0645 -0.0828  0.7758
  304TMC3    C8 4637   1.209   1.737  11.143  0.0539  0.0729  0.1149
  304TMC3    O1 4638   1.665   1.458  11.170 -0.1924 -0.0850  0.7019
  304TMC3    O2 4639   1.162   1.625  11.134  0.2143  0.3630 -0.8509
  305MPD2     C 4640   0.127   3.999  14.260 -0.2577 -0.8441 -0.0489
  305MPD2    C1 4641   0.253   3.982  14.217  0.1504  0.0764  0.2723
  305MPD2    C2 4642   0.283   3.936  14.086  0.4893  0.1010 -0.4752
  305MPD2    C3 4643   0.181   3.886  14.010  0.0060 -0.2469  0.3330
  305MPD2    C4 4644   0.054   3.908  14.058  0.6651  0.9132  0.0662
  305MPD2    C5 4645   0.029   3.972  14.177  0.1527  0.4232  0.1810
  305MPD2     H 4646   0.385   3.930  14.048  0.1875 -1.9640 -0.9581
  305MPD2    H1 4647   4.701   3.876  14.005 -0.9613  1.7366  2.3190
  305MPD2    H2 4648   0.094   4.049  14.351 -0.0811  1.4223 -1.2148
  305MPD2    H3 4649   4.663   3.998  14.202 -0.4967 -0.3418 -1.7114
  305MPD2     N 4650   0.193   3.827  13.884 -0.1340  0.4058  0.3550
  305MPD2    H5 4651   0.114   3.805  13.824  0.3915  0.5650 -0.4031
  305MPD2    N1 4652   0.359   4.014  14.303  0.1604  0.2026  0.4570
  305MPD2    H7 4653   0.338   4.060  14.391 -2.2772 -2.4486  1.2612
  306TMC3    C1 4654   0.558   4.022  14.405  0.3347  0.6093 -0.1180
  306TMC3    C2 4655   0.665   3.961  14.460 -0.2516  0.5938  0.2218
  306TMC3    C3 4656   0.734   4.016  14.566 -0.0439 -0.6388 -0.0151
  306TMC3    C4 4657   0.516   4.142  14.460 -0.9097 -0.2306 -0.0182
  306TMC3    C5 4658   0.599   4.201  14.554  0.2891  0.0967  0.3681
  306TMC3    C6 4659   0.702   4.136  14.615  0.7035 -0.0232 -0.4688
  306TMC3     C 4660   0.483   3.966  14.298 -0.3325  0.7372  0.7284
  306TMC3     O 4661   0.525   3.866  14.243  0.3883 -0.7945  0.0369
  306TMC3     H 4662   0.703   3.869  14.417 -1.9170  0.9912 -2.1224
  306TMC3    H1 4663   0.429   4.196  14.424 -0.0279  1.3507  0.2420
  306TMC3    H2 4664   0.765   4.183  14.690 -1.6106 -1.3569  2.3079
  306TMC3    C7 4665   0.541   4.322  14.617  0.4352  1.0339 -0.4088
  306TMC3    C8 4666   0.823   3.928  14.642 -0.1118  0.2051 -0.2071
  306TMC3    O1 4667   0.419   4.335  14.602 -0.1881  0.2118  0.5185
  306TMC3    O2 4668   0.864   3.839  14.571 -0.7311  0.3438 -0.1808
  307MPD2     C 4669   2.885   1.870  17.395  0.6017  0.3278 -0.0541
  307MPD2    C1 4670   2.897   1.987  17.466 -0.0161  0.0411  0.3570
  307MPD2    C2 4671   2.864   1.983  17.599  0.4603 -0.0957 -0.4220
  307MPD2    C3 4672   2.831   1.863  17.664  0.0994  0.0705  0.2226
  307MPD2    C4 4673   2.825   1.750  17.588 -0.1883 -0.4533 -0.6461
  307MPD2    C5 4674   2.853   1.748  17.454 -0.1198  0.4160  0.5749
  307MPD2     H 4675   2.860   2.076  17.656  0.8978  0.3391 -1.1053
  307MPD2    H1 4676   2.786   1.663  17.639  1.8453 -0.5747  0.7059
  307MPD2    H2 4677   2.904   1.867  17.288 -0.7316 -0.8801 -0.2500
  307MPD2    H3 4678   2.815   1.675  17.383 -2.4971  2.1578  0.0549
  307MPD2     N 4679   2.793   1.872   0.054 -0.0068 -0.4558  0.0508
  307MPD2    H5 4680   2.788   1.965   0.094  1.6868 -0.5047  0.3759
  307MPD2    N1 4681   2.937   2.116  17.416  0.5127  0.6157  0.7053
  307MPD2    H7 4682   2.930   2.191  17.483  2.1395  0.3159  1.2183
  308TMC3    C1 4683   2.501   1.778   0.386  0.3717  1.2787 -0.0485
  308TMC3    C2 4684   2.555   1.867   0.478  0.3502  0.9179 -0.2351
  308TMC3    C3 4685   2.672   1.928   0.453 -0.2056 -0.9282  0.2189
  308TMC3    C4 4686   2.566   1.758   0.270 -1.0738  0.3206  0.2133
  308TMC3    C5 4687   2.689   1.807   0.254 -0.2266  0.2286 -0.1085
  308TMC3    C6 4688   2.738   1.903   0.339 -0.1035  0.6493 -0.0679
  308TMC3     C 4689   2.360   1.773   0.371  0.7719 -0.2994  0.2687
  308TMC3     O 4690   2.312   1.682   0.304  0.5078  0.6988 -0.4171
  308TMC3     H 4691   2.508   1.894   0.571  0.9644  0.0104  0.3287
  308TMC3    H1 4692   2.511   1.723   0.183  1.5168 -1.9177 -0.5329
  308TMC3    H2 4693   2.837   1.946   0.328 -0.1149  1.3344  2.4530
  308TMC3    C7 4694   2.758   1.766   0.133  0.3638  0.7656 -0.7939
  308TMC3    C8 4695   2.693   2.060   0.511  0.5226  0.5052 -0.9922
  308TMC3    O1 4696   2.729   1.652   0.102 -0.1073  0.4620 -0.4917
  308TMC3    O2 4697   2.727   2.062   0.627 -0.1673  0.0818 -0.0893
  309MPD2     C 4698   2.238   2.410  17.232 -0.5365  0.1792  0.3193
  309MPD2    C1 4699   2.184   2.491  17.138 -0.0784 -0.3596  0.2497
  309MPD2    C2 4700   2.109   2.593  17.179 -0.3724  0.0950  0.7378
  309MPD2    C3 4701   2.076   2.621  17.308 -0.5229 -0.8281  0.2336
  309MPD2    C4 4702   2.121   2.532  17.403 -0.7718 -0.1063 -0.1206
  309MPD2    C5 4703   2.206   2.427  17.367  0.3095  0.1976  0.1934
  309MPD2     H 4704   2.052   2.645  17.103  1.2946  0.4575 -0.2473
  309MPD2    H1 4705   2.089   2.539  17.507 -0.6311 -0.1975 -0.0692
  309MPD2    H2 4706   2.314   2.340  17.201 -1.1191  0.2306 -1.2274
  309MPD2    H3 4707   2.251   2.363  17.442  3.2602  1.0544 -0.8626
  309MPD2     N 4708   1.987   2.731  17.330 -0.2813 -0.3865 -0.0159
  309MPD2    H5 4709   1.943   2.744  17.421  1.5127  2.3622  0.4848
  309MPD2    N1 4710   2.198   2.463  17.003 -0.4576 -0.8026 -0.2748
  309MPD2    H7 4711   2.140   2.526  16.948 -0.2092  1.3457  1.8907
  310TMC3    C1 4712   2.268   2.378  16.789  0.3184  0.0246  0.5934
  310TMC3    C2 4713   2.161   2.438  16.728 -0.1488 -0.1789 -0.2939
  310TMC3    C3 4714   2.154   2.433  16.590  0.3656 -0.5456  0.8829
  310TMC3    C4 4715   2.372   2.322  16.718 -0.5762  0.0432 -0.3291
  310TMC3    C5 4716   2.358   2.316  16.581 -0.0791 -0.0601 -0.2062
  310TMC3    C6 4717   2.256   2.377  16.517 -0.4754 -0.1766 -0.3562
  310TMC3     C 4718   2.273   2.363  16.935 -0.1905 -1.2067  0.1955
  310TMC3     O 4719   2.337   2.270  16.983  0.4153  0.1719  0.1144
  310TMC3     H 4720   2.075   2.460  16.790 -0.1621 -0.4057 -0.2315
  310TMC3    H1 4721   2.453   2.279  16.776 -1.5794 -2.8946 -1.1310
  310TMC3    H2 4722   2.244   2.371  16.409  3.9758  0.8895 -0.9085
  310TMC3    C7 4723   2.464   2.267  16.498  0.3087  0.6480 -0.3735
  310TMC3    C8 4724   2.059   2.518  16.513 -0.5103  0.7545 -0.1586
  310TMC3    O1 4725   2.435   2.234  16.386 -0.1595 -0.1480 -0.6342
  310TMC3    O2 4726   2.080   2.519  16.395  0.2344  0.3329 -0.0595
  311MPD2     C 4727   3.878   3.563  12.774  0.5891  0.4521 -0.4694
  311MPD2    C1 4728   3.881   3.599  12.909 -0.6526 -0.4244  0.1171
  311MPD2    C2 4729   3.762   3.612  12.976 -0.6046  0.7659  0.2704
  311MPD2    C3 4730   3.637   3.601  12.913  0.0681  0.2970  0.9518
  311MPD2    C4 4731   3.638   3.573  12.778 -0.1940  0.4298 -0.1268
  311MPD2    C5 4732   3.755   3.556  12.713 -0.4783  0.6840  0.1436
  311MPD2     H 4733   3.764   3.631  13.083 -1.0398 -0.3820  0.4842
  311MPD2    H1 4734   3.553   3.580  12.711 -0.8547 -3.3409  0.2858
  311MPD2    H2 4735   3.970   3.559  12.717  0.8907  1.8929 -0.0824
  311MPD2    H3 4736   3.750   3.535  12.607 -2.4074  0.3893  0.2807
  311MPD2     N 4737   3.518   3.631  12.987 -0.1155 -0.3306 -0.5661
  311MPD2    H5 4738   3.536   3.650  13.085  0.0041 -0.1722 -0.6196
  311MPD2    N1 4739   3.999   3.612  12.983 -0.1827 -0.2199 -0.0343
  311MPD2    H7 4740   3.994   3.658  13.073  0.0105  2.6650 -1.5235
  312TMC3    C1 4741   3.292   3.661  13.042 -0.6733 -0.0503 -0.6730
  312TMC3    C2 4742   3.168   3.608  13.030 -1.0399 -0.4364  0.1134
  312TMC3    C3 4743   3.065   3.660  13.098  0.1075  0.2070 -0.3898
  312TMC3    C4 4744   3.328   3.754  13.143  0.9345  0.0137  0.9341
  312TMC3    C5 4745   3.217   3.787  13.219  0.0421  0.1372  0.2106
  312TMC3    C6 4746   3.085   3.757  13.193  0.5794 -0.3136  0.0510
  312TMC3     C 4747   3.390   3.608  12.945 -0.2792 -0.3817 -0.6158
  312TMC3     O 4748   3.347   3.563  12.838 -0.4697  0.1043  0.0782
  312TMC3     H 4749   3.144   3.524  12.965  1.1499 -1.5103  0.6972
  312TMC3    H1 4750   3.428   3.794  13.154  1.3390 -0.5801 -0.4552
  312TMC3    H2 4751   3.003   3.790  13.256  0.8649 -0.8707  0.7165
  312TMC3    C7 4752   3.245   3.888  13.320 -0.6827 -0.4534  0.9241
  312TMC3    C8 4753   2.933   3.645  13.044 -0.3231  0.0325  0.1603
  312TMC3    O1 4754   3.149   3.957  13.347 -0.0926  0.3503  0.2932
  312TMC3    O2 4755   2.905   3.540  12.985  0.6626 -0.1168 -0.1470
  313MPD2     C 4756   2.504   3.372  11.638 -0.2021 -0.4861  0.2214
  313MPD2    C1 4757   2.546   3.366  11.509 -0.0175 -0.3441  0.1256
  313MPD2    C2 4758   2.494   3.277  11.419  0.2327  0.1416 -0.1829
  313MPD2    C3 4759   2.396   3.194  11.451  0.8361 -0.2588  0.5056
  313MPD2    C4 4760   2.353   3.194  11.586 -0.1859 -0.5637  0.7942
  313MPD2    C5 4761   2.406   3.282  11.675  0.3023  0.4106  0.9663
  313MPD2     H 4762   2.540   3.276  11.320 -0.4411 -0.1741 -0.4949
  313MPD2    H1 4763   2.278   3.122  11.615 -0.5633 -0.7395 -0.5809
  313MPD2    H2 4764   2.551   3.433  11.715 -1.1519  1.8208 -1.0155
  313MPD2    H3 4765   2.384   3.282  11.782 -0.3384 -1.2962  0.8291
  313MPD2     N 4766   2.353   3.099  11.361 -0.4852 -0.5093  0.7825
  313MPD2    H5 4767   2.375   3.110  11.262  1.7139  0.6999  1.4061
  313MPD2    N1 4768   2.635   3.460  11.468 -0.0952  0.0072 -0.4292
  313MPD2    H7 4769   2.643   3.486  11.371 -2.0867 -0.2124 -0.6425
  314TMC3    C1 4770   2.757   3.655  11.488 -0.1042  0.0280  0.2868
  314TMC3    C2 4771   2.855   3.729  11.551  0.4516  0.2017  0.4112
  314TMC3    C3 4772   2.889   3.851  11.494  0.0406 -0.6439 -0.0651
  314TMC3    C4 4773   2.698   3.701  11.367 -0.1024  0.2537 -0.3309
  314TMC3    C5 4774   2.725   3.828  11.331  0.0103 -0.3419  0.9755
  314TMC3    C6 4775   2.820   3.907  11.390  0.3099  0.0203 -0.2924
  314TMC3     C 4776   2.718   3.529  11.548  0.4001 -0.0162 -0.0276
  314TMC3     O 4777   2.773   3.491  11.651 -0.1047  0.1874  0.1739
  314TMC3     H 4778   2.887   3.700  11.650  2.2655 -0.8670 -0.4767
  314TMC3    H1 4779   2.623   3.648  11.310  0.0142 -0.6913  0.3757
  314TMC3    H2 4780   2.857   3.990  11.332 -0.2684 -1.7352 -3.1585
  314TMC3    C7 4781   2.691   3.855  11.194  0.9878  1.0678 -0.1138
  314TMC3    C8 4782   3.017   3.914  11.527  0.4546 -0.2679 -0.2363
  314TMC3    O1 4783   2.624   3.953  11.162 -0.4717 -0.2920  0.8267
  314TMC3    O2 4784   3.034   4.031  11.494 -0.2778  0.0401 -0.4153
  315MPD2     C 4785   2.838   2.601   0.251  0.5086 -0.7844  0.0023
  315MPD2    C1 4786   2.954   2.617   0.327 -0.2925 -0.2209 -0.0299
  315MPD2    C2 4787   3.013   2.741   0.328  0.0889  0.2954 -0.6547
  315MPD2    C3 4788   2.952   2.852   0.269 -0.0978  0.5545  1.2329
  315MPD2    C4 4789   2.835   2.834   0.190  0.0070 -0.1904 -0.4882
  315MPD2    C5 4790   2.784   2.702   0.170 -0.6284 -0.3162 -0.5071
  315MPD2     H 4791   3.107   2.750   0.382  0.4153 -0.8440 -1.0382
  315MPD2    H1 4792   2.796   2.922   0.141  2.1787  1.6167  1.0122
  315MPD2    H2 4793   2.771   2.516   0.253 -0.0030 -0.3946 -0.7539
  315MPD2    H3 4794   2.696   2.694   0.107  0.0498  2.4848 -1.7814
  315MPD2     N 4795   3.019   2.975   0.260 -0.0792  0.1595  0.4163
  315MPD2    H5 4796   3.109   2.976   0.308  0.0921  0.7979  0.0816
  315MPD2    N1 4797   3.018   2.508   0.391  0.2714 -0.7127 -0.4526
  315MPD2    H7 4798   3.112   2.533   0.420 -0.5489 -1.3416  2.7406
  316TMC3    C1 4799   3.098   3.187   0.177 -0.0043  0.7238 -0.0285
  316TMC3    C2 4800   3.236   3.149   0.183 -0.0861 -0.2221 -0.3012
  316TMC3    C3 4801   3.334   3.251   0.188 -0.2601 -0.2641 -0.0402
  316TMC3    C4 4802   3.060   3.323   0.170 -0.2245  0.3474  0.0059
  316TMC3    C5 4803   3.160   3.417   0.172 -0.3002 -0.6200 -0.7962
  316TMC3    C6 4804   3.295   3.384   0.193 -0.5712  0.2993 -0.6501
  316TMC3     C 4805   2.990   3.087   0.188 -0.3375  0.1190 -0.3940
  316TMC3     O 4806   2.888   3.118   0.129 -0.0323  0.2249 -0.3779
  316TMC3     H 4807   3.271   3.047   0.193 -1.3869 -0.6744 -0.2947
  316TMC3    H1 4808   2.956   3.353   0.156 -0.3782  1.1086  2.7856
  316TMC3    H2 4809   3.361   3.469   0.182  0.7947 -0.7373 -0.4406
  316TMC3    C7 4810   3.131   3.548   0.121 -0.5283  0.7257 -0.6230
  316TMC3    C8 4811   3.481   3.221   0.218  0.3467 -0.7013 -0.0249
  316TMC3    O1 4812   3.185   3.645   0.172  0.5987  0.0413  0.3803
  316TMC3    O2 4813   3.556   3.320   0.226 -0.9748  0.1992  0.6127
  317MPD2     C 4814   0.521   0.581  12.514 -0.3819  0.2870  0.1379
  317MPD2    C1 4815   0.641   0.571  12.583 -0.5734  0.2575  0.2718
  317MPD2    C2 4816   0.631   0.556  12.721 -0.2242 -0.7363  0.4581
  317MPD2    C3 4817   0.512   0.563  12.789 -0.1577  0.4045 -0.5476
  317MPD2    C4 4818   0.398   0.592  12.718  0.2873  0.0272 -0.0557
  317MPD2    C5 4819   0.406   0.600  12.581 -0.2935 -0.2583 -0.1939
  317MPD2     H 4820   0.722   0.541  12.778 -0.4189 -1.0822  0.6818
  317MPD2    H1 4821   0.306   0.615  12.770  0.4093 -3.0693  1.5456
  317MPD2    H2 4822   0.506   0.616  12.413  1.0446  1.2398  0.2642
  317MPD2    H3 4823   0.322   0.631  12.521  0.4910  0.9518 -0.6622
  317MPD2     N 4824   0.514   0.544  12.931 -0.3270  0.3328 -0.9690
  317MPD2    H5 4825   0.599   0.501  12.967  0.0015 -0.6891 -2.9838
  317MPD2    N1 4826   0.768   0.571  12.528  0.1174  1.1316  0.3324
  317MPD2    H7 4827   0.845   0.559  12.594  1.7553  0.3900 -1.7146
  318TMC3    C1 4828   0.441   0.531  13.141  0.1397 -0.3415  0.0468
  318TMC3    C2 4829   0.359   0.466  13.228 -0.3636  0.8398  0.0590
  318TMC3    C3 4830   0.414   0.428  13.346 -0.1784  0.9954 -0.3801
  318TMC3    C4 4831   0.567   0.568  13.173 -0.5026 -0.7710 -0.3790
  318TMC3    C5 4832   0.616   0.531  13.289  0.0772  0.2486 -0.2432
  318TMC3    C6 4833   0.539   0.471  13.386  0.2027  0.0455  0.2912
  318TMC3     C 4834   0.404   0.560  13.007 -0.1193  0.2383 -0.2277
  318TMC3     O 4835   0.287   0.602  12.988  0.1327 -0.3269  0.3855
  318TMC3     H 4836   0.267   0.424  13.188 -0.5038 -1.0782  2.4255
  318TMC3    H1 4837   0.615   0.645  13.114  1.6090 -0.8442  1.2426
  318TMC3    H2 4838   0.571   0.444  13.486  0.6074 -0.2057  0.0951
  318TMC3    C7 4839   0.754   0.577  13.326  0.5121 -0.1348  0.3042
  318TMC3    C8 4840   0.339   0.341  13.438  0.0461 -0.1584  0.1469
  318TMC3    O1 4841   0.798   0.655  13.243 -0.0497 -0.2206  0.5582
  318TMC3    O2 4842   0.401   0.298  13.537 -0.5054  0.2685 -0.1681
  319MPD2     C 4843   1.739   2.247  16.563  0.3898  0.0117 -0.0119
  319MPD2    C1 4844   1.664   2.168  16.654  0.3415  0.0761  0.4923
  319MPD2    C2 4845   1.534   2.120  16.615  0.3369 -0.2070  0.4779
  319MPD2    C3 4846   1.479   2.169  16.495 -0.3900 -1.1189 -0.6806
  319MPD2    C4 4847   1.563   2.234  16.407 -0.6108  0.1456 -0.5925
  319MPD2    C5 4848   1.685   2.275  16.440  0.6613 -0.1741 -0.6164
  319MPD2     H 4849   1.472   2.059  16.679  0.1371 -0.0318  0.4531
  319MPD2    H1 4850   1.527   2.267  16.311  2.1167  0.2062 -1.5793
  319MPD2    H2 4851   1.839   2.281  16.585  0.6183 -0.4367 -0.3731
  319MPD2    H3 4852   1.744   2.335  16.371 -1.1156  2.1852 -0.0751
  319MPD2     N 4853   1.349   2.147  16.450  0.1979  0.0221  0.1686
  319MPD2    H5 4854   1.321   2.196  16.366 -0.7006  0.0024  0.4591
  319MPD2    N1 4855   1.707   2.128  16.786  0.2801 -0.2046 -0.4170
  319MPD2    H7 4856   1.663   2.050  16.833 -2.2214  1.8925  0.7385
  320TMC3    C1 4857   1.132   2.050  16.426 -0.0906  0.1601 -0.5331
  320TMC3    C2 4858   1.114   2.118  16.307  0.5985 -0.0943 -1.4217
  320TMC3    C3 4859   1.025   2.070  16.210 -0.2284 -0.0849 -0.0090
  320TMC3    C4 4860   1.053   1.940  16.457  0.1612  0.6479 -0.5648
  320TMC3    C5 4861   0.964   1.899  16.364  0.1475 -0.8464  0.5390
  320TMC3    C6 4862   0.948   1.958  16.241 -1.0270  0.4663  0.2418
  320TMC3     C 4863   1.259   2.062  16.507  0.7361 -0.0479 -0.3629
  320TMC3     O 4864   1.275   1.991  16.606  0.1769 -0.0308  0.2664
  320TMC3     H 4865   1.162   2.207  16.268 -1.1637  0.9515 -1.2013
  320TMC3    H1 4866   1.068   1.875  16.542 -0.7918  1.5945  0.3301
  320TMC3    H2 4867   0.873   1.912  16.178 -0.9689  1.1818 -0.3590
  320TMC3    C7 4868   0.894   1.772  16.382  0.3841 -0.1515  0.3026
  320TMC3    C8 4869   0.990   2.147  16.093  0.1726  0.8135  0.4837
  320TMC3    O1 4870   0.956   1.682  16.439 -0.1266 -0.1918  0.3415
  320TMC3    O2 4871   1.008   2.269  16.098  0.0640  0.5277  0.1602
  321TMC3    C1 4872   1.864   2.102  16.962  0.6527  0.1273 -0.1970
  321TMC3    C2 4873   1.865   1.964  16.953  0.0481 -0.4867  0.2515
  321TMC3    C3 4874   1.956   1.891  17.020 -0.0073  0.0798  0.2669
  321TMC3    C4 4875   1.949   2.166  17.046  0.2637  0.6225 -0.0460
  321TMC3    C5 4876   2.038   2.088  17.117 -0.3320 -0.6259  0.8872
  321TMC3    C6 4877   2.046   1.952  17.105 -0.0669  0.4896 -0.4043
  321TMC3     C 4878   1.820   2.181  16.854  0.8531 -0.2241 -0.7096
  321TMC3     O 4879   1.865   2.291  16.827 -0.1144 -0.1184 -0.3184
  321TMC3     H 4880   1.822   1.915  16.866  1.4546 -2.7363  0.8281
  321TMC3    H1 4881   1.944   2.273  17.062  3.1933  0.7030  0.3563
  321TMC3    H2 4882   2.118   1.887  17.153 -1.2258  0.1660  0.8808
  321TMC3    C7 4883   2.041   2.111  17.260  0.5516  0.0617 -0.1799
  321TMC3    C8 4884   1.906   1.772  17.090 -0.0246  0.3164 -0.2882
  321TMC3    O1 4885   2.101   2.023  17.320  0.0430 -0.0856  0.4235
  321TMC3    O2 4886   1.800   1.789  17.146  0.6665 -0.2305 -0.0154
  322MPD2     C 4887   4.734   3.205  13.984  0.2056 -0.3453 -0.5219
  322MPD2    C1 4888   0.131   3.209  13.960 -0.1154 -0.4162 -0.0673
  322MPD2    C2 4889   0.200   3.093  13.949 -0.6626 -0.6843 -0.6241
  322MPD2    C3 4890   0.144   2.968  13.959 -0.0356 -0.1794  0.3892
  322MPD2    C4 4891   0.008   2.962  13.974 -0.3638  0.2629 -1.1674
  322MPD2    C5 4892   4.675   3.082  13.986  0.0926 -0.2048  0.1358
  322MPD2     H 4893   0.305   3.091  13.921 -0.5264  2.5558 -0.3496
  322MPD2    H1 4894   4.697   2.866  13.963  1.8870 -0.7877 -1.6767
  322MPD2    H2 4895   4.673   3.295  13.990  1.3801  0.5027 -1.1048
  322MPD2    H3 4896   4.567   3.071  13.994  0.2508 -2.2693 -0.3371
  322MPD2     N 4897   0.227   2.856  13.948 -0.3940 -0.3281  0.1808
  322MPD2    H5 4898   0.324   2.880  13.930 -0.9703  0.5345 -1.7269
  322MPD2    N1 4899   0.199   3.328  13.979 -0.4181 -0.1667 -0.5789
  322MPD2    H7 4900   0.148   3.405  14.019  0.5748  0.1359  0.1035
  323TMC3    C1 4901   0.389   3.466  14.002  0.2927 -0.1067 -0.2184
  323TMC3    C2 4902   0.509   3.508  13.948  0.0087  0.1274 -0.3253
  323TMC3    C3 4903   0.604   3.556  14.035  0.3162 -0.3571  0.2775
  323TMC3    C4 4904   0.365   3.488  14.134  0.7924  0.2664  0.0360
  323TMC3    C5 4905   0.458   3.534  14.217 -0.5577 -0.4788  0.3810
  323TMC3    C6 4906   0.581   3.579  14.168 -0.6611 -0.0680  0.1637
  323TMC3     C 4907   0.328   3.356  13.942  0.0051  0.5591  0.2521
  323TMC3     O 4908   0.393   3.298  13.856  0.1621  0.0956  0.5080
  323TMC3     H 4909   0.536   3.487  13.845 -1.4103  1.1689 -0.9118
  323TMC3    H1 4910   0.281   3.439  14.182  1.8219 -0.9104  0.6444
  323TMC3    H2 4911   0.661   3.591  14.240  1.4460  0.1300 -2.2272
  323TMC3    C7 4912   0.461   3.460  14.343  0.4228 -0.9146  0.9332
  323TMC3    C8 4913   0.751   3.554  13.997 -0.1948 -0.7068  0.7107
  323TMC3    O1 4914   0.397   3.355  14.353  0.1596  0.5833 -0.6225
  323TMC3    O2 4915   0.827   3.614  14.068 -0.0596 -0.1767 -0.0281
  324MPD2     C 4916   1.611   4.001  14.708 -0.3632  0.1022 -0.0176
  324MPD2    C1 4917   1.634   4.104  14.613 -0.3513 -0.0621  0.8246
  324MPD2    C2 4918   1.537   4.124  14.517  0.2512  0.2509 -0.2753
  324MPD2    C3 4919   1.418   4.050  14.518 -0.6193 -0.0200 -0.7476
  324MPD2    C4 4920   1.388   3.952  14.613  0.4686  0.4292  0.0005
  324MPD2    C5 4921   1.484   3.945  14.715  1.3127 -0.2501  1.0192
  324MPD2     H 4922   1.554   4.202  14.443  1.9423  1.2194  1.1507
  324MPD2    H1 4923   1.295   3.897  14.619 -0.5756  2.0876 -1.0432
  324MPD2    H2 4924   1.681   3.982  14.788  0.5749 -1.4199 -1.1941
  324MPD2    H3 4925   1.461   3.879  14.797 -2.5826 -0.3229 -0.1241
  324MPD2     N 4926   1.315   4.078  14.419  0.5774  0.3966  0.1847
  324MPD2    H5 4927   1.220   4.051  14.442  0.0436  0.1481 -2.2744
  324MPD2    N1 4928   1.755   4.184  14.618  0.7378 -0.5605 -0.1468
  324MPD2    H7 4929   1.771   4.242  14.536 -0.2158 -0.4886 -0.2872
  325TMC3    C1 4930   1.233   4.221  14.252 -0.0980  0.8236  0.1898
  325TMC3    C2 4931   1.108   4.201  14.303  0.0772 -0.2658  0.4985
  325TMC3    C3 4932   1.013   4.295  14.270  0.2474 -0.3830 -0.0535
  325TMC3    C4 4933   1.272   4.324  14.182 -0.4245  0.4496 -0.0317
  325TMC3    C5 4934   1.175   4.417  14.166 -0.9177  0.4289 -0.6084
  325TMC3    C6 4935   1.041   4.407  14.205 -0.3717 -0.5069 -0.1561
  325TMC3     C 4936   1.344   4.144  14.304  0.6328 -0.4206  0.4135
  325TMC3     O 4937   1.452   4.153  14.248  0.0105  0.4517  0.0286
  325TMC3     H 4938   1.083   4.102  14.338  0.9933 -0.1974  1.3276
  325TMC3    H1 4939   1.375   4.344  14.154 -0.5920 -1.1165 -1.7506
  325TMC3    H2 4940   0.959   4.461  14.160  1.3024  2.0676 -0.1623
  325TMC3    C7 4941   1.210   4.555  14.161  0.2234 -0.1649 -0.5580
  325TMC3    C8 4942   0.887   4.235  14.233  0.4651 -0.5895  0.7369
  325TMC3    O1 4943   1.310   4.594  14.098 -0.1450 -0.5397 -0.3123
  325TMC3    O2 4944   0.891   4.123  14.183  0.0643  0.0798  0.1667
  326MPD2     C 4945   3.059   0.920  11.654  0.0294  0.3963  0.1042
  326MPD2    C1 4946   3.056   0.921  11.514  1.0301 -0.1828  0.0621
  326MPD2    C2 4947   3.155   0.985  11.452  0.3503  0.5449  0.7753
  326MPD2    C3 4948   3.254   1.056  11.519 -0.6642 -0.1011  0.2991
  326MPD2    C4 4949   3.250   1.064  11.657  0.2068 -0.1549 -0.5609
  326MPD2    C5 4950   3.158   0.985  11.722 -0.2713  0.6600 -0.5738
  326MPD2     H 4951   3.152   0.999  11.344 -1.2080  1.4448  0.9342
  326MPD2    H1 4952   3.325   1.118  11.714  0.7393 -1.5905  0.0808
  326MPD2    H2 4953   2.990   0.857  11.709 -0.4092  1.7889  1.1493
  326MPD2    H3 4954   3.148   0.978  11.829 -1.8679  1.8695 -0.6421
  326MPD2     N 4955   3.350   1.131  11.444 -0.6068  0.8569 -0.1221
  326MPD2    H5 4956   3.394   1.201  11.503 -2.1424 -0.7491  2.9183
  326MPD2    N1 4957   2.947   0.865  11.440 -0.1487 -0.2696 -0.1797
  326MPD2    H7 4958   2.950   0.872  11.339  0.3305  2.4539  0.0208
  327TMC3    C1 4959   2.754   0.765  11.388  0.2908  0.1461  0.2076
  327TMC3    C2 4960   2.645   0.841  11.347 -0.2139  0.4052  0.5492
  327TMC3    C3 4961   2.589   0.798  11.229  0.1701 -0.3604  0.4874
  327TMC3    C4 4962   2.812   0.675  11.306  0.1782 -0.4735 -0.5663
  327TMC3    C5 4963   2.748   0.633  11.199  0.2542  0.1723  0.8300
  327TMC3    C6 4964   2.638   0.693  11.159  1.6744 -0.3937 -0.5806
  327TMC3     C 4965   2.834   0.817  11.492  0.1073 -0.2687 -0.3415
  327TMC3     O 4966   2.784   0.819  11.599 -0.1303 -0.3547 -0.1383
  327TMC3     H 4967   2.611   0.925  11.406  1.0033  0.4785  1.1384
  327TMC3    H1 4968   2.903   0.624  11.335  0.2731 -0.2335 -0.4361
  327TMC3    H2 4969   2.583   0.657  11.072  1.0631 -1.8746  0.4263
  327TMC3    C7 4970   2.834   0.592  11.083 -0.8877  0.2921 -0.1206
  327TMC3    C8 4971   2.495   0.884  11.178 -0.1439 -0.6798 -0.4739
  327TMC3    O1 4972   2.797   0.630  10.973  0.0488 -0.5313  0.0868
  327TMC3    O2 4973   2.482   0.883  11.056 -0.3761  0.1558 -0.5102
  328MPD2     C 4974   0.793   1.069  17.243  0.0594  0.4139  0.1643
  328MPD2    C1 4975   0.682   1.015  17.301  0.2245 -0.5385 -0.3820
  328MPD2    C2 4976   0.562   1.017  17.224  0.5389 -0.5119 -0.1429
  328MPD2    C3 4977   0.560   1.076  17.096 -0.3977 -0.7739 -0.6249
  328MPD2    C4 4978   0.679   1.134  17.048  0.2440  0.7683 -0.1723
  328MPD2    C5 4979   0.794   1.134  17.124  0.2406  0.0902  0.0073
  328MPD2     H 4980   0.473   0.967  17.260 -0.0693  2.0912  1.9460
  328MPD2    H1 4981   0.688   1.173  16.948 -2.5134 -0.3634 -0.8638
  328MPD2    H2 4982   0.889   1.069  17.294  0.4308 -0.5901 -0.5293
  328MPD2    H3 4983   0.887   1.178  17.091  0.5032 -0.6842 -0.2874
  328MPD2     N 4984   0.444   1.074  17.024  0.0817 -0.1606 -0.4078
  328MPD2    H5 4985   0.448   1.124  16.936  2.0830 -0.0055 -0.2376
  328MPD2    N1 4986   0.697   0.956  17.429 -0.2680 -0.5319  0.2175
  328MPD2    H7 4987   0.786   0.961  17.478 -0.6731 -1.5547  1.0607
  329TMC3    C1 4988   0.623   0.866  17.634  0.1146  0.0624  0.0510
  329TMC3    C2 4989   0.666   0.973  17.702 -0.2687  0.1143 -0.5275
  329TMC3    C3 4990   0.636   0.981   0.089  0.3194  0.3525 -0.7224
  329TMC3    C4 4991   0.551   0.769  17.699 -0.4380  0.4595 -0.1128
  329TMC3    C5 4992   0.505   0.786   0.085 -0.3578 -0.7043 -0.4623
  329TMC3    C6 4993   0.554   0.895   0.154  0.5942  0.0722  0.3522
  329TMC3     C 4994   0.597   0.887  17.492 -0.3483 -0.9647  0.9148
  329TMC3     O 4995   0.508   0.829  17.432  0.1525  0.2501 -0.0300
  329TMC3     H 4996   0.700   1.063  17.651  1.1442  0.4937  1.0922
  329TMC3    H1 4997   0.526   0.682  17.640  2.1172 -0.0085 -0.4819
  329TMC3    H2 4998   0.538   0.902   0.261  3.6455  0.3357  0.7929
  329TMC3    C7 4999   0.441   0.673   0.149 -0.2133  1.1714  0.3103
  329TMC3    C8 5000   0.682   1.087   0.167 -0.0424 -0.0074  1.3039
  329TMC3    O1 5001   0.450   0.561   0.099 -0.2891  0.0434  0.2477
  329TMC3    O2 5002   0.800   1.111   0.152  0.7036  0.3202  0.1255
  330TMC3    C1 5003   3.191   0.460  10.423  0.4848  0.3146 -0.2226
  330TMC3    C2 5004   3.127   0.392  10.326  0.5540  0.2573 -0.0693
  330TMC3    C3 5005   3.145   0.255  10.308  0.0995  0.4986  0.1321
  330TMC3    C4 5006   3.292   0.404  10.498  0.2220  0.1450 -0.3830
  330TMC3    C5 5007   3.315   0.272  10.463 -0.2404  0.3002 -1.3847
  330TMC3    C6 5008   3.241   0.192  10.381  0.3299 -0.2267 -0.3020
  330TMC3     C 5009   3.171   0.601  10.457  0.6761  0.3387 -0.8150
  330TMC3     O 5010   3.224   0.658  10.552 -0.0766  0.6812  0.1048
  330TMC3     H 5011   3.060   0.447  10.261  1.0857  1.2679  0.2390
  330TMC3    H1 5012   3.367   0.463  10.549  0.5497  0.0526 -0.7592
  330TMC3    H2 5013   3.266   0.091  10.350  1.4926 -0.7975  2.5610
  330TMC3    C7 5014   3.427   0.209  10.520 -0.0750  0.1330 -0.4067
  330TMC3    C8 5015   3.122   0.191  10.179 -0.1900  0.1034  0.5396
  330TMC3    O1 5016   3.459   0.241  10.636 -0.3916  0.5148  0.3988
  330TMC3    O2 5017   3.105   0.266  10.081  0.1716  0.1899 -0.1826
  331MPD2     C 5018   1.098   3.949  13.389 -0.0460  0.8224  0.4276
  331MPD2    C1 5019   1.217   3.907  13.326  0.8033  0.7448  0.4704
  331MPD2    C2 5020   1.241   3.768  13.309  0.5291  0.2493  0.0097
  331MPD2    C3 5021   1.142   3.683  13.343  0.2990 -0.7290 -0.4661
  331MPD2    C4 5022   1.028   3.726  13.407 -0.3044 -0.1140 -1.0144
  331MPD2    C5 5023   1.009   3.858  13.429 -0.0762 -0.7004  0.8586
  331MPD2     H 5024   1.328   3.740  13.251 -0.8481 -2.2768 -0.8429
  331MPD2    H1 5025   0.952   3.658  13.443  0.7083 -0.5924  0.1897
  331MPD2    H2 5026   1.078   4.054  13.411 -1.0944  0.9985 -1.3076
  331MPD2    H3 5027   0.915   3.898  13.467 -1.0923 -0.5107 -1.7927
  331MPD2     N 5028   1.146   3.544  13.318 -0.0315 -0.3521  0.7348
  331MPD2    H5 5029   1.066   3.486  13.342 -0.6248  1.2822  2.6292
  331MPD2    N1 5030   1.290   4.001  13.247 -0.0808 -0.3759  0.2238
  331MPD2    H7 5031   1.276   4.098  13.271  0.4055  0.2924 -2.1925
  332TMC3    C1 5032   1.205   3.346  13.220  0.3132 -0.6633  0.5621
  332TMC3    C2 5033   1.085   3.338  13.150  0.1248 -0.2616  0.1001
  332TMC3    C3 5034   1.067   3.238  13.053  0.5293  0.3679  0.4226
  332TMC3    C4 5035   1.301   3.246  13.207  0.0860 -0.2052  0.1140
  332TMC3    C5 5036   1.271   3.142  13.119  0.2456  0.4867 -0.3793
  332TMC3    C6 5037   1.155   3.137  13.045  0.4833  0.4633  0.3973
  332TMC3     C 5038   1.251   3.473  13.273  0.1807 -0.6165 -0.4000
  332TMC3     O 5039   1.370   3.494  13.273 -0.1147 -0.0174  0.0897
  332TMC3     H 5040   1.015   3.421  13.154 -0.7414 -1.0588  1.3904
  332TMC3    H1 5041   1.392   3.263  13.263  1.4207  0.5189 -2.2882
  332TMC3    H2 5042   1.143   3.063  12.967  0.1208  0.9431  0.0009
  332TMC3    C7 5043   1.374   3.051  13.077  0.5009 -0.6852  0.0186
  332TMC3    C8 5044   1.008   3.274  12.921 -0.2350  0.4991  0.2503
  332TMC3    O1 5045   1.342   2.936  13.062  0.6799  0.6983  0.1828
  332TMC3    O2 5046   1.054   3.215  12.823  0.1700 -0.1403 -0.4893
  333MPD2     C 5047   1.184   4.188  11.301 -0.1538 -0.1133  0.4386
  333MPD2    C1 5048   1.292   4.108  11.299 -0.1407 -0.4100  0.6936
  333MPD2    C2 5049   1.269   3.972  11.295 -0.0720 -0.3568  0.1693
  333MPD2    C3 5050   1.139   3.916  11.306  0.2210 -0.1127  0.3346
  333MPD2    C4 5051   1.031   4.001  11.313 -0.4772 -0.1232 -0.2072
  333MPD2    C5 5052   1.057   4.138  11.309  0.7154 -0.1091  0.8756
  333MPD2     H 5053   1.352   3.903  11.310  0.5394  0.4171  0.3858
  333MPD2    H1 5054   0.929   3.966  11.309 -0.3873 -0.6886  2.1655
  333MPD2    H2 5055   1.190   4.296  11.313  0.0557 -0.2585  1.6363
  333MPD2    H3 5056   0.972   4.205  11.302 -0.3852 -1.7359 -1.0869
  333MPD2     N 5057   1.125   3.777  11.321 -0.4623 -0.5594  0.5607
  333MPD2    H5 5058   1.214   3.729  11.315  1.0004  2.2382  0.0069
  333MPD2    N1 5059   1.421   4.169  11.295  0.4352 -0.0639 -0.3992
  333MPD2    H7 5060   1.423   4.271  11.300  0.7173 -0.0693 -0.4358
  334TMC3    C1 5061   1.652   4.202  11.283  0.0564 -0.3586 -0.5199
  334TMC3    C2 5062   1.758   4.154  11.210 -0.4000 -0.9064 -0.4575
  334TMC3    C3 5063   1.838   4.238  11.140 -0.5666 -0.8682  0.1176
  334TMC3    C4 5064   1.645   4.338  11.312 -0.7410 -0.4124  0.4217
  334TMC3    C5 5065   1.751   4.415  11.270  0.2674  1.0055  0.1866
  334TMC3    C6 5066   1.835   4.374  11.164 -0.5194 -0.0273 -0.4948
  334TMC3     C 5067   1.540   4.107  11.287  0.9286  0.6109  0.3218
  334TMC3     O 5068   1.559   3.987  11.271  0.0423  0.2214  0.2537
  334TMC3     H 5069   1.770   4.047  11.202  1.2144 -0.7742  0.1504
  334TMC3    H1 5070   1.570   4.363  11.386 -2.2038 -1.1940 -0.7958
  334TMC3    H2 5071   1.899   4.439  11.105  0.8485 -0.3729  0.5939
  334TMC3    C7 5072   1.750   4.560  11.285 -0.5412  0.6522  0.2894
  334TMC3    C8 5073   1.929   4.176  11.049 -0.2515 -0.3272  0.1707
  334TMC3    O1 5074   1.846   4.630  11.260 -0.1847  0.2164 -0.4073
  334TMC3    O2 5075   1.897   4.063  11.013  0.2752 -0.0169  0.3672
  335TMC3    C1 5076   1.192   0.549  17.352  0.0928 -0.4231 -0.1217
  335TMC3    C2 5077   1.160   0.551  17.217 -0.0246 -0.5556  0.1741
  335TMC3    C3 5078   1.268   0.544  17.130 -0.2623  0.4135  0.2654
  335TMC3    C4 5079   1.320   0.527  17.403  0.1341 -0.5911  0.2277
  335TMC3    C5 5080   1.419   0.509  17.311 -0.3090 -0.3373  0.9613
  335TMC3    C6 5081   1.395   0.509  17.172  0.6787  0.0271 -0.0831
  335TMC3     C 5082   1.077   0.529  17.442  0.4661  0.0186  0.4058
  335TMC3     O 5083   0.986   0.469  17.387 -0.5049 -0.0017  0.6834
  335TMC3     H 5084   1.061   0.586  17.191 -0.7266 -1.5646  1.4363
  335TMC3    H1 5085   1.343   0.534  17.509  1.4383  1.2397 -0.1565
  335TMC3    H2 5086   1.474   0.501  17.098  2.4254 -0.7985  1.8707
  335TMC3    C7 5087   1.559   0.512  17.347 -0.0316 -0.3705  0.1040
  335TMC3    C8 5088   1.226   0.504  16.999 -0.3108 -0.2988  0.3587
  335TMC3    O1 5089   1.633   0.538  17.257 -0.4912  0.0483  0.0668
  335TMC3    O2 5090   1.314   0.512  16.909 -0.2083  0.4424  0.4134
  336MPD2     C 5091   0.991   3.472  16.520 -0.2591 -0.6684  1.0254
  336MPD2    C1 5092   1.010   3.429  16.387  0.3851  0.0512  0.3013
  336MPD2    C2 5093   1.017   3.290  16.369 -0.0014  0.5277 -0.1121
  336MPD2    C3 5094   1.023   3.201  16.473 -0.0870 -0.2342  0.1160
  336MPD2    C4 5095   1.008   3.246  16.602 -0.5987 -0.6565  0.1744
  336MPD2    C5 5096   1.002   3.380  16.621  0.7682 -0.2691 -0.4585
  336MPD2     H 5097   1.017   3.251  16.268 -0.9828  0.1712  0.0275
  336MPD2    H1 5098   1.016   3.182  16.689 -3.4670  1.5325  2.0351
  336MPD2    H2 5099   0.977   3.575  16.550  1.7337 -0.4709  1.2726
  336MPD2    H3 5100   1.010   3.412  16.724  2.2036  0.5849 -0.8351
  336MPD2     N 5101   1.017   3.062  16.452  0.2601 -0.0840  0.1335
  336MPD2    H5 5102   1.012   3.007  16.537 -1.7758  0.6923  0.5095
  336MPD2    N1 5103   0.998   3.512  16.275  0.0382 -0.5213  0.7905
  336MPD2    H7 5104   1.015   3.471  16.184 -4.2264 -1.4026  0.3881
  337TMC3    C1 5105   0.951   3.693  16.133 -0.2600 -0.9742 -0.0843
  337TMC3    C2 5106   0.843   3.767  16.100 -0.6569 -0.6289  0.2988
  337TMC3    C3 5107   0.824   3.812  15.974 -0.0323  0.1210 -0.5482
  337TMC3    C4 5108   1.041   3.661  16.043  0.4854 -0.2009 -0.3966
  337TMC3    C5 5109   1.021   3.709  15.921  0.9072  0.4886 -0.6419
  337TMC3    C6 5110   0.921   3.789  15.879  0.0521  0.2921  0.3844
  337TMC3     C 5111   0.958   3.641  16.274 -0.3885 -0.6314 -0.1108
  337TMC3     O 5112   0.923   3.718  16.363  0.8567  0.1284  0.0805
  337TMC3     H 5113   0.764   3.784  16.172 -0.3551 -1.3514  0.7982
  337TMC3    H1 5114   1.134   3.615  16.075 -0.6141 -0.7982  1.9703
  337TMC3    H2 5115   0.898   3.800  15.774 -1.6905  0.8916  0.8301
  337TMC3    C7 5116   1.127   3.687  15.822 -0.5889 -0.1688  0.6061
  337TMC3    C8 5117   0.688   3.836  15.930 -0.2679 -0.4095 -0.6034
  337TMC3    O1 5118   1.134   3.766  15.723 -0.1556 -0.0842 -0.5811
  337TMC3    O2 5119   0.619   3.898  16.008  0.4744 -0.6555 -1.3213
  338MPD2     C 5120   2.231   2.721   0.989  0.1074 -0.1490  0.5533
  338MPD2    C1 5121   2.152   2.800   0.903  0.7979  0.5950  0.4538
  338MPD2    C2 5122   2.077   2.905   0.951  0.6710 -0.9890  0.3379
  338MPD2    C3 5123   2.058   2.922   1.088 -0.1489  0.5428 -0.6063
  338MPD2    C4 5124   2.133   2.839   1.170 -0.1020  0.0617  0.5222
  338MPD2    C5 5125   2.222   2.743   1.120  0.6323 -0.3512  0.3062
  338MPD2     H 5126   2.023   2.965   0.879  1.6064 -2.5721 -1.6632
  338MPD2    H1 5127   2.124   2.839   1.278  1.6981 -0.5019  0.6711
  338MPD2    H2 5128   2.292   2.636   0.963  0.1542 -0.6439  2.2527
  338MPD2    H3 5129   2.275   2.682   1.191  2.3832 -0.2027 -0.8674
  338MPD2     N 5130   1.970   3.023   1.134 -0.1278  0.4621  0.0390
  338MPD2    H5 5131   1.919   3.076   1.063  1.3438  0.6386 -0.8741
  338MPD2    N1 5132   2.149   2.778   0.763 -0.3833  0.7841  0.1439
  338MPD2    H7 5133   2.087   2.842   0.714 -1.1947  0.7012  1.0501
  339TMC3    C1 5134   1.831   3.144   1.282 -0.1049  0.4805 -0.1033
  339TMC3    C2 5135   1.742   3.123   1.386  0.1815 -0.5343  0.2343
  339TMC3    C3 5136   1.639   3.212   1.394 -0.6616 -0.4709  0.0716
  339TMC3    C4 5137   1.833   3.249   1.197  0.4012  0.7640 -0.6224
  339TMC3    C5 5138   1.726   3.337   1.220 -0.4102 -0.3467 -0.6011
  339TMC3    C6 5139   1.626   3.318   1.310 -0.6685 -0.6857 -0.1504
  339TMC3     C 5140   1.918   3.026   1.263 -0.3037 -0.0138  0.2648
  339TMC3     O 5141   1.931   2.942   1.350  0.3505  0.7029 -0.5318
  339TMC3     H 5142   1.756   3.052   1.467  0.5058 -2.4448 -1.4791
  339TMC3    H1 5143   1.913   3.272   1.127  1.6753  2.0507  1.2649
  339TMC3    H2 5144   1.544   3.388   1.320  0.4270  0.4967  0.5712
  339TMC3    C7 5145   1.672   3.373   1.085 -0.0364  0.2938  0.0345
  339TMC3    C8 5146   1.522   3.177   1.459  0.0453  0.0592  0.1579
  339TMC3    O1 5147   1.764   3.379   1.002  0.1957  0.2571 -0.0202
  339TMC3    O2 5148   1.436   3.263   1.458 -0.6107 -0.1732 -0.0871
  340MPD2     C 5149   0.934   0.105  10.608 -0.1769  0.0391  0.8770
  340MPD2    C1 5150   1.023   0.201  10.562  0.6007 -1.2976 -0.7462
  340MPD2    C2 5151   1.116   0.253  10.651 -0.2738  0.6733  0.5786
  340MPD2    C3 5152   1.125   0.208  10.781  0.0259 -0.5312 -0.3137
  340MPD2    C4 5153   1.038   0.114  10.824 -0.3388  0.0129  0.4540
  340MPD2    C5 5154   0.941   0.064  10.737  0.2887 -0.7392  0.0083
  340MPD2     H 5155   1.190   0.322  10.613  1.4154 -1.6129 -0.2781
  340MPD2    H1 5156   1.031   0.076  10.925  2.3246  1.1232  1.0471
  340MPD2    H2 5157   0.861   0.062  10.541  0.2564 -0.5733  0.7935
  340MPD2    H3 5158   0.880   4.718  10.772  1.2318 -2.3284 -2.1636
  340MPD2     N 5159   1.220   0.251  10.871 -0.0393  0.3083 -0.0606
  340MPD2    H5 5160   1.229   0.189  10.951 -0.7257  3.1194  2.2011
  340MPD2    N1 5161   1.024   0.227  10.427  0.0262  0.0361 -0.0471
  340MPD2    H7 5162   0.959   0.175  10.369  0.2526  0.5314 -0.7386
  341TMC3    C1 5163   1.125   0.278  10.219  0.4817 -0.1887  0.3693
  341TMC3    C2 5164   1.092   0.150  10.178 -0.0791  0.3124  0.3002
  341TMC3    C3 5165   1.153   0.100  10.070  0.4963 -0.0411  0.7453
  341TMC3    C4 5166   1.226   0.341  10.161 -0.1017  0.6525  0.8257
  341TMC3    C5 5167   1.282   0.286  10.049  0.3900 -0.2713 -0.0319
  341TMC3    C6 5168   1.256   0.160  10.009  0.2661  0.4706 -0.3048
  341TMC3     C 5169   1.104   0.314  10.357  0.3046 -0.5843  0.0136
  341TMC3     O 5170   1.176   0.404  10.406  0.6123 -0.1744 -0.0179
  341TMC3     H 5171   1.016   0.086  10.223  0.1260  0.2731  0.5846
  341TMC3    H1 5172   1.225   0.449  10.174  0.7402  0.7292  0.2806
  341TMC3    H2 5173   1.294   0.121   9.916 -0.8782 -0.2609 -0.4630
  341TMC3    C7 5174   1.373   0.357   9.961 -0.2232 -0.2250  0.2988
  341TMC3    C8 5175   1.085   4.716  10.021 -0.3571 -0.1044  0.1788
  341TMC3    O1 5176   1.419   0.291   9.874 -0.0051  0.6805 -0.9178
  341TMC3    O2 5177   1.008   4.652  10.097  0.1656 -0.0775 -0.1076
  342MPD2     C 5178   3.620   3.961  17.446  0.5083  0.5178  0.2865
  342MPD2    C1 5179   3.752   3.938  17.441 -0.4619  0.7875 -0.0651
  342MPD2    C2 5180   3.845   4.044  17.429 -0.3902  0.2230 -0.3741
  342MPD2    C3 5181   3.796   4.171  17.451 -0.6218  0.5445  0.6173
  342MPD2    C4 5182   3.661   4.186  17.467  0.1591  0.3408  0.3346
  342MPD2    C5 5183   3.577   4.086  17.466 -0.4575  0.6274 -0.2160
  342MPD2     H 5184   3.949   4.017  17.422  0.1742  2.5116 -0.6577
  342MPD2    H1 5185   3.629   4.287  17.491 -1.7191  0.2393 -1.7609
  342MPD2    H2 5186   3.556   3.874  17.446 -0.6778  1.3997 -0.7936
  342MPD2    H3 5187   3.473   4.100  17.491 -1.2335  1.1624 -3.7688
  342MPD2     N 5188   3.881   4.286  17.457  1.0216 -1.0745  0.0100
  342MPD2    H5 5189   3.836   4.365  17.503  1.0428 -0.6711 -0.6617
  342MPD2    N1 5190   3.818   3.811  17.431  0.4564  0.8085 -0.1369
  342MPD2    H7 5191   3.915   3.820  17.403  0.8389  2.0091  1.5945
  343TMC3    C1 5192   3.855   3.581  17.437  0.3835  0.1170  0.2713
  343TMC3    C2 5193   3.987   3.613  17.387  0.1370 -0.2442  0.5666
  343TMC3    C3 5194   4.080   3.516  17.380  0.4176 -0.6463 -0.3130
  343TMC3    C4 5195   3.824   3.451  17.452 -0.0182  0.2725 -0.1951
  343TMC3    C5 5196   3.924   3.355  17.443  0.8832 -0.8297  0.1107
  343TMC3    C6 5197   4.051   3.381  17.409  0.8025  0.6000 -0.3706
  343TMC3     C 5198   3.763   3.685  17.463  0.2364  0.3905 -0.6325
  343TMC3     O 5199   3.654   3.659  17.508 -0.2056  0.2537 -0.0050
  343TMC3     H 5200   4.022   3.711  17.357  0.4416 -0.5738 -0.1482
  343TMC3    H1 5201   3.727   3.424  17.493  0.9232 -1.7133  0.7235
  343TMC3    H2 5202   4.125   3.302  17.412 -0.5616 -0.6322  1.0637
  343TMC3    C7 5203   3.880   3.217  17.422 -0.4280  0.0617 -0.0976
  343TMC3    C8 5204   4.220   3.559  17.389  0.9543 -0.2231 -0.1813
  343TMC3    O1 5205   3.936   3.158  17.331  0.2030  0.3977 -0.4173
  343TMC3    O2 5206   4.238   3.675  17.421  0.0420  0.3038  0.3127
  344MPD2     C 5207   0.052   2.924  11.025 -0.4883 -0.5001  0.7695
  344MPD2    C1 5208   4.660   2.943  10.974 -0.0869  0.0933 -0.5224
  344MPD2    C2 5209   4.630   3.069  10.921 -0.2688  0.0970  0.3741
  344MPD2    C3 5210   4.724   3.171  10.928 -0.0204 -0.3835 -0.1346
  344MPD2    C4 5211   0.112   3.148  10.979  0.7056 -0.2463  0.1400
  344MPD2    C5 5212   0.153   3.020  11.023 -0.0955 -0.2188 -0.4784
  344MPD2     H 5213   4.529   3.086  10.884 -0.7518 -1.4073  1.0445
  344MPD2    H1 5214   0.179   3.232  10.987 -0.6523  0.8451 -0.0330
  344MPD2    H2 5215   0.083   2.830  11.069  0.4638 -0.4952  0.1322
  344MPD2    H3 5216   0.247   2.991  11.067  0.1353 -0.3290 -1.0480
  344MPD2     N 5217   4.685   3.305  10.903  0.1552  0.5354 -0.2976
  344MPD2    H5 5218   0.032   3.364  10.903 -0.7315  1.7734  0.1362
  344MPD2    N1 5219   4.571   2.848  11.011  0.3916 -0.4103  0.5239
  344MPD2    H7 5220   4.593   2.770  11.071 -0.0630  1.1116  2.6759
  345TMC3    C1 5221   4.549   3.500  10.880 -0.4474 -0.4863  0.7588
  345TMC3    C2 5222   4.657   3.574  10.902  0.4084  0.2005 -0.4759
  345TMC3    C3 5223   4.631   3.700  10.960 -0.0135  0.1084  0.2977
  345TMC3    C4 5224   4.419   3.542  10.892  0.1373  0.1837  0.3155
  345TMC3    C5 5225   4.402   3.668  10.939  0.7421  0.0192 -0.4496
  345TMC3    C6 5226   4.508   3.745  10.973  0.5038 -0.3906  0.8770
  345TMC3     C 5227   4.557   3.355  10.896  0.2858 -0.3149 -0.5681
  345TMC3     O 5228   4.455   3.290  10.889  0.2573 -0.4915  0.6014
  345TMC3     H 5229   0.015   3.555  10.852 -0.0466 -0.9137 -0.9163
  345TMC3    H1 5230   4.334   3.480  10.864 -1.3015  2.6531 -0.7544
  345TMC3    H2 5231   4.497   3.841  11.023  0.7010  0.2831 -0.3727
  345TMC3    C7 5232   4.317   3.756  10.857  0.1626 -0.0075  0.0113
  345TMC3    C8 5233   4.731   3.799  10.959  0.0753  0.3106  0.0217
  345TMC3    O1 5234   4.352   3.874  10.845 -0.8623 -0.1675 -0.3972
  345TMC3    O2 5235   4.686   3.914  10.963  0.0641  0.4737 -0.7988
  346MPD2     C 5236   0.207   0.574  14.464 -0.2966  0.1664 -0.4913
  346MPD2    C1 5237   0.275   0.467  14.405 -0.1158  0.6106  0.4074
  346MPD2    C2 5238   0.374   0.405  14.474 -0.0831 -0.3157 -1.7178
  346MPD2    C3 5239   0.405   0.446  14.598  0.1679 -0.3639  0.8171
  346MPD2    C4 5240   0.325   0.544  14.668 -0.5492 -0.5020 -0.1597
  346MPD2    C5 5241   0.232   0.605  14.596 -0.5374 -0.4620  0.0134
  346MPD2     H 5242   0.440   0.334  14.427  1.3412 -1.0564  1.3861
  346MPD2    H1 5243   0.359   0.585  14.763  0.5687  0.4333 -0.9607
  346MPD2    H2 5244   0.136   0.635  14.409 -1.0677 -1.7852 -1.6397
  346MPD2    H3 5245   0.168   0.686  14.630 -0.5111 -0.1845 -0.6020
  346MPD2     N 5246   0.516   0.385  14.664 -0.1380  0.3400 -0.0661
  346MPD2    H5 5247   0.579   0.338  14.599  0.8062 -1.5449  2.2152
  346MPD2    N1 5248   0.255   0.430  14.269 -0.1239 -0.4448  0.1742
  346MPD2    H7 5249   0.334   0.381  14.228  1.4524  0.5160  2.1031
  347TMC3    C1 5250   0.680   0.337  14.821  0.1051  0.3049 -0.1054
  347TMC3    C2 5251   0.736   0.247  14.734 -0.0731  0.6172 -0.4744
  347TMC3    C3 5252   0.874   0.242  14.730 -0.3199  0.9481  0.1332
  347TMC3    C4 5253   0.749   0.416  14.911  0.3652 -0.5416 -0.2926
  347TMC3    C5 5254   0.883   0.407  14.903 -0.5890  0.5025 -0.4760
  347TMC3    C6 5255   0.950   0.333  14.810 -0.2046  0.0793  0.1244
  347TMC3     C 5256   0.539   0.380  14.801 -1.0993  0.5093 -0.4189
  347TMC3     O 5257   0.474   0.426  14.896 -0.7760 -0.1528 -0.4759
  347TMC3     H 5258   0.679   0.182  14.668 -0.2407  0.1825  0.0964
  347TMC3    H1 5259   0.699   0.500  14.957  0.4607  0.2281 -1.5725
  347TMC3    H2 5260   1.054   0.344  14.783 -0.4956  0.2125 -0.9455
  347TMC3    C7 5261   0.962   0.510  14.958 -0.5447  0.2696 -0.6929
  347TMC3    C8 5262   0.934   0.174  14.621 -0.6179  0.6739  0.3760
  347TMC3    O1 5263   1.068   0.526  14.907  0.1955 -0.1835 -0.6682
  347TMC3    O2 5264   0.888   0.063  14.590 -0.3996  0.2993  0.1771
  348MPD2     C 5265   4.241   4.360  12.282 -0.4774  0.5002 -0.4024
  348MPD2    C1 5266   4.133   4.334  12.204  0.6011  0.1263 -0.5144
  348MPD2    C2 5267   4.086   4.429  12.116 -0.2465  0.5206 -0.5957
  348MPD2    C3 5268   4.151   4.551  12.105 -0.3321 -0.3119 -0.7824
  348MPD2    C4 5269   4.265   4.569  12.177 -0.2638 -1.2757 -0.6062
  348MPD2    C5 5270   4.312   4.477  12.267  0.3399 -0.7216  0.4032
  348MPD2     H 5271   4.002   4.403  12.053  0.1304  2.5829 -1.9350
  348MPD2    H1 5272   4.324   4.660  12.171  0.8374 -1.9604 -0.1379
  348MPD2    H2 5273   4.272   4.293  12.361  3.7620  2.4517 -0.3852
  348MPD2    H3 5274   4.396   4.495  12.333 -0.6162  1.0340  1.1503
  348MPD2     N 5275   4.104   4.654  12.017 -0.3472  0.0514  0.1423
  348MPD2    H5 5276   4.037   4.628  11.946  0.5066  0.9632 -1.0092
  348MPD2    N1 5277   4.059   4.211  12.221  0.0739  0.5844 -0.0147
  348MPD2    H7 5278   3.963   4.210  12.188 -0.5673 -1.3556  1.8626
  349TMC3    C1 5279   4.002   3.991  12.285 -0.8319  0.2625 -0.2231
  349TMC3    C2 5280   4.051   3.867  12.330 -0.3287 -0.6250  0.0777
  349TMC3    C3 5281   3.964   3.757  12.318  0.2672 -0.7321  0.4201
  349TMC3    C4 5282   3.877   4.010  12.236  0.1707  0.2222  0.7187
  349TMC3    C5 5283   3.793   3.896  12.225 -0.1096  0.0353 -0.0135
  349TMC3    C6 5284   3.833   3.768  12.266 -0.3177  0.0535 -0.3421
  349TMC3     C 5285   4.106   4.090  12.275 -0.7390 -0.0562 -0.0356
  349TMC3     O 5286   4.222   4.062  12.306  0.1920 -0.1625 -0.2219
  349TMC3     H 5287   4.142   3.864  12.389  0.1709  0.5024 -0.6316
  349TMC3    H1 5288   3.846   4.099  12.181  1.1798  0.2567  0.2109
  349TMC3    H2 5289   3.759   3.690  12.276  2.0132 -2.3316 -1.5470
  349TMC3    C7 5290   3.658   3.917  12.178 -0.2537  0.3629 -0.3002
  349TMC3    C8 5291   3.999   3.644  12.396 -0.9484 -0.5831 -0.7819
  349TMC3    O1 5292   3.633   3.865  12.067 -0.4630 -0.2272  0.4027
  349TMC3    O2 5293   4.079   3.663  12.487  0.1253 -0.4752  0.7853
  350MPD2     C 5294   2.700   2.767  10.552 -0.2917 -0.3504  0.5210
  350MPD2    C1 5295   2.575   2.697  10.545 -0.4625 -0.4909  0.1559
  350MPD2    C2 5296   2.476   2.729  10.635 -0.5405 -0.2266 -0.1057
  350MPD2    C3 5297   2.494   2.832  10.732  0.4854 -0.4300 -0.3173
  350MPD2    C4 5298   2.617   2.896  10.732 -0.0577  0.0986  0.0017
  350MPD2    C5 5299   2.719   2.867  10.642 -0.3063 -0.3196 -0.3671
  350MPD2     H 5300   2.383   2.676  10.620  0.9310 -2.9816  0.4186
  350MPD2    H1 5301   2.649   2.972  10.801  0.0172 -0.4282  0.5484
  350MPD2    H2 5302   2.784   2.739  10.490 -2.0960  0.1332 -2.1147
  350MPD2    H3 5303   2.820   2.905  10.658 -0.2629 -0.8766  0.6449
  350MPD2     N 5304   2.394   2.855  10.828  0.9679 -0.0822  0.5858
  350MPD2    H5 5305   2.308   2.804  10.809  0.7643 -0.1220  1.6243
  350MPD2    N1 5306   2.546   2.596  10.450  0.7492  0.8049  0.3141
  350MPD2    H7 5307   2.458   2.546  10.461  1.5540 -0.7352 -0.2700
  351TMC3    C1 5308   2.566   2.471  10.246  0.4292  0.0305  0.3019
  351TMC3    C2 5309   2.632   2.469  10.130 -0.3261  0.8875  0.3152
  351TMC3    C3 5310   2.597   2.362  10.045 -0.0695 -0.2123 -0.0871
  351TMC3    C4 5311   2.472   2.369  10.288  0.1302  0.3859  0.2671
  351TMC3    C5 5312   2.453   2.264  10.200 -0.0335 -0.2569 -0.2660
  351TMC3    C6 5313   2.521   2.260  10.081  0.5640 -0.1782 -0.8137
  351TMC3     C 5314   2.615   2.578  10.338 -0.6141  0.4915 -0.0458
  351TMC3     O 5315   2.704   2.646  10.291  0.4355  1.0947 -0.2807
  351TMC3     H 5316   2.697   2.551  10.101  1.7250 -0.0838  2.1843
  351TMC3    H1 5317   2.415   2.381  10.380 -0.4130  0.6391 -0.1033
  351TMC3    H2 5318   2.503   2.173  10.019 -0.8281 -1.2334  1.0605
  351TMC3    C7 5319   2.340   2.177  10.221 -0.3019 -0.3594  0.1150
  351TMC3    C8 5320   2.653   2.355   9.908 -0.0980 -0.4357  0.2673
  351TMC3    O1 5321   2.306   2.099  10.134  0.3073 -0.0536  0.0830
  351TMC3    O2 5322   2.622   2.259   9.843 -0.8239 -0.5401  0.0237
  352MPD2     C 5323   1.034   0.084   1.584 -0.5508 -0.0514 -0.0913
  352MPD2    C1 5324   1.018   0.024   1.463 -0.0019 -0.4899 -0.7350
  352MPD2    C2 5325   1.060   4.632   1.445  0.5551  0.4563 -0.1281
  352MPD2    C3 5326   1.134   4.561   1.543  0.8084 -0.4904  0.3272
  352MPD2    C4 5327   1.150   4.622   1.663 -0.5307 -0.5913 -0.5506
  352MPD2    C5 5328   1.110   0.019   1.678 -0.4090  0.2066  0.1130
  352MPD2     H 5329   1.050   4.596   1.343  0.8096 -0.6704  0.2440
  352MPD2    H1 5330   1.194   4.573   1.750  0.4140  2.1360  0.5180
  352MPD2    H2 5331   1.006   0.187   1.603  0.3287 -0.2737  2.3544
  352MPD2    H3 5332   1.125   0.067   1.774  0.1827 -0.6143  0.4246
  352MPD2     N 5333   1.186   4.428   1.519 -0.1856 -0.1597 -0.0471
  352MPD2    H5 5334   1.245   4.383   1.589 -0.2246 -2.3082 -1.3904
  352MPD2    N1 5335   0.950   0.106   1.368  0.8187  0.2942 -0.0646
  352MPD2    H7 5336   0.922   0.197   1.402 -1.1075 -0.1950 -0.3273
  353TMC3    C1 5337   1.223   4.224   1.415 -0.0922 -0.4986  0.4072
  353TMC3    C2 5338   1.339   4.217   1.490 -1.0419 -0.2039  0.0730
  353TMC3    C3 5339   1.384   4.090   1.528  0.0438 -0.6306 -0.7769
  353TMC3    C4 5340   1.165   4.111   1.363 -0.5074  0.0089  0.7341
  353TMC3    C5 5341   1.217   3.993   1.394  0.1682 -0.5807  0.0453
  353TMC3    C6 5342   1.324   3.969   1.479  0.6493 -0.1997  0.1594
  353TMC3     C 5343   1.151   4.350   1.409 -0.2070  0.3050 -0.3043
  353TMC3     O 5344   1.051   4.364   1.338  0.4633 -0.2018  0.0871
  353TMC3     H 5345   1.400   4.300   1.523 -1.7246  1.0223 -1.7821
  353TMC3    H1 5346   1.079   4.113   1.297 -0.2719 -2.6000  0.3465
  353TMC3    H2 5347   1.363   3.869   1.492  0.7258 -0.1310  0.4566
  353TMC3    C7 5348   1.159   3.871   1.352  0.3578  0.1352 -0.5122
  353TMC3    C8 5349   1.524   4.093   1.570  0.2545 -0.1822 -0.2994
  353TMC3    O1 5350   1.127   3.780   1.433 -0.2358  0.0161 -0.0652
  353TMC3    O2 5351   1.555   4.177   1.650  0.0956  0.2361  0.3946
  354TMC3    C1 5352   3.022   0.902  13.612  0.0381 -0.0934 -0.0062
  354TMC3    C2 5353   2.911   0.963  13.567 -0.0728  0.7420 -0.3916
  354TMC3    C3 5354   2.884   0.961  13.434 -0.6639 -0.3330  0.2175
  354TMC3    C4 5355   3.101   0.822  13.524 -0.9749  0.7213 -0.2290
  354TMC3    C5 5356   3.065   0.820  13.393 -0.7760 -0.6337  0.5636
  354TMC3    C6 5357   2.961   0.890  13.346  0.8027  0.0054  0.5213
  354TMC3     C 5358   3.014   0.869  13.757 -0.7370  0.0198 -0.4600
  354TMC3     O 5359   2.912   0.901  13.816 -0.2225 -0.3644  0.0106
  354TMC3     H 5360   2.863   1.026  13.640  1.2900  0.1765  0.9970
  354TMC3    H1 5361   3.186   0.762  13.554  1.4376  3.6093 -1.3523
  354TMC3    H2 5362   2.931   0.863  13.246 -2.5270 -1.3716  1.9013
  354TMC3    C7 5363   3.148   0.744  13.300  0.1954  0.6899 -0.1475
  354TMC3    C8 5364   2.807   1.062  13.370  0.1039  0.0549 -0.8775
  354TMC3    O1 5365   3.216   0.651  13.334 -0.4223  0.3388  0.4091
  354TMC3    O2 5366   2.805   1.047  13.248  0.1937  0.1674 -0.3689
  355MPD2     C 5367   2.634   1.653  11.786 -0.3264  0.5322  0.1547
  355MPD2    C1 5368   2.705   1.728  11.687 -0.0549  0.4360  0.0784
  355MPD2    C2 5369   2.844   1.746  11.705 -0.0788 -0.2018 -0.3102
  355MPD2    C3 5370   2.909   1.697  11.815  0.3194  0.0444  0.3016
  355MPD2    C4 5371   2.835   1.630  11.912  0.5490  0.2080  0.0884
  355MPD2    C5 5372   2.706   1.600  11.889  0.7100 -0.5899  0.9820
  355MPD2     H 5373   2.905   1.789  11.626  0.4735  1.5271  1.0364
  355MPD2    H1 5374   2.878   1.608  12.009 -0.5456 -1.0853  0.2702
  355MPD2    H2 5375   2.530   1.627  11.767  0.0920 -2.0622  1.4153
  355MPD2    H3 5376   2.648   1.536  11.955 -1.1504 -1.8732 -1.9252
  355MPD2     N 5377   3.043   1.728  11.827  0.4847  0.0905  1.0548
  355MPD2    H5 5378   3.089   1.705  11.915  3.2184  0.1187 -0.3609
  355MPD2    N1 5379   2.635   1.766  11.568 -0.0148  0.0981  0.2204
  355MPD2    H7 5380   2.538   1.737  11.563  0.5145 -1.8229  1.3117
  356TMC3    C1 5381   3.267   1.803  11.792 -0.4955 -0.2764 -0.6036
  356TMC3    C2 5382   3.361   1.827  11.699 -0.0346  0.8433 -0.5344
  356TMC3    C3 5383   3.453   1.920  11.729  1.0385 -0.3511  0.0350
  356TMC3    C4 5384   3.266   1.850  11.920  0.4280 -0.5288  0.6486
  356TMC3    C5 5385   3.368   1.930  11.950  0.2598 -0.0866  0.1399
  356TMC3    C6 5386   3.454   1.976  11.858  0.9281  0.5118  0.5798
  356TMC3     C 5387   3.136   1.773  11.732 -0.1293  0.3260 -0.4553
  356TMC3     O 5388   3.117   1.807  11.616  0.6169  0.0941  0.3749
  356TMC3     H 5389   3.353   1.790  11.598  0.8835 -0.9727  0.0608
  356TMC3    H1 5390   3.192   1.818  11.992  0.4165  0.5656  1.1264
  356TMC3    H2 5391   3.544   2.030  11.887  1.7694 -0.4888 -0.1246
  356TMC3    C7 5392   3.410   1.928  12.093  0.0598 -0.2682 -0.3894
  356TMC3    C8 5393   3.536   1.968  11.619  0.1712 -0.9014 -0.3661
  356TMC3    O1 5394   3.348   1.856  12.168 -0.2030 -0.6763  0.4727
  356TMC3    O2 5395   3.551   1.885  11.527  0.3934 -0.1259  0.2927
  357MPD2     C 5396   3.312   1.603   0.762  0.4173 -0.1710 -0.0180
  357MPD2    C1 5397   3.289   1.578   0.627  0.0400 -0.1565  0.1810
  357MPD2    C2 5398   3.159   1.553   0.587  0.1667  0.4007 -0.1804
  357MPD2    C3 5399   3.049   1.563   0.672  0.3939 -1.0101  0.5331
  357MPD2    C4 5400   3.071   1.590   0.805 -0.2536 -0.3342  0.2592
  357MPD2    C5 5401   3.203   1.595   0.849  0.2215  0.2102 -0.2675
  357MPD2     H 5402   3.135   1.560   0.482 -2.2795 -1.2637  0.2675
  357MPD2    H1 5403   2.988   1.602   0.874  1.0746 -1.2677  2.0300
  357MPD2    H2 5404   3.412   1.618   0.802 -0.0463  3.2354 -0.1427
  357MPD2    H3 5405   3.225   1.597   0.955  0.6248  2.1449 -0.3826
  357MPD2     N 5406   2.912   1.549   0.634 -0.2054  0.1531  0.4403
  357MPD2    H5 5407   2.854   1.545   0.718 -0.8200 -0.5643 -0.0182
  357MPD2    N1 5408   3.397   1.585   0.536 -0.1663 -0.0051 -0.3818
  357MPD2    H7 5409   3.485   1.627   0.565 -0.7494  0.4206  0.7981
  358TMC3    C1 5410   3.525   1.566   0.334 -0.8338  0.4999 -0.0561
  358TMC3    C2 5411   3.516   1.569   0.194 -0.2797  0.2047 -0.1003
  358TMC3    C3 5412   3.630   1.603   0.122 -0.1513  0.1938 -0.5963
  358TMC3    C4 5413   3.640   1.619   0.400 -0.1566 -0.3995  0.6914
  358TMC3    C5 5414   3.741   1.654   0.318  0.8958 -0.0540  0.4484
  358TMC3    C6 5415   3.749   1.636   0.183  0.0964 -0.7215  0.8139
  358TMC3     C 5416   3.394   1.550   0.403  0.0731  0.0302 -0.1131
  358TMC3     O 5417   3.300   1.501   0.341 -0.1775  0.2064 -0.3851
  358TMC3     H 5418   3.420   1.550   0.146 -0.1409  4.3442 -2.0327
  358TMC3    H1 5419   3.657   1.615   0.507  1.9814 -0.1771  0.3503
  358TMC3    H2 5420   3.825   1.690   0.127 -1.4740  0.8687  0.2083
  358TMC3    C7 5421   3.859   1.717   0.376  0.5727  0.9310 -0.6183
  358TMC3    C8 5422   3.609   1.647  17.724  0.1928 -0.1884  0.3579
  358TMC3    O1 5423   3.966   1.696   0.318  0.9593  0.0235 -0.5367
  358TMC3    O2 5424   3.701   1.716  17.682  0.2034  0.7887 -0.6625
  359MPD2     C 5425   3.588   0.355  12.727  0.4553  0.5374 -0.0862
  359MPD2    C1 5426   3.594   0.316  12.592 -0.3499 -0.1307 -0.0367
  359MPD2    C2 5427   3.487   0.247  12.542  0.7212  0.0168  0.2811
  359MPD2    C3 5428   3.385   0.190  12.622 -0.3099  0.1393  0.8937
  359MPD2    C4 5429   3.390   0.229  12.753 -0.4115 -0.1876 -0.2920
  359MPD2    C5 5430   3.488   0.306  12.805  0.7634 -0.3018 -0.4418
  359MPD2     H 5431   3.492   0.222  12.437 -2.3047  1.0422 -0.1237
  359MPD2    H1 5432   3.320   0.187  12.824  0.8311  0.0880  1.0809
  359MPD2    H2 5433   3.655   0.422  12.780  0.5737 -0.2117  0.7059
  359MPD2    H3 5434   3.487   0.337  12.909 -0.4478 -0.4179 -0.4190
  359MPD2     N 5435   3.279   0.105  12.573 -0.2125 -0.0882  0.5090
  359MPD2    H5 5436   3.208   0.074  12.639  0.6740 -0.9104  1.0924
  359MPD2    N1 5437   3.694   0.357  12.509 -0.0135 -0.9027  0.0958
  359MPD2    H7 5438   3.671   0.343  12.411  2.2450 -0.3868 -0.5063
  360TMC3    C1 5439   3.893   0.465  12.436 -0.7713 -0.3460 -0.4016
  360TMC3    C2 5440   3.954   0.585  12.432 -0.4608 -0.1915 -0.8470
  360TMC3    C3 5441   4.056   0.601  12.339  0.7988 -0.1359 -0.9779
  360TMC3    C4 5442   3.925   0.360  12.350  0.4753  0.0367 -0.3673
  360TMC3    C5 5443   4.026   0.376  12.262  0.1800 -0.2489 -0.6291
  360TMC3    C6 5444   4.093   0.496  12.256 -0.0720 -0.1329  0.3466
  360TMC3     C 5445   3.796   0.446  12.542  0.0335 -0.3902  0.5489
  360TMC3     O 5446   3.808   0.528  12.631  0.0243 -0.6145 -0.4387
  360TMC3     H 5447   3.913   0.681  12.463 -1.8500 -1.4812  1.2105
  360TMC3    H1 5448   3.874   0.265  12.351 -1.1730  0.9192 -0.3459
  360TMC3    H2 5449   4.172   0.503  12.182  0.4621 -2.0690  0.7482
  360TMC3    C7 5450   3.981   0.346  12.127 -0.6632 -0.3680  0.6316
  360TMC3    C8 5451   4.090   0.734  12.294 -0.2994  0.9775 -0.4850
  360TMC3    O1 5452   4.011   0.422  12.035  0.4075 -0.1039  0.0853
  360TMC3    O2 5453   4.005   0.817  12.308  0.6264 -0.3505 -0.3045
  361MPD2     C 5454   0.428   3.870  16.893  0.1614 -0.1053  0.7852
  361MPD2    C1 5455   0.449   3.973  16.986 -0.3036  0.0616 -0.5056
  361MPD2    C2 5456   0.559   3.967  17.065  0.0204 -0.9909  0.3893
  361MPD2    C3 5457   0.643   3.856  17.065  0.3847  0.2301  0.4873
  361MPD2    C4 5458   0.630   3.759  16.966 -0.2368  0.2758 -0.5224
  361MPD2    C5 5459   0.520   3.768  16.888 -0.3214 -0.1867 -0.0740
  361MPD2     H 5460   0.559   4.045  17.140  1.3311  0.4448 -1.0899
  361MPD2    H1 5461   0.714   3.691  16.956 -0.4203  0.3602 -2.5280
  361MPD2    H2 5462   0.344   3.877  16.825 -0.1803 -1.0564  1.1039
  361MPD2    H3 5463   0.494   3.698  16.809  0.0565 -2.8889  2.1728
  361MPD2     N 5464   0.762   3.841  17.128 -0.2699 -0.2045  0.1747
  361MPD2    H5 5465   0.810   3.751  17.126  0.0391  0.0283 -2.7686
  361MPD2    N1 5466   0.357   4.081  16.999  0.5182 -0.6003 -0.1406
  361MPD2    H7 5467   0.384   4.160  17.056 -0.9996 -0.2317  0.0580
  362TMC3    C1 5468   0.172   4.219  16.949 -0.4721 -0.3587  0.9595
  362TMC3    C2 5469   0.194   4.292  17.058 -0.1647 -0.0407 -0.4184
  362TMC3    C3 5470   0.119   4.402  17.076  0.7543  0.5129 -0.1275
  362TMC3    C4 5471   0.074   4.253  16.858 -0.5263 -0.5873 -0.0660
  362TMC3    C5 5472   4.730   4.367  16.885 -0.6789  0.0414 -0.3297
  362TMC3    C6 5473   0.017   4.445  16.992 -0.2993 -0.1566  1.0070
  362TMC3     C 5474   0.251   4.106  16.917  0.3512 -0.3043  0.0912
  362TMC3     O 5475   0.213   4.043  16.820  0.0238  0.2693 -0.0568
  362TMC3     H 5476   0.275   4.270  17.126 -0.9692  2.7858  1.4719
  362TMC3    H1 5477   0.071   4.201  16.762  1.6101 -0.3611 -0.2537
  362TMC3    H2 5478   4.709   4.544  16.994 -1.9176 -0.8270 -1.3887
  362TMC3    C7 5479   4.656   4.431  16.776 -0.4011  0.1841 -0.3774
  362TMC3    C8 5480   0.139   4.467  17.211  0.0464  0.5179 -0.4079
  362TMC3    O1 5481   4.641   4.550  16.776 -0.8465 -0.0143  0.6751
  362TMC3    O2 5482   0.252   4.448  17.251 -0.2678  0.3140  0.2805
  363TMC3    C1 5483   3.306   2.417   9.569  0.3843  0.0519  0.1147
  363TMC3    C2 5484   3.287   2.313   9.655  0.4356  0.2576  0.6303
  363TMC3    C3 5485   3.214   2.338   9.769  0.3765  0.0604  0.0035
  363TMC3    C4 5486   3.235   2.534   9.568 -0.3470  0.0395 -0.3802
  363TMC3    C5 5487   3.153   2.549   9.684  0.5946 -0.4038  0.3425
  363TMC3    C6 5488   3.157   2.462   9.789  0.5727 -1.2068 -0.1766
  363TMC3     C 5489   3.392   2.383   9.461  0.4549 -1.1533  0.3225
  363TMC3     O 5490   3.419   2.265   9.449 -0.1267 -0.1379  0.4807
  363TMC3     H 5491   3.341   2.219   9.643  1.4672  0.4761  3.4745
  363TMC3    H1 5492   3.243   2.610   9.491  0.5775 -0.9010 -1.2089
  363TMC3    H2 5493   3.089   2.469   9.873  1.3816 -0.9542  0.4654
  363TMC3    C7 5494   3.116   2.683   9.721  0.0447 -0.1211 -0.2939
  363TMC3    C8 5495   3.195   2.230   9.864  0.2380 -0.1099 -0.1936
  363TMC3    O1 5496   3.177   2.771   9.663  0.2343 -0.0040  0.6272
  363TMC3    O2 5497   3.100   2.236   9.938 -0.7144 -0.0596 -0.1486
  364MPD2     C 5498   2.129   1.213  11.276  0.6969 -0.3816  0.2009
  364MPD2    C1 5499   2.188   1.183  11.157 -0.7276 -0.9622  0.7150
  364MPD2    C2 5500   2.286   1.084  11.149  0.5683 -0.2035 -0.1051
  364MPD2    C3 5501   2.308   1.020  11.266  0.5302 -0.3858  0.1627
  364MPD2    C4 5502   2.233   1.036  11.379 -0.7962 -0.3742  0.4502
  364MPD2    C5 5503   2.150   1.139  11.386  0.5014  0.4909  0.0409
  364MPD2     H 5504   2.348   1.069  11.062  0.6161 -1.3807  0.1297
  364MPD2    H1 5505   2.260   0.973  11.463 -0.1905 -1.0289 -0.2308
  364MPD2    H2 5506   2.058   1.295  11.270 -0.9890 -1.8560  0.1222
  364MPD2    H3 5507   2.099   1.172  11.477 -1.0541 -0.0494 -0.6275
  364MPD2     N 5508   2.406   0.925  11.276 -0.5771  0.4067 -0.2093
  364MPD2    H5 5509   2.424   0.879  11.365 -0.1328  0.4319 -0.2841
  364MPD2    N1 5510   2.155   1.254  11.038  0.0985  0.2765  0.2110
  364MPD2    H7 5511   2.089   1.331  11.045 -0.2087  0.1343 -1.3205
  365TMC3    C1 5512   2.139   1.319  10.810 -0.0418  0.4315  0.3599
  365TMC3    C2 5513   2.132   1.282  10.676 -0.3958 -0.7685 -0.3072
  365TMC3    C3 5514   2.092   1.381  10.590  0.1297  0.2740 -0.1250
  365TMC3    C4 5515   2.105   1.447  10.854  0.0730 -0.2851 -0.3323
  365TMC3    C5 5516   2.055   1.529  10.761 -0.1566 -0.6041 -0.3987
  365TMC3    C6 5517   2.047   1.504  10.628 -0.4080  0.1451  0.4417
  365TMC3     C 5518   2.182   1.217  10.911 -0.4988 -0.5173  0.4791
  365TMC3     O 5519   2.231   1.113  10.866  0.5913  0.0327  0.3928
  365TMC3     H 5520   2.145   1.178  10.648 -3.5208 -1.1132 -0.4527
  365TMC3    H1 5521   2.134   1.472  10.955 -0.6117  1.5543 -0.5792
  365TMC3    H2 5522   2.014   1.573  10.552 -2.8006 -0.1824  1.1785
  365TMC3    C7 5523   2.030   1.662  10.805 -0.0279 -0.9193  0.1476
  365TMC3    C8 5524   2.061   1.344  10.453  0.3825  0.1415 -0.2494
  365TMC3    O1 5525   2.020   1.749  10.722  0.2577  0.2079  0.2700
  365TMC3    O2 5526   1.970   1.401  10.403  0.0913 -0.5869 -0.3053
  366MPD2     C 5527   0.880   2.080  15.215  0.3108 -0.1791  0.4979
  366MPD2    C1 5528   0.891   2.172  15.313  0.5883  0.4113  0.3748
  366MPD2    C2 5529   0.999   2.164  15.401 -0.4617 -0.0633 -0.6097
  366MPD2    C3 5530   1.110   2.095  15.358  0.1479  0.2634 -0.4858
  366MPD2    C4 5531   1.096   2.001  15.253 -0.2469  1.0090 -0.0990
  366MPD2    C5 5532   0.972   1.985  15.199 -0.2513  0.0048 -0.0734
  366MPD2     H 5533   1.020   2.227  15.487  0.2612 -1.0807 -0.0480
  366MPD2    H1 5534   1.176   1.933  15.225 -0.1434  0.6241  1.1286
  366MPD2    H2 5535   0.793   2.086  15.150  1.4954  1.4002 -0.9209
  366MPD2    H3 5536   0.946   1.912  15.124  0.5651  1.5341 -1.8512
  366MPD2     N 5537   1.237   2.123  15.422 -0.1046 -0.1552 -0.0249
  366MPD2    H5 5538   1.228   2.185  15.502 -0.4252  1.1654 -1.0881
  366MPD2    N1 5539   0.813   2.280  15.328  0.0052  0.3016 -0.4957
  366MPD2    H7 5540   0.857   2.351  15.387 -0.3788 -0.8590  1.1848
  367TMC3    C1 5541   0.736   2.465  15.226 -0.5203 -0.6096  0.0929
  367TMC3    C2 5542   0.855   2.523  15.280  0.2982  0.3531  0.0139
  367TMC3    C3 5543   0.850   2.658  15.306  0.3266 -0.1488  0.4240
  367TMC3    C4 5544   0.634   2.536  15.171  0.0915  0.3251 -0.0368
  367TMC3    C5 5545   0.631   2.666  15.216  0.0704  0.0441 -0.2731
  367TMC3    C6 5546   0.740   2.731  15.265 -0.3881  0.3959  0.1968
  367TMC3     C 5547   0.728   2.320  15.237  0.2542  0.0288 -0.4299
  367TMC3     O 5548   0.661   2.262  15.152 -0.0673 -0.3455  0.7800
  367TMC3     H 5549   0.951   2.476  15.297 -0.4013 -1.1039 -0.1087
  367TMC3    H1 5550   0.546   2.483  15.135 -0.7761  1.6535  0.1349
  367TMC3    H2 5551   0.730   2.832  15.303 -2.6645 -0.0525  0.8043
  367TMC3    C7 5552   0.521   2.754  15.208  0.1079  0.3392  0.5575
  367TMC3    C8 5553   0.960   2.707  15.393 -0.5345  0.7660 -0.0256
  367TMC3    O1 5554   0.510   2.845  15.290 -0.1042  0.1799 -0.1318
  367TMC3    O2 5555   1.024   2.622  15.449  0.4656 -0.1716 -0.1085
  368MPD2     C 5556   1.589   4.396  13.120  0.3185  0.3287 -0.5171
  368MPD2    C1 5557   1.578   4.493  13.024 -0.2482 -0.1941 -0.6059
  368MPD2    C2 5558   1.681   4.493  12.934  0.7522  0.1349  1.1383
  368MPD2    C3 5559   1.794   4.413  12.950  0.9130  0.1456  0.6854
  368MPD2    C4 5560   1.807   4.336  13.064 -1.2526  0.0400 -0.6135
  368MPD2    C5 5561   1.703   4.325  13.147 -0.5201  0.0155 -0.1954
  368MPD2     H 5562   1.669   4.545  12.839 -0.7570  1.0049  1.7971
  368MPD2    H1 5563   1.895   4.280  13.094  0.6213  1.6251 -3.1136
  368MPD2    H2 5564   1.510   4.378  13.191  0.6321  0.9431 -0.0152
  368MPD2    H3 5565   1.696   4.249  13.224 -0.4250  0.1318 -0.0714
  368MPD2     N 5566   1.905   4.412  12.869 -0.2697  0.3843 -0.4640
  368MPD2    H5 5567   1.974   4.339  12.886  0.6126  1.3516  0.1092
  368MPD2    N1 5568   1.457   4.558  13.003 -0.4089 -0.5768 -0.0730
  368MPD2    H7 5569   1.389   4.539  13.076 -0.1638 -0.7947  0.1009
  369TMC3    C1 5570   1.285   4.678  12.875 -0.5365  0.2657 -0.0811
  369TMC3    C2 5571   1.256   0.009  12.762 -0.3435  0.2808 -0.3320
  369TMC3    C3 5572   1.129   0.049  12.753 -0.2114  0.2536  0.0665
  369TMC3    C4 5573   1.197   4.639  12.971 -0.4653 -0.1097 -0.4833
  369TMC3    C5 5574   1.069   4.679  12.947 -0.0975  0.0603 -0.6712
  369TMC3    C6 5575   1.038   0.032  12.844  0.6774 -0.3472  0.1151
  369TMC3     C 5576   1.423   4.638  12.886  0.3297  0.1163  0.3333
  369TMC3     O 5577   1.495   4.661  12.790  0.8230  0.6154 -0.4147
  369TMC3     H 5578   1.332   0.047  12.694 -0.7432  0.0636 -0.9037
  369TMC3    H1 5579   1.233   4.582  13.056 -0.4308 -0.5937 -0.8216
  369TMC3    H2 5580   0.943   0.081  12.824  1.2269  0.1692 -1.2125
  369TMC3    C7 5581   0.975   4.645  13.050  0.4057 -0.8542 -0.4059
  369TMC3    C8 5582   1.082   0.119  12.633 -0.1904  0.3929 -0.4577
  369TMC3    O1 5583   1.014   4.557  13.124  0.8387 -0.5045  0.0583
  369TMC3    O2 5584   0.979   0.190  12.638  0.1517 -0.2934 -0.1006
  370TMC3    C1 5585   1.379   0.369  16.379  0.0605  0.0795  0.7135
  370TMC3    C2 5586   1.299   0.273  16.438 -0.0242 -0.4158  0.0386
  370TMC3    C3 5587   1.230   0.193  16.351 -1.0253  0.4052 -0.4203
  370TMC3    C4 5588   1.405   0.369  16.245  0.3640  0.2433 -0.5897
  370TMC3    C5 5589   1.330   0.276  16.166 -0.0785  0.2890 -0.1380
  370TMC3    C6 5590   1.242   0.185  16.215 -0.0932  0.2446  0.4439
  370TMC3     C 5591   1.472   0.430  16.472 -0.6798 -0.0385 -0.0561
  370TMC3     O 5592   1.481   0.386  16.588 -0.0464  0.5331  0.4061
  370TMC3     H 5593   1.288   0.257  16.545  0.9058 -1.4911 -0.0317
  370TMC3    H1 5594   1.477   0.435  16.199  0.2815  0.6942 -0.0727
  370TMC3    H2 5595   1.169   0.129  16.157  0.0122 -0.5991  1.1365
  370TMC3    C7 5596   1.375   0.256  16.034  0.4365  0.5958 -0.1110
  370TMC3    C8 5597   1.132   0.099  16.412 -0.0286 -0.3960  0.1931
  370TMC3    O1 5598   1.411   0.353  15.971 -0.3439 -0.8186 -0.0144
  370TMC3    O2 5599   1.020   0.084  16.365 -0.1487  0.2668 -0.0959
  371TMC3    C1 5600   2.616   3.431  15.820 -0.2162  0.3735 -0.4632
  371TMC3    C2 5601   2.484   3.424  15.783  0.3427 -0.1361 -1.0712
  371TMC3    C3 5602   2.427   3.530  15.717 -0.4250 -0.8171  0.3154
  371TMC3    C4 5603   2.695   3.538  15.781 -0.0089  0.1913 -0.3038
  371TMC3    C5 5604   2.633   3.642  15.714  0.7940 -0.6461  1.0829
  371TMC3    C6 5605   2.497   3.641  15.687  0.0338  0.2570 -0.8659
  371TMC3     C 5606   2.670   3.320  15.891 -0.5620  0.4658 -0.1664
  371TMC3     O 5607   2.761   3.357  15.964  0.4851 -0.6887 -0.1861
  371TMC3     H 5608   2.424   3.345  15.827  1.1465 -0.8482 -1.2489
  371TMC3    H1 5609   2.794   3.553  15.824 -0.6060  0.8944  0.8375
  371TMC3    H2 5610   2.450   3.723  15.634  0.7465  0.3452 -1.3616
  371TMC3    C7 5611   2.710   3.768  15.689  0.3736  0.0512  0.1290
  371TMC3    C8 5612   2.281   3.512  15.698 -0.0483 -0.3884 -0.2639
  371TMC3    O1 5613   2.667   3.841  15.599  0.0683  0.2797  0.5593
  371TMC3    O2 5614   2.251   3.394  15.696  0.2342 -0.3766 -0.0195
  372MPD2     C 5615   2.383   4.559  13.037 -0.1011  0.4128 -0.1959
  372MPD2    C1 5616   2.469   4.493  13.128 -0.5127  0.2402  0.5536
  372MPD2    C2 5617   2.424   4.416  13.235  0.1275 -0.1817 -0.3940
  372MPD2    C3 5618   2.287   4.406  13.247  0.3743 -0.2689 -0.0259
  372MPD2    C4 5619   2.203   4.456  13.153 -0.2541  0.0950  0.0535
  372MPD2    C5 5620   2.251   4.533  13.050 -0.1614  0.6658 -0.1222
  372MPD2     H 5621   2.491   4.357  13.297  0.6945  1.1003  0.2333
  372MPD2    H1 5622   2.095   4.445  13.157 -0.2270 -0.0743  0.3407
  372MPD2    H2 5623   2.416   4.626  12.958 -0.5460 -0.2393 -0.9287
  372MPD2    H3 5624   2.186   4.569  12.972  2.8553  0.7515 -2.6054
  372MPD2     N 5625   2.241   4.340  13.363  0.0097 -0.3279  0.3089
  372MPD2    H5 5626   2.313   4.294  13.418 -0.8418 -2.1944 -0.1416
  372MPD2    N1 5627   2.614   4.510  13.114 -0.3116 -0.5351  0.0401
  372MPD2    H7 5628   2.680   4.466  13.177  1.0140  1.7567  0.2566
  373TMC3    C1 5629   2.103   4.249  13.525 -0.0604  0.0570  0.5690
  373TMC3    C2 5630   2.004   4.273  13.619 -0.2818  0.6260 -0.2208
  373TMC3    C3 5631   1.976   4.175  13.706  0.3331 -0.9156 -0.8626
  373TMC3    C4 5632   2.153   4.122  13.505 -0.6351  0.1566  0.8656
  373TMC3    C5 5633   2.106   4.031  13.594  0.4602  0.2655 -0.0130
  373TMC3    C6 5634   2.028   4.049  13.704 -0.6363 -0.1236  0.5976
  373TMC3     C 5635   2.110   4.338  13.410  0.4578 -0.1563 -0.4220
  373TMC3     O 5636   1.998   4.367  13.360  0.5908  0.4621  0.3930
  373TMC3     H 5637   1.949   4.366  13.614  0.2083  0.8868 -0.7159
  373TMC3    H1 5638   2.226   4.099  13.428  0.0219  1.7732  0.9866
  373TMC3    H2 5639   1.992   3.963  13.759 -2.1475 -0.2323 -0.5503
  373TMC3    C7 5640   2.202   3.929  13.620  0.3235 -0.2474  0.5646
  373TMC3    C8 5641   1.856   4.186  13.785 -0.5050  0.4849  0.3308
  373TMC3    O1 5642   2.223   3.855  13.524  0.0230 -0.0990  0.3094
  373TMC3    O2 5643   1.759   4.234  13.726  0.0386  0.5188  1.1495
  374TMC3    C1 5644   2.660   4.600  10.230  0.0796  0.6084 -1.1322
  374TMC3    C2 5645   2.705   4.710  10.303  0.0375 -0.3890 -0.3922
  374TMC3    C3 5646   2.746   0.082  10.236 -0.4036 -0.1241 -0.1006
  374TMC3    C4 5647   2.659   4.597  10.092  0.4958 -0.0193  0.5682
  374TMC3    C5 5648   2.699   4.712  10.032  0.5295  0.7176  0.2223
  374TMC3    C6 5649   2.735   0.087  10.097 -0.8943  0.3372 -0.4043
  374TMC3     C 5650   2.621   4.477  10.297  0.2090 -0.1680 -0.8263
  374TMC3     O 5651   2.686   4.435  10.391 -0.6248  0.0858 -0.0416
  374TMC3     H 5652   2.707   4.698  10.411  1.8044  1.2974 -0.2263
  374TMC3    H1 5653   2.647   4.501  10.042  1.3710  0.4722 -0.5749
  374TMC3    H2 5654   2.774   0.175  10.048 -0.5183 -1.0142 -2.5434
  374TMC3    C7 5655   2.686   4.729   9.889  0.3007 -0.4100 -0.2600
  374TMC3    C8 5656   2.760   0.215  10.298 -0.6812 -0.4284 -0.0887
  374TMC3    O1 5657   2.722   0.099   9.836 -0.3453 -0.0381 -0.1144
  374TMC3    O2 5658   2.735   0.300  10.217 -0.0005  0.5488  0.0602
  375MPD2     C 5659   2.841   0.174  17.295  0.3854  0.1152  0.7936
  375MPD2    C1 5660   2.769   0.256  17.209  0.5343  0.1431 -0.1084
  375MPD2    C2 5661   2.824   0.284  17.084  0.1559  0.0552 -0.1364
  375MPD2    C3 5662   2.939   0.221  17.040  0.4002  0.0986 -0.0567
  375MPD2    C4 5663   3.013   0.140  17.126  0.6447  0.5051  0.5909
  375MPD2    C5 5664   2.960   0.115  17.253 -0.0427  0.4920 -0.0703
  375MPD2     H 5665   2.763   0.345  17.019  2.4372  3.3011  0.7586
  375MPD2    H1 5666   3.108   0.098  17.097 -0.5407 -0.3447 -2.1115
  375MPD2    H2 5667   2.804   0.147  17.393 -0.8956 -3.1276 -0.5804
  375MPD2    H3 5668   3.015   0.052  17.323  1.0838  2.9473  1.2481
  375MPD2     N 5669   2.982   0.231  16.908  0.2518  0.2659 -1.2573
  375MPD2    H5 5670   3.073   0.192  16.885  0.4664 -0.1022  0.2138
  375MPD2    N1 5671   2.669   0.342  17.260 -0.3953 -0.6199 -0.0326
  375MPD2    H7 5672   2.624   0.398  17.188 -1.4515  0.1785  1.2497
  376TMC3    C1 5673   2.989   0.292  16.677  0.1985  0.0781 -0.2742
  376TMC3    C2 5674   3.128   0.297  16.683  0.2623 -0.6346 -0.8956
  376TMC3    C3 5675   3.200   0.341  16.568  0.0674  0.4846  0.7728
  376TMC3    C4 5676   2.920   0.331  16.560  0.5326 -0.6862  0.4767
  376TMC3    C5 5677   2.993   0.380  16.460 -0.3443  0.3351  0.1162
  376TMC3    C6 5678   3.134   0.380  16.456 -0.3074 -0.0578  0.1776
  376TMC3     C 5679   2.906   0.259  16.795 -0.3532  0.2283  0.2950
  376TMC3     O 5680   2.781   0.263  16.773 -0.0366 -0.2279  0.2314
  376TMC3     H 5681   3.179   0.297  16.778 -2.0243 -1.9244  0.3287
  376TMC3    H1 5682   2.813   0.347  16.568  0.5288  0.1094 -1.0640
  376TMC3    H2 5683   3.186   0.436  16.379  1.3641 -2.1781 -0.2576
  376TMC3    C7 5684   2.935   0.424  16.331  0.7221 -0.5487  0.0892
  376TMC3    C8 5685   3.343   0.376  16.582  0.7750  0.0982 -0.0215
  376TMC3    O1 5686   3.011   0.447  16.236  0.3487  0.2547  0.4964
  376TMC3    O2 5687   3.402   0.445  16.505 -0.3014 -0.0182 -0.7836
  377MPD2     C 5688   0.585   0.172  12.434  0.3028  0.8965  0.1456
  377MPD2    C1 5689   0.630   0.061  12.504  0.4146 -0.4733  0.2647
  377MPD2    C2 5690   0.565   0.033  12.625 -0.5410 -0.3130  0.1884
  377MPD2    C3 5691   0.466   0.114  12.681 -0.1054  0.5319  0.1044
  377MPD2    C4 5692   0.428   0.221  12.608 -0.8415  0.3268 -0.1182
  377MPD2    C5 5693   0.481   0.241  12.485 -0.6600 -1.3323  0.1194
  377MPD2     H 5694   0.592   4.677  12.675  0.3899  0.7748  1.6969
  377MPD2    H1 5695   0.353   0.294  12.636 -1.3406 -0.1326 -0.2547
  377MPD2    H2 5696   0.620   0.194  12.334  1.2692  1.8507  0.6839
  377MPD2    H3 5697   0.445   0.332  12.439  3.1953 -0.6731 -1.5944
  377MPD2     N 5698   0.422   0.079  12.813  0.9348  0.3542  0.0231
  377MPD2    H5 5699   0.437   4.721  12.846 -1.3798 -0.3205 -0.8458
  377MPD2    N1 5700   0.735   4.726  12.448  0.5738  0.0827  0.0263
  377MPD2    H7 5701   0.754   0.002  12.349  2.0440 -1.5530  0.0948
  378TMC3    C1 5702   0.988   4.485  12.223  0.4004 -0.5174 -0.3230
  378TMC3    C2 5703   0.892   4.560  12.295  0.4261  0.4531 -0.0227
  378TMC3    C3 5704   0.903   4.568  12.429 -0.9625 -0.3294  0.1942
  378TMC3    C4 5705   1.091   4.426  12.290 -0.0511 -0.5932 -0.0126
  378TMC3    C5 5706   1.105   4.436  12.422  0.0420 -0.0925 -0.0275
  378TMC3    C6 5707   1.010   4.514  12.485  0.3940 -0.0584 -0.0408
  378TMC3     C 5708   0.952   4.459  12.081  0.3180  0.7936 -0.0750
  378TMC3     O 5709   0.847   4.511  12.042 -0.0706 -0.4473 -0.5274
  378TMC3     H 5710   0.817   4.613  12.237  1.6135  0.4718 -1.5461
  378TMC3    H1 5711   1.159   4.368  12.230 -0.0036  0.1634 -0.6731
  378TMC3    H2 5712   1.043   4.542  12.585 -0.3892 -1.3817  0.6058
  378TMC3    C7 5713   1.235   4.442  12.486 -0.5006 -0.4860  0.3542
  378TMC3    C8 5714   0.813   4.637  12.516  0.5667 -0.9949 -0.0742
  378TMC3    O1 5715   1.260   4.520  12.575 -0.2806  0.2476 -0.0666
  378TMC3    O2 5716   0.809   4.621  12.638  0.3973  0.2217 -0.3253
  379MPD2     C 5717   1.570   2.669  16.440  0.1301 -0.7204  0.4498
  379MPD2    C1 5718   1.672   2.665  16.346  0.7829  0.2326  1.0585
  379MPD2    C2 5719   1.805   2.641  16.396  0.4880 -0.2270  0.0080
  379MPD2    C3 5720   1.832   2.614  16.532  0.1714 -0.2657  0.2639
  379MPD2    C4 5721   1.725   2.628  16.616 -0.4930 -0.1246 -0.5338
  379MPD2    C5 5722   1.597   2.653  16.571 -0.2557 -0.1056 -0.3726
  379MPD2     H 5723   1.893   2.657  16.335  1.2505  0.2362  1.2101
  379MPD2    H1 5724   1.731   2.599  16.720  2.4888  0.5971 -0.4974
  379MPD2    H2 5725   1.465   2.681  16.415  0.4289  0.6058 -0.1282
  379MPD2    H3 5726   1.521   2.664  16.647 -0.2689 -2.0625 -0.1088
  379MPD2     N 5727   1.952   2.554  16.586 -0.0414 -0.5323 -0.1722
  379MPD2    H5 5728   1.952   2.535  16.685 -0.0678 -0.3938 -0.1461
  379MPD2    N1 5729   1.641   2.696  16.207  0.2829 -0.1489  0.2320
  379MPD2    H7 5730   1.547   2.727  16.183 -0.4631 -1.3802  1.5382
  380TMC3    C1 5731   1.677   2.701  15.972  0.5870  0.1982  0.2030
  380TMC3    C2 5732   1.732   2.647  15.858  0.2487  0.1707  0.2932
  380TMC3    C3 5733   1.681   2.686  15.742  0.1575 -0.7000 -0.7361
  380TMC3    C4 5734   1.563   2.777  15.964  0.0188 -0.2099  0.4463
  380TMC3    C5 5735   1.513   2.807  15.839  0.1615  0.0420  0.3335
  380TMC3    C6 5736   1.564   2.753  15.733 -0.0521  0.2033  0.0948
  380TMC3     C 5737   1.727   2.664  16.106 -0.8685 -0.0559 -0.1512
  380TMC3     O 5738   1.834   2.612  16.117  0.4844 -0.6132 -0.3216
  380TMC3     H 5739   1.822   2.589  15.872 -1.4128 -2.3930  0.1820
  380TMC3    H1 5740   1.531   2.840  16.046 -0.5578  0.1051 -0.0175
  380TMC3    H2 5741   1.547   2.791  15.633  0.3932 -0.4280 -0.2219
  380TMC3    C7 5742   1.399   2.896  15.835  0.2343 -0.6247 -0.3159
  380TMC3    C8 5743   1.763   2.666  15.619 -0.0804 -0.2980  0.4110
  380TMC3    O1 5744   1.387   2.980  15.916 -0.3511  0.5230 -0.3206
  380TMC3    O2 5745   1.701   2.662  15.513  0.2086 -0.2859  0.1272
  381TMC3    C1 5746   1.023   4.494  16.132 -0.0289 -0.2453  0.1228
  381TMC3    C2 5747   1.138   4.553  16.157 -0.1906 -0.0029  0.5177
  381TMC3    C3 5748   1.223   4.492  16.248  0.3057 -0.9301 -0.3316
  381TMC3    C4 5749   0.978   4.381  16.198 -0.1084  0.8352  0.3322
  381TMC3    C5 5750   1.065   4.324  16.282 -0.4417  0.2784 -0.5395
  381TMC3    C6 5751   1.186   4.379  16.314  0.1073 -0.3305  0.2643
  381TMC3     C 5752   0.933   4.566  16.047  0.0087  0.4710 -0.2553
  381TMC3     O 5753   0.943   4.688  16.026 -0.2270 -0.4455  0.0470
  381TMC3     H 5754   1.172   4.645  16.110 -1.6299  0.4478  0.3767
  381TMC3    H1 5755   0.883   4.332  16.182 -1.4197  3.0880  1.1952
  381TMC3    H2 5756   1.253   4.320  16.375 -1.6516 -2.7535 -0.1347
  381TMC3    C7 5757   1.002   4.255  16.391 -0.5295 -0.3359  0.7989
  381TMC3    C8 5758   1.361   4.553  16.265  0.4406 -0.4321 -0.7299
  381TMC3    O1 5759   1.037   4.142  16.416 -0.3231 -0.4241  0.4910
  381TMC3    O2 5760   1.379   4.658  16.207 -0.2345 -0.0303 -0.6042
  382MPD2     C 5761   0.736   1.961  16.670  0.1284  0.0059  0.6600
  382MPD2    C1 5762   0.813   1.940  16.781 -0.4159  0.3798 -0.4974
  382MPD2    C2 5763   0.786   1.835  16.860 -0.5877  0.2126 -0.9056
  382MPD2    C3 5764   0.693   1.744  16.828  0.0401 -0.0816  0.5034
  382MPD2    C4 5765   0.603   1.771  16.729  0.4450  0.1338 -0.2901
  382MPD2    C5 5766   0.618   1.886  16.653 -0.2037 -0.5675 -0.5193
  382MPD2     H 5767   0.841   1.835  16.953 -2.6669 -2.1955  0.2918
  382MPD2    H1 5768   0.524   1.700  16.707 -0.4528  1.2384 -0.6360
  382MPD2    H2 5769   0.753   2.047  16.608  0.8569 -0.8308 -0.3004
  382MPD2    H3 5770   0.556   1.910  16.568  0.8135  0.9122 -0.8509
  382MPD2     N 5771   0.667   1.634  16.912  0.8445  0.3417  0.3979
  382MPD2    H5 5772   0.586   1.578  16.885  1.2037 -1.4543  3.0780
  382MPD2    N1 5773   0.933   2.017  16.810  0.2173 -0.4317 -0.0473
  382MPD2    H7 5774   0.989   1.984  16.888 -1.5197  1.0528  1.8269
  383TMC3    C1 5775   0.678   1.513  17.116 -0.4919  0.3244  0.1150
  383TMC3    C2 5776   0.546   1.473  17.106  0.1173 -0.6830 -0.3821
  383TMC3    C3 5777   0.488   1.409  17.218 -0.0240  0.0289  0.3954
  383TMC3    C4 5778   0.751   1.482  17.227  0.0243 -0.1242  0.1686
  383TMC3    C5 5779   0.686   1.424  17.333  0.3759  0.1111  0.0356
  383TMC3    C6 5780   0.556   1.396  17.337 -0.0984  0.9079  0.1246
  383TMC3     C 5781   0.744   1.594  17.015 -0.3094 -0.7622  0.5231
  383TMC3     O 5782   0.863   1.621  17.044 -0.9910 -0.2092 -0.3148
  383TMC3     H 5783   0.492   1.496  17.015  3.3895  0.0915 -2.1104
  383TMC3    H1 5784   0.858   1.501  17.229  0.1581 -1.0367  1.9302
  383TMC3    H2 5785   0.497   1.366  17.423 -0.8575  0.2659 -0.6223
  383TMC3    C7 5786   0.753   1.392  17.453 -0.7399 -0.7232  1.1756
  383TMC3    C8 5787   0.358   1.345  17.212 -0.2050  0.5272 -0.8771
  383TMC3    O1 5788   0.698   1.308  17.526  0.0279  0.1755 -0.1051
  383TMC3    O2 5789   0.285   1.390  17.121  0.0193 -0.1595  0.7744
  384MPD2     C 5790   0.875   2.817  12.055  0.0675 -0.5449 -0.6943
  384MPD2    C1 5791   0.944   2.916  12.120  0.6385 -0.0974 -0.5863
  384MPD2    C2 5792   1.076   2.934  12.090 -0.4345  0.2078  0.1554
  384MPD2    C3 5793   1.140   2.857  11.991  0.6983 -0.0552  0.2841
  384MPD2    C4 5794   1.076   2.746  11.939  0.1758 -0.5184  1.2802
  384MPD2    C5 5795   0.939   2.735  11.966 -0.1755 -0.1960  0.2865
  384MPD2     H 5796   1.122   3.018  12.141 -2.1343  2.2178 -1.6195
  384MPD2    H1 5797   1.126   2.677  11.873 -1.1470 -0.5708  0.3413
  384MPD2    H2 5798   0.769   2.798  12.069  0.4467 -2.1311  0.0728
  384MPD2    H3 5799   0.879   2.660  11.915  0.1997  0.6949 -1.4758
  384MPD2     N 5800   1.275   2.887  11.964  0.3245 -0.0815  0.0851
  384MPD2    H5 5801   1.313   2.964  12.019 -0.1973  0.4452 -0.3022
  384MPD2    N1 5802   0.881   3.006  12.213 -0.4615 -0.4568  0.1076
  384MPD2    H7 5803   0.937   3.072  12.267  0.1969 -2.0182  1.3400
  385TMC3    C1 5804   1.494   2.864  11.898 -0.2795  0.1097 -0.0837
  385TMC3    C2 5805   1.577   2.764  11.929 -0.6321 -0.2555 -0.6186
  385TMC3    C3 5806   1.666   2.781  12.040 -0.0578 -0.0945 -0.8450
  385TMC3    C4 5807   1.485   2.968  11.985  0.2729 -0.3709 -0.0971
  385TMC3    C5 5808   1.567   2.976  12.098 -0.1783 -0.4735  0.1316
  385TMC3    C6 5809   1.657   2.885  12.124 -0.6830  0.5378  0.1013
  385TMC3     C 5810   1.357   2.813  11.888  0.6839  0.3288 -0.1281
  385TMC3     O 5811   1.346   2.701  11.842 -0.1211  0.7084  0.2137
  385TMC3     H 5812   1.575   2.683  11.858 -1.7883 -0.6961 -0.0713
  385TMC3    H1 5813   1.423   3.051  11.955  1.1552  0.1437 -0.5045
  385TMC3    H2 5814   1.737   2.919  12.189  1.2584 -0.5539 -1.6965
  385TMC3    C7 5815   1.484   3.011  12.213  0.3738 -0.2365 -0.0490
  385TMC3    C8 5816   1.755   2.675  12.080 -0.5127 -0.2781  0.5603
  385TMC3    O1 5817   1.380   3.073  12.186  0.1506 -0.1042  0.1901
  385TMC3    O2 5818   1.834   2.696  12.167  0.2744 -0.0641  0.0442
  386TMC3    C1 5819   2.504   4.586  11.735  0.1220  0.3695  0.0034
  386TMC3    C2 5820   2.511   4.644  11.618 -0.0419 -0.0286  0.4776
  386TMC3    C3 5821   2.417   4.624  11.512 -0.0516  0.7570 -0.0437
  386TMC3    C4 5822   2.402   4.495  11.751  0.0300 -0.1427 -0.7657
  386TMC3    C5 5823   2.313   4.473  11.651 -0.0994  0.0712 -0.1424
  386TMC3    C6 5824   2.317   4.537  11.531  0.3254 -1.2396  0.2241
  386TMC3     C 5825   2.623   4.588  11.815  0.5527  0.2957  0.1272
  386TMC3     O 5826   2.703   4.676  11.797 -0.0930  0.3039 -0.0007
  386TMC3     H 5827   2.602   4.702  11.607  0.8258 -1.4411  0.1529
  386TMC3    H1 5828   2.377   4.441  11.843  1.3315 -2.1958 -1.6183
  386TMC3    H2 5829   2.240   4.528  11.455 -0.6689 -0.1960  1.0989
  386TMC3    C7 5830   2.175   4.435  11.687  0.4926  0.3493 -0.0021
  386TMC3    C8 5831   2.379   0.011  11.447 -0.6905 -0.3076 -0.5156
  386TMC3    O1 5832   2.117   4.471  11.786  0.1790 -0.7730 -0.1639
  386TMC3    O2 5833   2.270   0.015  11.393  0.3773 -0.1029 -0.2611
  387MPD2     C 5834   4.383   0.198  10.375 -0.4270 -0.8644 -0.2910
  387MPD2    C1 5835   4.485   0.151  10.295 -0.1353 -0.5056 -0.5891
  387MPD2    C2 5836   4.465   0.029  10.231 -0.2490 -0.4594  0.0935
  387MPD2    C3 5837   4.338   4.697  10.238  0.1627  0.0437 -0.3385
  387MPD2    C4 5838   4.233   0.020  10.316  0.2396 -0.4111 -0.2566
  387MPD2    C5 5839   4.264   0.130  10.392  0.1139 -0.3606  0.0240
  387MPD2     H 5840   4.548   4.713  10.187 -0.6260 -1.5252  0.6470
  387MPD2    H1 5841   4.141   4.706  10.346  0.0534  0.0224 -0.1057
  387MPD2    H2 5842   4.402   0.292  10.428 -1.9410  0.3347 -1.9098
  387MPD2    H3 5843   4.181   0.176  10.444  0.7099  0.8212 -0.0759
  387MPD2     N 5844   4.329   4.575  10.168  0.6509  0.1536 -0.4414
  387MPD2    H5 5845   4.402   4.549  10.103 -0.2306  1.2367 -1.8568
  387MPD2    N1 5846   4.616   0.201  10.289 -0.4358  0.5714 -0.2305
  387MPD2    H7 5847   4.685   0.142  10.243 -1.0511 -0.0600 -0.3489
  388TMC3    C1 5848   0.058   0.319  10.376  0.0900 -0.4130  0.1315
  388TMC3    C2 5849   0.157   0.394  10.312  0.6012 -0.4179 -0.2689
  388TMC3    C3 5850   0.288   0.363  10.341 -0.9751 -0.5422  0.2360
  388TMC3    C4 5851   0.091   0.209  10.450  0.0617 -0.1008 -0.5662
  388TMC3    C5 5852   0.219   0.174  10.471  0.0693  1.1036  0.3647
  388TMC3    C6 5853   0.317   0.251  10.417 -0.1714  0.2416  0.6966
  388TMC3     C 5854   4.652   0.327  10.342  0.2320 -0.0744  0.5145
  388TMC3     O 5855   4.591   0.434  10.343 -0.0033 -0.7090 -0.3211
  388TMC3     H 5856   0.121   0.471  10.245  0.2864  1.5096  2.1166
  388TMC3    H1 5857   0.013   0.161  10.508  1.4293 -0.1395  1.2057
  388TMC3    H2 5858   0.415   0.206  10.412 -1.1220 -1.7807  0.2657
  388TMC3    C7 5859   0.254   0.028  10.477 -0.4042  0.4515  0.4127
  388TMC3    C8 5860   0.385   0.395  10.244 -0.3063 -0.5712  0.4204
  388TMC3    O1 5861   0.369   4.732  10.503 -0.4529  0.2779 -0.7080
  388TMC3    O2 5862   0.466   0.311  10.215 -0.0791  0.0787 -0.0528
  389MPD2     C 5863   3.762   3.153  11.546 -0.1401  0.6152 -0.0117
  389MPD2    C1 5864   3.702   3.126  11.429  0.5665 -0.1365  0.1424
  389MPD2    C2 5865   3.598   3.040  11.429 -0.6562  0.5216 -0.0122
  389MPD2    C3 5866   3.547   2.984  11.545  0.2009 -0.2616  0.0227
  389MPD2    C4 5867   3.608   3.013  11.664  0.6633  0.4197 -0.9143
  389MPD2    C5 5868   3.722   3.096  11.665 -0.0147 -0.1316 -0.0761
  389MPD2     H 5869   3.563   3.007  11.332  1.7421 -1.9765 -0.0256
  389MPD2    H1 5870   3.580   2.979  11.763 -0.4808  0.6112 -1.1778
  389MPD2    H2 5871   3.854   3.210  11.548  0.1628  0.1480 -0.7426
  389MPD2    H3 5872   3.768   3.134  11.755  0.4130  1.8184 -1.1125
  389MPD2     N 5873   3.437   2.896  11.549 -0.2031 -0.3372 -0.9283
  389MPD2    H5 5874   3.407   2.868  11.641  2.5569 -1.4662 -0.3742
  389MPD2    N1 5875   3.762   3.185  11.313  0.1185  0.3511  0.1408
  389MPD2    H7 5876   3.823   3.263  11.337  0.3193  0.5682 -1.0552
  390TMC3    C1 5877   3.230   2.806  11.489  0.0335  0.4733  0.2378
  390TMC3    C2 5878   3.181   2.840  11.613 -0.4395  0.2716 -0.2307
  390TMC3    C3 5879   3.041   2.823  11.635  0.0957 -0.0039 -0.6487
  390TMC3    C4 5880   3.143   2.757  11.392  0.0704 -0.1175  0.4369
  390TMC3    C5 5881   3.008   2.741  11.423 -0.0363 -1.3696  0.0063
  390TMC3    C6 5882   2.955   2.790  11.541 -0.3632 -0.7175 -0.0222
  390TMC3     C 5883   3.355   2.854  11.451  0.4049  0.1510  0.3605
  390TMC3     O 5884   3.387   2.851  11.330 -0.4674 -0.2749 -0.0374
  390TMC3     H 5885   3.241   2.862  11.700  0.5892  2.0733 -1.3838
  390TMC3    H1 5886   3.201   2.722  11.307  1.3725  0.5576  1.0480
  390TMC3    H2 5887   2.850   2.790  11.570 -0.2314  1.2021  0.4536
  390TMC3    C7 5888   2.944   2.633  11.342  0.4943 -0.0832 -0.4544
  390TMC3    C8 5889   2.987   2.892  11.755  0.4491 -0.3685 -0.9520
  390TMC3    O1 5890   3.016   2.582  11.256  0.7786  0.5583 -0.4253
  390TMC3    O2 5891   3.037   3.003  11.778  0.4770  0.2598 -0.2469
  391MPD2     C 5892   3.584   4.646  11.616  1.4213  0.1742 -0.8433
  391MPD2    C1 5893   3.679   4.726  11.550  0.2780  0.0310  0.5076
  391MPD2    C2 5894   3.640   0.059  11.436 -0.2445 -0.8894 -0.1040
  391MPD2    C3 5895   3.514   0.050  11.396 -0.1561 -0.1271 -0.3525
  391MPD2    C4 5896   3.425   4.701  11.459  0.4042  0.7705  0.4967
  391MPD2    C5 5897   3.461   4.632  11.572 -0.4027 -0.1181  0.0057
  391MPD2     H 5898   3.713   0.123  11.388  0.7225  0.3820  3.0427
  391MPD2    H1 5899   3.322   4.683  11.430  0.0040  1.3879  1.5243
  391MPD2    H2 5900   3.594   4.590  11.708  0.5768  2.3758  0.5794
  391MPD2    H3 5901   3.388   4.576  11.629  0.8250 -3.2998 -1.5049
  391MPD2     N 5902   3.476   0.124  11.278  0.4858  0.0314  0.5556
  391MPD2    H5 5903   3.550   0.187  11.247 -0.0163 -0.4486 -1.5892
  391MPD2    N1 5904   3.796   0.007  11.622 -0.3625 -0.3301 -0.1067
  391MPD2    H7 5905   3.794   4.703  11.715  3.3452 -1.4585 -0.5295
  392TMC3    C1 5906   3.332   0.223  11.116 -0.1711 -0.1591  0.7883
  392TMC3    C2 5907   3.202   0.234  11.067  0.0404  0.1118 -0.1257
  392TMC3    C3 5908   3.188   0.323  10.963  0.1688 -0.3366  0.2061
  392TMC3    C4 5909   3.430   0.306  11.078 -0.1961  0.8138  0.5285
  392TMC3    C5 5910   3.408   0.396  10.974  0.3374  0.5995  0.5583
  392TMC3    C6 5911   3.287   0.406  10.915  0.4804  0.6623 -0.2286
  392TMC3     C 5912   3.355   0.116  11.211 -0.4118  0.2676  0.6113
  392TMC3     O 5913   3.256   0.052  11.246  0.0463 -0.2213 -0.2738
  392TMC3     H 5914   3.120   0.167  11.089  0.1987 -1.2353 -3.6793
  392TMC3    H1 5915   3.532   0.295  11.112 -1.1381 -0.2882  2.9609
  392TMC3    H2 5916   3.268   0.476  10.834  0.6577  1.6080  0.5476
  392TMC3    C7 5917   3.508   0.492  10.957 -0.0171  0.3996 -0.6535
  392TMC3    C8 5918   3.081   0.291  10.868  1.0927 -0.4823  0.0503
  392TMC3    O1 5919   3.600   0.493  11.042 -0.1656  0.1641  0.5446
  392TMC3    O2 5920   3.047   0.176  10.843 -0.6263 -0.3049 -0.0725
  393TMC3    C1 5921   1.575   2.698  10.389 -0.1168 -0.2232  0.1622
  393TMC3    C2 5922   1.531   2.596  10.313 -0.5651  0.4889 -0.1758
  393TMC3    C3 5923   1.448   2.502  10.374 -0.9180 -0.1089 -0.0709
  393TMC3    C4 5924   1.552   2.696  10.518 -0.4257  0.2633  0.3526
  393TMC3    C5 5925   1.461   2.605  10.574 -0.6976 -0.3182  0.4463
  393TMC3    C6 5926   1.402   2.509  10.504  0.6547  0.4093 -0.2864
  393TMC3     C 5927   1.689   2.776  10.341  0.5608  0.0403  0.1269
  393TMC3     O 5928   1.747   2.730  10.244  0.4250  0.0411 -0.9574
  393TMC3     H 5929   1.562   2.593  10.209 -1.8039  0.0243 -0.5297
  393TMC3    H1 5930   1.593   2.781  10.571  1.7925 -1.4201  1.3320
  393TMC3    H2 5931   1.332   2.440  10.551 -0.7532  1.7465 -0.4180
  393TMC3    C7 5932   1.445   2.605  10.721 -0.1486  0.8163 -0.2328
  393TMC3    C8 5933   1.368   2.409  10.293 -0.5769  0.0183 -0.3282
  393TMC3    O1 5934   1.363   2.531  10.770 -0.3625  1.0976 -0.3925
  393TMC3    O2 5935   1.274   2.343  10.346  0.2951  0.1685 -0.2442
  394TMC3    C1 5936   3.776   3.248  11.087 -0.0488 -0.6318 -0.1112
  394TMC3    C2 5937   3.752   3.224  10.952  0.0424 -0.1965 -1.1255
  394TMC3    C3 5938   3.735   3.332  10.866 -0.2167 -0.0768 -0.0839
  394TMC3    C4 5939   3.785   3.381  11.134 -0.2055  0.1531 -0.6912
  394TMC3    C5 5940   3.769   3.483  11.042 -0.2034  0.0233  0.2520
  394TMC3    C6 5941   3.751   3.461  10.912 -0.0924  0.0706 -0.1027
  394TMC3     C 5942   3.731   3.150  11.185 -0.2997 -0.2118  1.0080
  394TMC3     O 5943   3.676   3.045  11.143  0.6648  0.3146 -0.2199
  394TMC3     H 5944   3.725   3.122  10.925  3.2538 -1.2050 -0.5387
  394TMC3    H1 5945   3.785   3.405  11.239  4.4499  2.2391 -1.1978
  394TMC3    H2 5946   3.765   3.540  10.839  0.7250  0.5605  0.5906
  394TMC3    C7 5947   3.776   3.621  11.067  0.6831  0.0200 -0.1386
  394TMC3    C8 5948   3.663   3.325  10.737 -1.1271 -0.0738 -0.2262
  394TMC3    O1 5949   3.701   3.695  10.999  0.1432  0.0494  0.0113
  394TMC3    O2 5950   3.683   3.429  10.672  0.6635  0.2857 -0.7419
  395TMC3    C1 5951   3.910   0.224  15.060 -0.1062 -0.6546 -0.7876
  395TMC3    C2 5952   3.797   0.255  14.993  0.1674  0.5988 -0.7083
  395TMC3    C3 5953   3.818   0.347  14.892 -0.3052 -0.0622 -0.5717
  395TMC3    C4 5954   4.039   0.265  15.027 -0.9022  0.2623 -0.0927
  395TMC3    C5 5955   4.050   0.339  14.920  0.1335 -0.0653 -0.4245
  395TMC3    C6 5956   3.937   0.383  14.848 -0.1773 -0.5392  0.2065
  395TMC3     C 5957   3.889   0.165  15.194  0.0819 -0.0306 -0.8905
  395TMC3     O 5958   3.775   0.169  15.233  0.0211 -0.2001 -0.1420
  395TMC3     H 5959   3.705   0.212  15.028  0.7152 -2.0556 -2.5628
  395TMC3    H1 5960   4.127   0.249  15.088 -0.9835  1.2134  0.2857
  395TMC3    H2 5961   3.937   0.442  14.757 -1.9738 -1.2032 -0.2322
  395TMC3    C7 5962   4.177   0.382  14.870 -0.6402 -0.1053 -0.0253
  395TMC3    C8 5963   3.700   0.395  14.819 -0.1216  0.1248  0.6313
  395TMC3    O1 5964   4.268   0.415  14.941  0.1738 -0.3298 -0.0298
  395TMC3    O2 5965   3.723   0.481  14.732 -0.1250  0.8645  0.3813
  396MPD2     C 5966   3.563   1.569  16.902 -0.2876  1.5053 -0.5880
  396MPD2    C1 5967   3.677   1.615  16.961  0.3124  0.8605  1.0274
  396MPD2    C2 5968   3.761   1.696  16.881 -0.4458 -0.2228 -0.3948
  396MPD2    C3 5969   3.734   1.725  16.752  0.0730  1.1100 -0.3697
  396MPD2    C4 5970   3.608   1.698  16.704  0.1428  0.4563 -0.6448
  396MPD2    C5 5971   3.527   1.617  16.776  0.1660  1.1333  0.4968
  396MPD2     H 5972   3.851   1.735  16.929 -0.5606 -0.0701 -0.3034
  396MPD2    H1 5973   3.580   1.718  16.601  0.2964  0.9816 -0.5849
  396MPD2    H2 5974   3.494   1.497  16.946  1.5817 -0.2299 -0.5308
  396MPD2    H3 5975   3.437   1.584  16.724 -0.8713  0.1744  2.9193
  396MPD2     N 5976   3.832   1.798  16.684  0.8661 -0.3253  0.8576
  396MPD2    H5 5977   3.912   1.825  16.739  0.2136 -1.0281  2.1400
  396MPD2    N1 5978   3.707   1.575  17.091  0.1624  0.3864  0.3242
  396MPD2    H7 5979   3.647   1.501  17.128  0.9969  0.4628  1.8312
  397TMC3    C1 5980   3.792   1.586  17.310  0.1434 -0.0449  0.4028
  397TMC3    C2 5981   3.905   1.574  17.386  0.6621 -0.4041  0.5876
  397TMC3    C3 5982   3.928   1.464  17.462 -0.4726 -0.4031 -0.0864
  397TMC3    C4 5983   3.691   1.495  17.341  0.0886  0.4326  0.0224
  397TMC3    C5 5984   3.707   1.395  17.429  0.4462  0.1987  0.1398
  397TMC3    C6 5985   3.826   1.380  17.494  0.5229 -0.0320  0.0753
  397TMC3     C 5986   3.806   1.620  17.173  0.2217 -0.6500  0.1980
  397TMC3     O 5987   3.897   1.703  17.161 -0.3186  0.0568 -0.1235
  397TMC3     H 5988   3.989   1.639  17.365  1.2162 -1.2434  0.1986
  397TMC3    H1 5989   3.592   1.500  17.298  0.5804 -0.7830 -1.2484
  397TMC3    H2 5990   3.842   1.294  17.559  2.0707  0.6845  0.6290
  397TMC3    C7 5991   3.591   1.325  17.482  0.6287 -0.5690 -0.1222
  397TMC3    C8 5992   4.042   1.461  17.551  0.9894  0.4365  0.3041
  397TMC3    O1 5993   3.499   1.308  17.403  0.3343 -0.2329  0.3877
  397TMC3    O2 5994   4.021   1.443  17.669 -0.1141 -0.5563  0.0000
  398MPD2     C 5995   1.462   2.470   0.060  0.1524  0.0152  0.5079
  398MPD2    C1 5996   1.553   2.398   0.141  1.0004 -0.8365 -0.2662
  398MPD2    C2 5997   1.681   2.437   0.147  0.1743 -0.2003 -0.4182
  398MPD2    C3 5998   1.727   2.538   0.068 -0.1986  0.1575  0.2295
  398MPD2    C4 5999   1.637   2.601  17.724  0.7224  0.1607  0.4351
  398MPD2    C5 6000   1.504   2.571  17.725  0.5168 -0.1932  0.5547
  398MPD2     H 6001   1.749   2.377   0.207  1.0025  0.6215 -0.5512
  398MPD2    H1 6002   1.668   2.673  17.649  1.6146 -0.4004  0.2690
  398MPD2    H2 6003   1.358   2.444   0.050 -0.1926  2.0368 -1.1574
  398MPD2    H3 6004   1.444   2.627  17.654  1.6054  0.7738  0.3820
  398MPD2     N 6005   1.865   2.565   0.075 -0.1272 -0.9389 -0.3489
  398MPD2    H5 6006   1.927   2.501   0.124 -1.5783 -1.5273  0.7039
  398MPD2    N1 6007   1.510   2.291   0.223  0.4564 -0.3213  0.1247
  398MPD2    H7 6008   1.576   2.254   0.290  0.6618  2.2499  1.3278
  399TMC3    C1 6009   1.377   2.120   0.319 -0.3645  0.1275 -0.1308
  399TMC3    C2 6010   1.461   2.127   0.422 -0.8135  1.0466 -0.4328
  399TMC3    C3 6011   1.494   2.020   0.496  0.1071 -0.5108  0.1775
  399TMC3    C4 6012   1.320   1.999   0.281 -0.3487 -1.2315  0.4144
  399TMC3    C5 6013   1.359   1.897   0.358 -0.0316  0.1208  1.0129
  399TMC3    C6 6014   1.447   1.895   0.462  0.9665 -0.0860  0.9248
  399TMC3     C 6015   1.397   2.221   0.209 -0.9435  0.7425 -0.0264
  399TMC3     O 6016   1.319   2.214   0.112  0.0095  0.2928 -0.3402
  399TMC3     H 6017   1.500   2.224   0.451  0.8689  0.8381 -1.9442
  399TMC3    H1 6018   1.249   2.004   0.199 -1.2033  0.8775  1.2855
  399TMC3    H2 6019   1.491   1.802   0.497 -0.0230 -0.3786  1.3747
  399TMC3    C7 6020   1.357   1.772   0.285 -0.3042 -0.7102 -0.4808
  399TMC3    C8 6021   1.603   2.040   0.592 -0.3877 -0.4725  0.2517
  399TMC3    O1 6022   1.361   1.663   0.346 -0.3400 -0.3438  0.3511
  399TMC3    O2 6023   1.627   2.156   0.617 -0.3980  0.2251  0.1607
  400TMC3    C1 6024   0.223   1.046  16.959 -0.0923 -0.6888  0.7099
  400TMC3    C2 6025   0.117   0.962  16.943 -0.2288  1.2085 -0.5669
  400TMC3    C3 6026   0.007   1.015  16.875  0.4671 -0.4745  0.1949
  400TMC3    C4 6027   0.221   1.175  16.913 -0.2898 -0.8849 -0.2924
  400TMC3    C5 6028   0.110   1.219  16.841  1.0735 -0.3686 -0.3695
  400TMC3    C6 6029   0.004   1.136  16.823  0.0026  0.6826  0.3387
  400TMC3     C 6030   0.326   1.006  17.047  0.1768 -0.1129 -0.3216
  400TMC3     O 6031   0.315   0.901  17.109 -0.8311  0.0125  0.2415
  400TMC3     H 6032   0.109   0.869  16.999  0.6146  0.3005 -1.9505
  400TMC3    H1 6033   0.309   1.237  16.915 -1.5684  0.8878  0.9884
  400TMC3    H2 6034   4.672   1.161  16.743 -0.7679 -1.4438  0.3472
  400TMC3    C7 6035   0.090   1.360  16.800  0.5474  0.6561 -0.9944
  400TMC3    C8 6036   4.637   0.918  16.858 -0.0098  0.5040 -0.0768
  400TMC3    O1 6037   4.730   1.392  16.735 -0.3988  0.3328 -0.1880
  400TMC3    O2 6038   4.524   0.965  16.856  0.3615 -0.2067 -0.9043
  401MPD2     C 6039   3.521   0.504   0.109 -0.4153  0.3621 -0.6136
  401MPD2    C1 6040   3.558   0.398   0.179  0.2679 -0.2422  0.2369
  401MPD2    C2 6041   3.483   0.283   0.158 -0.4203 -0.1778 -0.0215
  401MPD2    C3 6042   3.379   0.263   0.069 -0.0230 -0.9459  0.2403
  401MPD2    C4 6043   3.351   0.381  17.736 -0.1692  0.0807 -0.4943
  401MPD2    C5 6044   3.420   0.498   0.012  0.8994  0.1441 -0.1025
  401MPD2     H 6045   3.501   0.197   0.222 -0.0238 -0.3230 -0.3270
  401MPD2    H1 6046   3.271   0.390  17.664  0.5027  2.9922 -0.8820
  401MPD2    H2 6047   3.570   0.600   0.120  0.5524 -0.0333 -1.4034
  401MPD2    H3 6048   3.407   0.583  17.691 -0.4160 -0.5218 -0.7043
  401MPD2     N 6049   3.303   0.146   0.071 -0.3746 -0.8373  0.6100
  401MPD2    H5 6050   3.335   0.082   0.143 -0.7152 -3.7842 -1.8674
  401MPD2    N1 6051   3.661   0.386   0.281  0.1122 -0.0760  0.8873
  401MPD2    H7 6052   3.666   0.297   0.329 -1.0369 -0.5690  0.0812
  402TMC3    C1 6053   3.119   0.009   0.060 -0.3252  0.1231  0.5840
  402TMC3    C2 6054   3.135   0.017   0.198 -0.0140  0.7689 -0.2290
  402TMC3    C3 6055   3.149   4.635   0.264  0.6023  0.6947 -0.2984
  402TMC3    C4 6056   3.116   4.625   0.001 -0.0940  0.3345  0.2537
  402TMC3    C5 6057   3.125   4.513   0.075 -1.1681 -1.0690  0.0309
  402TMC3    C6 6058   3.144   4.512   0.209  0.4868  0.2961 -0.0221
  402TMC3     C 6059   3.196   0.123  17.738  0.0320  0.1339  0.3796
  402TMC3     O 6060   3.164   0.181  17.641 -0.0784 -0.9507  0.0803
  402TMC3     H 6061   3.104   0.110   0.245  3.0392  1.6459  0.0908
  402TMC3    H1 6062   3.125   4.617  17.637  1.1981 -2.2433  0.5617
  402TMC3    H2 6063   3.165   4.428   0.274 -0.2181 -0.8358 -1.2745
  402TMC3    C7 6064   3.168   4.402  17.741  0.1627 -0.3489  0.9225
  402TMC3    C8 6065   3.242   4.653   0.375 -0.6748 -0.8548 -0.0932
  402TMC3    O1 6066   3.120   4.382  17.629 -0.3925 -0.9276  0.1923
  402TMC3    O2 6067   3.282   4.550   0.430 -0.1438 -0.2574  0.5662
  403MPD2     C 6068   1.854   2.318  13.337  0.0965 -0.1795 -0.4038
  403MPD2    C1 6069   1.820   2.392  13.450 -0.8039 -0.6638 -0.2349
  403MPD2    C2 6070   1.918   2.427  13.536  0.6284  0.4048 -0.1762
  403MPD2    C3 6071   2.045   2.379  13.517 -0.7456  0.7521  0.6078
  403MPD2    C4 6072   2.082   2.294  13.413  0.2897 -0.1195  0.8599
  403MPD2    C5 6073   1.983   2.269  13.322  0.5216  0.3770 -0.2224
  403MPD2     H 6074   1.892   2.496  13.616  1.3972  0.1394  0.3071
  403MPD2    H1 6075   2.181   2.261  13.385  0.6285  1.2357  0.4742
  403MPD2    H2 6076   1.781   2.300  13.258 -1.2760  1.5474  0.4695
  403MPD2    H3 6077   1.994   2.210  13.232  0.1768  0.5262 -0.3643
  403MPD2     N 6078   2.144   2.428  13.600 -0.2318  0.5102  0.3072
  403MPD2    H5 6079   2.106   2.498  13.663 -0.1927  1.4418 -0.7151
  403MPD2    N1 6080   1.683   2.429  13.461 -0.4821  0.1377  0.1808
  403MPD2    H7 6081   1.621   2.387  13.392 -0.9557  0.0279  0.6765
  404TMC3    C1 6082   1.476   2.492  13.525 -0.1830  0.2544  0.4258
  404TMC3    C2 6083   1.411   2.408  13.603 -0.3348  0.3953  0.2292
  404TMC3    C3 6084   1.317   2.321  13.558 -0.3905 -0.2616 -0.3095
  404TMC3    C4 6085   1.442   2.487  13.395 -0.3825 -0.1487 -0.1356
  404TMC3    C5 6086   1.344   2.400  13.347 -0.3551 -0.4797 -0.5221
  404TMC3    C6 6087   1.277   2.315  13.423 -0.6322 -0.6226 -0.5628
  404TMC3     C 6088   1.619   2.495  13.561  0.0625  0.2886  0.4832
  404TMC3     O 6089   1.647   2.501  13.682 -0.2672  0.2167 -0.1764
  404TMC3     H 6090   1.447   2.392  13.705  1.1033 -3.4807 -0.8690
  404TMC3    H1 6091   1.496   2.541  13.319 -0.4509 -1.2193 -0.9493
  404TMC3    H2 6092   1.213   2.239  13.380  0.3313 -0.4006 -2.3930
  404TMC3    C7 6093   1.287   2.447  13.222 -0.1150 -0.1180 -0.6101
  404TMC3    C8 6094   1.337   2.192  13.622  0.1167 -0.0985  0.3650
  404TMC3    O1 6095   1.312   2.564  13.188  0.2395  0.1115  0.5656
  404TMC3    O2 6096   1.377   2.095  13.559  0.1260 -0.1792 -0.5685
  405MPD2     C 6097   2.813   3.015  14.422 -0.4959  0.0912 -0.3557
  405MPD2    C1 6098   2.737   2.928  14.348 -0.0346  0.1513 -0.1666
  405MPD2    C2 6099   2.616   2.971  14.299  0.2482  0.1517 -0.3508
  405MPD2    C3 6100   2.580   3.104  14.325 -0.6795  0.0052  0.2808
  405MPD2    C4 6101   2.663   3.189  14.402 -0.2581 -0.3603  0.3581
  405MPD2    C5 6102   2.780   3.140  14.449  0.1225  0.4158 -0.7951
  405MPD2     H 6103   2.544   2.913  14.242  0.5631 -0.9793  0.4230
  405MPD2    H1 6104   2.633   3.290  14.426  1.0929 -0.3344  1.9880
  405MPD2    H2 6105   2.907   2.981  14.465 -0.0841 -1.3855 -2.4801
  405MPD2    H3 6106   2.851   3.204  14.500 -2.1654  2.4556 -0.1354
  405MPD2     N 6107   2.452   3.135  14.288  0.0239 -0.6875 -0.7491
  405MPD2    H5 6108   2.394   3.064  14.245 -0.4399 -0.0109 -1.2486
  405MPD2    N1 6109   2.766   2.792  14.350  0.2249 -0.4330 -0.0529
  405MPD2    H7 6110   2.849   2.769  14.404 -0.8301 -2.4832  0.6876
  406TMC3    C1 6111   2.023   3.295  14.347 -0.1812 -0.9343  0.4239
  406TMC3    C2 6112   1.978   3.170  14.310  0.5724 -0.3925  0.3842
  406TMC3    C3 6113   2.063   3.101  14.239 -0.4202 -0.3750 -0.8648
  406TMC3    C4 6114   2.153   3.337  14.336 -1.0885 -0.5366 -0.8496
  406TMC3    C5 6115   2.237   3.245  14.276  0.4152  0.4527 -0.5277
  406TMC3    C6 6116   2.195   3.130  14.222  0.6042  0.4432 -0.9833
  406TMC3     C 6117   1.934   3.388  14.423  0.6434 -0.0104  0.4038
  406TMC3     O 6118   1.980   3.501  14.430  0.1315  0.0681  0.3608
  406TMC3     H 6119   1.873   3.145  14.319  1.0135 -2.7147 -0.6883
  406TMC3    H1 6120   2.181   3.427  14.391  1.1869 -0.2331 -2.4981
  406TMC3    H2 6121   2.254   3.076  14.150 -2.1098 -2.9930 -0.6698
  406TMC3    C7 6122   2.378   3.246  14.321  0.0868  0.0224 -0.3036
  406TMC3    C8 6123   2.025   2.965  14.186 -0.0475 -0.8711 -0.5468
  406TMC3    O1 6124   2.412   3.348  14.380  0.1372  0.2105 -0.3507
  406TMC3    O2 6125   1.926   2.955  14.113  0.0256 -0.1712  0.1401
  407MPD2     C 6126   3.926   0.262  10.077  0.5058 -0.6156 -0.4270
  407MPD2    C1 6127   4.049   0.284  10.138  0.1555 -0.4479  0.5403
  407MPD2    C2 6128   4.053   0.353  10.254 -0.4621 -0.2298 -0.5243
  407MPD2    C3 6129   3.936   0.375  10.322  0.3167 -0.1706 -0.2356
  407MPD2    C4 6130   3.815   0.340  10.265 -0.8560  0.0606 -0.3367
  407MPD2    C5 6131   3.811   0.293  10.136  0.5640 -0.1253  0.2406
  407MPD2     H 6132   4.151   0.367  10.300 -0.2735 -1.8008 -0.4251
  407MPD2    H1 6133   3.722   0.363  10.315  0.7231  2.5773  1.4287
  407MPD2    H2 6134   3.918   0.209   9.982 -0.8146  1.9054 -1.7067
  407MPD2    H3 6135   3.716   0.279  10.085  0.6853  0.6645 -0.2168
  407MPD2     N 6136   3.933   0.434  10.452  0.3444  0.0197 -0.3338
  407MPD2    H5 6137   3.844   0.439  10.501  0.4006  0.4411 -0.2820
  407MPD2    N1 6138   4.174   0.267  10.077  0.2130  0.4932 -0.2545
  407MPD2    H7 6139   4.255   0.317  10.114 -0.7995  1.2391  0.9336
  408TMC3    C1 6140   4.330   0.180   9.931 -0.6547  0.2943 -0.1340
  408TMC3    C2 6141   4.392   0.063   9.913 -0.2390 -0.1400 -0.4095
  408TMC3    C3 6142   4.528   0.064   9.904  0.2674  0.0811 -0.2204
  408TMC3    C4 6143   4.391   0.300   9.939 -0.6634  0.9641 -0.5809
  408TMC3    C5 6144   4.527   0.303   9.941  0.3989  0.4083  0.6871
  408TMC3    C6 6145   4.596   0.183   9.920  0.6383  0.1963 -0.1675
  408TMC3     C 6146   4.189   0.183   9.972  0.9988 -0.4202 -0.8561
  408TMC3     O 6147   4.118   0.101   9.912 -0.2457  0.6722  0.4428
  408TMC3     H 6148   4.337   4.707   9.897 -0.9773  0.4753 -1.4201
  408TMC3    H1 6149   4.344   0.397   9.952 -1.6761  0.7215 -2.5113
  408TMC3    H2 6150   4.704   0.185   9.920  0.6256  1.7217 -1.5579
  408TMC3    C7 6151   4.605   0.424   9.899 -0.2077  0.7145 -0.2363
  408TMC3    C8 6152   4.594   4.676   9.919 -0.2263 -0.8442  0.6168
  408TMC3    O1 6153   4.704   0.404   9.827 -0.1798  0.9248  0.4644
  408TMC3    O2 6154   4.539   4.584   9.978  0.7391  0.4959 -0.1573
  409MPD2     C 6155   3.939   0.545  17.013 -0.1267 -0.1488  0.4973
  409MPD2    C1 6156   4.036   0.591  17.102  0.2911 -0.1758  0.1683
  409MPD2    C2 6157   4.077   0.724  17.092  1.2288  0.0927 -0.5009
  409MPD2    C3 6158   4.034   0.802  16.989 -0.2243 -0.2584 -0.0245
  409MPD2    C4 6159   3.936   0.749  16.899  0.0063  0.0459 -0.2234
  409MPD2    C5 6160   3.881   0.626  16.918 -1.0234  0.0708  0.8504
  409MPD2     H 6161   4.152   0.760  17.161  1.2266  1.5145 -1.2458
  409MPD2    H1 6162   3.897   0.812  16.820 -0.0881 -0.1397 -0.3246
  409MPD2    H2 6163   3.900   0.444  17.013 -1.0547  0.1999  3.2869
  409MPD2    H3 6164   3.804   0.590  16.850  1.2935  0.6842 -2.1111
  409MPD2     N 6165   4.086   0.937  16.967 -0.2514 -0.1958 -0.5813
  409MPD2    H5 6166   4.048   0.987  16.888  0.0833  1.5064  0.3407
  409MPD2    N1 6167   4.085   0.512  17.211 -0.5192 -0.0376 -0.1901
  409MPD2    H7 6168   4.154   0.564  17.264  1.3378 -1.0721 -1.6022
  410TMC3    C1 6169   4.264   1.100  17.011 -0.3513  0.0948  0.8566
  410TMC3    C2 6170   4.359   1.147  17.094  0.1296 -0.8715  0.1604
  410TMC3    C3 6171   4.447   1.243  17.050 -0.3279  0.0893  0.5668
  410TMC3    C4 6172   4.262   1.133  16.877  0.2249 -0.3341  0.6506
  410TMC3    C5 6173   4.344   1.239  16.839 -0.0398  0.0419  0.4699
  410TMC3    C6 6174   4.441   1.293  16.921 -0.2686  0.1607  0.3829
  410TMC3     C 6175   4.169   0.996  17.057 -0.6152 -0.2784 -0.0059
  410TMC3     O 6176   4.175   0.976  17.178  0.3184 -0.0798 -0.6756
  410TMC3     H 6177   4.375   1.109  17.194  0.4614 -2.7281 -0.5969
  410TMC3    H1 6178   4.196   1.089  16.804 -0.2561  1.6329 -0.1061
  410TMC3    H2 6179   4.508   1.371  16.888  0.7698 -1.8394 -2.1770
  410TMC3    C7 6180   4.358   1.251  16.699  0.2940  0.1256  0.8315
  410TMC3    C8 6181   4.572   1.262  17.117  0.0823 -0.2664  0.3237
  410TMC3    O1 6182   4.319   1.150  16.644  0.5627  0.2817 -0.2632
  410TMC3    O2 6183   4.637   1.364  17.098  0.4185 -0.4979  0.4055
  411MPD2     C 6184   4.582   1.273  14.321  0.6477  0.0432  0.1164
  411MPD2    C1 6185   4.527   1.294  14.445 -0.3235 -0.6268 -0.4618
  411MPD2    C2 6186   4.419   1.216  14.483 -0.4998 -0.1919 -0.0811
  411MPD2    C3 6187   4.375   1.116  14.406  0.2200  0.1076  0.5266
  411MPD2    C4 6188   4.433   1.092  14.290  0.1225 -0.6122  0.5397
  411MPD2    C5 6189   4.540   1.168  14.242  0.3713 -0.2448 -0.9605
  411MPD2     H 6190   4.375   1.229  14.581 -2.7149  0.1243 -1.1383
  411MPD2    H1 6191   4.419   1.006  14.226 -0.3884 -1.9797  2.4881
  411MPD2    H2 6192   4.667   1.329  14.283  0.0377  1.1223  0.3574
  411MPD2    H3 6193   4.575   1.137  14.144  0.1704  0.1262 -1.1518
  411MPD2     N 6194   4.255   1.037  14.437 -0.1383  0.4286 -0.0966
  411MPD2    H5 6195   4.216   0.983  14.360 -1.1484 -1.5524  1.8120
  411MPD2    N1 6196   4.579   1.404  14.520 -0.1466 -0.6359  0.0533
  411MPD2    H7 6197   4.625   1.476  14.466  1.3043 -0.7596  1.1271
  412TMC3    C1 6198   4.073   0.954  14.558  0.3689 -0.3930  0.1530
  412TMC3    C2 6199   3.980   0.972  14.656 -0.1878 -0.0473 -0.1377
  412TMC3    C3 6200   3.883   0.875  14.665  0.0667  1.0076  0.1970
  412TMC3    C4 6201   4.080   0.843  14.479  0.4337 -0.0728 -0.1620
  412TMC3    C5 6202   3.999   0.744  14.513  0.4036 -0.0984 -0.1312
  412TMC3    C6 6203   3.904   0.751  14.610  1.0087 -0.2695  0.1377
  412TMC3     C 6204   4.178   1.048  14.551 -0.5314 -0.4251 -0.8221
  412TMC3     O 6205   4.194   1.122  14.645  0.2098  0.2613 -0.4562
  412TMC3     H 6206   3.968   1.074  14.689  2.4209 -0.2985  1.5463
  412TMC3    H1 6207   4.156   0.829  14.403  2.2264 -0.5671  1.7073
  412TMC3    H2 6208   3.836   0.666  14.609  0.6514 -0.0031  1.3859
  412TMC3    C7 6209   3.964   0.656  14.406  0.5107 -0.0168  0.1216
  412TMC3    C8 6210   3.762   0.927  14.604 -0.4628 -0.0860  0.5336
  412TMC3    O1 6211   3.926   0.544  14.435  0.0096 -0.2602 -0.2606
  412TMC3    O2 6212   3.776   1.040  14.554  0.0993  0.4340 -0.4450
  413MPD2     C 6213   1.681   4.705  15.348 -0.1870  0.0146  0.0741
  413MPD2    C1 6214   1.567   4.645  15.295  0.5813  0.5968 -0.3254
  413MPD2    C2 6215   1.558   4.507  15.299 -0.1505 -0.3120 -0.2714
  413MPD2    C3 6216   1.658   4.435  15.360  0.3368 -0.4017  0.5127
  413MPD2    C4 6217   1.769   4.494  15.415 -0.3571 -0.4723  0.1050
  413MPD2    C5 6218   1.781   4.633  15.406  0.0696  0.3326  0.0436
  413MPD2     H 6219   1.470   4.457  15.261 -0.1708 -0.7349  0.3414
  413MPD2    H1 6220   1.847   4.439  15.467 -0.0081  1.8568  2.0661
  413MPD2    H2 6221   1.684   0.076  15.358 -0.8548 -0.2642  3.1835
  413MPD2    H3 6222   1.869   4.686  15.442  0.4770  0.2443 -0.8301
  413MPD2     N 6223   1.637   4.297  15.347 -0.2481 -0.6532  0.1279
  413MPD2    H5 6224   1.547   4.264  15.315 -0.1263 -1.5965  0.7679
  413MPD2    N1 6225   1.458   4.726  15.249  0.1003  0.6827 -0.4186
  413MPD2    H7 6226   1.476   0.089  15.248  0.4478  0.6248 -0.0182
  414TMC3    C1 6227   1.673   4.070  15.360 -0.1778 -0.6286 -1.2530
  414TMC3    C2 6228   1.718   3.963  15.437 -0.4433  0.2921  0.3573
  414TMC3    C3 6229   1.651   3.848  15.414  0.6158 -0.0569  0.2249
  414TMC3    C4 6230   1.578   4.062  15.260  0.7282  0.3219  0.1017
  414TMC3    C5 6231   1.521   3.940  15.246  0.8015 -0.1832  0.7828
  414TMC3    C6 6232   1.541   3.844  15.338 -0.2064 -0.5629 -0.0597
  414TMC3     C 6233   1.729   4.199  15.390 -0.0489  1.0233  0.0996
  414TMC3     O 6234   1.834   4.219  15.455 -0.1773  0.0371 -0.1377
  414TMC3     H 6235   1.796   3.970  15.511 -0.2531 -0.8200  0.2619
  414TMC3    H1 6236   1.547   4.134  15.185  1.3897  0.2700 -0.2271
  414TMC3    H2 6237   1.510   3.745  15.309 -2.0024 -0.4897  1.6621
  414TMC3    C7 6238   1.541   3.890  15.106  0.3038  0.4626  0.2649
  414TMC3    C8 6239   1.742   3.739  15.379  0.0352  0.1832 -0.2642
  414TMC3    O1 6240   1.490   3.784  15.076  0.5852  0.1264 -0.5260
  414TMC3    O2 6241   1.689   3.635  15.339  0.1498  0.2180  0.0274
  415TMC3    C1 6242   1.762   2.251  10.364  0.5379  0.2930 -0.1632
  415TMC3    C2 6243   1.862   2.296  10.283  0.4237 -0.0384  0.3015
  415TMC3    C3 6244   1.868   2.264  10.154 -0.1097  0.7084 -0.3740
  415TMC3    C4 6245   1.652   2.176  10.323 -0.3098  0.4648  0.0970
  415TMC3    C5 6246   1.667   2.143  10.189 -0.3172  0.2695  0.2926
  415TMC3    C6 6247   1.766   2.191  10.105  0.4603 -1.1142  0.5444
  415TMC3     C 6248   1.767   2.284  10.505  0.1538  0.0616 -1.1001
  415TMC3     O 6249   1.838   2.382  10.530  0.0970 -0.5323 -0.5364
  415TMC3     H 6250   1.939   2.359  10.324  0.0173 -0.1620  1.2524
  415TMC3    H1 6251   1.575   2.131  10.384 -0.8892  0.8320 -0.3743
  415TMC3    H2 6252   1.762   2.158  10.001  1.5418  3.8300 -1.0583
  415TMC3    C7 6253   1.561   2.078  10.132 -0.0884 -0.5624 -0.2105
  415TMC3    C8 6254   1.982   2.289  10.068 -0.1714  0.4272 -0.2201
  415TMC3    O1 6255   1.553   2.102  10.012  0.1820 -0.1392 -0.0718
  415TMC3    O2 6256   1.991   2.220   9.969  0.7258  0.2726 -0.1948
  416MPD2     C 6257   3.620   1.266  11.986  0.2117 -1.2493 -0.2291
  416MPD2    C1 6258   3.556   1.271  11.861  0.0811  0.3341  0.2657
  416MPD2    C2 6259   3.579   1.174  11.768 -0.2417  0.3480  0.5498
  416MPD2    C3 6260   3.666   1.064  11.794 -0.2813  0.2846  0.4257
  416MPD2    C4 6261   3.720   1.060  11.920  0.1732 -0.2046 -0.2828
  416MPD2    C5 6262   3.699   1.159  12.013 -0.9859 -0.4533 -0.0151
  416MPD2     H 6263   3.522   1.182  11.676  0.4008  0.1338  0.1282
  416MPD2    H1 6264   3.771   0.969  11.951 -0.1733 -0.4053 -0.2957
  416MPD2    H2 6265   3.599   1.337  12.065 -2.7150 -0.6259 -1.5841
  416MPD2    H3 6266   3.726   1.144  12.117  0.2427 -0.2337 -0.3069
  416MPD2     N 6267   3.681   0.956  11.710  0.9199 -0.4443 -0.4108
  416MPD2    H5 6268   3.730   0.877  11.750  0.8043  0.6145  1.8171
  416MPD2    N1 6269   3.460   1.374  11.844 -0.0506  0.0573 -0.0463
  416MPD2    H7 6270   3.435   1.424  11.930 -0.1145  4.7124 -2.7665
  417TMC3    C1 6271   3.242   1.425  11.775 -0.2791  0.5609  0.3126
  417TMC3    C2 6272   3.200   1.376  11.898 -0.0367  0.8845 -0.4810
  417TMC3    C3 6273   3.073   1.345  11.913  0.0400  0.5526  0.0475
  417TMC3    C4 6274   3.159   1.419  11.671  0.4406  0.6292  0.2691
  417TMC3    C5 6275   3.028   1.385  11.684 -0.2147  0.1984  1.0810
  417TMC3    C6 6276   2.982   1.352  11.808  0.1032 -0.3117  0.0153
  417TMC3     C 6277   3.380   1.393  11.734 -0.0623  0.2653 -0.2992
  417TMC3     O 6278   3.398   1.353  11.623  0.6026 -0.0467  0.3244
  417TMC3     H 6279   3.264   1.372  11.985 -1.8619 -0.1875  0.8127
  417TMC3    H1 6280   3.184   1.456  11.572 -1.9962 -1.6336 -1.2110
  417TMC3    H2 6281   2.877   1.331  11.828 -0.1297  1.3978  0.6650
  417TMC3    C7 6282   2.938   1.398  11.573 -0.7418 -0.0199 -0.8221
  417TMC3    C8 6283   3.019   1.320  12.047  0.3485  0.3927  0.2245
  417TMC3    O1 6284   2.970   1.457  11.472  0.1872  0.0517 -0.2002
  417TMC3    O2 6285   2.898   1.329  12.062  0.3486 -0.4662 -0.4457
  418TMC3    C1 6286   2.280   2.785   0.011  0.0405  0.1825 -0.2567
  418TMC3    C2 6287   2.152   2.767  17.713  0.3629  0.1827  0.5126
  418TMC3    C3 6288   2.065   2.675   0.034  0.2081  0.1718  0.3591
  418TMC3    C4 6289   2.336   2.712   0.113  0.4896  0.7895 -0.1547
  418TMC3    C5 6290   2.251   2.633   0.182 -0.7362  0.5964  0.1231
  418TMC3    C6 6291   2.117   2.619   0.146  0.5013 -0.4225 -0.0291
  418TMC3     C 6292   2.370   2.855  17.672 -0.3686  0.2441  0.1156
  418TMC3     O 6293   2.328   2.938  17.589 -0.2415 -0.2853 -0.0767
  418TMC3     H 6294   2.121   2.825  17.627 -1.1422  0.5104  1.2713
  418TMC3    H1 6295   2.432   2.739   0.155  0.6540 -1.3325  0.8707
  418TMC3    H2 6296   2.058   2.561   0.216  0.3443  1.1028  1.0930
  418TMC3    C7 6297   2.298   2.540   0.284 -0.1892  0.2277  0.4749
  418TMC3    C8 6298   1.926   2.667   0.009 -0.3597 -0.0582  0.1631
  418TMC3    O1 6299   2.236   2.435   0.312 -0.5047 -0.2666  0.2316
  418TMC3    O2 6300   1.885   2.738  17.661  0.1822 -0.4800  0.0225
  419MPD2     C 6301   1.044   1.039  11.993  0.2460 -0.2874 -0.2524
  419MPD2    C1 6302   0.911   1.055  12.011 -0.1089 -0.2774 -0.1106
  419MPD2    C2 6303   0.850   1.010  12.132  0.5803  0.7695  0.8813
  419MPD2    C3 6304   0.921   0.961  12.242  0.7026  0.8317 -0.2521
  419MPD2    C4 6305   1.057   0.945  12.215 -0.6255  0.0084  0.2207
  419MPD2    C5 6306   1.117   0.983  12.094 -0.4547  0.1253  0.4502
  419MPD2     H 6307   0.744   1.029  12.149  0.7210 -0.4591  2.9842
  419MPD2    H1 6308   1.134   0.912  12.284 -1.7408 -0.0508  1.4334
  419MPD2    H2 6309   1.098   1.085  11.911 -0.4813  0.7904 -0.1244
  419MPD2    H3 6310   1.223   0.972  12.077 -0.3685  0.9099  0.4657
  419MPD2     N 6311   0.857   0.940  12.366 -0.4308 -0.0659 -0.8332
  419MPD2    H5 6312   0.759   0.965  12.363 -0.9771 -2.4673 -3.0837
  419MPD2    N1 6313   0.827   1.126  11.923  0.0575 -0.3690  0.1032
  419MPD2    H7 6314   0.731   1.140  11.951  0.7660  3.8746  0.4278
  420TMC3    C1 6315   0.820   0.920  12.596  0.0825  0.0339  0.0533
  420TMC3    C2 6316   0.681   0.930  12.578  0.3581 -0.2797 -0.6638
  420TMC3    C3 6317   0.595   1.004  12.655 -1.0921 -0.1137  0.2252
  420TMC3    C4 6318   0.870   0.970  12.712 -0.3710 -0.1634 -0.7434
  420TMC3    C5 6319   0.787   1.039  12.795  0.3623 -0.2055  0.4124
  420TMC3    C6 6320   0.651   1.060  12.764  0.2108 -0.0617 -0.0567
  420TMC3     C 6321   0.918   0.910  12.483 -0.3612 -0.5294  0.3186
  420TMC3     O 6322   1.038   0.899  12.502 -0.8100 -0.3794  0.1016
  420TMC3     H 6323   0.636   0.887  12.489 -0.8913  1.5012 -0.9144
  420TMC3    H1 6324   0.971   0.947  12.744 -0.2212  0.3261 -0.8569
  420TMC3    H2 6325   0.587   1.108  12.838  1.0527 -0.4350  0.9196
  420TMC3    C7 6326   0.848   1.071  12.920  0.1155 -0.2811 -0.2364
  420TMC3    C8 6327   0.466   1.030  12.605  0.5752 -0.0297  0.0182
  420TMC3    O1 6328   0.920   0.990  12.973  0.1717 -0.2639 -0.0965
  420TMC3    O2 6329   0.431   0.978  12.503  0.0648 -0.5182  0.1417
  421TMC3    C1 6330   2.340   2.431  13.729  0.8736  0.0457  0.4263
  421TMC3    C2 6331   2.315   2.557  13.772  0.1945  0.1403 -0.1398
  421TMC3    C3 6332   2.410   2.619  13.854 -0.7337 -0.2411  0.5338
  421TMC3    C4 6333   2.444   2.352  13.773 -0.6416 -0.8043  0.2874
  421TMC3    C5 6334   2.528   2.412  13.852 -0.6210 -0.2079 -0.5405
  421TMC3    C6 6335   2.516   2.543  13.896  0.5423  0.0933  0.2193
  421TMC3     C 6336   2.266   2.364  13.621 -0.8054 -0.4535 -0.0689
  421TMC3     O 6337   2.305   2.255  13.576  0.0867  0.3450 -0.0695
  421TMC3     H 6338   2.232   2.619  13.740  0.1731  0.9632  1.4611
  421TMC3    H1 6339   2.454   2.249  13.741 -0.5016 -0.6474 -0.1732
  421TMC3    H2 6340   2.602   2.589  13.943  2.5515 -0.8392 -2.5201
  421TMC3    C7 6341   2.652   2.335  13.894  0.4151 -0.3056 -0.2849
  421TMC3    C8 6342   2.418   2.765  13.867 -0.2999  0.0954  0.3557
  421TMC3    O1 6343   2.744   2.403  13.952 -0.1758 -0.1665 -0.1185
  421TMC3    O2 6344   2.526   2.804  13.904  0.0097 -0.6483 -0.2041
  422TMC3    C1 6345   4.445   3.701  12.913  0.3822 -0.4543 -0.2995
  422TMC3    C2 6346   4.411   3.831  12.930  0.0470 -0.0720  0.2957
  422TMC3    C3 6347   4.307   3.866  13.010  0.1504 -0.4432 -0.1224
  422TMC3    C4 6348   4.356   3.604  12.964 -0.3039 -0.0887  0.0339
  422TMC3    C5 6349   4.237   3.645  13.012 -0.3348  0.0652  0.0655
  422TMC3    C6 6350   4.212   3.776  13.051 -1.0067  0.0585 -1.0137
  422TMC3     C 6351   4.474   3.689  12.775 -0.1362 -0.2653  0.1295
  422TMC3     O 6352   4.554   3.770  12.729 -0.0811  0.1228 -0.0866
  422TMC3     H 6353   4.467   3.916  12.893 -0.0815 -0.3137 -0.4525
  422TMC3    H1 6354   4.379   3.500  12.983 -1.5066 -0.3654  0.0099
  422TMC3    H2 6355   4.119   3.820  13.085 -0.3624 -0.3998  1.3509
  422TMC3    C7 6356   4.128   3.580  12.937  0.3437  0.0455 -0.3820
  422TMC3    C8 6357   4.257   3.999  13.009  0.1259 -0.6860  0.4110
  422TMC3    O1 6358   4.161   3.495  12.852  0.2312  0.2214 -0.3601
  422TMC3    O2 6359   4.222   4.049  13.116  0.1467 -0.3106 -0.4388
  423MPD2     C 6360   0.641   0.194   0.568 -0.0641 -0.6832  0.0507
  423MPD2    C1 6361   0.752   0.170   0.647 -0.7739  0.4429  0.1683
  423MPD2    C2 6362   0.872   0.140   0.576  0.1305 -0.0478 -0.2530
  423MPD2    C3 6363   0.882   0.132   0.439 -0.1227 -0.5912  0.1677
  423MPD2    C4 6364   0.772   0.164   0.369  0.0483 -0.1307 -0.0475
  423MPD2    C5 6365   0.655   0.188   0.431  0.7046 -0.7929  0.0686
  423MPD2     H 6366   0.964   0.124   0.631 -0.3824  0.9979  0.9048
  423MPD2    H1 6367   0.779   0.172   0.261  3.2587  1.1237  0.2545
  423MPD2    H2 6368   0.545   0.219   0.611  0.8955 -0.2133  1.8928
  423MPD2    H3 6369   0.565   0.204   0.372  0.1267 -0.6298  0.9982
  423MPD2     N 6370   0.995   0.104   0.367 -0.4544  0.1444 -0.1806
  423MPD2    H5 6371   0.989   0.100   0.265 -2.9784  0.2460 -0.0252
  423MPD2    N1 6372   0.760   0.200   0.784  0.0914  0.2091 -0.9211
  423MPD2    H7 6373   0.850   0.181   0.827 -0.3434  0.9230  0.2760
  424TMC3    C1 6374   0.688   0.234   1.005 -0.9080  0.4655  0.0693
  424TMC3    C2 6375   0.787   0.148   1.050 -0.4837  0.3616  0.1674
  424TMC3    C3 6376   0.813   0.157   1.184 -0.2288  0.5389  0.1881
  424TMC3    C4 6377   0.611   0.312   1.094 -0.2989  0.2873  0.6036
  424TMC3    C5 6378   0.637   0.306   1.226 -0.4380 -0.6547 -0.0314
  424TMC3    C6 6379   0.741   0.231   1.275  0.3416 -0.3344 -0.1677
  424TMC3     C 6380   0.657   0.239   0.862 -0.1036  0.0863 -0.9972
  424TMC3     O 6381   0.548   0.292   0.827 -0.5926 -0.1941  0.8706
  424TMC3     H 6382   0.834   0.071   0.988  0.7981  1.9732 -0.8743
  424TMC3    H1 6383   0.525   0.366   1.055 -1.0105 -0.2927  1.3656
  424TMC3    H2 6384   0.746   0.218   1.383  0.9256 -0.3056 -0.1920
  424TMC3    C7 6385   0.542   0.357   1.323 -0.7865  0.1089  0.3159
  424TMC3    C8 6386   0.906   0.061   1.246  0.2504  0.3715 -0.2139
  424TMC3    O1 6387   0.521   0.288   1.424  0.0820  0.2983 -0.0372
  424TMC3    O2 6388   0.946   4.702   1.178 -0.1360  0.2510  0.0578
  425MPD2     C 6389   0.131   4.290  17.517  0.0349 -0.2253  0.2408
  425MPD2    C1 6390   0.045   4.235  17.433 -0.0690 -0.0930 -0.4004
  425MPD2    C2 6391   4.647   4.277  17.437  0.1945 -0.4321 -0.1857
  425MPD2    C3 6392   4.606   4.377  17.525  0.7583  0.1923 -0.6946
  425MPD2    C4 6393   4.701   4.432  17.612  0.4900  0.1511 -0.2162
  425MPD2    C5 6394   0.091   4.382  17.606 -0.4574 -0.1058 -0.2657
  425MPD2     H 6395   4.571   4.224  17.381 -2.2736  1.9218  0.9282
  425MPD2    H1 6396   4.679   4.502  17.692  1.6269 -0.3371  0.5341
  425MPD2    H2 6397   0.236   4.263  17.522 -0.2479 -1.3487  0.1759
  425MPD2    H3 6398   0.156   4.419  17.684 -1.5993  1.7774 -0.2241
  425MPD2     N 6399   4.473   4.404  17.535  0.4207  0.1972  0.1775
  425MPD2    H5 6400   4.415   4.348  17.473  2.0355 -2.3075  0.9444
  425MPD2    N1 6401   0.095   4.126  17.355 -0.2577  0.5636 -0.5824
  425MPD2    H7 6402   0.195   4.111  17.360 -0.4892 -0.9458 -0.3132
  426TMC3    C1 6403   0.098   3.937  17.220 -0.3757 -0.5100 -0.2503
  426TMC3    C2 6404   0.046   3.877  17.110  0.4003 -0.3964  0.6279
  426TMC3    C3 6405   0.118   3.769  17.066 -0.4147  0.3791  0.0164
  426TMC3    C4 6406   0.209   3.890  17.291  0.1800  0.1428 -0.9202
  426TMC3    C5 6407   0.270   3.779  17.247 -0.1244 -0.2987  0.1322
  426TMC3    C6 6408   0.235   3.731  17.122 -0.8452  0.3163  0.6620
  426TMC3     C 6409   0.026   4.055  17.262 -0.0463  0.3773  0.0876
  426TMC3     O 6410   4.650   4.062  17.217  0.0949 -0.0426  0.5018
  426TMC3     H 6411   4.693   3.906  17.056  0.2798 -1.0446  0.4836
  426TMC3    H1 6412   0.248   3.924  17.386  0.1508  3.8199 -2.2537
  426TMC3    H2 6413   0.282   3.636  17.098 -0.8705  0.2881  0.7230
  426TMC3    C7 6414   0.331   3.685  17.335  0.2255  0.4976  0.3761
  426TMC3    C8 6415   0.071   3.697  16.951  0.2752  0.9303  0.2321
  426TMC3    O1 6416   0.400   3.600  17.283  0.3240  0.0216  0.3315
  426TMC3    O2 6417   0.154   3.650  16.870 -0.1041 -0.5048 -0.0590
  427MPD2     C 6418   3.691   1.220  15.000  0.4078  0.0422 -0.1063
  427MPD2    C1 6419   3.656   1.279  15.121  0.6615  0.0772  0.3151
  427MPD2    C2 6420   3.527   1.331  15.139  0.5704 -0.2994 -0.0311
  427MPD2    C3 6421   3.434   1.317  15.027  0.3581  0.4969  1.3969
  427MPD2    C4 6422   3.474   1.256  14.908  0.2484  0.0680 -0.1769
  427MPD2    C5 6423   3.598   1.211  14.900 -0.8285  0.4042  0.3099
  427MPD2     H 6424   3.509   1.380  15.234 -0.5393 -0.9857  0.1063
  427MPD2    H1 6425   3.413   1.256  14.818 -0.7186 -0.9724  0.4854
  427MPD2    H2 6426   3.787   1.180  14.972 -0.5276 -1.6298 -0.9050
  427MPD2    H3 6427   3.631   1.170  14.805 -0.7873 -0.2823  0.6211
  427MPD2     N 6428   3.304   1.374  15.031  0.0411  0.9315 -0.3734
  427MPD2    H5 6429   3.255   1.365  14.943 -2.6430 -0.5746  1.2572
  427MPD2    N1 6430   3.741   1.284  15.238 -0.8207  0.3849 -0.1071
  427MPD2    H7 6431   3.707   1.343  15.314 -1.3780 -1.2151  0.8831
  428TMC3    C1 6432   3.926   1.243  15.367  0.2104  0.5529  0.1996
  428TMC3    C2 6433   3.853   1.203  15.474 -0.1860  0.0788  0.7008
  428TMC3    C3 6434   3.924   1.169  15.588 -0.2451 -0.0983 -0.6604
  428TMC3    C4 6435   4.063   1.244  15.375  0.3861 -0.4296 -0.1944
  428TMC3    C5 6436   4.129   1.209  15.486  0.3518  0.9549  0.0885
  428TMC3    C6 6437   4.053   1.180  15.596  0.6291 -0.1051  0.3760
  428TMC3     C 6438   3.862   1.226  15.241 -0.0547 -0.0600 -0.0509
  428TMC3     O 6439   3.921   1.178  15.144 -0.3157 -0.1444 -0.0238
  428TMC3     H 6440   3.749   1.173  15.464 -0.0817  0.2559 -0.8530
  428TMC3    H1 6441   4.113   1.248  15.279 -0.0715  1.2080 -0.3736
  428TMC3    H2 6442   4.097   1.163  15.693 -1.8674  1.0959  1.7376
  428TMC3    C7 6443   4.262   1.260  15.513  0.0828 -0.5954 -0.4047
  428TMC3    C8 6444   3.864   1.143  15.720  0.0037  0.0952  0.6361
  428TMC3    O1 6445   4.298   1.247  15.630  0.0151  0.4767 -0.7024
  428TMC3    O2 6446   3.882   1.229  15.805 -0.2431 -0.0556  0.0711
  429MPD2     C 6447   4.702   1.820   0.033 -0.0126 -0.2060 -0.0539
  429MPD2    C1 6448   0.034   1.738  17.695 -0.8658  0.1685  0.1470
  429MPD2    C2 6449   0.107   1.781  17.587  0.5070  0.1190  0.2810
  429MPD2    C3 6450   0.094   1.916  17.555  0.1182  0.3882 -0.1939
  429MPD2    C4 6451   0.025   2.002  17.643  0.4528  0.7365 -0.1419
  429MPD2    C5 6452   4.709   1.955   0.013  0.4656  0.1020  0.0507
  429MPD2     H 6453   0.163   1.715  17.521 -0.9957 -1.4050  0.5324
  429MPD2    H1 6454   0.012   2.106  17.614 -0.4864  1.2822  2.2550
  429MPD2    H2 6455   4.655   1.796   0.127 -2.4603  0.5863 -1.0837
  429MPD2    H3 6456   4.647   2.021   0.073  1.3096  0.4147  0.5737
  429MPD2     N 6457   0.174   1.962  17.444  0.0052  0.1352 -0.0699
  429MPD2    H5 6458   0.217   1.891  17.386  0.9954 -0.9266  1.9720
  429MPD2    N1 6459   0.048   1.600  17.713  0.1328 -0.5827  0.2206
  429MPD2    H7 6460   0.123   1.554  17.662  0.7766 -0.0669  0.7096
  430TMC3    C1 6461   0.260   2.106  17.263  0.0282  0.0835 -0.3650
  430TMC3    C2 6462   0.235   2.207  17.173 -0.6844 -0.0761  0.1998
  430TMC3    C3 6463   0.303   2.200  17.050  0.5499 -0.6202 -0.9385
  430TMC3    C4 6464   0.358   2.006  17.243 -0.5830  0.1202 -0.3026
  430TMC3    C5 6465   0.414   2.013  17.125 -0.0147  0.1120 -0.4986
  430TMC3    C6 6466   0.407   2.115  17.037  0.3939  0.7955 -0.0835
  430TMC3     C 6467   0.174   2.094  17.384 -0.3976 -0.0226  0.0570
  430TMC3     O 6468   0.110   2.193  17.416  0.5939  0.2167 -0.1028
  430TMC3     H 6469   0.163   2.286  17.189 -1.0571 -0.1242 -1.2415
  430TMC3    H1 6470   0.360   1.927  17.316 -1.8496  1.4201  1.1374
  430TMC3    H2 6471   0.460   2.128  16.944 -0.0261 -0.0416 -0.4356
  430TMC3    C7 6472   0.387   1.880  17.060 -0.7236 -0.3721 -0.6461
  430TMC3    C8 6473   0.238   2.233  16.919  0.2868 -0.5858 -0.1724
  430TMC3    O1 6474   0.389   1.780  17.135  0.7184  0.3430  0.7386
  430TMC3    O2 6475   0.273   2.174  16.818 -0.1974 -0.3140 -0.0290
  431MPD2     C 6476   0.556   1.515  12.517  0.2583 -0.2944 -0.0274
  431MPD2    C1 6477   0.585   1.615  12.430 -0.0388  0.2089  0.2215
  431MPD2    C2 6478   0.602   1.588  12.296  0.6218  0.1712  0.1025
  431MPD2    C3 6479   0.594   1.460  12.248  0.4080 -0.3635 -0.3239
  431MPD2    C4 6480   0.577   1.355  12.334 -0.4272 -0.1130 -0.3300
  431MPD2    C5 6481   0.550   1.385  12.472  0.3041 -0.2678  0.3040
  431MPD2     H 6482   0.627   1.665  12.225  0.2301 -1.5699 -1.9335
  431MPD2    H1 6483   0.575   1.252  12.301  2.6326 -0.0455 -0.7163
  431MPD2    H2 6484   0.524   1.536  12.618 -0.5086 -1.1279 -0.0978
  431MPD2    H3 6485   0.535   1.309  12.548  0.0362 -0.5039  0.0143
  431MPD2     N 6486   0.616   1.434  12.113  0.2520 -0.6101 -0.4345
  431MPD2    H5 6487   0.632   1.335  12.095  2.0753 -0.7681  2.1510
  431MPD2    N1 6488   0.599   1.747  12.479  0.8101  0.3289 -0.5159
  431MPD2    H7 6489   0.609   1.823  12.413 -0.6210  0.2977 -0.7656
  432TMC3    C1 6490   0.685   1.473  11.884 -0.2810  0.3468  0.5725
  432TMC3    C2 6491   0.751   1.566  11.803  0.0370  0.5150 -0.0272
  432TMC3    C3 6492   0.820   1.512  11.694 -0.7105 -0.3589 -0.5235
  432TMC3    C4 6493   0.693   1.341  11.861  1.0136  0.5679  0.7322
  432TMC3    C5 6494   0.776   1.290  11.760 -0.1040  0.0089 -0.4531
  432TMC3    C6 6495   0.840   1.377  11.677 -0.3590 -0.4450 -0.0776
  432TMC3     C 6496   0.621   1.524  12.003  0.6752 -0.1909  1.2206
  432TMC3     O 6497   0.571   1.635  11.992 -0.2699  0.1127  0.4684
  432TMC3     H 6498   0.734   1.673  11.812 -0.4399  0.6941 -2.9794
  432TMC3    H1 6499   0.626   1.273  11.913  0.1963  0.0052 -1.0150
  432TMC3    H2 6500   0.912   1.343  11.604 -0.9167  0.2830 -0.9636
  432TMC3    C7 6501   0.870   1.187  11.809  0.3375 -0.3087 -0.3641
  432TMC3    C8 6502   0.910   1.596  11.620  0.6006  0.2803  0.4988
  432TMC3    O1 6503   0.981   1.185  11.756  0.5134 -0.2101  0.0249
  432TMC3    O2 6504   0.985   1.551  11.538 -0.0226 -0.0815 -0.4038
  433MPD2     C 6505   4.079   0.436  10.981  0.3746 -0.5837 -0.1236
  433MPD2    C1 6506   4.162   0.348  11.038  0.6157 -0.8077 -0.0979
  433MPD2    C2 6507   4.258   0.391  11.129  0.3619 -0.6442 -0.5849
  433MPD2    C3 6508   4.245   0.517  11.181  0.4249 -1.0333  0.6442
  433MPD2    C4 6509   4.147   0.602  11.142 -0.0756  0.0167  0.2531
  433MPD2    C5 6510   4.063   0.559  11.044 -0.2745 -0.7253 -0.1267
  433MPD2     H 6511   4.326   0.317  11.170  1.3402  1.3396  1.3822
  433MPD2    H1 6512   4.119   0.695  11.191 -0.6594 -0.6811  1.2572
  433MPD2    H2 6513   4.005   0.409  10.907  2.2621 -1.9152 -1.5205
  433MPD2    H3 6514   3.972   0.612  11.020  0.6279  0.5888 -0.6841
  433MPD2     N 6515   4.348   0.552  11.270 -0.3285 -0.5378 -0.0635
  433MPD2    H5 6516   4.430   0.493  11.280 -0.9293 -1.1755  1.1419
  433MPD2    N1 6517   4.165   0.214  11.009  0.2547 -0.0641  0.3363
  433MPD2    H7 6518   4.219   0.152  11.068  1.2004  0.5056  0.0714
  434TMC3    C1 6519   4.111   0.007  10.928  0.3197 -0.2937 -0.2625
  434TMC3    C2 6520   4.220   4.692  10.987 -0.1171  0.1230  0.0227
  434TMC3    C3 6521   4.223   4.562  11.011  0.3949  0.2282  0.9686
  434TMC3    C4 6522   4.001   4.667  10.899 -0.6162  0.2390 -0.1915
  434TMC3    C5 6523   4.007   4.535  10.920  0.4468  0.6250  0.0904
  434TMC3    C6 6524   4.113   4.483  10.986  0.1451 -0.3978 -0.1180
  434TMC3     C 6525   4.099   0.156  10.904  0.2689 -0.0378 -0.0495
  434TMC3     O 6526   4.023   0.199  10.819  0.0927  0.0261  0.3893
  434TMC3     H 6527   4.310   0.008  11.018  1.6319 -2.0987 -1.3238
  434TMC3    H1 6528   3.914   4.705  10.845 -0.6855  1.7116  0.9679
  434TMC3    H2 6529   4.116   4.382  11.025  2.2259 -0.0512  0.6419
  434TMC3    C7 6530   3.889   4.450  10.876 -0.0642  0.5349 -0.0308
  434TMC3    C8 6531   4.326   4.515  11.100  0.3757 -0.4078  0.0274
  434TMC3    O1 6532   3.821   4.506  10.791  0.4795  0.1878  0.3310
  434TMC3    O2 6533   4.405   4.602  11.141 -0.3689  0.4479  0.1991
  435MPD2     C 6534   1.765   0.611  15.558  0.6236  0.3925 -0.2435
  435MPD2    C1 6535   1.710   0.549  15.669  0.8526 -0.1062 -0.9380
  435MPD2    C2 6536   1.753   0.419  15.700  0.1991  0.4365 -0.1543
  435MPD2    C3 6537   1.842   0.354  15.626  0.0010 -0.3791  0.9330
  435MPD2    C4 6538   1.899   0.419  15.519  0.9069  0.2142  0.5305
  435MPD2    C5 6539   1.865   0.544  15.494 -0.0909  0.0953  0.1382
  435MPD2     H 6540   1.710   0.380  15.792  3.2378 -0.0364  1.0596
  435MPD2    H1 6541   1.979   0.379  15.458  0.7032 -1.0014  1.0628
  435MPD2    H2 6542   1.728   0.705  15.518 -0.8147 -0.0095  0.1335
  435MPD2    H3 6543   1.914   0.588  15.408  1.9782 -0.4460  1.0204
  435MPD2     N 6544   1.879   0.227  15.674 -0.4982  0.0468 -0.2153
  435MPD2    H5 6545   1.831   0.191  15.756  1.6512  0.1594  1.0729
  435MPD2    N1 6546   1.606   0.603  15.746  0.1844  0.6372 -0.7140
  435MPD2    H7 6547   1.566   0.544  15.818 -1.4700 -0.8015 -2.8378
  436TMC3    C1 6548   1.315   0.683  16.009 -0.2527 -0.2257 -0.4868
  436TMC3    C2 6549   1.426   0.675  15.932  0.6069 -0.0629  1.2250
  436TMC3    C3 6550   1.419   0.732  15.807  0.7839 -0.3584  0.3940
  436TMC3    C4 6551   1.204   0.745  15.960  0.2602  0.0631 -0.7328
  436TMC3    C5 6552   1.200   0.797  15.836  0.4318  0.0155 -0.2237
  436TMC3    C6 6553   1.303   0.783  15.752  0.1678 -0.1214 -0.1802
  436TMC3     C 6554   1.342   0.682  16.150  0.1048  0.1518  0.7499
  436TMC3     O 6555   1.460   0.685  16.183  0.0885  0.1468  0.6720
  436TMC3     H 6556   1.516   0.627  15.968  0.9554 -1.0525 -0.9745
  436TMC3    H1 6557   1.114   0.758  16.020 -0.7063 -1.5970 -1.8184
  436TMC3    H2 6558   1.301   0.827  15.654  2.0923  1.4818  0.5042
  436TMC3    C7 6559   1.081   0.872  15.800 -0.0815 -0.0302  0.6189
  436TMC3    C8 6560   1.536   0.717  15.714  0.3182  0.9369 -0.1768
  436TMC3    O1 6561   0.976   0.819  15.840 -0.4923  0.3422 -0.0662
  436TMC3    O2 6562   1.540   0.801  15.618  0.7694 -0.4753  0.1078
  437TMC3    C1 6563   0.033   1.281  13.243  0.2423 -0.5248 -0.2741
  437TMC3    C2 6564   4.672   1.197  13.202  0.1789 -0.7539 -0.4023
  437TMC3    C3 6565   4.544   1.240  13.190  0.0575  0.2139  0.4968
  437TMC3    C4 6566   0.011   1.410  13.246 -0.0316 -0.2799  0.6021
  437TMC3    C5 6567   4.619   1.452  13.227 -0.6020  0.3560 -0.7547
  437TMC3    C6 6568   4.513   1.368  13.213 -0.0704  0.2618  1.0221
  437TMC3     C 6569   0.177   1.244  13.246 -0.3366  0.0541  0.1072
  437TMC3     O 6570   0.243   1.330  13.296 -0.0117 -0.3157  0.2377
  437TMC3     H 6571   4.694   1.091  13.198  1.6619 -0.4866  0.5072
  437TMC3    H1 6572   0.088   1.481  13.275  2.6555 -1.9716 -2.3551
  437TMC3    H2 6573   4.409   1.399  13.222 -0.6945 -2.2829  2.3545
  437TMC3    C7 6574   4.580   1.588  13.210  0.7032 -0.6816 -0.0494
  437TMC3    C8 6575   4.439   1.133  13.180 -0.2911  0.8235 -0.2718
  437TMC3    O1 6576   4.466   1.613  13.240 -0.2193 -0.0173 -0.3035
  437TMC3    O2 6577   4.476   1.016  13.163 -0.3736  0.0594  0.4089
  438MPD2     C 6578   2.584   2.596  16.300 -1.0749 -0.5491 -0.7592
  438MPD2    C1 6579   2.693   2.625  16.372  0.5064 -0.2327  0.7127
  438MPD2    C2 6580   2.671   2.691  16.492  0.2693  0.1014  0.2128
  438MPD2    C3 6581   2.545   2.728  16.540  0.2662  0.1640 -0.4476
  438MPD2    C4 6582   2.432   2.688  16.469  0.1998  0.3030 -0.0878
  438MPD2    C5 6583   2.453   2.623  16.351 -0.1993 -0.4059 -0.2035
  438MPD2     H 6584   2.755   2.740  16.540 -1.0718  1.6463  0.9863
  438MPD2    H1 6585   2.335   2.703  16.514  0.8745 -2.2901  2.2560
  438MPD2    H2 6586   2.582   2.554  16.200 -3.0065 -1.7275 -0.2260
  438MPD2    H3 6587   2.369   2.589  16.292 -1.5812  0.7719  1.0972
  438MPD2     N 6588   2.525   2.791  16.666 -0.0687  0.1537 -0.4363
  438MPD2    H5 6589   2.432   2.781  16.704  0.1552  2.3061  0.6716
  438MPD2    N1 6590   2.822   2.573  16.338  0.3027 -0.1268 -0.0074
  438MPD2    H7 6591   2.899   2.578  16.403 -0.5375  0.4927  0.9471
  439TMC3    C1 6592   2.961   2.418  16.229  0.4043 -0.4858 -0.4152
  439TMC3    C2 6593   3.007   2.387  16.108 -0.1336  0.0309  0.1567
  439TMC3    C3 6594   3.131   2.326  16.101  0.0253 -0.1458 -0.3287
  439TMC3    C4 6595   3.023   2.401  16.350  0.3009  0.1634 -0.2408
  439TMC3    C5 6596   3.154   2.361  16.340 -0.6208 -0.4359 -0.5123
  439TMC3    C6 6597   3.205   2.321  16.217  0.3268  0.4766  0.2435
  439TMC3     C 6598   2.839   2.495  16.228 -0.1282  0.2380 -0.1394
  439TMC3     O 6599   2.770   2.499  16.127 -0.2281 -0.5016  0.3917
  439TMC3     H 6600   2.944   2.397  16.020 -0.9324  0.1237  0.7367
  439TMC3    H1 6601   2.977   2.409  16.448  1.5460 -1.0075  0.4291
  439TMC3    H2 6602   3.302   2.272  16.210 -0.6659 -1.3552 -0.7630
  439TMC3    C7 6603   3.234   2.396  16.451 -0.4590  0.5849 -0.0320
  439TMC3    C8 6604   3.204   2.327  15.975  0.1585 -0.2630 -0.8193
  439TMC3    O1 6605   3.187   2.397  16.565 -0.2445  0.2427 -0.0708
  439TMC3    O2 6606   3.328   2.341  15.989  0.0783  0.2047 -0.8163
  440MPD2     C 6607   1.266   3.035  15.240  0.0347 -0.2491 -0.2591
  440MPD2    C1 6608   1.310   3.164  15.209  0.2630  0.2984 -0.0194
  440MPD2    C2 6609   1.413   3.178  15.121 -0.3234  0.1010  0.4341
  440MPD2    C3 6610   1.472   3.062  15.069 -0.3415  0.3291 -0.5972
  440MPD2    C4 6611   1.428   2.936  15.097  0.1461 -0.5707  0.5640
  440MPD2    C5 6612   1.326   2.921  15.187 -0.2990 -0.1864  0.2375
  440MPD2     H 6613   1.449   3.279  15.103  2.8280 -1.1224 -0.1075
  440MPD2    H1 6614   1.482   2.850  15.060 -1.5765 -0.4474 -2.2418
  440MPD2    H2 6615   1.191   3.014  15.316  0.6420 -0.2308  0.3441
  440MPD2    H3 6616   1.297   2.821  15.215 -2.5578  0.4528  0.2080
  440MPD2     N 6617   1.586   3.070  14.991 -0.3141 -0.2350  0.2081
  440MPD2    H5 6618   1.627   2.985  14.952 -0.6713 -0.2062 -0.2290
  440MPD2    N1 6619   1.253   3.284  15.263 -1.0227  0.4890  0.4744
  440MPD2    H7 6620   1.300   3.373  15.251 -1.3605  0.3375 -1.9748
  441TMC3    C1 6621   1.809   3.108  14.951  0.1626  0.1469 -0.9424
  441TMC3    C2 6622   1.905   3.203  14.963  0.3868 -0.0031 -0.3371
  441TMC3    C3 6623   2.013   3.165  15.035 -0.0742  0.1890 -0.6972
  441TMC3    C4 6624   1.825   2.977  14.997  0.0747 -0.4282 -0.9019
  441TMC3    C5 6625   1.938   2.951  15.067 -0.3246  0.6046  0.1987
  441TMC3    C6 6626   2.036   3.040  15.088  0.5632  0.8058 -0.3802
  441TMC3     C 6627   1.678   3.171  14.980 -0.1175  0.7604 -1.0482
  441TMC3     O 6628   1.673   3.287  15.023  0.1052 -0.0315  0.2300
  441TMC3     H 6629   1.893   3.297  14.911  4.1872  1.2941  1.1816
  441TMC3    H1 6630   1.758   2.895  14.973 -3.8456  2.7457 -0.7871
  441TMC3    H2 6631   2.121   3.027  15.154 -1.0738 -1.2451  1.3273
  441TMC3    C7 6632   1.940   2.825  15.142 -0.2346  0.0378 -0.6882
  441TMC3    C8 6633   2.088   3.277  15.088 -0.1866 -0.2499 -0.0596
  441TMC3    O1 6634   1.828   2.783  15.166 -0.2363 -0.3627  0.2879
  441TMC3    O2 6635   2.196   3.262  15.139  0.1724  0.2454  0.0998
  442MPD2     C 6636   4.624   3.667  16.392  0.2672 -0.2822 -0.1842
  442MPD2    C1 6637   4.491   3.634  16.392  0.5494 -0.4412 -0.0761
  442MPD2    C2 6638   4.452   3.538  16.301  0.4614  0.0014  0.2626
  442MPD2    C3 6639   4.547   3.483  16.209  0.0923  0.1889 -0.1781
  442MPD2    C4 6640   4.677   3.518  16.220 -1.0339 -0.5476  0.1487
  442MPD2    C5 6641   4.718   3.603  16.314  0.5525 -0.4898  0.4284
  442MPD2     H 6642   4.346   3.515  16.303  0.2554  1.0729  1.6857
  442MPD2    H1 6643   0.018   3.483  16.152 -0.8029 -1.7237  1.0181
  442MPD2    H2 6644   4.676   3.736  16.457  0.7653  0.0443 -0.9306
  442MPD2    H3 6645   0.083   3.640  16.308  0.4993 -0.1404  1.6862
  442MPD2     N 6646   4.517   3.402  16.100 -0.1868  0.4993  0.4516
  442MPD2    H5 6647   4.588   3.400  16.028 -1.5008  0.5418 -0.8605
  442MPD2    N1 6648   4.396   3.685  16.485 -0.1398 -0.0996  0.0287
  442MPD2    H7 6649   4.303   3.646  16.494  0.2797 -0.8140  1.4033
  443TMC3    C1 6650   4.304   3.861  16.623 -0.1681 -0.0349 -0.5218
  443TMC3    C2 6651   4.272   3.996  16.611 -0.0834 -0.0889 -0.7247
  443TMC3    C3 6652   4.159   4.036  16.671 -0.1489  0.4223 -0.3769
  443TMC3    C4 6653   4.226   3.774  16.685 -0.1842  0.3519 -0.7229
  443TMC3    C5 6654   4.110   3.821  16.738 -0.3902  0.4211  0.1490
  443TMC3    C6 6655   4.074   3.953  16.735  0.0857  0.0292  0.3197
  443TMC3     C 6656   4.407   3.818  16.532 -0.0588 -0.1737  1.0515
  443TMC3     O 6657   4.492   3.899  16.499 -0.2790 -0.3066 -0.4820
  443TMC3     H 6658   4.336   4.075  16.573  0.3337  0.7450  1.7037
  443TMC3    H1 6659   4.239   3.667  16.690 -0.5615  0.3525  0.2794
  443TMC3    H2 6660   3.984   3.991  16.781  0.7760  2.0494 -0.0336
  443TMC3    C7 6661   4.028   3.730  16.818  0.2314  1.1833 -0.1910
  443TMC3    C8 6662   4.111   4.171  16.671 -1.2090  0.4686  0.6646
  443TMC3    O1 6663   4.056   3.611  16.814  0.3090  0.2689 -0.4802
  443TMC3    O2 6664   4.061   4.208  16.776 -0.0075  0.2107 -0.1554
  444MPD2     C 6665   4.513   3.580  17.377 -0.0573 -0.5230  0.3225
  444MPD2    C1 6666   4.433   3.486  17.312 -0.6301  0.7338 -0.6462
  444MPD2    C2 6667   4.499   3.416  17.212 -0.2575  0.5532  0.0259
  444MPD2    C3 6668   4.635   3.409  17.190  0.0207  0.0389 -0.4802
  444MPD2    C4 6669   4.718   3.492  17.263 -0.1218  0.4398  0.1488
  444MPD2    C5 6670   4.651   3.576  17.357 -0.0826  0.5194 -0.0073
  444MPD2     H 6671   4.444   3.335  17.166  0.0519  0.3258  0.0638
  444MPD2    H1 6672   0.090   3.490  17.266 -0.1354 -0.2583  0.1962
  444MPD2    H2 6673   4.477   3.647  17.454 -0.3439 -0.8621  0.4793
  444MPD2    H3 6674   4.714   3.629  17.427  1.7508  0.2143 -1.4044
  444MPD2     N 6675   4.684   3.316  17.095  0.7491  0.3058 -0.3289
  444MPD2    H5 6676   4.613   3.268  17.041  2.1155  0.4789 -2.2420
  444MPD2    N1 6677   4.295   3.470  17.328 -0.5630  0.6268 -0.0488
  444MPD2    H7 6678   4.255   3.395  17.272 -1.5054 -0.4782  2.1287
  445TMC3    C1 6679   0.086   3.185  16.959 -0.0841 -0.1344  0.1192
  445TMC3    C2 6680   4.702   3.153  16.902  0.0338  0.0375 -0.0248
  445TMC3    C3 6681   4.714   3.039  16.823 -0.1699  0.2585  0.1111
  445TMC3    C4 6682   0.209   3.130  16.927  0.6452  0.1869  0.5655
  445TMC3    C5 6683   0.208   3.015  16.857 -0.2757  0.2891 -0.6125
  445TMC3    C6 6684   0.091   2.972  16.808  0.1599 -0.0386 -0.2084
  445TMC3     C 6685   0.084   3.300  17.057  0.5420 -0.0028 -0.0325
  445TMC3     O 6686   0.190   3.339  17.095  0.4368 -0.1123 -0.3848
  445TMC3     H 6687   4.615   3.217  16.899  0.4463  0.5415 -1.4035
  445TMC3    H1 6688   0.302   3.168  16.968  0.4863  1.7225 -0.4729
  445TMC3    H2 6689   0.094   2.893  16.733  0.2982 -0.7612  0.5529
  445TMC3    C7 6690   0.335   2.951  16.816  0.2801  0.5185  0.3737
  445TMC3    C8 6691   4.611   3.006  16.736 -0.0490  1.0824 -0.4761
  445TMC3    O1 6692   0.423   3.036  16.802  0.1101 -0.2089  0.6176
  445TMC3    O2 6693   4.641   2.964  16.626 -0.3000 -0.1214  0.1186
  446MPD2     C 6694   4.160   4.499  11.675  0.0300 -0.5317 -0.0608
  446MPD2    C1 6695   4.122   4.526  11.548 -0.6263 -0.0626 -0.0414
  446MPD2    C2 6696   4.196   4.606  11.462  0.2656 -0.5854 -0.1466
  446MPD2    C3 6697   4.324   4.641  11.499  0.3492  0.3208 -0.5723
  446MPD2    C4 6698   4.357   4.621  11.633  0.0777 -0.0400 -0.8321
  446MPD2    C5 6699   4.269   4.562  11.719 -0.5836 -0.3408 -0.5741
  446MPD2     H 6700   4.157   4.625  11.363 -0.1850  0.9618  0.3214
  446MPD2    H1 6701   4.449   4.656  11.679 -0.0606 -2.8248  1.5181
  446MPD2    H2 6702   4.110   4.439  11.749 -0.6981  1.4674  1.0668
  446MPD2    H3 6703   4.297   4.562  11.824 -1.3886 -0.2954 -0.3554
  446MPD2     N 6704   4.425   4.680  11.411  0.3875  0.4308  0.0546
  446MPD2    H5 6705   4.394   4.702  11.317  1.3139  2.8104  0.3089
  446MPD2    N1 6706   4.000   4.482  11.503 -0.0052 -0.5142 -0.1465
  446MPD2    H7 6707   3.980   4.504  11.406  2.2466 -2.5951 -1.0618
  447TMC3    C1 6708   4.639   0.001  11.325 -0.0475 -0.3893  0.8070
  447TMC3    C2 6709   4.604   0.118  11.266 -0.5649 -0.1888  0.5982
  447TMC3    C3 6710   4.692   0.169  11.178 -0.2780  0.3158  0.0378
  447TMC3    C4 6711   0.026   4.677  11.315 -0.3133  0.0593 -0.0882
  447TMC3    C5 6712   0.114   4.732  11.224  0.0809  0.1101 -0.8184
  447TMC3    C6 6713   0.082   0.114  11.151 -0.0993 -0.4109 -0.1896
  447TMC3     C 6714   4.561   4.693  11.437 -0.1047 -0.4895  0.3107
  447TMC3     O 6715   4.633   4.650  11.528  0.5175 -0.3776 -0.3707
  447TMC3     H 6716   4.507   0.162  11.280  0.0089  1.2777 -0.1073
  447TMC3    H1 6717   0.061   4.594  11.376  2.4073  1.6032  0.4279
  447TMC3    H2 6718   0.145   0.164  11.079  0.7599 -0.5657  0.4413
  447TMC3    C7 6719   0.223   4.656  11.189 -0.2331  0.5937  0.2228
  447TMC3    C8 6720   4.646   0.288  11.105  0.5578  0.3534 -0.1735
  447TMC3    O1 6721   0.323   4.705  11.142 -0.2987 -0.2645  0.2946
  447TMC3    O2 6722   4.553   0.344  11.156 -0.7111  0.2850 -0.3235
  448TMC3    C1 6723   2.256   4.578  16.859 -0.7704  0.4171 -0.5799
  448TMC3    C2 6724   2.312   4.464  16.806  0.5083  0.2199 -0.0193
  448TMC3    C3 6725   2.361   4.378  16.906 -0.0548 -0.3718  0.3479
  448TMC3    C4 6726   2.252   4.615  16.993 -0.0707  0.7077  0.3837
  448TMC3    C5 6727   2.322   4.533  17.076 -0.3908  0.4686  0.0193
  448TMC3    C6 6728   2.361   4.405  17.043 -0.0639  0.4533 -0.0928
  448TMC3     C 6729   2.271   4.687  16.761 -0.1793  0.1294  0.9665
  448TMC3     O 6730   2.321   4.669  16.650  0.7180 -0.0308  0.3410
  448TMC3     H 6731   2.318   4.443  16.700 -0.3264 -0.2388  0.0232
  448TMC3    H1 6732   2.210   4.706  17.033 -0.1105  0.9616 -0.2405
  448TMC3    H2 6733   2.433   4.357  17.109 -0.5643  1.4196  1.1499
  448TMC3    C7 6734   2.372   4.601  17.196 -0.9696 -0.1694 -0.0007
  448TMC3    C8 6735   2.442   4.256  16.872  0.2740 -0.6927  0.4951
  448TMC3    O1 6736   2.386   4.718  17.191 -0.4506 -0.2410 -0.5362
  448TMC3    O2 6737   2.492   4.187  16.966  0.4407  0.0052  0.6830
  449MPD2     C 6738   4.016   2.294  13.688  0.3787 -0.1911  1.4613
  449MPD2    C1 6739   3.897   2.361  13.679 -0.0673 -0.6002 -1.1222
  449MPD2    C2 6740   3.797   2.326  13.592 -0.2166 -0.2133  0.3804
  449MPD2    C3 6741   3.809   2.210  13.520 -0.0920  0.7603  0.5412
  449MPD2    C4 6742   3.920   2.133  13.538 -0.0478 -0.4572  0.0828
  449MPD2    C5 6743   4.022   2.173  13.621 -0.1669 -0.1424 -0.4500
  449MPD2     H 6744   3.715   2.396  13.575  1.8465  2.4420  1.4394
  449MPD2    H1 6745   3.928   2.038  13.485 -1.1041 -0.9436  0.7873
  449MPD2    H2 6746   4.093   2.325  13.758  0.9198  0.8386  0.4154
  449MPD2    H3 6747   4.111   2.113  13.634 -0.4547 -0.0152  2.0272
  449MPD2     N 6748   3.703   2.178  13.426 -0.5928 -0.1011  0.4014
  449MPD2    H5 6749   3.634   2.251  13.413 -1.3500 -0.7997  0.5457
  449MPD2    N1 6750   3.861   2.476  13.752 -0.2618 -0.1839 -0.0743
  449MPD2    H7 6751   3.767   2.512  13.739  0.1298  0.6139 -0.6860
  450TMC3    C1 6752   3.870   2.653  13.902  0.0664 -0.2236  0.5846
  450TMC3    C2 6753   3.948   2.763  13.882  0.1604  0.1093 -0.8250
  450TMC3    C3 6754   3.884   2.867  13.822 -0.0059  0.1864 -0.5944
  450TMC3    C4 6755   3.739   2.658  13.878  0.0786 -0.7438  0.4295
  450TMC3    C5 6756   3.684   2.759  13.808  0.0571  0.0795 -0.3582
  450TMC3    C6 6757   3.753   2.871  13.776  0.0745  0.5742  0.7849
  450TMC3     C 6758   3.938   2.532  13.851 -0.0896  0.5911  0.0803
  450TMC3     O 6759   4.056   2.514  13.874 -0.0015  0.8821  0.2608
  450TMC3     H 6760   4.054   2.778  13.902  0.1365  1.2662 -1.5033
  450TMC3    H1 6761   3.676   2.573  13.899  0.5232 -1.3628 -0.7003
  450TMC3    H2 6762   3.721   2.943  13.701 -0.2784  0.0923  0.4745
  450TMC3    C7 6763   3.592   2.715  13.703  0.1980  0.3750 -0.0311
  450TMC3    C8 6764   3.959   2.991  13.793  0.6580 -0.0132 -0.1475
  450TMC3    O1 6765   3.603   2.599  13.680  0.2088  0.1923 -0.4756
  450TMC3    O2 6766   3.890   3.091  13.773 -0.2099 -0.2097 -0.6301
  451MPD2     C 6767   0.442   1.484   1.219  0.3635  0.4376 -0.5542
  451MPD2    C1 6768   0.553   1.477   1.133 -0.5586  0.1946 -0.0752
  451MPD2    C2 6769   0.607   1.362   1.087  0.4286 -0.2130 -0.2285
  451MPD2    C3 6770   0.547   1.242   1.124  0.1260  0.1271  0.3362
  451MPD2    C4 6771   0.437   1.245   1.211 -0.0716 -0.2271  0.5057
  451MPD2    C5 6772   0.388   1.365   1.265  1.6456 -0.3271  0.1771
  451MPD2     H 6773   0.684   1.368   1.011 -0.0122 -0.6773 -0.7102
  451MPD2    H1 6774   0.380   1.154   1.230  0.7225 -0.8564 -0.1279
  451MPD2    H2 6775   0.397   1.578   1.250  0.8808  0.0160  1.4622
  451MPD2    H3 6776   0.300   1.370   1.327  0.3015 -0.8814 -1.6733
  451MPD2     N 6777   0.598   1.115   1.093 -0.0820  0.2113 -0.3757
  451MPD2    H5 6778   0.554   1.043   1.150 -2.5261  0.0018 -2.5308
  451MPD2    N1 6779   0.595   1.609   1.089 -0.6066 -0.2648 -0.2254
  451MPD2    H7 6780   0.544   1.686   1.130  1.6370  0.7812  0.6084
  452TMC3    C1 6781   0.733   0.953   0.984 -0.2722 -0.3617  0.4128
  452TMC3    C2 6782   0.654   0.856   1.030 -0.7257 -0.1197 -0.2081
  452TMC3    C3 6783   0.682   0.731   0.974  0.4468 -0.1510  0.0555
  452TMC3    C4 6784   0.854   0.933   0.919  0.4769 -0.3020 -0.4571
  452TMC3    C5 6785   0.889   0.806   0.886 -0.4729  0.2386 -0.0043
  452TMC3    C6 6786   0.803   0.706   0.909  0.0929  0.2890 -0.6638
  452TMC3     C 6787   0.689   1.095   0.987  0.2169  0.3344 -0.6397
  452TMC3     O 6788   0.749   1.175   0.919  0.4957 -0.6656  0.2011
  452TMC3     H 6789   0.566   0.874   1.091 -0.6202  0.9412 -0.3668
  452TMC3    H1 6790   0.905   1.017   0.872  3.0985 -0.2047  2.5703
  452TMC3    H2 6791   0.819   0.610   0.861 -0.8736 -0.5539  0.7239
  452TMC3    C7 6792   0.980   0.804   0.774 -0.2378  0.4003  0.1782
  452TMC3    C8 6793   0.558   0.653   0.939 -0.1780 -0.4709 -0.3133
  452TMC3    O1 6794   1.008   0.909   0.720 -0.4797  0.2133 -0.0265
  452TMC3    O2 6795   0.482   0.621   1.029 -0.2030 -0.7144 -0.2224
  453TMC3    C1 6796   1.738   3.468  11.852  0.0998 -0.0792  1.1368
  453TMC3    C2 6797   1.635   3.387  11.867  0.2413 -0.4747 -0.2142
  453TMC3    C3 6798   1.563   3.350  11.761 -0.2724  0.5457 -0.4819
  453TMC3    C4 6799   1.760   3.519  11.730  0.3628  0.8082  0.1451
  453TMC3    C5 6800   1.675   3.491  11.622 -0.6117  0.2760  0.5903
  453TMC3    C6 6801   1.577   3.398  11.637  0.1229 -0.3830  0.1981
  453TMC3     C 6802   1.835   3.504  11.957 -0.0347 -0.0135 -0.6708
  453TMC3     O 6803   1.900   3.605  11.934  0.4091  0.1706  0.1169
  453TMC3     H 6804   1.604   3.367  11.969  0.3895  1.0841  0.1317
  453TMC3    H1 6805   1.839   3.594  11.727  0.0436  1.0367 -2.2954
  453TMC3    H2 6806   1.500   3.387  11.561 -0.6695 -0.2571  0.9954
  453TMC3    C7 6807   1.717   3.527  11.489 -0.0042 -0.2327 -0.2568
  453TMC3    C8 6808   1.431   3.301  11.799  0.8445  0.1097 -0.6899
  453TMC3    O1 6809   1.684   3.449  11.400 -0.1713 -0.5782 -0.4543
  453TMC3    O2 6810   1.378   3.338  11.904 -0.8571  0.9859 -0.0497
  454MPD2     C 6811   0.717   3.046  16.130 -0.1503  0.0969  0.0396
  454MPD2    C1 6812   0.621   3.048  16.032  0.3132 -0.1063 -0.0056
  454MPD2    C2 6813   0.500   3.108  16.057 -0.6252  0.6731 -0.6182
  454MPD2    C3 6814   0.474   3.171  16.182 -0.3521  0.3592 -0.6783
  454MPD2    C4 6815   0.574   3.177  16.275  0.1050 -0.2733  0.3859
  454MPD2    C5 6816   0.689   3.120  16.244 -0.0050 -0.8338 -0.4400
  454MPD2     H 6817   0.426   3.115  15.978 -1.1285  0.0148 -0.2082
  454MPD2    H1 6818   0.573   3.234  16.367  0.8098  0.8712 -0.3052
  454MPD2    H2 6819   0.817   3.005  16.115 -0.2022  0.6314 -1.8157
  454MPD2    H3 6820   0.771   3.136  16.313  0.8046 -0.9462 -1.3867
  454MPD2     N 6821   0.344   3.221  16.225 -0.2258  0.5676 -0.8200
  454MPD2    H5 6822   0.329   3.237  16.324  0.6578 -0.6162 -0.4863
  454MPD2    N1 6823   0.640   2.994  15.903 -0.0231 -0.5239  0.2932
  454MPD2    H7 6824   0.562   3.001  15.838  1.0009  1.2161 -0.7740
  455TMC3    C1 6825   0.114   3.223  16.239  0.5228  0.0111 -0.7600
  455TMC3    C2 6826   0.117   3.266  16.368  0.4659  0.5584  0.3044
  455TMC3    C3 6827   0.008   3.241  16.450 -0.0210  0.1091  0.7892
  455TMC3    C4 6828   0.008   3.158  16.184  0.6608 -0.0455  0.2167
  455TMC3    C5 6829   4.639   3.119  16.270  0.1809 -0.0180  0.6319
  455TMC3    C6 6830   4.639   3.160  16.404  0.3470 -0.7797  0.6235
  455TMC3     C 6831   0.231   3.210  16.150  0.5173  0.5285 -0.3216
  455TMC3     O 6832   0.224   3.193  16.027 -0.2832  0.4062 -0.3558
  455TMC3     H 6833   0.203   3.316  16.411  0.1421  3.2618 -2.1249
  455TMC3    H1 6834   0.016   3.099  16.094 -1.2228 -1.4090  0.9377
  455TMC3    H2 6835   4.552   3.155  16.468 -0.7781  1.1877 -0.7675
  455TMC3    C7 6836   4.611   2.975  16.247  0.0024 -0.6445 -0.4740
  455TMC3    C8 6837   4.733   3.328  16.572  0.1060  0.2866 -0.4590
  455TMC3    O1 6838   4.579   2.938  16.138 -0.1670  0.3961  0.3083
  455TMC3    O2 6839   0.095   3.393  16.607 -0.0028  0.5469 -0.0170
  456MPD2     C 6840   3.234   2.947  16.768 -0.0540  0.7519 -0.7293
  456MPD2    C1 6841   3.241   3.068  16.701  0.5032  0.3789  0.4866
  456MPD2    C2 6842   3.146   3.168  16.735 -0.5855 -0.2852  0.3680
  456MPD2    C3 6843   3.066   3.148  16.849  0.0467 -0.0823 -0.5548
  456MPD2    C4 6844   3.068   3.030  16.918  0.2850  0.0621 -0.6568
  456MPD2    C5 6845   3.143   2.927  16.869  0.2258  0.5165  0.0694
  456MPD2     H 6846   3.140   3.259  16.677  1.6912 -0.1782  0.2945
  456MPD2    H1 6847   3.000   3.008  16.999  1.7822 -0.1245  0.5441
  456MPD2    H2 6848   3.301   2.866  16.742 -1.2157 -0.4055 -0.1489
  456MPD2    H3 6849   3.145   2.828  16.913  0.1144  0.5610  0.1734
  456MPD2     N 6850   2.974   3.244  16.905 -0.4267 -0.5006 -0.2638
  456MPD2    H5 6851   2.942   3.235  17.001  0.2896 -0.9092 -0.0673
  456MPD2    N1 6852   3.335   3.075  16.594 -0.5270 -0.0333 -0.2929
  456MPD2    H7 6853   3.365   2.985  16.559  0.2373  0.1292 -0.0366
  457TMC3    C1 6854   2.872   3.463  16.934  0.1521 -0.0991 -0.1813
  457TMC3    C2 6855   2.807   3.570  16.881 -0.5202 -0.5061  0.3003
  457TMC3    C3 6856   2.805   3.690  16.947  0.7468 -0.1501  0.2067
  457TMC3    C4 6857   2.936   3.481  17.053  0.0033 -0.6046  0.0156
  457TMC3    C5 6858   2.921   3.597  17.125 -0.5266  0.7423  0.4257
  457TMC3    C6 6859   2.860   3.702  17.073 -0.2216 -0.0718 -0.0693
  457TMC3     C 6860   2.928   3.360  16.843 -0.6535  0.3917 -0.4055
  457TMC3     O 6861   2.940   3.389  16.723 -0.0228  0.1272 -0.2779
  457TMC3     H 6862   2.761   3.553  16.785 -1.2433 -0.1576  0.5832
  457TMC3    H1 6863   2.988   3.394  17.092  0.9664 -0.4238 -0.8505
  457TMC3    H2 6864   2.845   3.793  17.130  0.1936 -1.1129  1.6868
  457TMC3    C7 6865   2.966   3.596  17.263  0.3591  0.4664  0.1691
  457TMC3    C8 6866   2.739   3.809  16.894  0.0742  0.0172  0.9357
  457TMC3    O1 6867   3.046   3.508  17.299 -0.1117  0.2135  0.0477
  457TMC3    O2 6868   2.725   3.904  16.972 -0.2361  0.5703  0.4823
  458MPD2     C 6869   4.729   2.066  13.165  0.3858  0.1631 -0.3632
  458MPD2    C1 6870   0.097   1.983  13.130 -0.9365  0.2066 -0.5861
  458MPD2    C2 6871   0.083   1.845  13.123  0.2030  0.0339 -0.9252
  458MPD2    C3 6872   4.706   1.796  13.170  0.2252  0.0228  0.1677
  458MPD2    C4 6873   4.610   1.878  13.223 -1.0750  0.1118 -0.1744
  458MPD2    C5 6874   4.616   2.012  13.215 -0.4814  1.2629  0.5399
  458MPD2     H 6875   0.163   1.781  13.086 -0.4034 -0.5265 -1.2621
  458MPD2    H1 6876   4.520   1.830  13.259  0.5880 -3.6552 -0.9918
  458MPD2    H2 6877   4.731   2.174  13.169 -0.6267  0.1589  0.3382
  458MPD2    H3 6878   4.543   2.088  13.240 -1.9777  0.2684 -0.7617
  458MPD2     N 6879   4.685   1.656  13.159 -0.0878  0.2529 -0.1194
  458MPD2    H5 6880   0.026   1.600  13.122  0.4784  1.3646 -0.6135
  458MPD2    N1 6881   0.215   2.052  13.086  0.0050  0.3679  0.4546
  458MPD2    H7 6882   0.208   2.153  13.094  1.1746  0.6098 -1.7492
  459TMC3    C1 6883   0.442   2.088  13.020 -0.1469 -1.0133  0.3636
  459TMC3    C2 6884   0.420   2.209  12.980  0.8680  0.3864  0.1474
  459TMC3    C3 6885   0.529   2.292  12.973  0.1210 -0.0416  0.0816
  459TMC3    C4 6886   0.556   2.043  13.066 -0.6824 -0.7034  0.7632
  459TMC3    C5 6887   0.660   2.129  13.077 -0.2148 -0.0746  0.5048
  459TMC3    C6 6888   0.653   2.261  13.024 -0.4522 -0.1866  0.2097
  459TMC3     C 6889   0.335   1.996  13.047 -0.6631  0.1155  0.1342
  459TMC3     O 6890   0.368   1.881  13.020  0.0723 -1.1302  0.0493
  459TMC3     H 6891   0.326   2.237  12.932  2.5744  0.0853 -3.3600
  459TMC3    H1 6892   0.568   1.950  13.120 -0.5459 -2.0645 -1.5789
  459TMC3    H2 6893   0.738   2.329  13.029  0.3232 -1.0507 -1.3539
  459TMC3    C7 6894   0.751   2.104  13.182  0.3381 -0.3897 -0.6443
  459TMC3    C8 6895   0.529   2.427  12.908 -0.3758  1.0499  0.1239
  459TMC3    O1 6896   0.746   1.996  13.241 -0.1299 -0.2173 -0.0815
  459TMC3    O2 6897   0.635   2.460  12.865 -0.2726  0.7954  0.3638
  460MPD2     C 6898   4.715   0.390  10.762 -0.5931 -1.2049  0.5389
  460MPD2    C1 6899   4.645   0.381  10.881  0.1273  0.1757 -0.8555
  460MPD2    C2 6900   4.534   0.463  10.890  0.6182 -0.4478  0.1996
  460MPD2    C3 6901   4.502   0.558  10.788  0.6359  0.3757 -0.4501
  460MPD2    C4 6902   4.571   0.552  10.669 -0.9299  0.7149 -0.2463
  460MPD2    C5 6903   4.686   0.482  10.666 -0.0718  0.6864 -0.2886
  460MPD2     H 6904   4.470   0.470  10.977  0.8657  0.0635  0.3438
  460MPD2    H1 6905   4.540   0.616  10.587  0.5774 -0.2188 -1.5351
  460MPD2    H2 6906   0.065   0.323  10.754  0.1308 -0.0794 -1.1591
  460MPD2    H3 6907   0.023   0.499  10.587 -0.3685 -1.2121 -0.9758
  460MPD2     N 6908   4.372   0.612  10.799 -0.1802 -0.3988 -0.0495
  460MPD2    H5 6909   4.318   0.595  10.883  0.1004 -1.6030 -0.1191
  460MPD2    N1 6910   4.693   0.290  10.974 -0.5075  0.2806 -0.1526
  460MPD2    H7 6911   0.016   0.211  10.949 -0.1365  0.7915 -0.8791
  461TMC3    C1 6912   4.173   0.692  10.732 -0.5835 -0.2919 -0.2537
  461TMC3    C2 6913   4.128   0.555  10.712  0.3407  0.0486 -0.7329
  461TMC3    C3 6914   4.013   0.539  10.637 -0.3742  0.2189  0.5209
  461TMC3    C4 6915   4.101   0.792  10.683 -0.3013  0.1284 -0.2052
  461TMC3    C5 6916   3.988   0.769  10.609  0.4187  0.3875  0.3779
  461TMC3    C6 6917   3.935   0.645  10.596 -0.8487  0.0980  0.5876
  461TMC3     C 6918   4.316   0.698  10.712 -0.3049  0.1208 -0.8812
  461TMC3     O 6919   4.362   0.756  10.615 -0.0864 -0.0533  0.1375
  461TMC3     H 6920   4.186   0.465  10.731  0.0028 -0.6270 -2.9047
  461TMC3    H1 6921   4.144   0.892  10.675 -1.5797  0.7275  0.3235
  461TMC3    H2 6922   3.835   0.630  10.557 -0.5630  0.0338 -0.1155
  461TMC3    C7 6923   3.960   0.859  10.497  0.0122 -0.6594 -0.0886
  461TMC3    C8 6924   4.041   0.454  10.527 -0.0515 -0.0613 -0.4273
  461TMC3    O1 6925   4.003   0.974  10.500 -0.3168  0.2050  0.2461
  461TMC3    O2 6926   4.157   0.420  10.509 -0.5036 -0.2844  0.1583
  462TMC3    C1 6927   0.005   1.851   0.421 -0.2743  0.9907  0.2701
  462TMC3    C2 6928   0.146   1.832   0.430  0.3650  0.5058 -0.2501
  462TMC3    C3 6929   0.186   1.702   0.463  0.7630  0.4211  0.0405
  462TMC3    C4 6930   4.656   1.749   0.449  0.2846  0.0947 -0.0215
  462TMC3    C5 6931   4.709   1.628   0.484 -0.4348  0.0164  0.7287
  462TMC3    C6 6932   0.103   1.600   0.496  0.3219 -0.4394  0.4116
  462TMC3     C 6933   4.680   1.977   0.390  0.5267 -0.2934  0.2868
  462TMC3     O 6934   4.559   1.981   0.359 -0.0961 -0.6972 -0.7584
  462TMC3     H 6935   0.220   1.901   0.391  1.0943 -0.0725  0.0980
  462TMC3    H1 6936   4.549   1.756   0.436  0.0523 -1.8334  0.7806
  462TMC3    H2 6937   0.142   1.517   0.554  0.8977  0.1104  0.8076
  462TMC3    C7 6938   4.622   1.515   0.481  0.0569  0.4461 -0.0650
  462TMC3    C8 6939   0.330   1.671   0.444 -0.0160  0.2844  0.1597
  462TMC3    O1 6940   4.676   1.407   0.508 -0.3793  0.2616  0.4800
  462TMC3    O2 6941   0.398   1.769   0.448 -0.3487  0.3505  0.8480
  463MPD2     C 6942   1.116   4.449   2.040  0.4466 -0.4270 -0.4720
  463MPD2    C1 6943   1.030   4.520   1.964 -0.2504 -0.1425 -0.0010
  463MPD2    C2 6944   1.036   4.658   1.971  0.1966  0.7651 -0.4292
  463MPD2    C3 6945   1.136   4.714   2.045 -0.0943 -0.1761 -0.4176
  463MPD2    C4 6946   1.243   4.641   2.093  0.1449 -0.6804  0.5679
  463MPD2    C5 6947   1.228   4.506   2.100 -0.0166  0.2094  0.6917
  463MPD2     H 6948   0.964   4.715   1.913 -0.9779 -2.0491 -1.7351
  463MPD2    H1 6949   1.322   4.689   2.150  1.3202  1.3070 -2.6866
  463MPD2    H2 6950   1.106   4.341   2.048 -0.6928 -0.1915  1.2621
  463MPD2    H3 6951   1.298   4.440   2.150  1.1919  1.3489  0.5122
  463MPD2     N 6952   1.156   0.119   2.063  0.0726  0.2889  0.1547
  463MPD2    H5 6953   1.237   0.158   2.109  0.1511  0.7907 -0.4065
  463MPD2    N1 6954   0.923   4.469   1.890  0.2937 -0.3111  0.3000
  463MPD2    H7 6955   0.861   4.534   1.844 -0.1604 -2.2349 -1.7749
  464TMC3    C1 6956   0.806   4.324   1.749 -0.2672 -0.1749 -0.1887
  464TMC3    C2 6957   0.684   4.396   1.766  0.6297 -0.1049  0.4435
  464TMC3    C3 6958   0.590   4.359   1.671  0.5813 -0.2603 -0.4213
  464TMC3    C4 6959   0.834   4.237   1.646 -0.0519  0.0957  0.3706
  464TMC3    C5 6960   0.730   4.205   1.560  0.3309 -0.0159 -0.5384
  464TMC3    C6 6961   0.611   4.271   1.566  0.4143  0.9438 -0.3679
  464TMC3     C 6962   0.913   4.344   1.844  0.2691  0.2076 -0.1932
  464TMC3     O 6963   0.983   4.246   1.866  0.3247 -0.3135 -0.3061
  464TMC3     H 6964   0.660   4.479   1.831 -0.8006 -0.3405  0.2392
  464TMC3    H1 6965   0.927   4.182   1.640 -0.5660 -0.7255 -0.0684
  464TMC3    H2 6966   0.528   4.227   1.513 -0.2257  0.6972  0.8388
  464TMC3    C7 6967   0.755   4.103   1.460  0.1395  0.0072  0.2587
  464TMC3    C8 6968   0.462   4.431   1.645  0.4837  0.3650  0.4076
  464TMC3    O1 6969   0.859   4.040   1.473 -0.2571  0.3464  0.3593
  464TMC3    O2 6970   0.412   4.411   1.534  0.4270  0.4968 -0.1066
  465MPD2     C 6971   2.379   3.682  16.174  0.4412 -0.0832 -0.0727
  465MPD2    C1 6972   2.358   3.540  16.159  0.2027 -0.1613 -0.5294
  465MPD2    C2 6973   2.249   3.489  16.109  0.1303 -0.6799  0.5352
  465MPD2    C3 6974   2.142   3.573  16.073 -0.0008  0.3047 -0.6255
  465MPD2    C4 6975   2.159   3.703  16.087  0.6250 -0.2294  0.6793
  465MPD2    C5 6976   2.278   3.757  16.131  0.0286  0.3792 -0.1712
  465MPD2     H 6977   2.246   3.381  16.102  0.6696 -0.6097 -0.7840
  465MPD2    H1 6978   2.084   3.777  16.062  0.8629 -0.0198  0.5834
  465MPD2    H2 6979   2.463   3.740  16.210  0.8082 -1.5362  1.4424
  465MPD2    H3 6980   2.288   3.864  16.140 -1.1717  0.4858 -0.1827
  465MPD2     N 6981   2.025   3.510  16.032  0.4380 -0.0853  0.8937
  465MPD2    H5 6982   2.039   3.413  16.005  0.0946  0.4030 -1.0246
  465MPD2    N1 6983   2.452   3.448  16.212 -0.5567 -0.2821 -0.0049
  465MPD2    H7 6984   2.424   3.350  16.205  0.1663 -0.6262  1.9291
  466TMC3    C1 6985   1.689   3.267  16.059 -0.0390 -0.3988  0.2944
  466TMC3    C2 6986   1.571   3.331  16.048 -0.6712 -0.1039  0.8153
  466TMC3    C3 6987   1.564   3.463  16.010  0.4146  0.5844 -0.1016
  466TMC3    C4 6988   1.806   3.338  16.037  0.6478  0.1707  0.5819
  466TMC3    C5 6989   1.792   3.473  16.007  0.4827 -0.2315  0.1866
  466TMC3    C6 6990   1.674   3.535  15.993 -0.1920 -0.2594 -0.0233
  466TMC3     C 6991   1.711   3.179  16.169 -1.1588  0.4963  0.3073
  466TMC3     O 6992   1.821   3.146  16.209 -0.4405  0.2180 -0.1422
  466TMC3     H 6993   1.481   3.272  16.058 -1.0368  0.2331 -0.5418
  466TMC3    H1 6994   1.901   3.286  16.048  0.3076 -0.6106 -0.1954
  466TMC3    H2 6995   1.675   3.639  15.964 -1.0542  0.1634  1.4342
  466TMC3    C7 6996   1.898   3.566  16.041  0.1008  0.0224  0.2074
  466TMC3    C8 6997   1.464   3.538  16.086  0.2348  0.3995  0.0867
  466TMC3    O1 6998   1.867   3.675  16.087 -0.0078  0.4283 -0.7134
  466TMC3    O2 6999   1.388   3.473  16.161  0.1341  0.3930 -0.0819
  467TMC3    C1 7000   2.974   1.500  14.048  0.2045  0.0278 -0.0213
  467TMC3    C2 7001   2.905   1.533  13.938 -0.0070 -0.4591 -0.0289
  467TMC3    C3 7002   2.769   1.533  13.949 -0.3871 -0.2839  0.1467
  467TMC3    C4 7003   2.912   1.453  14.161  0.1758 -0.2694  0.1269
  467TMC3    C5 7004   2.782   1.460  14.168 -0.4183 -0.0092  0.2227
  467TMC3    C6 7005   2.702   1.501  14.063  0.3280  0.1469  0.0104
  467TMC3     C 7006   3.117   1.518  14.049  0.1683  0.7037  0.4142
  467TMC3     O 7007   3.169   1.558  14.149  0.6453  0.4772 -0.8212
  467TMC3     H 7008   2.950   1.587  13.856 -1.6163 -1.1094 -1.3449
  467TMC3    H1 7009   2.968   1.452  14.253 -0.6167 -0.1677  0.6105
  467TMC3    H2 7010   2.593   1.501  14.068  0.4404 -3.2178  2.8308
  467TMC3    C7 7011   2.722   1.417  14.297  0.1104 -0.1263 -0.5320
  467TMC3    C8 7012   2.701   1.608  13.844 -0.0635  0.0171  0.2606
  467TMC3    O1 7013   2.797   1.353  14.372 -0.0219 -0.3938 -0.1317
  467TMC3    O2 7014   2.771   1.672  13.766 -0.3863 -0.3489  0.0162
  468MPD2     C 7015   1.488   0.272  11.413  0.5430  0.0082  0.3170
  468MPD2    C1 7016   1.618   0.255  11.373 -0.1713 -0.6090  0.1050
  468MPD2    C2 7017   1.669   0.125  11.348 -0.3369 -0.0426  0.1211
  468MPD2    C3 7018   1.588   0.010  11.352  0.2153 -0.4969 -0.0345
  468MPD2    C4 7019   1.462   0.035  11.391 -0.4809  0.5013  0.4541
  468MPD2    C5 7020   1.415   0.157  11.420 -0.1695  0.0965  0.7876
  468MPD2     H 7021   1.776   0.125  11.333 -0.1494  2.0626  1.4969
  468MPD2    H1 7022   1.388   4.693  11.401 -1.7661  1.7717  0.7781
  468MPD2    H2 7023   1.449   0.367  11.448  1.1917 -0.5800  2.6602
  468MPD2    H3 7024   1.316   0.165  11.463 -0.3194  0.9491  0.2907
  468MPD2     N 7025   1.631   4.608  11.335 -0.1795  1.2066 -0.0631
  468MPD2    H5 7026   1.559   4.538  11.351  0.6715  0.5137  0.6926
  468MPD2    N1 7027   1.708   0.361  11.364  0.2840  0.3596 -0.0563
  468MPD2    H7 7028   1.803   0.348  11.332  0.6830 -0.4880  1.4712
  469TMC3    C1 7029   1.795   0.572  11.378  0.1015  0.3834  0.2415
  469TMC3    C2 7030   1.925   0.545  11.410  0.9212 -0.1091  0.0636
  469TMC3    C3 7031   2.017   0.651  11.411 -0.3189  0.5550 -0.2553
  469TMC3    C4 7032   1.757   0.700  11.346  0.0077 -0.5542  0.5835
  469TMC3    C5 7033   1.852   0.796  11.335  0.3204  0.0512  0.3925
  469TMC3    C6 7034   1.983   0.783  11.371  0.5936 -0.5584  0.2897
  469TMC3     C 7035   1.676   0.488  11.402  0.0567 -0.6857 -0.5411
  469TMC3     O 7036   1.569   0.545  11.417 -0.3705 -0.5882 -0.1502
  469TMC3     H 7037   1.951   0.444  11.438  0.4838  0.2825  1.8688
  469TMC3    H1 7038   1.656   0.722  11.312  0.7918  1.0231 -0.6995
  469TMC3    H2 7039   2.057   0.862  11.370  2.7811 -2.5786  1.4745
  469TMC3    C7 7040   1.798   0.928  11.347  0.2259  0.1488 -0.2084
  469TMC3    C8 7041   2.160   0.624  11.434  0.4065  0.4770  0.7685
  469TMC3    O1 7042   1.707   0.963  11.274 -0.5798 -0.2258 -0.1061
  469TMC3    O2 7043   2.226   0.716  11.477 -0.4806 -0.0717 -0.7131
  470TMC3    C1 7044   3.961   1.213   0.908 -0.6324  0.1630 -0.0985
  470TMC3    C2 7045   4.071   1.278   0.950 -0.1987  0.7485 -0.3817
  470TMC3    C3 7046   4.073   1.376   1.043  0.0906  0.1120  0.4846
  470TMC3    C4 7047   3.842   1.241   0.972 -0.1403 -0.5265 -0.0613
  470TMC3    C5 7048   3.838   1.337   1.072 -0.3373 -0.4960  0.7560
  470TMC3    C6 7049   3.956   1.403   1.111 -0.3443  0.3606  0.3519
  470TMC3     C 7050   3.960   1.135   0.785 -0.3373  0.4689 -0.4858
  470TMC3     O 7051   4.055   1.147   0.709 -0.1721 -0.2279 -0.4298
  470TMC3     H 7052   4.167   1.250   0.907 -1.5479 -1.2486 -2.0738
  470TMC3    H1 7053   3.746   1.202   0.940  0.1339 -0.2514 -1.2271
  470TMC3    H2 7054   3.967   1.466   1.198 -5.4340  0.8813  0.5780
  470TMC3    C7 7055   3.709   1.397   1.102 -1.2798 -0.8129  0.7019
  470TMC3    C8 7056   4.194   1.458   1.059  0.0694 -0.3027  0.5040
  470TMC3    O1 7057   3.612   1.326   1.084 -0.1147  0.0151  0.2702
  470TMC3    O2 7058   4.180   1.553   1.135 -0.2098 -0.2324  0.3165
  471MPD2     C 7059   4.565   2.382  16.659 -0.3181  0.3270  0.2608
  471MPD2    C1 7060   4.655   2.281  16.631 -0.5168 -0.2421 -0.0184
  471MPD2    C2 7061   0.027   2.271  16.711  0.5729 -0.6473  0.5275
  471MPD2    C3 7062   0.039   2.346  16.826 -0.1706 -0.2130 -0.4110
  471MPD2    C4 7063   4.678   2.439  16.859  0.1405  0.8284 -0.0882
  471MPD2    C5 7064   4.577   2.456  16.773  0.0144 -0.0519  0.4577
  471MPD2     H 7065   0.097   2.193  16.682  0.6381  0.2981 -1.9076
  471MPD2    H1 7066   4.691   2.509  16.941 -1.5299 -2.6790  3.1488
  471MPD2    H2 7067   4.480   2.401  16.595 -0.0448  0.7235  0.0232
  471MPD2    H3 7068   4.502   2.531  16.798 -2.5883 -1.7941 -2.2201
  471MPD2     N 7069   0.144   2.327  16.922 -0.0356  0.3990 -0.0015
  471MPD2    H5 7070   0.130   2.365  17.016 -2.8479 -2.0343  0.5860
  471MPD2    N1 7071   4.648   2.200  16.513  0.0645  0.4604 -0.2083
  471MPD2    H7 7072   4.722   2.132  16.500  1.2892  1.2113  2.8700
  472TMC3    C1 7073   4.577   2.103  16.321 -0.5208  0.2127  0.3591
  472TMC3    C2 7074   4.508   2.104  16.203 -0.3739  0.3737 -0.2776
  472TMC3    C3 7075   4.513   1.997  16.122  0.1685 -0.5373  0.0310
  472TMC3    C4 7076   4.639   1.985  16.367  1.1880 -0.7091 -0.8847
  472TMC3    C5 7077   4.649   1.878  16.280  0.3930 -0.4140 -0.3064
  472TMC3    C6 7078   4.585   1.885  16.153 -0.0588 -0.8380 -0.0103
  472TMC3     C 7079   4.545   2.203  16.421  1.1579  0.7347  0.1924
  472TMC3     O 7080   4.447   2.277  16.405  0.0137  0.2258 -0.2986
  472TMC3     H 7081   4.444   2.187  16.176  0.0942  1.0794  0.8029
  472TMC3    H1 7082   4.667   1.980  16.472 -0.3557  0.6079 -0.4247
  472TMC3    H2 7083   4.588   1.809  16.076  3.4552 -0.4892 -0.2117
  472TMC3    C7 7084   4.630   1.755  16.345  0.0376  0.0257 -0.2453
  472TMC3    C8 7085   4.388   1.959  16.062  0.5353  0.1379 -0.1121
  472TMC3    O1 7086   4.659   1.741  16.462  0.1122 -0.8022 -0.7465
  472TMC3    O2 7087   4.354   2.000  15.955 -0.0081 -0.7105 -0.8449
  473MPD2     C 7088   4.344   3.999  13.857 -0.1689 -0.2140 -0.3367
  473MPD2    C1 7089   4.279   4.103  13.804  0.1120  0.0053  0.3593
  473MPD2    C2 7090   4.319   4.231  13.849  0.2717 -0.1019  0.1690
  473MPD2    C3 7091   4.409   4.245  13.956 -0.6409  0.1531  0.0684
  473MPD2    C4 7092   4.458   4.131  14.009  0.2420 -0.5821 -0.3813
  473MPD2    C5 7093   4.433   4.003  13.959 -0.1593  0.5739 -0.4773
  473MPD2     H 7094   4.271   4.319  13.807  1.0564 -0.5228 -1.6279
  473MPD2    H1 7095   4.510   4.145  14.103 -0.2193 -1.8317  0.0643
  473MPD2    H2 7096   4.346   3.910  13.795 -0.7725 -1.9506  2.1497
  473MPD2    H3 7097   4.471   3.912  14.004 -1.3480  0.1052 -0.4283
  473MPD2     N 7098   4.438   4.367  14.012  0.7896  0.0327  0.1436
  473MPD2    H5 7099   4.487   4.363  14.101  1.8632  2.4485 -0.3524
  473MPD2    N1 7100   4.187   4.089  13.696 -0.2260 -0.3739 -0.4764
  473MPD2    H7 7101   4.138   4.166  13.652 -0.4569 -0.5763 -0.5740
  474TMC3    C1 7102   4.447   4.610  14.042 -0.4806  0.6622 -0.1157
  474TMC3    C2 7103   4.356   4.710  14.060 -0.4676 -0.6814  0.2535
  474TMC3    C3 7104   4.373   0.065  14.162 -0.2149 -0.8196 -0.4259
  474TMC3    C4 7105   4.550   4.598  14.124 -0.1398  0.3197 -0.7441
  474TMC3    C5 7106   4.572   4.688  14.230  0.2184  0.3661 -0.1700
  474TMC3    C6 7107   4.480   0.059  14.246  0.2625  0.1398  0.1535
  474TMC3     C 7108   4.393   4.490  13.968 -0.0336 -0.1658 -0.1771
  474TMC3     O 7109   4.295   4.517  13.904 -0.1438 -0.0145 -0.3365
  474TMC3     H 7110   4.276   4.722  13.988  0.5260 -1.7131 -1.0165
  474TMC3    H1 7111   4.626   4.524  14.102  0.2045  0.5513 -0.3340
  474TMC3    H2 7112   4.477   0.123  14.334  1.6261  0.0824  0.2413
  474TMC3    C7 7113   4.712   4.692  14.278 -0.1499  0.4213 -0.1133
  474TMC3    C8 7114   4.312   0.186  14.152 -0.3582  0.0692  0.6509
  474TMC3    O1 7115   0.050   4.631  14.204 -0.4153 -0.3048 -0.1197
  474TMC3    O2 7116   4.201   0.183  14.101 -0.4502  0.0814 -0.5803
  475MPD2     C 7117   1.634   2.721  11.188 -0.1351 -0.0850  0.1871
  475MPD2    C1 7118   1.715   2.771  11.090  0.1479 -0.1090 -0.2184
  475MPD2    C2 7119   1.674   2.762  10.959  0.8970  0.1238  0.5872
  475MPD2    C3 7120   1.561   2.700  10.922 -0.0386  0.1970 -0.7569
  475MPD2    C4 7121   1.479   2.637  11.019 -0.0241 -0.8291  0.2457
  475MPD2    C5 7122   1.521   2.649  11.150 -0.6084 -0.6382 -0.3639
  475MPD2     H 7123   1.730   2.802  10.876  0.0424  0.1200  0.0006
  475MPD2    H1 7124   1.393   2.577  10.995 -0.9522  0.1577  1.1076
  475MPD2    H2 7125   1.669   2.723  11.291 -3.3767  2.3754  1.2510
  475MPD2    H3 7126   1.455   2.619  11.230 -0.8870 -0.9592 -0.7101
  475MPD2     N 7127   1.548   2.676  10.779 -0.2550  0.1583  0.6051
  475MPD2    H5 7128   1.628   2.704  10.724 -0.7350  0.2915 -0.0148
  475MPD2    N1 7129   1.842   2.828  11.126  0.2379  0.3022  0.8362
  475MPD2    H7 7130   1.872   2.812  11.222  0.1635 -3.7189  0.1874
  476TMC3    C1 7131   2.072   2.906  11.082 -0.4622  0.2370  0.1465
  476TMC3    C2 7132   2.168   2.913  10.991 -0.8276  0.1841 -0.2143
  476TMC3    C3 7133   2.293   2.944  11.021 -0.1679 -0.1218  0.5368
  476TMC3    C4 7134   2.104   2.901  11.219  0.1484 -0.4181 -0.2230
  476TMC3    C5 7135   2.232   2.944  11.249  0.0985  0.1124  0.9542
  476TMC3    C6 7136   2.325   2.965  11.155 -0.2808  0.8306 -0.2350
  476TMC3     C 7137   1.930   2.883  11.036 -0.0841 -0.1320 -0.3742
  476TMC3     O 7138   1.910   2.906  10.915  0.3835 -0.4352 -0.3178
  476TMC3     H 7139   2.133   2.904  10.889 -2.9137  1.5135  0.3799
  476TMC3    H1 7140   2.028   2.892  11.296 -1.5692  1.0460 -1.7620
  476TMC3    H2 7141   2.430   2.987  11.171 -0.1700  1.4675 -1.7275
  476TMC3    C7 7142   2.256   3.009  11.376 -0.1232 -0.0523  0.5459
  476TMC3    C8 7143   2.397   2.958  10.920  0.4174  0.0021 -0.7539
  476TMC3    O1 7144   2.197   2.980  11.476  0.8373 -0.3019  0.0853
  476TMC3    O2 7145   2.497   3.021  10.954  0.2032  0.0150  0.4532
  477MPD2     C 7146   0.328   4.295  12.324 -0.4636 -0.9253 -0.2371
  477MPD2    C1 7147   0.303   4.216  12.217 -0.0623 -0.8599  0.1922
  477MPD2    C2 7148   0.357   4.089  12.213  0.2133 -0.0245  0.0930
  477MPD2    C3 7149   0.445   4.044  12.310 -0.7674  0.1710  0.4622
  477MPD2    C4 7150   0.476   4.134  12.411 -0.0596 -0.7137 -0.0005
  477MPD2    C5 7151   0.417   4.260  12.421  0.0649 -0.2228 -0.0595
  477MPD2     H 7152   0.322   4.020  12.138 -0.0793 -0.9210  1.0439
  477MPD2    H1 7153   0.540   4.104  12.493 -0.7860  0.7002  1.1007
  477MPD2    H2 7154   0.275   4.389  12.338 -2.6742 -2.3304  0.7430
  477MPD2    H3 7155   0.427   4.326  12.506 -3.6685 -0.8473  0.8432
  477MPD2     N 7156   0.502   3.916  12.309  0.5160 -0.6079 -0.6115
  477MPD2    H5 7157   0.474   3.861  12.228  1.8496  0.3066 -1.6895
  477MPD2    N1 7158   0.221   4.269  12.116  0.8878  0.0831 -0.0662
  477MPD2    H7 7159   0.200   4.369  12.116  2.5274  0.4372 -0.7246
  478TMC3    C1 7160   0.113   4.297  11.918 -0.1024  0.4635  0.8620
  478TMC3    C2 7161   0.055   4.410  11.969 -0.2960  0.4061  0.2244
  478TMC3    C3 7162   4.703   4.479  11.889 -0.0587 -0.1036 -0.3882
  478TMC3    C4 7163   0.090   4.254  11.791 -0.9589  0.7243 -0.1598
  478TMC3    C5 7164   4.732   4.324  11.712 -0.3321 -0.1660  1.2938
  478TMC3    C6 7165   4.671   4.439  11.763  0.2397 -0.6704 -0.8467
  478TMC3     C 7166   0.191   4.205  12.001  0.8197 -0.4767  0.7734
  478TMC3     O 7167   0.226   4.099  11.953  0.3218 -0.2584 -0.6279
  478TMC3     H 7168   0.072   4.450  12.068 -0.3114  1.5467 -0.2389
  478TMC3    H1 7169   0.110   4.152  11.759  0.0721  0.4174  1.4755
  478TMC3    H2 7170   4.593   4.486  11.705  1.5987  2.7962  0.1289
  478TMC3    C7 7171   4.662   4.251  11.604 -0.5421 -0.2337 -0.3018
  478TMC3    C8 7172   4.623   4.589  11.950 -0.3250  0.4812  0.2925
  478TMC3    O1 7173   4.662   4.132  11.622  0.1835 -0.7069 -0.3325
  478TMC3    O2 7174   4.598   4.597  12.069  0.1773 -0.1379  0.4997
  479MPD2     C 7175   4.490   1.478  15.315 -0.1405  0.7102 -0.7888
  479MPD2    C1 7176   4.426   1.425  15.423 -0.9068 -0.5727  0.2755
  479MPD2    C2 7177   4.478   1.464  15.549  0.0578  0.0068 -0.1622
  479MPD2    C3 7178   4.562   1.577  15.560  0.1585  0.3675  0.7027
  479MPD2    C4 7179   4.612   1.635  15.447  0.1731  0.1338  0.3234
  479MPD2    C5 7180   4.570   1.589  15.330  0.0001  0.5935 -0.7715
  479MPD2     H 7181   4.442   1.412  15.637 -0.1170 -3.1708 -2.1032
  479MPD2    H1 7182   4.667   1.728  15.458 -1.0147  1.0684 -1.6048
  479MPD2    H2 7183   4.463   1.444  15.216 -0.1627  2.1144 -1.2556
  479MPD2    H3 7184   4.604   1.625  15.233  3.2682 -1.7157 -0.4567
  479MPD2     N 7185   4.597   1.634  15.685 -0.3011  0.3311  0.3231
  479MPD2    H5 7186   4.684   1.686  15.698 -1.4135  2.1632  0.3657
  479MPD2    N1 7187   4.316   1.338  15.407 -0.0265  0.3296 -0.2537
  479MPD2    H7 7188   4.277   1.316  15.316 -0.3306 -0.1250 -0.0121
  480TMC3    C1 7189   4.220   1.443  15.887 -0.0130  0.1864  0.7904
  480TMC3    C2 7190   4.126   1.489  15.799  0.0967  0.0643 -0.5421
  480TMC3    C3 7191   4.170   1.588  15.717 -0.5697 -0.1356 -0.1453
  480TMC3    C4 7192   4.346   1.494  15.899 -0.0105 -0.5191 -0.2263
  480TMC3    C5 7193   4.391   1.588  15.810 -0.3277 -0.0213 -0.4556
  480TMC3    C6 7194   4.294   1.642  15.714 -0.5340 -0.7578 -0.8127
  480TMC3     C 7195   4.192   1.336  15.987  1.1656  0.2614 -0.5782
  480TMC3     O 7196   4.290   1.272  16.027 -0.1987  0.0654  0.3191
  480TMC3     H 7197   4.031   1.438  15.793  0.2328 -0.5611  2.6119
  480TMC3    H1 7198   4.417   1.452  15.969 -1.2453  0.9756  1.9130
  480TMC3    H2 7199   4.313   1.723  15.644  2.8777  0.0368  1.0241
  480TMC3    C7 7200   4.533   1.611  15.806 -0.4075 -0.2447  0.0028
  480TMC3    C8 7201   4.080   1.607  15.606 -0.0004 -0.3187  0.1264
  480TMC3    O1 7202   4.584   1.613  15.917 -0.2994 -0.2004  0.0085
  480TMC3    O2 7203   3.962   1.585  15.627  0.1248  0.1423  0.6049
  481MPD2     C 7204   1.419   1.059  14.101 -0.1890 -0.2247  0.6998
  481MPD2    C1 7205   1.293   1.003  14.094 -0.5054  0.1150  0.0543
  481MPD2    C2 7206   1.244   0.965  14.217 -0.0575  0.2362 -0.5275
  481MPD2    C3 7207   1.314   0.955  14.331 -0.2883 -0.2572  0.2046
  481MPD2    C4 7208   1.446   1.004  14.332  0.4699 -0.5130 -0.2329
  481MPD2    C5 7209   1.491   1.051  14.215  0.0818 -0.2380  0.4605
  481MPD2     H 7210   1.142   0.930  14.224  0.1428 -0.7926 -2.6125
  481MPD2    H1 7211   1.519   0.999  14.412 -0.9703 -1.3784  1.0335
  481MPD2    H2 7212   1.468   1.106  14.016 -0.5811  0.0365  0.6168
  481MPD2    H3 7213   1.593   1.086  14.224 -0.2756  1.2222 -1.1123
  481MPD2     N 7214   1.262   0.909  14.455  0.5688  0.0773  0.4110
  481MPD2    H5 7215   1.322   0.894  14.535  0.0193 -4.0894  0.0545
  481MPD2    N1 7216   1.222   0.983  13.969  0.0963 -0.6220 -0.4754
  481MPD2    H7 7217   1.260   1.018  13.882  2.5031  0.1075  0.8511
  482TMC3    C1 7218   1.062   0.920  13.825 -0.0058 -0.6415 -0.0284
  482TMC3    C2 7219   0.971   0.822  13.793  0.7499  0.2488  0.1125
  482TMC3    C3 7220   0.904   0.824  13.675 -0.0859 -0.4801 -0.5941
  482TMC3    C4 7221   1.083   1.025  13.738 -0.4290  0.6789 -0.8104
  482TMC3    C5 7222   1.021   1.016  13.612  0.3680  0.6357 -0.6629
  482TMC3    C6 7223   0.940   0.912  13.576  0.1077  0.1933 -0.0262
  482TMC3     C 7224   1.105   0.918  13.960  0.1547 -0.0091 -0.2495
  482TMC3     O 7225   1.046   0.848  14.038 -0.0836  1.0011  0.2810
  482TMC3     H 7226   0.940   0.741  13.858  0.8202  0.5800  0.5590
  482TMC3    H1 7227   1.145   1.110  13.763 -0.4776  0.7618 -0.9686
  482TMC3    H2 7228   0.889   0.919  13.480  0.1565 -2.7664 -0.2684
  482TMC3    C7 7229   0.983   1.148  13.560  0.1569 -0.1427 -0.0284
  482TMC3    C8 7230   0.776   0.745  13.661  0.3391 -0.5358  0.4096
  482TMC3    O1 7231   0.965   1.242  13.631 -1.2246  0.1009  0.1688
  482TMC3    O2 7232   0.751   0.667  13.755 -0.0947 -0.1091 -0.4666
  483TMC3    C1 7233   3.797   0.445   0.446  0.2965 -0.2429  0.4029
  483TMC3    C2 7234   3.768   0.500   0.570 -0.0862  0.1335  0.4926
  483TMC3    C3 7235   3.842   0.462   0.672  0.4448 -0.3564  0.8138
  483TMC3    C4 7236   3.915   0.374   0.415  0.1905 -0.2154  0.4416
  483TMC3    C5 7237   3.968   0.323   0.526 -0.0989  0.2678 -0.1922
  483TMC3    C6 7238   3.934   0.355   0.658 -0.4997  0.8752 -0.1417
  483TMC3     C 7239   3.726   0.492   0.330  0.8312 -0.0139  0.3686
  483TMC3     O 7240   3.725   0.606   0.288  0.2563 -0.1760  0.0105
  483TMC3     H 7241   3.691   0.575   0.585 -1.4566 -1.0007 -0.8277
  483TMC3    H1 7242   3.949   0.336   0.320  1.7530  1.5029  0.2943
  483TMC3    H2 7243   3.980   0.320   0.749  1.1320  0.7046 -1.0229
  483TMC3    C7 7244   4.085   0.234   0.501  0.0905  0.6134 -0.1837
  483TMC3    C8 7245   3.811   0.511   0.802 -0.3225 -0.4143 -0.4570
  483TMC3    O1 7246   4.102   0.191   0.389 -0.2324  0.1395 -0.0788
  483TMC3    O2 7247   3.692   0.535   0.824 -0.0945  0.5512 -0.6624
  484MPD2     C 7248   0.246   2.671  12.850  0.0502  0.1550 -0.0035
  484MPD2    C1 7249   0.375   2.629  12.850  0.1690 -0.0674  0.3155
  484MPD2    C2 7250   0.466   2.708  12.778  0.6254  0.0292 -0.4731
  484MPD2    C3 7251   0.430   2.830  12.720  0.1625 -0.5332  0.5745
  484MPD2    C4 7252   0.300   2.865  12.720  0.0870  0.2978  0.1392
  484MPD2    C5 7253   0.213   2.789  12.792  0.3267  1.0234  0.3438
  484MPD2     H 7254   0.568   2.675  12.765  0.6248 -0.0040 -0.3929
  484MPD2    H1 7255   0.263   2.956  12.676 -1.4208 -0.9947 -1.2381
  484MPD2    H2 7256   0.162   2.628  12.903 -0.2445 -1.5721 -1.8653
  484MPD2    H3 7257   0.114   2.831  12.801 -0.2910 -0.3534 -0.0201
  484MPD2     N 7258   0.511   2.914  12.647 -0.2346  0.2337 -0.1507
  484MPD2    H5 7259   0.480   3.000  12.603 -2.7103 -0.2888  0.5933
  484MPD2    N1 7260   0.409   2.497  12.908  0.3754 -0.3086 -1.4175
  484MPD2    H7 7261   0.325   2.459  12.949  1.5389 -2.4009 -0.9271
  485TMC3    C1 7262   0.707   2.995  12.562  0.5792 -1.0880 -0.0108
  485TMC3    C2 7263   0.835   3.043  12.584 -0.2957  0.6000 -0.1524
  485TMC3    C3 7264   0.892   3.134  12.506  0.4471 -0.8005 -0.3150
  485TMC3    C4 7265   0.643   3.020  12.448  0.4560 -0.7135  0.6984
  485TMC3    C5 7266   0.711   3.099  12.362  0.2414 -0.0339 -0.2536
  485TMC3    C6 7267   0.822   3.168  12.390 -0.2194  0.3220 -0.2705
  485TMC3     C 7268   0.649   2.912  12.662  0.6374 -0.1971  0.8200
  485TMC3     O 7269   0.712   2.880  12.763 -0.2103 -0.2367  0.0561
  485TMC3     H 7270   0.875   3.029  12.684  0.6465 -2.0685 -0.9003
  485TMC3    H1 7271   0.565   2.953  12.414 -1.2426  1.3499  0.4883
  485TMC3    H2 7272   0.861   3.232  12.311 -2.7754  2.0729 -0.1556
  485TMC3    C7 7273   0.744   3.004  12.253 -0.0984 -0.5162 -0.1642
  485TMC3    C8 7274   1.036   3.117  12.475  0.7435  0.0966 -0.5828
  485TMC3    O1 7275   0.653   2.940  12.202  0.3434 -1.1663  0.2343
  485TMC3    O2 7276   1.065   3.159  12.365  0.2044  0.7789  0.1417
  486MPD2     C 7277   3.639   1.740  12.859  0.2629 -0.2027  0.6243
  486MPD2    C1 7278   3.539   1.656  12.810  0.1335  0.7230  0.2460
  486MPD2    C2 7279   3.427   1.707  12.755 -0.4392  0.5219  0.3121
  486MPD2    C3 7280   3.407   1.848  12.756  0.0465 -0.4080 -0.3851
  486MPD2    C4 7281   3.501   1.930  12.823 -0.5465  0.3904  0.8460
  486MPD2    C5 7282   3.617   1.875  12.865  1.1938  0.1492 -0.3179
  486MPD2     H 7283   3.347   1.643  12.720  1.0459  0.1484 -2.4239
  486MPD2    H1 7284   3.504   2.038  12.809  2.7465  0.1695  0.0827
  486MPD2    H2 7285   3.734   1.696  12.889  0.5729  0.6901  0.9446
  486MPD2    H3 7286   3.708   1.932  12.880  1.4053 -0.5606  1.1037
  486MPD2     N 7287   3.282   1.900  12.704 -0.1938 -0.8150  0.7472
  486MPD2    H5 7288   3.219   1.837  12.656  0.5310  0.6773 -2.1949
  486MPD2    N1 7289   3.558   1.517  12.819  0.0277 -0.0247  0.2670
  486MPD2    H7 7290   3.628   1.487  12.887 -0.3512  1.5936  1.3777
  487TMC3    C1 7291   3.549   1.286  12.798  0.0899 -0.1086  0.3221
  487TMC3    C2 7292   3.538   1.173  12.711 -0.1995  0.1442  0.5405
  487TMC3    C3 7293   3.581   1.053  12.760  0.5566 -0.3534  0.1468
  487TMC3    C4 7294   3.572   1.271  12.929 -0.7093 -0.6381 -0.0659
  487TMC3    C5 7295   3.597   1.138  12.971 -0.4008  0.6569  0.5524
  487TMC3    C6 7296   3.619   1.034  12.887  0.0593  0.1889 -0.4215
  487TMC3     C 7297   3.487   1.413  12.753 -0.7795  0.5402 -0.1840
  487TMC3     O 7298   3.417   1.412  12.650 -0.1181  0.3404 -0.2354
  487TMC3     H 7299   3.504   1.193  12.610  1.5388  1.0849  0.1352
  487TMC3    H1 7300   3.553   1.348  13.004  0.0924  0.7606 -1.3035
  487TMC3    H2 7301   3.624   0.936  12.934 -3.4542  0.2524  0.0561
  487TMC3    C7 7302   3.566   1.101  13.104  0.2271 -0.4958 -0.1167
  487TMC3    C8 7303   3.500   0.940  12.721  0.0950 -0.0963  0.0248
  487TMC3    O1 7304   3.621   1.013  13.165 -0.6355  0.2007  0.2537
  487TMC3    O2 7305   3.550   0.848  12.654 -0.0552 -0.3913 -0.3806
  488MPD2     C 7306   3.826   3.059  16.326 -0.6648 -0.4448  0.5939
  488MPD2    C1 7307   3.831   3.180  16.388 -0.1379  0.2344 -0.0284
  488MPD2    C2 7308   3.788   3.186  16.520  0.7573  0.0546  0.3313
  488MPD2    C3 7309   3.750   3.074  16.584  0.2137  0.4140 -0.3983
  488MPD2    C4 7310   3.763   2.950  16.529 -0.2918  0.1968  0.6403
  488MPD2    C5 7311   3.802   2.944  16.403 -0.8035  0.3444  0.7984
  488MPD2     H 7312   3.792   3.282  16.570 -0.3001  0.4010 -0.2384
  488MPD2    H1 7313   3.735   2.852  16.565 -0.4623  0.0616  0.1381
  488MPD2    H2 7314   3.862   3.042  16.226  0.5136  1.2260  0.7400
  488MPD2    H3 7315   3.790   2.849  16.351 -0.8294  1.1828 -0.7148
  488MPD2     N 7316   3.722   3.083  16.724  0.0266  0.1272  0.5896
  488MPD2    H5 7317   3.747   3.175  16.757 -1.1248  0.7758 -0.3271
  488MPD2    N1 7318   3.872   3.300  16.319  0.0503  0.1459  0.0985
  488MPD2    H7 7319   3.861   3.383  16.377  0.9049  0.4700 -0.2090
  489TMC3    C1 7320   3.692   3.028  16.941  0.6262  0.0088  0.4018
  489TMC3    C2 7321   3.781   3.130  16.974 -0.1278  0.5308 -0.6643
  489TMC3    C3 7322   3.769   3.181  17.096 -0.0416 -0.3499  0.9451
  489TMC3    C4 7323   3.588   2.991  17.022 -0.0896 -0.4297  0.4804
  489TMC3    C5 7324   3.572   3.057  17.138 -0.2551  0.2754 -0.0064
  489TMC3    C6 7325   3.658   3.157  17.175  0.3289 -0.1810  0.0713
  489TMC3     C 7326   3.683   2.983  16.807 -0.5555  0.5799  0.0878
  489TMC3     O 7327   3.643   2.867  16.789 -0.1519 -0.0066  0.1424
  489TMC3     H 7328   3.875   3.144  16.924  0.2742  2.5996  0.6620
  489TMC3    H1 7329   3.520   2.910  16.997 -2.1935  0.9158  1.8323
  489TMC3    H2 7330   3.657   3.201  17.274  0.8454 -0.5329  0.2299
  489TMC3    C7 7331   3.462   3.004  17.225  0.4163  0.1142  0.5881
  489TMC3    C8 7332   3.831   3.312  17.093  0.5266  0.5060 -0.1109
  489TMC3    O1 7333   3.446   2.883  17.214  1.0467  0.2057 -0.6325
  489TMC3    O2 7334   3.945   3.323  17.055  0.0235 -0.2681  0.2162
  490MPD2     C 7335   4.589   3.003  17.408 -0.2062  0.1598 -0.2035
  490MPD2    C1 7336   4.666   2.895  17.366 -0.4696 -0.7615 -0.3330
  490MPD2    C2 7337   0.062   2.914  17.333 -0.5449 -0.0444 -0.3585
  490MPD2    C3 7338   0.122   3.036  17.335 -0.2359  0.2993  0.1142
  490MPD2    C4 7339   0.048   3.147  17.368 -0.2275  0.4308 -0.2352
  490MPD2    C5 7340   4.648   3.125  17.398 -0.4785 -0.4945 -0.0391
  490MPD2     H 7341   0.116   2.821  17.324 -2.3152 -1.2428  1.1782
  490MPD2    H1 7342   0.102   3.240  17.354  0.1353  0.2947  0.2459
  490MPD2    H2 7343   4.482   2.994  17.419 -0.3565  3.6475  1.2814
  490MPD2    H3 7344   4.571   3.201  17.403 -0.1676 -0.2217  0.6798
  490MPD2     N 7345   0.259   3.053  17.301  0.1782  0.2580 -0.2057
  490MPD2    H5 7346   0.302   3.142  17.323 -1.9501  1.1679  0.2330
  490MPD2    N1 7347   4.607   2.768  17.374  0.1362  0.1453 -1.1486
  490MPD2    H7 7348   4.505   2.771  17.375  0.1565 -1.1708  2.8180
  491TMC3    C1 7349   4.584   2.537  17.371 -0.4284  0.1950 -0.3543
  491TMC3    C2 7350   4.618   2.425  17.436 -0.9892  0.3500 -0.0334
  491TMC3    C3 7351   4.567   2.304  17.402 -0.3651  0.1369  0.1877
  491TMC3    C4 7352   4.494   2.532  17.270 -0.5430  0.3883 -0.1353
  491TMC3    C5 7353   4.437   2.410  17.245  0.3451  0.6885 -0.5408
  491TMC3    C6 7354   4.475   2.295  17.300 -0.2866  0.0177 -0.1830
  491TMC3     C 7355   4.675   2.647  17.371  0.0374  0.2857 -0.3813
  491TMC3     O 7356   0.059   2.625  17.391 -0.3086  0.3462 -0.3161
  491TMC3     H 7357   4.696   2.431  17.511  0.3224  0.3026 -1.3905
  491TMC3    H1 7358   4.476   2.622  17.212  1.7904  0.2561 -1.0649
  491TMC3    H2 7359   4.435   2.201  17.265  3.3964 -1.4132 -0.4986
  491TMC3    C7 7360   4.347   2.396  17.129 -0.0508  0.3509 -0.1654
  491TMC3    C8 7361   4.523   2.237  17.520  0.6394  0.1660 -0.0279
  491TMC3    O1 7362   4.300   2.284  17.116 -1.0684  0.1267 -0.5473
  491TMC3    O2 7363   4.527   2.300  17.626  0.7445 -0.0961 -0.4184
  492MPD2     C 7364   4.418   2.798  11.629  0.2575 -0.5202 -0.2362
  492MPD2    C1 7365   4.337   2.705  11.572 -0.4345 -0.1834  0.1343
  492MPD2    C2 7366   4.260   2.625  11.653 -0.2666 -0.5697 -0.0339
  492MPD2    C3 7367   4.266   2.640  11.792 -0.0094 -0.5307  0.3372
  492MPD2    C4 7368   4.354   2.724  11.850  0.8400 -0.5027 -0.5185
  492MPD2    C5 7369   4.435   2.800  11.765  0.4116  0.7486 -0.4548
  492MPD2     H 7370   4.204   2.550  11.599  1.9321 -1.8257 -0.5394
  492MPD2    H1 7371   4.360   2.733  11.958 -0.8127 -0.8090 -0.3898
  492MPD2    H2 7372   4.484   2.857  11.567 -0.7104  0.9889  0.1547
  492MPD2    H3 7373   4.509   2.871  11.800 -0.3804  0.0731  2.6431
  492MPD2     N 7374   4.173   2.570  11.879 -0.1616  0.2146  0.6479
  492MPD2    H5 7375   4.163   2.590  11.978 -0.5892 -1.0751  0.8773
  492MPD2    N1 7376   4.324   2.703  11.429  1.3605  0.2639 -0.1588
  492MPD2    H7 7377   4.386   2.761  11.372  0.2208 -0.3063 -1.9870
  493TMC3    C1 7378   4.258   2.658  11.207 -0.3712  0.4537 -0.4476
  493TMC3    C2 7379   4.359   2.732  11.146  0.1980 -0.2923 -0.1208
  493TMC3    C3 7380   4.359   2.744  11.014 -0.0950 -0.1277 -0.0027
  493TMC3    C4 7381   4.161   2.596  11.128  0.2643  0.2169  0.9968
  493TMC3    C5 7382   4.165   2.615  10.996  0.5764  0.2798 -0.2534
  493TMC3    C6 7383   4.260   2.694  10.938 -0.8421  0.3409 -0.1261
  493TMC3     C 7384   4.236   2.637  11.357  0.5112 -0.0646 -0.2002
  493TMC3     O 7385   4.135   2.572  11.394  0.4879 -0.2109  0.6535
  493TMC3     H 7386   4.420   2.794  11.211 -0.4517  0.0314  0.1744
  493TMC3    H1 7387   4.079   2.547  11.179  0.3177  0.9693  1.8085
  493TMC3    H2 7388   4.251   2.703  10.831 -1.3601  0.4195 -0.0768
  493TMC3    C7 7389   4.060   2.551  10.915  0.1716 -0.2345 -0.0992
  493TMC3    C8 7390   4.447   2.840  10.952 -0.4248 -0.9521 -0.4160
  493TMC3    O1 7391   4.047   2.599  10.803 -0.0287 -0.6232  0.7806
  493TMC3    O2 7392   4.407   2.883  10.844 -0.7360  0.0075 -0.4990
  494TMC3    C1 7393   0.578   4.516   0.379 -0.7014 -0.3801 -0.2684
  494TMC3    C2 7394   0.637   4.392   0.370 -0.0619  0.6039  0.1470
  494TMC3    C3 7395   0.639   4.331   0.252  0.2488 -1.1035 -0.1390
  494TMC3    C4 7396   0.533   4.587   0.265 -0.4642 -0.0697 -0.7001
  494TMC3    C5 7397   0.546   4.522   0.145  0.0806 -0.4741  0.3900
  494TMC3    C6 7398   0.601   4.398   0.136  0.3276  0.9120  0.5605
  494TMC3     C 7399   0.548   4.568   0.510  0.1686  0.0724  0.5234
  494TMC3     O 7400   0.438   4.617   0.521 -0.3949 -0.0551 -0.0478
  494TMC3     H 7401   0.656   4.340   0.463  1.2237 -1.4458 -1.2652
  494TMC3    H1 7402   0.491   4.684   0.286 -1.8588 -1.2254  1.9164
  494TMC3    H2 7403   0.596   4.353   0.038  0.1455  2.4508 -0.1403
  494TMC3    C7 7404   0.529   4.596   0.019  0.1280 -0.8446  0.6137
  494TMC3    C8 7405   0.733   4.216   0.248  0.6625 -0.2352 -0.5994
  494TMC3    O1 7406   0.527   4.532  17.657  0.3859 -0.4144 -0.0126
  494TMC3    O2 7407   0.791   4.185   0.353 -0.0737 -0.7910 -0.1786
  495TMC3    C1 7408   4.512   1.563  14.693 -0.2891 -0.7080  0.1764
  495TMC3    C2 7409   4.440   1.622  14.593 -0.3909  0.2547  0.1493
  495TMC3    C3 7410   4.323   1.679  14.627  0.5700 -0.5846 -0.2632
  495TMC3    C4 7411   4.479   1.568  14.822 -1.2163 -0.3513 -0.4885
  495TMC3    C5 7412   4.368   1.637  14.849 -0.2178 -0.2293  0.9053
  495TMC3    C6 7413   4.287   1.688  14.751 -0.1888 -0.0143 -0.2151
  495TMC3     C 7414   4.542   1.426  14.652 -0.7486 -0.1740 -0.5824
  495TMC3     O 7415   4.523   1.340  14.737  0.0445  0.1312 -0.4075
  495TMC3     H 7416   4.477   1.635  14.492  0.8454  1.7010  0.7826
  495TMC3    H1 7417   4.531   1.506  14.894 -0.8147  1.1310  0.5124
  495TMC3    H2 7418   4.189   1.730  14.771  1.1401  3.2990 -0.7589
  495TMC3    C7 7419   4.323   1.634  14.983  0.0452 -0.8423  0.9246
  495TMC3    C8 7420   4.220   1.661  14.533 -0.4236 -1.5044  0.2944
  495TMC3    O1 7421   4.413   1.649  15.066  0.0541  0.0363  0.5118
  495TMC3    O2 7422   4.112   1.718  14.553  0.2540 -0.1984 -0.1539
  496MPD2     C 7423   1.269   1.732  15.564 -0.2720  0.2293  0.5179
  496MPD2    C1 7424   1.318   1.627  15.629 -0.0603  0.1320 -0.0256
  496MPD2    C2 7425   1.255   1.584  15.744 -0.2306  0.1736  0.2715
  496MPD2    C3 7426   1.146   1.661  15.800 -0.0376 -0.6593  0.0555
  496MPD2    C4 7427   1.100   1.772  15.727  0.3980 -0.0510 -0.3860
  496MPD2    C5 7428   1.164   1.805  15.614  0.6095 -0.3584 -0.3751
  496MPD2     H 7429   1.290   1.498  15.800  2.8594 -0.2498 -2.3139
  496MPD2    H1 7430   1.014   1.830  15.760  0.5720 -0.8279  1.4301
  496MPD2    H2 7431   1.328   1.765  15.479  0.4988  1.9290  1.7374
  496MPD2    H3 7432   1.120   1.895  15.572  2.4964  0.3210 -0.8898
  496MPD2     N 7433   1.078   1.616  15.916 -0.6021 -0.0463 -0.2369
  496MPD2    H5 7434   1.109   1.531  15.962  1.9578  0.6766 -0.6310
  496MPD2    N1 7435   1.446   1.574  15.586  0.3828 -0.2216  0.1515
  496MPD2    H7 7436   1.481   1.614  15.500  0.6188  0.5551  0.6073
  497TMC3    C1 7437   0.934   1.596  16.089  0.2267 -0.0241 -0.4051
  497TMC3    C2 7438   0.813   1.540  16.065 -0.0715 -0.2114  0.3086
  497TMC3    C3 7439   0.790   1.408  16.093 -0.5470 -0.1597 -0.3527
  497TMC3    C4 7440   1.034   1.533  16.153  0.0638  0.4620 -0.4457
  497TMC3    C5 7441   1.008   1.408  16.202 -0.0394  0.3900  0.3383
  497TMC3    C6 7442   0.891   1.339  16.166 -0.5764 -1.2521  0.0475
  497TMC3     C 7443   0.982   1.684  15.984 -0.2329 -0.4383 -0.3525
  497TMC3     O 7444   0.918   1.779  15.944 -0.1614 -0.5418 -0.5109
  497TMC3     H 7445   0.734   1.591  16.011 -1.8202 -0.5077  2.5621
  497TMC3    H1 7446   1.122   1.589  16.183 -0.9683  0.6817  2.1773
  497TMC3    H2 7447   0.877   1.239  16.207  0.6590 -0.6564  1.9232
  497TMC3    C7 7448   1.062   1.377  16.333  0.0425  0.1486 -0.3995
  497TMC3    C8 7449   0.680   1.341  16.028 -0.6912  0.9554  0.0066
  497TMC3    O1 7450   0.988   1.332  16.418 -1.1344 -0.7341  0.0566
  497TMC3    O2 7451   0.612   1.409  15.951 -0.6736 -0.5601  0.0685
  498MPD2     C 7452   2.371   2.585   9.879  0.2790  0.3425  0.4343
  498MPD2    C1 7453   2.336   2.633  10.010  1.1031 -0.2789 -0.9250
  498MPD2    C2 7454   2.228   2.578  10.073  0.2590  0.0364 -0.2625
  498MPD2    C3 7455   2.167   2.465  10.025 -0.2355  0.0466 -0.4459
  498MPD2    C4 7456   2.215   2.403   9.911 -0.0435 -0.0064  0.3180
  498MPD2    C5 7457   2.312   2.471   9.834  0.9077 -0.2890  0.1809
  498MPD2     H 7458   2.199   2.625  10.166  2.5370  1.3955 -0.2239
  498MPD2    H1 7459   2.172   2.315   9.866  1.4316 -1.3044  1.4261
  498MPD2    H2 7460   2.445   2.629   9.812 -1.0158  0.8101 -0.6855
  498MPD2    H3 7461   2.351   2.425   9.744 -0.0282 -1.0032  0.1360
  498MPD2     N 7462   2.061   2.406  10.102 -0.6856 -0.3391  0.2504
  498MPD2    H5 7463   2.042   2.455  10.189 -0.1959 -1.3762  0.9420
  498MPD2    N1 7464   2.413   2.722  10.079  0.2563 -0.0623  0.6459
  498MPD2    H7 7465   2.374   2.754  10.167  0.1048  1.3543  0.0767
  499TMC3    C1 7466   2.573   2.878  10.139 -0.3717  0.2409 -0.1156
  499TMC3    C2 7467   2.521   2.905  10.265 -0.1363  0.5040 -0.6016
  499TMC3    C3 7468   2.546   3.031  10.319 -0.4601 -0.1728  0.2840
  499TMC3    C4 7469   2.648   2.973  10.077 -0.3410  0.1972 -0.3411
  499TMC3    C5 7470   2.667   3.098  10.129  0.3306 -0.2640 -0.6723
  499TMC3    C6 7471   2.608   3.134  10.249 -0.6326  0.0723 -0.0095
  499TMC3     C 7472   2.533   2.769  10.051 -0.3422  0.7540 -0.3175
  499TMC3     O 7473   2.595   2.745   9.949  0.2952  0.1097  0.3658
  499TMC3     H 7474   2.462   2.830  10.317 -0.6446  2.0788  1.1039
  499TMC3    H1 7475   2.691   2.944   9.982 -2.2671  0.5082 -1.3112
  499TMC3    H2 7476   2.620   3.233  10.292  2.0938  0.6283 -2.0699
  499TMC3    C7 7477   2.703   3.214  10.050  0.3571 -0.1993 -0.1280
  499TMC3    C8 7478   2.449   3.063  10.418 -0.0097  0.5976 -0.1539
  499TMC3    O1 7479   2.681   3.327  10.086  0.0865 -0.0853  0.1043
  499TMC3    O2 7480   2.337   3.008  10.402  0.1352  0.0254 -0.0411
  500MPD2     C 7481   3.441   3.310  11.294  0.0489 -0.1192 -0.6715
  500MPD2    C1 7482   3.455   3.432  11.231 -0.9387 -0.1338 -0.4867
  500MPD2    C2 7483   3.413   3.444  11.100 -0.3024 -0.3430 -0.2566
  500MPD2    C3 7484   3.366   3.332  11.033  0.3163 -0.1264  0.0818
  500MPD2    C4 7485   3.332   3.216  11.108  0.2321 -0.0282  0.7441
  500MPD2    C5 7486   3.378   3.207  11.233 -0.6194 -0.4845 -0.0555
  500MPD2     H 7487   3.425   3.542  11.055  0.1108 -0.2249  0.1144
  500MPD2    H1 7488   3.304   3.123  11.060  2.1761 -1.1301  1.7375
  500MPD2    H2 7489   3.474   3.303  11.397  1.4746  0.0727 -1.1143
  500MPD2    H3 7490   3.367   3.110  11.279 -0.0522 -0.4424  0.1682
  500MPD2     N 7491   3.332   3.327  10.893  0.3471  0.2085 -0.2506
  500MPD2    H5 7492   3.279   3.243  10.870  0.2416  0.5192 -1.1344
  500MPD2    N1 7493   3.497   3.557  11.302  0.0024  0.4027 -0.1214
  500MPD2    H7 7494   3.498   3.635  11.236 -2.0390  0.3234 -0.2532
  501TMC3    C1 7495   3.631   3.675  11.447 -0.0040  0.5747 -0.2283
  501TMC3    C2 7496   3.617   3.793  11.373  0.2507  0.4004  0.4476
  501TMC3    C3 7497   3.700   3.892  11.403  0.6806 -0.5585 -0.6451
  501TMC3    C4 7498   3.727   3.663  11.543 -0.1284  0.4518  0.2987
  501TMC3    C5 7499   3.809   3.765  11.564 -0.6061 -0.0620 -0.5401
  501TMC3    C6 7500   3.793   3.881  11.500  0.1008 -0.7775  0.1763
  501TMC3     C 7501   3.536   3.567  11.433  0.0773 -0.3057 -0.4588
  501TMC3     O 7502   3.526   3.485  11.518  0.0237 -0.4506 -0.4579
  501TMC3     H 7503   3.531   3.804  11.307  0.3171  0.0170  0.3000
  501TMC3    H1 7504   3.747   3.565  11.582  0.1380  0.3503 -0.0944
  501TMC3    H2 7505   3.859   3.966  11.512  0.4532 -1.3731  2.4866
  501TMC3    C7 7506   3.945   3.724  11.572 -0.2195 -0.6063 -0.2721
  501TMC3    C8 7507   3.722   3.998  11.302  0.0047  0.8471  0.6789
  501TMC3    O1 7508   3.975   3.608  11.539 -0.4670  0.0260 -0.3173
  501TMC3    O2 7509   3.816   4.072  11.320  0.1311  0.4306  0.3175
  502TMC3    C1 7510   3.692   2.088  14.535 -0.6656 -0.4538  0.1036
  502TMC3    C2 7511   3.630   2.200  14.483  0.2013  0.5770 -0.1753
  502TMC3    C3 7512   3.519   2.253  14.550 -0.2933 -0.1077  0.4971
  502TMC3    C4 7513   3.626   2.013  14.623 -0.3500 -0.2008 -0.2021
  502TMC3    C5 7514   3.507   2.053  14.677 -0.2819 -0.8820  0.0875
  502TMC3    C6 7515   3.444   2.167  14.626  0.1925 -0.3788  0.6637
  502TMC3     C 7516   3.822   2.130  14.572 -0.2518  0.2430 -0.5163
  502TMC3     O 7517   3.882   2.196  14.482  0.4321 -0.9545 -0.4032
  502TMC3     H 7518   3.684   2.271  14.421  0.2938  2.3872  1.9826
  502TMC3    H1 7519   3.680   1.928  14.662  0.3598 -0.0735 -0.9150
  502TMC3    H2 7520   3.348   2.195  14.669  1.2341  2.5833  1.0819
  502TMC3    C7 7521   3.507   2.045  14.819 -0.9336  0.3417  0.2085
  502TMC3    C8 7522   3.549   2.372  14.625  0.5794 -0.4295  0.0942
  502TMC3    O1 7523   3.615   2.021  14.874  1.1155  0.1889  0.0393
  502TMC3    O2 7524   3.671   2.392  14.627 -0.0563  0.4558 -0.3205
  503MPD2     C 7525   1.312   3.445  16.886 -0.1251  0.6755 -0.3622
  503MPD2    C1 7526   1.287   3.436  17.024  0.2493  0.6748  0.4712
  503MPD2    C2 7527   1.341   3.328  17.090  0.3588 -0.0269  0.9232
  503MPD2    C3 7528   1.424   3.240  17.027 -0.2291 -0.2780 -1.1605
  503MPD2    C4 7529   1.465   3.259  16.896 -0.4979 -0.2290 -0.0799
  503MPD2    C5 7530   1.396   3.357  16.824  0.1251  0.3764  0.1217
  503MPD2     H 7531   1.328   3.309  17.196 -1.7181  0.4074  0.7561
  503MPD2    H1 7532   1.531   3.203  16.831 -1.5156 -0.6455 -0.7661
  503MPD2    H2 7533   1.294   3.528  16.819 -3.0394 -1.4817 -2.2798
  503MPD2    H3 7534   1.434   3.382  16.725 -0.8967  1.0076 -0.1028
  503MPD2     N 7535   1.474   3.132  17.100  0.2493  0.6133  0.1368
  503MPD2    H5 7536   1.440   3.131  17.195 -1.2643  1.7648 -0.3857
  503MPD2    N1 7537   1.222   3.526  17.108  0.1699  0.1714  0.5171
  503MPD2    H7 7538   1.230   3.520  17.209 -2.4674 -0.9505  0.6566
  504TMC3    C1 7539   1.636   2.985  17.186 -0.0110  0.3480  0.4315
  504TMC3    C2 7540   1.589   3.021  17.316  0.1776 -0.7428  0.4378
  504TMC3    C3 7541   1.668   2.978  17.422 -0.5002  0.4962  0.2538
  504TMC3    C4 7542   1.746   2.911  17.169  0.4040 -1.2939 -0.2414
  504TMC3    C5 7543   1.825   2.886  17.275 -0.1819 -0.1790  0.1303
  504TMC3    C6 7544   1.783   2.903  17.405  0.2765  0.2554 -0.0985
  504TMC3     C 7545   1.586   3.056  17.068  0.2699 -0.5776 -0.4096
  504TMC3     O 7546   1.645   3.042  16.958  0.3252  0.3104 -0.1926
  504TMC3     H 7547   1.502   3.079  17.343 -0.4537 -1.0382 -0.9268
  504TMC3    H1 7548   1.779   2.884  17.069 -0.1024 -0.2731 -0.6814
  504TMC3    H2 7549   1.842   2.874  17.490  0.9795  1.4126 -0.1965
  504TMC3    C7 7550   1.957   2.828  17.240 -0.1837 -0.0373  0.5371
  504TMC3    C8 7551   1.590   2.976  17.548 -0.1545 -0.6904 -0.3229
  504TMC3    O1 7552   2.004   2.858  17.130  0.2929  0.6353  0.1337
  504TMC3    O2 7553   1.469   2.989  17.540  0.4586 -0.4386  0.1118
  505MPD2     C 7554   0.987   1.871  10.694 -0.0065 -0.4217 -0.9258
  505MPD2    C1 7555   1.027   1.749  10.745  0.3485 -0.7080  1.1597
  505MPD2    C2 7556   1.079   1.742  10.873 -0.7492 -0.5415  0.2384
  505MPD2    C3 7557   1.114   1.855  10.938  1.1256  0.6966 -0.1768
  505MPD2    C4 7558   1.086   1.979  10.884 -0.1290  0.5672 -0.7122
  505MPD2    C5 7559   1.023   1.987  10.766 -0.0300 -0.0776 -0.4638
  505MPD2     H 7560   1.096   1.646  10.920  2.3118  0.2385  0.7076
  505MPD2    H1 7561   1.099   2.074  10.934 -0.2166  0.8245 -1.1848
  505MPD2    H2 7562   0.924   1.877  10.606  0.4167 -4.1139 -1.4557
  505MPD2    H3 7563   0.978   2.078  10.730  2.0695  0.9914 -0.4005
  505MPD2     N 7564   1.184   1.847  11.064  0.2453 -0.1565 -0.4153
  505MPD2    H5 7565   1.210   1.938  11.101 -0.7963  0.4854 -1.2642
  505MPD2    N1 7566   1.002   1.633  10.668  0.7415 -0.8483 -0.5719
  505MPD2    H7 7567   0.971   1.654  10.573  0.7697  1.5178 -0.0575
  506TMC3    C1 7568   1.039   1.417  10.588  0.0998  0.8092  0.2506
  506TMC3    C2 7569   1.104   1.474  10.484 -0.5384 -0.5108 -0.1495
  506TMC3    C3 7570   1.191   1.394  10.415  0.0169 -0.1879 -0.3968
  506TMC3    C4 7571   1.057   1.282  10.614  0.0904  1.0714  0.2977
  506TMC3    C5 7572   1.149   1.211  10.542 -0.0303 -0.0908  0.6759
  506TMC3    C6 7573   1.212   1.264  10.439  0.1055  0.4053 -0.2649
  506TMC3     C 7574   1.020   1.500  10.705 -0.1821 -0.4320 -0.1109
  506TMC3     O 7575   1.041   1.449  10.816  0.2826 -0.6438 -0.0720
  506TMC3     H 7576   1.106   1.580  10.459  0.2052 -0.7702 -1.1716
  506TMC3    H1 7577   1.007   1.240  10.701  0.9333 -0.0455  0.2388
  506TMC3    H2 7578   1.290   1.207  10.390 -1.5927 -1.8145 -0.4330
  506TMC3    C7 7579   1.249   1.159  10.634 -0.5722  0.6521  0.2369
  506TMC3    C8 7580   1.236   1.453  10.284  0.1687  0.1451 -0.0468
  506TMC3    O1 7581   1.349   1.109  10.582  0.4608 -0.1023  0.7973
  506TMC3    O2 7582   1.234   1.395  10.179 -0.1823  0.0784 -0.1032
  507TMC3    C1 7583   2.704   2.517  14.553  0.0956  0.0115  0.2966
  507TMC3    C2 7584   2.586   2.458  14.535  0.0054  0.2404 -0.9035
  507TMC3    C3 7585   2.544   2.434  14.407 -0.4601 -0.5863  0.0441
  507TMC3    C4 7586   2.781   2.564  14.458 -0.4205 -0.1060 -0.1742
  507TMC3    C5 7587   2.729   2.561  14.332  0.0091 -0.1800  0.4902
  507TMC3    C6 7588   2.622   2.488  14.302  0.1255 -0.1754 -0.0007
  507TMC3     C 7589   2.704   2.605  14.671 -0.0570 -0.3084 -0.1216
  507TMC3     O 7590   2.814   2.642  14.716 -0.3454 -0.0163 -0.5851
  507TMC3     H 7591   2.528   2.411  14.614 -3.1946  0.4201 -3.1281
  507TMC3    H1 7592   2.866   2.625  14.484  1.1599 -1.9882 -0.9384
  507TMC3    H2 7593   2.595   2.481  14.197  1.1596 -0.3210 -0.2646
  507TMC3    C7 7594   2.705   2.693  14.278  0.0550  0.5289 -0.2866
  507TMC3    C8 7595   2.409   2.482  14.385 -0.7010  0.1704 -0.6107
  507TMC3    O1 7596   2.626   2.702  14.192 -0.1096 -0.0584  0.5797
  507TMC3    O2 7597   2.355   2.537  14.479 -0.7683  0.4623 -0.3436
  508MPD2     C 7598   2.575   0.393  16.230 -0.7509  0.6047  0.6693
  508MPD2    C1 7599   2.714   0.405  16.213  0.0509  0.1855  0.5560
  508MPD2    C2 7600   2.756   0.452  16.091  0.3976 -0.2283 -0.3425
  508MPD2    C3 7601   2.660   0.493  16.000 -0.1965 -0.7405 -0.6457
  508MPD2    C4 7602   2.521   0.478  16.013 -0.0526  0.0881 -0.1860
  508MPD2    C5 7603   2.480   0.427  16.133 -0.2773  0.0075  0.2644
  508MPD2     H 7604   2.859   0.472  16.065  0.5281 -1.3494 -0.7095
  508MPD2    H1 7605   2.449   0.500  15.935 -0.7599  2.6592  1.1795
  508MPD2    H2 7606   2.548   0.367  16.332  1.2877  2.2409  1.6206
  508MPD2    H3 7607   2.377   0.406  16.160 -0.1829 -0.9802 -0.1874
  508MPD2     N 7608   2.719   0.546  15.881  0.9790 -0.0316 -0.2910
  508MPD2    H5 7609   2.819   0.545  15.867  0.9628 -1.1174 -0.3522
  508MPD2    N1 7610   2.802   0.394  16.326  0.1299  0.1211  0.2398
  508MPD2    H7 7611   2.753   0.399  16.415  0.1734  0.9015  0.2253
  509TMC3    C1 7612   2.777   0.783  15.482 -0.7602  0.1903 -0.4751
  509TMC3    C2 7613   2.900   0.828  15.509 -0.1918 -0.2703 -0.1874
  509TMC3    C3 7614   2.955   0.778  15.629  0.6459  0.0530 -0.4103
  509TMC3    C4 7615   2.702   0.707  15.565 -0.7336  0.1222 -0.0328
  509TMC3    C5 7616   2.756   0.669  15.681 -0.7281 -0.2725  0.4355
  509TMC3    C6 7617   2.885   0.702  15.719  0.0344 -0.0995 -0.3707
  509TMC3     C 7618   2.690   0.841  15.383  0.6048 -0.0217  0.4008
  509TMC3     O 7619   2.593   0.784  15.344 -0.2720 -0.3310 -0.0550
  509TMC3     H 7620   2.962   0.876  15.434 -0.7377  1.2732  0.3554
  509TMC3    H1 7621   2.601   0.674  15.541  0.8032 -2.4429 -2.9154
  509TMC3    H2 7622   2.927   0.666  15.812  0.2649 -2.7614 -1.5028
  509TMC3    C7 7623   2.656   0.608  15.772 -0.0346 -0.0946  0.0286
  509TMC3    C8 7624   3.092   0.825  15.662  0.6953 -0.6383 -0.4341
  509TMC3    O1 7625   2.534   0.622  15.749  0.3543  0.7902  0.5792
  509TMC3    O2 7626   3.163   0.753  15.732 -0.4466  0.1596  0.7374
  510MPD2     C 7627   0.596   2.069  14.735 -0.3513  0.1929  0.3293
  510MPD2    C1 7628   0.672   1.964  14.782 -0.1317 -0.3716 -0.1147
  510MPD2    C2 7629   0.806   1.956  14.748 -0.5739  0.4954  0.1258
  510MPD2    C3 7630   0.862   2.034  14.655  0.2467 -1.0430  0.3734
  510MPD2    C4 7631   0.782   2.130  14.598 -0.1119 -0.3202 -0.0577
  510MPD2    C5 7632   0.655   2.146  14.636 -0.4893 -0.8495 -0.0398
  510MPD2     H 7633   0.872   1.883  14.793 -2.4127  0.0347  2.0947
  510MPD2    H1 7634   0.816   2.198  14.521  0.8524  0.4023  0.9914
  510MPD2    H2 7635   0.489   2.078  14.751 -0.7298 -0.7896 -1.7138
  510MPD2    H3 7636   0.588   2.224  14.600  1.1190  1.3411  1.7208
  510MPD2     N 7637   1.003   2.034  14.646 -0.0276 -0.2860 -0.3016
  510MPD2    H5 7638   1.056   1.987  14.719 -0.1133  1.0562  0.6162
  510MPD2    N1 7639   0.602   1.878  14.867 -0.6396  0.1124  0.9573
  510MPD2    H7 7640   0.507   1.907  14.888 -0.9518  1.4331 -2.3290
  511TMC3    C1 7641   0.532   1.672  14.946 -0.2981  0.3883  0.3289
  511TMC3    C2 7642   0.469   1.733  15.050  0.4107  0.4782 -0.2827
  511TMC3    C3 7643   0.382   1.660  15.123  0.5236  0.5028 -0.4972
  511TMC3    C4 7644   0.516   1.545  14.917  0.6911  0.0449  0.3547
  511TMC3    C5 7645   0.424   1.480  14.986  0.7923 -0.7554 -0.0560
  511TMC3    C6 7646   0.366   1.525  15.100  0.3653 -0.2827 -0.1041
  511TMC3     C 7647   0.631   1.744  14.874  0.3689  0.0140 -0.1889
  511TMC3     O 7648   0.721   1.682  14.815  0.3567  0.0602 -0.2375
  511TMC3     H 7649   0.502   1.833  15.076 -1.5677  0.8060  0.9974
  511TMC3    H1 7650   0.561   1.505  14.827 -1.0558 -2.5988  0.6429
  511TMC3    H2 7651   0.278   1.472  15.136  0.7571 -0.6609  0.2935
  511TMC3    C7 7652   0.392   1.352  14.921 -0.3117  0.2061  0.6065
  511TMC3    C8 7653   0.344   1.711  15.255  0.2966 -0.3138  0.2877
  511TMC3    O1 7654   0.401   1.349  14.799  0.5970  0.3488  0.0500
  511TMC3    O2 7655   0.348   1.834  15.268  0.2801  0.3943 -0.3066
  512TMC3    C1 7656   3.896   1.228  13.496 -0.5456  0.6135  0.2179
  512TMC3    C2 7657   4.033   1.239  13.486  0.4326  0.0552  0.0763
  512TMC3    C3 7658   4.104   1.124  13.457  0.2032  0.0733 -0.3556
  512TMC3    C4 7659   3.828   1.115  13.470 -0.2984 -1.0713  0.0946
  512TMC3    C5 7660   3.901   1.002  13.438  0.4172  0.9875 -0.0201
  512TMC3    C6 7661   4.038   1.006  13.448  0.1924  0.0984  0.6514
  512TMC3     C 7662   3.810   1.350  13.501 -0.0432  0.2381 -0.0883
  512TMC3     O 7663   3.702   1.343  13.441  0.3232  0.1687  0.3697
  512TMC3     H 7664   4.073   1.339  13.501  1.5222 -0.9226  3.5956
  512TMC3    H1 7665   3.720   1.120  13.475 -0.2823 -0.0353 -0.5734
  512TMC3    H2 7666   4.096   0.915  13.446  0.3814  0.2288  0.3541
  512TMC3    C7 7667   3.843   0.871  13.471 -0.3154 -0.2850 -0.1034
  512TMC3    C8 7668   4.247   1.113  13.495  0.4249 -0.5404 -0.2088
  512TMC3    O1 7669   3.745   0.878  13.546  0.1414  0.0986  0.0641
  512TMC3    O2 7670   4.299   1.002  13.497 -0.1263 -0.3872 -0.2339
  513MPD2     C 7671   1.223   1.404  13.459  0.3952 -0.4023  0.2733
  513MPD2    C1 7672   1.280   1.320  13.364  0.2499 -0.5740  0.3451
  513MPD2    C2 7673   1.405   1.265  13.390  0.2380 -0.7857 -0.3131
  513MPD2    C3 7674   1.464   1.295  13.509 -0.1645 -0.5416 -0.1454
  513MPD2    C4 7675   1.403   1.367  13.603 -0.4179  0.1184 -0.1838
  513MPD2    C5 7676   1.285   1.426  13.579 -0.6067  0.0922 -0.1286
  513MPD2     H 7677   1.471   1.218  13.318  2.0142 -0.9005  1.3805
  513MPD2    H1 7678   1.460   1.402  13.689  1.0640 -1.2316 -0.6042
  513MPD2    H2 7679   1.130   1.450  13.428  0.4061 -1.3606 -1.1907
  513MPD2    H3 7680   1.246   1.498  13.650 -0.7939  1.2133 -1.3720
  513MPD2     N 7681   1.596   1.249  13.517  0.6553 -0.8328 -0.1850
  513MPD2    H5 7682   1.633   1.204  13.434  1.1993 -0.2338 -0.2580
  513MPD2    N1 7683   1.222   1.303  13.239 -0.9353  0.2140  0.0169
  513MPD2    H7 7684   1.149   1.365  13.206  0.4801  1.1817 -1.2924
  514TMC3    C1 7685   1.185   1.190  13.039 -0.2073  0.6637  0.2068
  514TMC3    C2 7686   1.153   1.312  12.990  0.0327 -0.1476  0.9723
  514TMC3    C3 7687   1.187   1.357  12.867  0.2524  0.0031  0.8653
  514TMC3    C4 7688   1.242   1.097  12.961 -0.8401  0.7932  0.1961
  514TMC3    C5 7689   1.274   1.139  12.838 -0.5521  0.3920 -0.2160
  514TMC3    C6 7690   1.260   1.268  12.796 -0.0403 -1.1254  0.1488
  514TMC3     C 7691   1.260   1.200  13.157  1.2293  0.4762 -0.4347
  514TMC3     O 7692   1.322   1.098  13.183 -0.2030 -0.2794 -0.2601
  514TMC3     H 7693   1.083   1.377  13.040 -1.5064 -0.9417 -0.1778
  514TMC3    H1 7694   1.262   0.994  12.990 -2.8979  0.4035  0.2509
  514TMC3    H2 7695   1.301   1.298  12.700  1.3769  1.3012  1.5063
  514TMC3    C7 7696   1.403   1.092  12.801  0.4453 -0.5888  0.2825
  514TMC3    C8 7697   1.133   1.479  12.805  0.0259  0.2860 -0.2989
  514TMC3    O1 7698   1.453   1.120  12.693  0.0411 -0.2062 -0.1335
  514TMC3    O2 7699   1.013   1.499  12.833  0.1668 -0.8426  0.7158
  515MPD2     C 7700   4.452   3.019  15.064  0.1506 -0.0485  0.0764
  515MPD2    C1 7701   4.519   3.064  14.952 -0.6265  0.1929 -0.1192
  515MPD2    C2 7702   4.575   3.189  14.960 -0.0290 -1.0256 -0.2512
  515MPD2    C3 7703   4.593   3.254  15.084 -0.7161  0.2381  0.1839
  515MPD2    C4 7704   4.522   3.200  15.188 -0.0416 -0.0328  0.2375
  515MPD2    C5 7705   4.443   3.091  15.180 -0.2690 -0.2961 -0.1885
  515MPD2     H 7706   4.626   3.235  14.876 -1.0217 -0.8916 -0.7752
  515MPD2    H1 7707   4.528   3.253  15.283  0.8070 -0.8562  0.6352
  515MPD2    H2 7708   4.387   2.932  15.066  0.2019 -0.1028 -0.8574
  515MPD2    H3 7709   4.390   3.061  15.269 -0.4506  1.0610  0.1651
  515MPD2     N 7710   4.679   3.365  15.111  0.5883  0.1153 -0.3919
  515MPD2    H5 7711   4.713   3.369  15.206  0.5766  0.4818 -0.4031
  515MPD2    N1 7712   4.535   2.989  14.832 -0.1430  0.0176 -0.5083
  515MPD2    H7 7713   4.573   3.034  14.749 -0.9671 -0.3419 -1.0893
  516TMC3    C1 7714   4.527   2.816  14.688 -0.0159 -0.1889 -0.0598
  516TMC3    C2 7715   4.459   2.888  14.598 -0.1159 -0.2168  0.0890
  516TMC3    C3 7716   4.412   2.803  14.500 -1.2374  0.1628 -0.2105
  516TMC3    C4 7717   4.575   2.695  14.671 -0.5013  0.5845  1.0909
  516TMC3    C5 7718   4.523   2.618  14.573  0.5838  0.3805  0.2805
  516TMC3    C6 7719   4.433   2.672  14.486  0.7900 -0.0794  0.2027
  516TMC3     C 7720   4.522   2.859  14.822 -0.3706 -0.6612  0.8293
  516TMC3     O 7721   4.519   2.781  14.914  0.2627 -0.1908  0.1319
  516TMC3     H 7722   4.430   2.992  14.607 -0.1516 -0.1813 -0.4360
  516TMC3    H1 7723   4.663   2.663  14.725  1.4381  3.9126 -0.0612
  516TMC3    H2 7724   4.372   2.616  14.417 -1.9235  0.5115  2.1302
  516TMC3    C7 7725   4.524   2.482  14.592  0.2961 -0.4294  0.2618
  516TMC3    C8 7726   4.330   2.866  14.400 -0.0370  0.1206 -0.4124
  516TMC3    O1 7727   4.610   2.439  14.669  0.1035 -0.0331  0.5644
  516TMC3    O2 7728   4.242   2.800  14.349 -0.0988 -0.1580 -0.2388
  517MPD2     C 7729   3.914   0.281  17.616 -0.7451 -0.3214  0.8017
  517MPD2    C1 7730   4.031   0.239  17.681 -0.7483 -0.1084 -0.1423
  517MPD2    C2 7731   4.084   0.318   0.038 -0.3070  0.3798  0.8591
  517MPD2    C3 7732   4.051   0.454   0.051 -0.7846 -0.2790  0.1927
  517MPD2    C4 7733   3.956   0.499  17.706  0.3731  0.0636 -0.1919
  517MPD2    C5 7734   3.884   0.414  17.627 -1.0555 -0.1665  0.2668
  517MPD2     H 7735   4.163   0.280   0.102 -0.5756 -1.5217  0.0607
  517MPD2    H1 7736   3.929   0.604  17.702  0.0587  0.0274  0.8479
  517MPD2    H2 7737   3.860   0.224  17.541  2.4587  0.2831 -1.9679
  517MPD2    H3 7738   3.792   0.443  17.579 -1.3496  1.2210  1.6888
  517MPD2     N 7739   4.108   0.546   0.142  0.1331  0.7479  0.2276
  517MPD2    H5 7740   4.065   0.638   0.152 -1.7008  0.1556 -2.1717
  517MPD2    N1 7741   4.074   0.103  17.671  0.3116  0.1433 -0.3432
  517MPD2    H7 7742   4.148   0.077  17.735  0.0682  0.5329  0.0941
  518TMC3    C1 7743   4.082   4.616  17.581  0.2217 -0.6280  0.0331
  518TMC3    C2 7744   4.018   4.516  17.508  0.2907  0.5329  0.7317
  518TMC3    C3 7745   4.076   4.396  17.488  0.0348  0.0769 -0.0304
  518TMC3    C4 7746   4.204   4.604  17.632  0.2053 -0.3621 -0.6180
  518TMC3    C5 7747   4.268   4.484  17.602  0.6163 -0.9425  0.3036
  518TMC3    C6 7748   4.205   4.376  17.535  0.3646 -0.6909 -0.0009
  518TMC3     C 7749   4.013   0.009  17.583 -0.0689  0.0450  0.5752
  518TMC3     O 7750   3.909   0.011  17.514  0.3251  0.3545 -0.4567
  518TMC3     H 7751   3.929   4.538  17.449  1.6411 -0.5210 -1.6845
  518TMC3    H1 7752   4.264   4.677  17.684 -2.4964  2.5613 -1.6299
  518TMC3    H2 7753   4.251   4.278  17.525  0.4176 -0.3125 -3.4886
  518TMC3    C7 7754   4.409   4.485  17.620 -0.5128  0.0552 -0.6241
  518TMC3    C8 7755   4.011   4.279  17.433  0.1020 -0.1597  0.4684
  518TMC3    O1 7756   4.454   4.568  17.694  0.5473  0.1443  0.0322
  518TMC3    O2 7757   4.082   4.191  17.386 -0.0188  0.1216 -0.1616
  519MPD2     C 7758   1.448   3.379  14.315 -0.4381  0.3749  0.3948
  519MPD2    C1 7759   1.354   3.278  14.322  0.4986 -0.4014 -0.4522
  519MPD2    C2 7760   1.373   3.156  14.264 -0.9646 -0.0665 -0.2278
  519MPD2    C3 7761   1.495   3.125  14.194  0.5144 -0.2784 -0.2181
  519MPD2    C4 7762   1.593   3.228  14.193  0.3518 -1.0029  0.1412
  519MPD2    C5 7763   1.564   3.351  14.244  0.3152 -0.2520 -0.1951
  519MPD2     H 7764   1.299   3.080  14.242  0.9338 -1.7895 -0.6866
  519MPD2    H1 7765   1.686   3.215  14.138  0.5179 -0.4235  0.2854
  519MPD2    H2 7766   1.429   3.473  14.366  1.9754 -0.3766  2.6782
  519MPD2    H3 7767   1.645   3.423  14.247  0.7372 -0.7440  0.3503
  519MPD2     N 7768   1.526   3.000  14.129  0.4062  0.1525  0.5466
  519MPD2    H5 7769   1.610   2.994  14.072  1.4280  1.1255  1.9513
  519MPD2    N1 7770   1.235   3.307  14.378 -0.1982  0.0224 -0.0906
  519MPD2    H7 7771   1.219   3.402  14.412  0.1033  0.4757 -1.1954
  520TMC3    C1 7772   1.491   2.793  14.025 -0.1475  0.2314 -0.3569
  520TMC3    C2 7773   1.385   2.740  13.959 -0.1819 -0.1007  0.7484
  520TMC3    C3 7774   1.384   2.604  13.941  0.1413 -0.7389  0.1327
  520TMC3    C4 7775   1.582   2.716  14.088 -1.0594 -0.6071 -0.0957
  520TMC3    C5 7776   1.571   2.578  14.067 -0.5595 -0.5103 -0.6768
  520TMC3    C6 7777   1.477   2.521  13.993  0.4996 -0.0519 -0.3237
  520TMC3     C 7778   1.438   2.896  14.114 -0.6039 -0.7422 -0.0339
  520TMC3     O 7779   1.323   2.880  14.145  0.2924  0.4120  0.7611
  520TMC3     H 7780   1.320   2.814  13.915 -0.5123  0.0513  1.4826
  520TMC3    H1 7781   1.669   2.757  14.139 -2.2370  1.1371  0.5010
  520TMC3    H2 7782   1.470   2.413  13.987  1.0379 -0.0905 -0.2972
  520TMC3    C7 7783   1.686   2.501  14.097 -0.4920  0.3500  0.6545
  520TMC3    C8 7784   1.260   2.559  13.884 -0.0423 -0.6186 -0.1070
  520TMC3    O1 7785   1.764   2.537  14.184  0.5115 -0.1698  0.4038
  520TMC3    O2 7786   1.220   2.450  13.928  0.1846 -0.6740 -0.0177
  521MPD2     C 7787   1.708   0.460  17.679 -0.1670  0.0804  0.7304
  521MPD2    C1 7788   1.704   0.484  17.547 -0.1657  0.2261 -0.0304
  521MPD2    C2 7789   1.825   0.497  17.487 -0.0340 -0.7941  0.1421
  521MPD2    C3 7790   1.942   0.498  17.562 -0.9676  0.4217 -0.2529
  521MPD2    C4 7791   1.938   0.474  17.696 -0.2175  0.7226 -0.1469
  521MPD2    C5 7792   1.819   0.452   0.012 -0.2562  0.7083  0.8927
  521MPD2     H 7793   1.840   0.526  17.384  0.6683  0.4424  0.5814
  521MPD2    H1 7794   2.026   0.444   0.008  0.5422  0.3795 -1.5315
  521MPD2    H2 7795   1.609   0.459  17.725  1.1605  0.6265  3.6042
  521MPD2    H3 7796   1.806   0.420   0.115 -0.3329  1.3556  1.0832
  521MPD2     N 7797   2.064   0.497  17.491 -0.0282  0.2606 -0.4210
  521MPD2    H5 7798   2.058   0.518  17.392  1.6455  1.7612 -0.2083
  521MPD2    N1 7799   1.582   0.487  17.482  0.5593 -0.6327  0.2516
  521MPD2    H7 7800   1.499   0.466  17.537 -0.3488  1.3388 -0.3659
  522TMC3    C1 7801   2.291   0.487  17.444  0.2945 -0.2791  0.7040
  522TMC3    C2 7802   2.408   0.412  17.466  0.1409 -0.0633 -0.0833
  522TMC3    C3 7803   2.519   0.455  17.396 -0.1702  0.1736 -0.2976
  522TMC3    C4 7804   2.280   0.585  17.354 -0.2262 -0.1946  0.2628
  522TMC3    C5 7805   2.393   0.612  17.278 -0.2557  1.0334  0.7237
  522TMC3    C6 7806   2.510   0.544  17.296  0.0459  0.1813 -0.0396
  522TMC3     C 7807   2.186   0.465  17.545  0.3904 -0.4705 -0.5079
  522TMC3     O 7808   2.221   0.422  17.654  0.0556 -0.0420 -0.1000
  522TMC3     H 7809   2.406   0.330  17.538  1.2367  0.7793  0.9140
  522TMC3    H1 7810   2.193   0.648  17.342 -1.4001 -2.2498 -2.1160
  522TMC3    H2 7811   2.592   0.568  17.230  1.0415  3.9202  2.5700
  522TMC3    C7 7812   2.386   0.694  17.166 -0.1595 -0.0951 -0.9815
  522TMC3    C8 7813   2.627   0.363  17.390 -0.0763  0.7896  0.4310
  522TMC3    O1 7814   2.493   0.744  17.136  0.2631 -0.3096 -0.0272
  522TMC3    O2 7815   2.643   0.286  17.485  0.0895 -0.0924 -0.2446
  523MPD2     C 7816   3.850   0.758  10.160  0.0456  0.4917 -0.2837
  523MPD2    C1 7817   3.884   0.847  10.262 -0.1308 -0.2617  0.5604
  523MPD2    C2 7818   3.869   0.982  10.239 -0.2838  0.9079 -0.3006
  523MPD2    C3 7819   3.818   1.029  10.117  0.4883  0.1082  0.2139
  523MPD2    C4 7820   3.792   0.935  10.012 -0.2127  0.5829  0.0872
  523MPD2    C5 7821   3.800   0.802  10.039 -0.1243 -0.8529  0.4428
  523MPD2     H 7822   3.906   1.055  10.310 -3.0053  0.3113  1.7221
  523MPD2    H1 7823   3.758   0.965   9.913 -2.7306  0.7998  1.0154
  523MPD2    H2 7824   3.857   0.652  10.184  3.1662  0.7829  0.0681
  523MPD2    H3 7825   3.770   0.732   9.962  0.3630 -0.7640  0.1696
  523MPD2     N 7826   3.820   1.169  10.078 -0.2476 -0.1035 -0.6191
  523MPD2    H5 7827   3.800   1.189   9.980 -2.3432 -2.1286 -0.6020
  523MPD2    N1 7828   3.915   0.786  10.384  0.3145 -0.4280  0.4774
  523MPD2    H7 7829   3.917   0.685  10.386  1.7977 -0.4149 -0.3348
  524TMC3    C1 7830   3.831   1.396  10.092  0.0393  0.6292 -0.5353
  524TMC3    C2 7831   3.883   1.398   9.966  0.0170 -0.3447  0.3289
  524TMC3    C3 7832   3.855   1.506   9.884 -0.2193  0.3769  0.0783
  524TMC3    C4 7833   3.740   1.485  10.131  0.7651  0.3782  0.1589
  524TMC3    C5 7834   3.712   1.595  10.045  0.6621  0.1882 -0.0009
  524TMC3    C6 7835   3.767   1.607   9.917  0.8937  0.4720 -0.0619
  524TMC3     C 7836   3.828   1.273  10.166  0.1823  0.1158  1.0786
  524TMC3     O 7837   3.828   1.275  10.284 -0.4637  0.4470  0.0835
  524TMC3     H 7838   3.958   1.326   9.934  0.8331  1.3690 -1.5658
  524TMC3    H1 7839   3.706   1.478  10.233  1.6248  1.9446  0.5447
  524TMC3    H2 7840   3.746   1.685   9.845  0.4899 -1.5140 -2.1060
  524TMC3    C7 7841   3.596   1.672  10.081  0.1530  0.3615 -0.5751
  524TMC3    C8 7842   3.945   1.517   9.769 -0.1205  0.6844 -0.0687
  524TMC3    O1 7843   3.530   1.626  10.176  0.0409 -0.3194  0.2833
  524TMC3    O2 7844   4.028   1.431   9.748  0.5863 -0.2678 -0.0260
  525MPD2     C 7845   2.748   2.168  14.481 -0.1299  0.6101  0.2509
  525MPD2    C1 7846   2.850   2.202  14.569  0.7509  0.0280  0.4835
  525MPD2    C2 7847   2.962   2.267  14.523 -0.0031  0.1788  0.0303
  525MPD2    C3 7848   2.968   2.294  14.389 -0.4196  0.0901  0.0717
  525MPD2    C4 7849   2.870   2.253  14.306  0.0482  0.3989  0.1294
  525MPD2    C5 7850   2.763   2.183  14.345 -0.0371 -0.5964 -0.3807
  525MPD2     H 7851   3.032   2.303  14.598  0.1097 -1.4143  0.6838
  525MPD2    H1 7852   2.874   2.283  14.202  1.4202  1.1135  0.3863
  525MPD2    H2 7853   2.654   2.122  14.507  0.0390 -1.2809 -2.4278
  525MPD2    H3 7854   2.678   2.173  14.278  1.6639 -1.8999 -2.3310
  525MPD2     N 7855   3.073   2.371  14.342 -0.0209  0.4367  0.1777
  525MPD2    H5 7856   3.066   2.385  14.242  1.0816 -2.4285 -0.2800
  525MPD2    N1 7857   2.837   2.177  14.707  0.1740 -0.3747  0.3500
  525MPD2    H7 7858   2.919   2.184  14.766  0.4899  1.0261 -0.2838
  526TMC3    C1 7859   2.742   2.093  14.902  0.8225  0.4072 -0.7196
  526TMC3    C2 7860   2.642   2.130  14.991  0.4590 -0.5360  0.5970
  526TMC3    C3 7861   2.680   2.144  15.127  0.1400  0.5853 -0.1303
  526TMC3    C4 7862   2.874   2.064  14.939  0.0103 -0.1999  0.2385
  526TMC3    C5 7863   2.902   2.071  15.076  0.6108 -0.5739 -0.3041
  526TMC3    C6 7864   2.805   2.102  15.169  0.2859  0.2748  0.5190
  526TMC3     C 7865   2.722   2.134  14.769 -0.3246 -0.1339  0.3946
  526TMC3     O 7866   2.603   2.159  14.739  0.3111  0.1776 -0.2802
  526TMC3     H 7867   2.545   2.164  14.956  1.8462  0.5646 -2.0930
  526TMC3    H1 7868   2.947   2.048  14.861 -0.9668 -1.0205 -0.5170
  526TMC3    H2 7869   2.824   2.099  15.275  0.4811 -0.1226  0.4744
  526TMC3    C7 7870   3.025   2.005  15.134  0.5449 -0.0474  0.8501
  526TMC3    C8 7871   2.593   2.189  15.230 -0.3903 -0.0747  0.5217
  526TMC3    O1 7872   3.053   2.007  15.253  0.3325 -0.2459  0.1841
  526TMC3    O2 7873   2.650   2.218  15.336  0.1247 -0.0228  0.5715
  527MPD2     C 7874   0.121   0.607   1.472  0.2469 -0.5562  0.2224
  527MPD2    C1 7875   0.170   0.659   1.351  0.1145  0.8377  0.5276
  527MPD2    C2 7876   0.289   0.614   1.301 -0.5482 -0.4036 -0.5557
  527MPD2    C3 7877   0.363   0.518   1.362 -0.1430 -0.7056  0.9628
  527MPD2    C4 7878   0.319   0.463   1.488  0.0376  0.7579 -0.1225
  527MPD2    C5 7879   0.194   0.505   1.537 -0.1812 -0.0987  0.2361
  527MPD2     H 7880   0.315   0.644   1.200 -1.4433  2.8616  0.1856
  527MPD2    H1 7881   0.360   0.380   1.544  0.4701  0.0199 -1.5154
  527MPD2    H2 7882   0.036   0.650   1.524  0.1433  1.5867 -1.7164
  527MPD2    H3 7883   0.170   0.466   1.635  2.2587  0.0537  0.9121
  527MPD2     N 7884   0.467   0.461   1.286  0.0505  0.0015 -0.3237
  527MPD2    H5 7885   0.475   0.488   1.189  0.2063 -1.0291 -0.5977
  527MPD2    N1 7886   0.106   0.766   1.284  0.5577  0.3467  0.3156
  527MPD2    H7 7887   0.154   0.812   1.208  1.0756 -0.0912  0.3833
  528TMC3    C1 7888   4.672   0.926   1.230  0.2642 -0.0523 -0.1263
  528TMC3    C2 7889   0.030   1.024   1.205 -0.1292 -0.3772 -0.3747
  528TMC3    C3 7890   4.726   1.148   1.171 -0.6843 -0.9910  0.2852
  528TMC3    C4 7891   4.536   0.951   1.209  0.0394 -0.0969  0.4164
  528TMC3    C5 7892   4.504   1.075   1.174 -0.3859 -0.0739  0.0721
  528TMC3    C6 7893   4.596   1.178   1.163  0.3200  1.0676  0.5806
  528TMC3     C 7894   4.709   0.805   1.302 -0.0857  0.8230 -0.1831
  528TMC3     O 7895   4.619   0.744   1.362  0.1552  0.0869 -0.2939
  528TMC3     H 7896   0.136   1.010   1.225 -0.6840 -2.1347  1.3763
  528TMC3    H1 7897   4.465   0.877   1.243  0.0877  0.2483  1.2710
  528TMC3    H2 7898   4.558   1.276   1.135  0.3951  0.4868 -1.5049
  528TMC3    C7 7899   4.364   1.103   1.159 -0.0308  0.2497  0.1190
  528TMC3    C8 7900   0.088   1.211   1.088  0.4073  0.5974  0.0677
  528TMC3    O1 7901   4.323   1.200   1.223 -0.0304 -0.0362  0.1412
  528TMC3    O2 7902   0.164   1.136   1.025  0.7045  0.1026 -0.2200
  529MPD2     C 7903   2.463   3.478   0.524 -0.0423  1.1417 -0.5214
  529MPD2    C1 7904   2.545   3.588   0.543 -0.7105 -0.4255 -0.1272
  529MPD2    C2 7905   2.520   3.709   0.480  0.2575  0.7565  0.2561
  529MPD2    C3 7906   2.418   3.716   0.390 -0.7692 -0.1728  0.3022
  529MPD2    C4 7907   2.340   3.610   0.375  0.4922 -0.4764 -0.5565
  529MPD2    C5 7908   2.355   3.494   0.449 -0.1629 -0.4603  0.5507
  529MPD2     H 7909   2.587   3.793   0.495 -0.3685  1.3581 -0.3038
  529MPD2    H1 7910   2.259   3.619   0.304 -0.9592 -2.3916  0.8740
  529MPD2    H2 7911   2.476   3.380   0.570  0.0641  0.9477 -0.9589
  529MPD2    H3 7912   2.286   3.411   0.434  1.9549 -2.1220  0.0790
  529MPD2     N 7913   2.394   3.833   0.312  0.1131 -0.0149 -0.1954
  529MPD2    H5 7914   2.304   3.844   0.267 -0.7367 -0.2000  1.4817
  529MPD2    N1 7915   2.661   3.574   0.620 -0.3131  0.2571  0.0666
  529MPD2    H7 7916   2.735   3.644   0.620 -1.2434  1.2360 -1.2131
  530TMC3    C1 7917   2.818   3.499   0.771 -0.0385 -0.0106 -0.1918
  530TMC3    C2 7918   2.885   3.627   0.765  0.0809 -0.0037 -0.3504
  530TMC3    C3 7919   3.016   3.630   0.815 -0.1700 -0.2515 -0.1000
  530TMC3    C4 7920   2.874   3.384   0.827  0.7712 -0.1111  0.3386
  530TMC3    C5 7921   2.995   3.411   0.893  0.8976  0.0701 -0.6519
  530TMC3    C6 7922   3.068   3.529   0.883 -0.0321  0.4274 -0.4143
  530TMC3     C 7923   2.685   3.480   0.714 -0.2067  0.7011 -0.0303
  530TMC3     O 7924   2.625   3.381   0.748  0.1175  0.4387 -0.1292
  530TMC3     H 7925   2.841   3.716   0.722  3.4576  0.2299 -3.2975
  530TMC3    H1 7926   2.833   3.285   0.811 -0.0397  0.3352 -0.3797
  530TMC3    H2 7927   3.158   3.537   0.944  0.5908 -0.7289 -1.1857
  530TMC3    C7 7928   3.067   3.303   0.965  0.0788 -0.5198 -0.1773
  530TMC3    C8 7929   3.091   3.749   0.800  0.2077  0.0299  0.3303
  530TMC3    O1 7930   3.183   3.311   0.996  0.2107  0.4922  0.3236
  530TMC3    O2 7931   3.033   3.852   0.771  0.1283 -0.4738  0.2500
  531MPD2     C 7932   1.853   0.885  12.948  0.6070 -0.6092 -0.5321
  531MPD2    C1 7933   1.790   0.946  13.054 -0.1295 -0.1949  0.5230
  531MPD2    C2 7934   1.663   0.996  13.039  0.4004  0.0637 -0.5732
  531MPD2    C3 7935   1.603   0.999  12.913 -0.3653  0.2160  0.7389
  531MPD2    C4 7936   1.670   0.957  12.800 -0.6935  0.0424 -0.4169
  531MPD2    C5 7937   1.794   0.899  12.822 -0.3084  0.0853 -0.5710
  531MPD2     H 7938   1.610   1.052  13.115 -0.1623 -1.5708  0.2425
  531MPD2    H1 7939   1.630   0.974  12.701 -1.7123  0.4011  0.0518
  531MPD2    H2 7940   1.950   0.838  12.957  1.7848  2.2294  1.5988
  531MPD2    H3 7941   1.848   0.860  12.736 -2.2593 -0.1514 -1.6954
  531MPD2     N 7942   1.473   1.063  12.914  0.5571  0.1499 -0.2570
  531MPD2    H5 7943   1.431   1.084  13.003 -0.7079  1.3403 -1.1330
  531MPD2    N1 7944   1.859   0.957  13.186 -0.6430 -0.4092 -0.0212
  531MPD2    H7 7945   1.960   0.948  13.188 -0.5980  0.0851 -0.1424
  532TMC3    C1 7946   1.894   1.079  13.386  0.2247  0.0080  0.8262
  532TMC3    C2 7947   1.831   1.193  13.449 -0.2824  0.3126 -0.1928
  532TMC3    C3 7948   1.818   1.202  13.584  0.4989 -0.2944 -0.0080
  532TMC3    C4 7949   1.938   0.979  13.464 -0.9666 -0.4326  0.2367
  532TMC3    C5 7950   1.930   0.998  13.604 -0.1809  0.0230 -0.1985
  532TMC3    C6 7951   1.875   1.107  13.664 -0.6835  0.0288 -0.2496
  532TMC3     C 7952   1.801   1.029  13.288 -0.0162 -0.1526  0.8050
  532TMC3     O 7953   1.681   1.046  13.329 -0.1595  0.5714  0.8823
  532TMC3     H 7954   1.795   1.274  13.387  0.5904  0.7325 -0.1660
  532TMC3    H1 7955   1.964   0.881  13.427  0.0657  1.1566 -3.1971
  532TMC3    H2 7956   1.846   1.114  13.768  1.6399  0.3045  0.3652
  532TMC3    C7 7957   1.978   0.893  13.693 -0.1579 -0.3798 -0.2649
  532TMC3    C8 7958   1.683   1.251  13.626  0.3811  0.5087 -0.4956
  532TMC3    O1 7959   1.950   0.899  13.811  0.4016  0.1408  0.3113
  532TMC3    O2 7960   1.656   1.261  13.746 -0.4093  0.3296 -0.5126
  533TMC3    C1 7961   3.255   2.516  14.333  0.1199  0.1096  0.6960
  533TMC3    C2 7962   3.386   2.533  14.374  0.4529  0.1342  0.9367
  533TMC3    C3 7963   3.430   2.663  14.394  0.0259 -0.2028 -0.2069
  533TMC3    C4 7964   3.174   2.627  14.322  0.3476 -0.1551 -0.9585
  533TMC3    C5 7965   3.224   2.754  14.341 -0.0673 -0.2330 -0.2053
  533TMC3    C6 7966   3.357   2.769  14.378  0.4832 -0.6457 -0.3930
  533TMC3     C 7967   3.184   2.412  14.408 -0.0049 -0.0996  0.5796
  533TMC3     O 7968   3.232   2.365  14.507  0.0859 -0.4350 -0.2871
  533TMC3     H 7969   3.447   2.443  14.382 -2.2835 -2.0562 -2.8729
  533TMC3    H1 7970   3.071   2.612  14.292  0.6517 -0.0107 -2.0577
  533TMC3    H2 7971   3.405   2.866  14.377 -0.9313  0.0826  2.1979
  533TMC3    C7 7972   3.125   2.830  14.416 -0.1284  0.3690  0.2146
  533TMC3    C8 7973   3.564   2.682  14.437 -0.4918 -0.0235 -0.4169
  533TMC3    O1 7974   3.030   2.761  14.448  0.1327  0.1929  0.2313
  533TMC3    O2 7975   3.586   2.784  14.500 -0.7313  0.7483  0.8109
  534MPD2     C 7976   0.796   3.978   1.191 -0.4311 -0.3307 -0.1064
  534MPD2    C1 7977   0.701   4.078   1.225 -0.2986  0.3916 -0.4915
  534MPD2    C2 7978   0.618   4.129   1.124 -0.7889 -0.6559  0.6060
  534MPD2    C3 7979   0.629   4.079   0.994  0.8180  0.1553 -0.2604
  534MPD2    C4 7980   0.715   3.977   0.964 -0.7981  0.0813 -0.4491
  534MPD2    C5 7981   0.802   3.934   1.061 -0.5247  0.4628  0.3542
  534MPD2     H 7982   0.556   4.213   1.153 -2.3931 -1.7076  0.2648
  534MPD2    H1 7983   0.725   3.935   0.864  0.5313  0.7419 -0.5929
  534MPD2    H2 7984   0.872   3.936   1.256 -1.1153  1.2266  1.6959
  534MPD2    H3 7985   0.881   3.861   1.042 -0.0388  0.9603  0.4477
  534MPD2     N 7986   0.563   4.130   0.879 -0.3315 -0.7265  0.4389
  534MPD2    H5 7987   0.592   4.094   0.789  1.1115 -1.2329  1.0996
  534MPD2    N1 7988   0.679   4.132   1.350 -0.2600  0.3168 -0.4462
  534MPD2    H7 7989   0.610   4.206   1.355 -1.5328 -0.8346 -0.8416
  535TMC3    C1 7990   0.434   4.267   0.740 -0.8841  0.8330 -0.4721
  535TMC3    C2 7991   0.325   4.350   0.732 -0.8815  1.2221  0.1570
  535TMC3    C3 7992   0.241   4.350   0.619  0.6221  0.2896 -0.2875
  535TMC3    C4 7993   0.460   4.192   0.634  0.0372 -0.0407 -0.7032
  535TMC3    C5 7994   0.378   4.199   0.522 -0.6244  0.1689  0.1072
  535TMC3    C6 7995   0.267   4.270   0.509  0.1691  0.8866  0.3417
  535TMC3     C 7996   0.472   4.234   0.871 -0.1546 -0.4487  0.1296
  535TMC3     O 7997   0.427   4.297   0.969 -0.0117  0.0914 -0.4369
  535TMC3     H 7998   0.301   4.405   0.822 -0.5200  1.1549  0.2949
  535TMC3    H1 7999   0.548   4.128   0.628 -0.5439 -0.9488  0.3352
  535TMC3    H2 8000   0.207   4.282   0.420  1.5076  1.0994 -0.5336
  535TMC3    C7 8001   0.422   4.111   0.408  0.0113  0.4451  0.2410
  535TMC3    C8 8002   0.105   4.388   0.637  0.2592 -0.0455  0.2998
  535TMC3    O1 8003   0.520   4.045   0.431  0.1311 -0.8943 -0.2195
  535TMC3    O2 8004   0.018   4.341   0.566 -0.2517 -0.1521 -0.3562
  536MPD2     C 8005   4.275   2.402  16.086  0.7057  0.3863 -0.1317
  536MPD2    C1 8006   4.173   2.309  16.086 -0.2030  0.8529  0.0812
  536MPD2    C2 8007   4.087   2.293  15.980 -0.2467 -0.7612  0.3951
  536MPD2    C3 8008   4.100   2.376  15.869  0.3519  0.5616  0.2396
  536MPD2    C4 8009   4.210   2.465  15.859  0.1709  0.3335  0.5370
  536MPD2    C5 8010   4.295   2.472  15.968 -0.0441 -1.1239 -0.6687
  536MPD2     H 8011   4.014   2.213  15.984 -2.3975  1.1218 -0.7918
  536MPD2    H1 8012   4.228   2.529  15.774 -0.3336 -0.2075  0.0201
  536MPD2    H2 8013   4.349   2.422  16.162 -1.1250  2.1607  1.1983
  536MPD2    H3 8014   4.370   2.550  15.958 -0.7269 -0.8868 -3.9729
  536MPD2     N 8015   4.010   2.359  15.762  0.0316 -0.1441 -0.1821
  536MPD2    H5 8016   3.930   2.301  15.785  0.0277 -0.5210 -1.1591
  536MPD2    N1 8017   4.166   2.230  16.207  0.0256 -0.4904  0.0094
  536MPD2    H7 8018   4.227   2.258  16.283 -1.7472 -0.4159  1.4093
  537TMC3    C1 8019   4.057   2.081  16.364 -0.4751  0.0729 -0.5226
  537TMC3    C2 8020   4.103   2.155  16.469  0.1197 -0.3056 -0.2607
  537TMC3    C3 8021   4.054   2.123  16.593 -0.0895  0.1300  0.4245
  537TMC3    C4 8022   3.970   1.976  16.387 -0.5670 -0.3972  0.2896
  537TMC3    C5 8023   3.932   1.939  16.513  1.1605 -0.4158 -0.1910
  537TMC3    C6 8024   3.980   2.014  16.618 -0.3616 -0.1270 -0.0911
  537TMC3     C 8025   4.069   2.129  16.229 -0.2342 -0.4508  1.0648
  537TMC3     O 8026   4.016   2.063  16.140  0.7017  0.8501 -0.2128
  537TMC3     H 8027   4.183   2.226  16.451 -1.2213  1.2985  0.1725
  537TMC3    H1 8028   3.923   1.921  16.306 -0.6411  0.3742 -0.1970
  537TMC3    H2 8029   3.947   2.006  16.721  1.0518 -0.4671  0.3392
  537TMC3    C7 8030   3.827   1.840  16.549 -0.2437 -0.5416 -0.2240
  537TMC3    C8 8031   4.082   2.212  16.702  0.0058  0.5836  0.0091
  537TMC3    O1 8032   3.751   1.803  16.460 -0.3997  0.3652 -0.0432
  537TMC3    O2 8033   4.114   2.156  16.806 -0.4473  0.3299  0.0731
  538TMC3    C1 8034   0.233   0.455  11.259 -0.7884  0.4353  0.4501
  538TMC3    C2 8035   0.298   0.401  11.151 -0.6576  0.0811  0.1311
  538TMC3    C3 8036   0.257   0.439  11.028 -0.8461 -0.2768 -0.3126
  538TMC3    C4 8037   0.138   0.557  11.240  0.0849 -0.0000 -0.4614
  538TMC3    C5 8038   0.110   0.596  11.114  0.2363 -0.0360 -0.8455
  538TMC3    C6 8039   0.175   0.538  11.001  0.3751 -0.7273  0.3566
  538TMC3     C 8040   0.243   0.387  11.389 -0.0423  0.2589 -0.0259
  538TMC3     O 8041   0.185   0.441  11.480 -0.5719 -0.2851 -0.0759
  538TMC3     H 8042   0.369   0.319  11.155 -1.4114 -0.6144 -1.0564
  538TMC3    H1 8043   0.087   0.608  11.320  0.7573 -0.3396  0.1797
  538TMC3    H2 8044   0.140   0.569  10.903 -1.5872 -1.3489  0.8653
  538TMC3    C7 8045   0.002   0.682  11.095 -0.3411  0.4245  0.2473
  538TMC3    C8 8046   0.321   0.367  10.914  0.2186  0.5166  0.0572
  538TMC3    O1 8047   4.664   0.699  11.193  0.0496 -0.1173 -0.3254
  538TMC3    O2 8048   0.332   0.247  10.936 -0.0197  0.4046 -0.2296
  539MPD2     C 8049   4.509   0.127  12.012 -0.1566 -0.7610  0.5860
  539MPD2    C1 8050   4.567   0.084  11.887 -0.3260 -0.6425  0.5906
  539MPD2    C2 8051   4.583   0.179  11.788 -1.6057 -0.0776  0.1457
  539MPD2    C3 8052   4.550   0.313  11.813 -0.0035 -0.2228 -0.1103
  539MPD2    C4 8053   4.504   0.347  11.933 -0.3084  0.2030 -0.1600
  539MPD2    C5 8054   4.473   0.254  12.035  0.9467  0.7339  0.4446
  539MPD2     H 8055   4.605   0.140  11.690 -1.3697 -1.9492  0.9489
  539MPD2    H1 8056   4.479   0.450  11.955 -0.6718  0.1963 -0.5459
  539MPD2    H2 8057   4.493   0.060  12.096  2.4219 -0.1256  1.5836
  539MPD2    H3 8058   4.415   0.293  12.119  0.0825  1.1024 -0.3278
  539MPD2     N 8059   4.579   0.419  11.732  0.2760  0.1951 -0.0224
  539MPD2    H5 8060   4.558   0.508  11.775 -0.2021 -0.0833  0.3325
  539MPD2    N1 8061   4.606   4.689  11.857  0.1852 -0.1560  0.4698
  539MPD2    H7 8062   4.639   4.672  11.763 -1.0365 -0.7293  0.1399
  540TMC3    C1 8063   4.632   0.546  11.546 -0.5868  0.2599 -0.2272
  540TMC3    C2 8064   4.550   0.569  11.438 -0.5165  0.2668  0.1416
  540TMC3    C3 8065   4.453   0.667  11.443  0.3785  0.0225  0.0162
  540TMC3    C4 8066   4.640   0.644  11.641 -0.7746 -0.2306  0.3461
  540TMC3    C5 8067   4.540   0.741  11.647  0.3803 -0.3669  0.4002
  540TMC3    C6 8068   4.447   0.753  11.551 -0.1105  0.6739 -0.2712
  540TMC3     C 8069   4.630   0.409  11.603  0.0643  0.2420 -0.2650
  540TMC3     O 8070   4.619   0.313  11.525 -0.2576 -0.2798  0.2206
  540TMC3     H 8071   4.555   0.498  11.355 -0.9382  0.8063 -0.3474
  540TMC3    H1 8072   4.707   0.635  11.726  0.7860 -0.3992 -0.9232
  540TMC3    H2 8073   4.372   0.831  11.548 -0.6899  0.1508  0.4117
  540TMC3    C7 8074   4.493   0.764  11.781  0.1098  0.0815 -0.1070
  540TMC3    C8 8075   4.347   0.667  11.343 -0.6698 -0.5804  0.2250
  540TMC3    O1 8076   4.533   0.681  11.861  0.0048 -0.3971  0.1099
  540TMC3    O2 8077   4.256   0.743  11.371 -0.1312 -0.0956 -0.3316
  541MPD2     C 8078   2.594   1.329  13.503  0.9057  0.1402  0.4167
  541MPD2    C1 8079   2.677   1.267  13.408 -0.1594 -0.2560 -0.7245
  541MPD2    C2 8080   2.682   1.311  13.275 -0.1684  0.4294  0.1169
  541MPD2    C3 8081   2.609   1.421  13.243  0.0400  0.0409  0.6026
  541MPD2    C4 8082   2.521   1.481  13.336 -0.2760 -0.3182 -0.0107
  541MPD2    C5 8083   2.516   1.432  13.459 -0.4771  0.6238  0.0498
  541MPD2     H 8084   2.744   1.266  13.199  0.1135  1.4677 -0.2696
  541MPD2    H1 8085   2.459   1.567  13.315 -1.6123 -1.0389  0.9692
  541MPD2    H2 8086   2.575   1.297  13.605  1.8549  0.6154  0.7442
  541MPD2    H3 8087   2.442   1.475  13.526 -0.3269  0.0816  0.5636
  541MPD2     N 8088   2.626   1.484  13.122  0.4884 -0.2747  0.4576
  541MPD2    H5 8089   2.560   1.560  13.110 -1.8087 -2.2683  0.4896
  541MPD2    N1 8090   2.746   1.156  13.449  0.4358  0.1705  0.4543
  541MPD2    H7 8091   2.743   1.136  13.549 -1.6261 -1.8771 -0.0116
  542TMC3    C1 8092   2.691   1.510  12.892  0.6382  0.1617 -0.2206
  542TMC3    C2 8093   2.771   1.458  12.789  0.0915  0.0600 -0.3236
  542TMC3    C3 8094   2.732   1.477  12.661 -0.0940 -0.6370  0.2973
  542TMC3    C4 8095   2.598   1.610  12.866  1.0982  0.7130 -0.1630
  542TMC3    C5 8096   2.558   1.625  12.732 -0.7277 -0.0939 -0.0447
  542TMC3    C6 8097   2.625   1.554  12.626  0.3341 -1.1062 -0.3302
  542TMC3     C 8098   2.727   1.470  13.029 -0.0017  0.2007 -0.3235
  542TMC3     O 8099   2.824   1.394  13.039  0.0304 -0.2741 -0.0126
  542TMC3     H 8100   2.853   1.393  12.813  1.3117  0.5826 -3.1139
  542TMC3    H1 8101   2.537   1.659  12.940 -1.8314 -0.9521 -1.4722
  542TMC3    H2 8102   2.589   1.547  12.524  1.5261  1.2875 -0.9084
  542TMC3    C7 8103   2.450   1.717  12.701  0.2085 -0.3167  0.5644
  542TMC3    C8 8104   2.805   1.424  12.551 -0.2079  0.0004  0.0642
  542TMC3    O1 8105   2.388   1.763  12.797  0.0009 -0.1056  0.2933
  542TMC3    O2 8106   2.789   1.480  12.444 -0.5087  0.1648  0.8570
  543TMC3    C1 8107   2.594   2.876  16.871 -0.6401 -0.6212  0.2650
  543TMC3    C2 8108   2.550   2.762  16.926  0.0929 -0.3138 -0.2417
  543TMC3    C3 8109   2.549   2.751  17.060 -0.1098  0.4206  0.3198
  543TMC3    C4 8110   2.660   2.970  16.936 -0.9982  0.0428 -0.6102
  543TMC3    C5 8111   2.658   2.951  17.077 -0.0184 -0.4712 -0.1184
  543TMC3    C6 8112   2.596   2.846  17.141 -0.6766 -0.3118  0.2709
  543TMC3     C 8113   2.620   2.865  16.730  0.4420  0.4583 -0.2376
  543TMC3     O 8114   2.714   2.925  16.682 -0.0049  0.1071 -0.3559
  543TMC3     H 8115   2.510   2.675  16.876  2.4965  0.0417 -2.7932
  543TMC3    H1 8116   2.699   3.055  16.881  0.3137 -0.6325 -0.7410
  543TMC3    H2 8117   2.599   2.840  17.249 -1.8935  0.5445  0.3536
  543TMC3    C7 8118   2.691   3.073  17.148 -0.6733 -0.3362  1.2609
  543TMC3    C8 8119   2.607   2.623  17.086  0.0346 -0.0103  0.2424
  543TMC3    O1 8120   2.778   3.148  17.104 -0.4552 -0.3370  0.2295
  543TMC3    O2 8121   2.676   2.583  16.997 -0.2309 -0.6440  0.3065
  544MPD2     C 8122   2.591   2.167  17.306  0.0199  0.4480 -0.0842
  544MPD2    C1 8123   2.637   2.202  17.184 -0.8744 -0.0869 -0.1261
  544MPD2    C2 8124   2.627   2.338  17.144 -0.1379 -0.6041 -0.0350
  544MPD2    C3 8125   2.590   2.436  17.236  0.0569  0.4051 -0.6208
  544MPD2    C4 8126   2.558   2.398  17.372  0.1996  0.2165  0.3352
  544MPD2    C5 8127   2.551   2.268  17.399  0.2788  0.0456  0.9362
  544MPD2     H 8128   2.639   2.362  17.039  2.8578 -1.1928  0.1617
  544MPD2    H1 8129   2.524   2.471  17.445  0.2090 -1.5288  2.0632
  544MPD2    H2 8130   2.580   2.061  17.327  2.3645 -0.1802 -2.0643
  544MPD2    H3 8131   2.517   2.242  17.499 -1.5096 -3.3532 -0.5710
  544MPD2     N 8132   2.580   2.573  17.207 -0.3955 -0.3824  0.1755
  544MPD2    H5 8133   2.534   2.630  17.278 -0.5784 -0.6891  0.3056
  544MPD2    N1 8134   2.658   2.094  17.093 -0.1273 -0.0098 -0.5446
  544MPD2    H7 8135   2.645   1.999  17.126 -4.3926 -0.2324 -2.7672
  545TMC3    C1 8136   2.726   1.993  16.885  0.3519  0.5947  0.5306
  545TMC3    C2 8137   2.607   1.959  16.829  0.5671 -0.1306  0.0226
  545TMC3    C3 8138   2.604   1.881  16.715 -0.5302  0.0422 -0.2078
  545TMC3    C4 8139   2.842   1.961  16.827  0.1033 -0.4566 -0.1671
  545TMC3    C5 8140   2.844   1.879  16.720  0.5537 -0.0593  0.4321
  545TMC3    C6 8141   2.728   1.843  16.658 -0.1057 -0.5354 -0.5080
  545TMC3     C 8142   2.726   2.109  16.976 -0.3494 -0.0612 -0.7404
  545TMC3     O 8143   2.798   2.197  16.932  0.2761 -0.5887 -0.1404
  545TMC3     H 8144   2.524   2.016  16.868  0.6383  0.3027 -0.4640
  545TMC3    H1 8145   2.922   2.011  16.880 -1.1084  0.6424  0.6492
  545TMC3    H2 8146   2.735   1.784  16.568  1.1880 -1.0143 -0.1015
  545TMC3    C7 8147   2.963   1.852  16.645  0.0001 -0.2246  0.2835
  545TMC3    C8 8148   2.509   1.913  16.609 -0.7075  0.3207 -0.1548
  545TMC3    O1 8149   2.952   1.819  16.530  0.3658  0.0090  0.4652
  545TMC3    O2 8150   2.529   1.862  16.499  0.1502 -0.5907 -0.1187
  546MPD2     C 8151   3.625   2.808  17.603  0.0829 -0.1129 -0.3503
  546MPD2    C1 8152   3.701   2.820  17.484  0.5237 -0.1809  0.3899
  546MPD2    C2 8153   3.751   2.949  17.442 -0.1209 -0.1870  0.4050
  546MPD2    C3 8154   3.735   3.055  17.530  0.3717  0.3373  0.4333
  546MPD2    C4 8155   3.653   3.040  17.640  0.2269  0.0906 -0.5930
  546MPD2    C5 8156   3.600   2.923  17.670  0.5839 -0.3796 -1.0809
  546MPD2     H 8157   3.795   2.961  17.343  2.0728  0.2581  1.4423
  546MPD2    H1 8158   3.627   3.117  17.712 -2.3554 -0.4320 -0.9539
  546MPD2    H2 8159   3.588   2.713  17.641 -1.1161  0.0872 -1.0381
  546MPD2    H3 8160   3.551   2.915   0.023  0.3169 -0.4032 -1.2189
  546MPD2     N 8161   3.795   3.176  17.522  0.3717  0.0459 -0.7635
  546MPD2    H5 8162   3.784   3.237  17.602  1.5984  1.0788 -1.3819
  546MPD2    N1 8163   3.701   2.705  17.401  0.4930 -0.0375  0.0960
  546MPD2    H7 8164   3.660   2.620  17.438  0.1860  1.9859  4.4003
  547TMC3    C1 8165   3.729   2.572  17.217  0.7313  0.0270  1.0899
  547TMC3    C2 8166   3.672   2.578  17.088 -0.6207 -0.4751 -0.5600
  547TMC3    C3 8167   3.583   2.484  17.053 -1.0323 -0.3288  0.2818
  547TMC3    C4 8168   3.701   2.476  17.312  0.4467 -0.2979 -0.1566
  547TMC3    C5 8169   3.621   2.379  17.262 -0.2584  0.1920  0.5397
  547TMC3    C6 8170   3.561   2.376  17.135 -0.1298 -0.4909 -0.8936
  547TMC3     C 8171   3.757   2.698  17.274  0.0680  0.3550 -0.6543
  547TMC3     O 8172   3.791   2.792  17.203 -0.2633 -0.3985  0.0331
  547TMC3     H 8173   3.690   2.664  17.024  1.4468  0.9340  1.9369
  547TMC3    H1 8174   3.759   2.458  17.401  1.2829  0.2286 -0.5929
  547TMC3    H2 8175   3.500   2.292  17.105 -2.2622 -0.4712  3.5008
  547TMC3    C7 8176   3.536   2.335  17.375  0.0034 -0.5563  0.5117
  547TMC3    C8 8177   3.530   2.474  16.917  0.6242  0.0038  0.3107
  547TMC3    O1 8178   3.539   2.410  17.473 -0.3694  0.6733 -0.9583
  547TMC3    O2 8179   3.417   2.432  16.917  0.1846  0.0312 -0.1209
  548MPD2     C 8180   3.443   3.301  12.574 -0.1780 -0.5359  0.0160
  548MPD2    C1 8181   3.379   3.202  12.644  0.2894 -0.6139 -0.3901
  548MPD2    C2 8182   3.440   3.082  12.673 -0.3005 -0.5131  0.2815
  548MPD2    C3 8183   3.564   3.067  12.618 -0.5017  0.2675 -0.2092
  548MPD2    C4 8184   3.625   3.166  12.544  0.2865  0.4037  0.1894
  548MPD2    C5 8185   3.573   3.288  12.530 -0.1682 -0.3670 -0.6546
  548MPD2     H 8186   3.391   3.000  12.724  1.0107 -1.5174 -0.0741
  548MPD2    H1 8187   3.720   3.154  12.494  0.3402  2.1748 -0.1461
  548MPD2    H2 8188   3.402   3.400  12.554  0.0148 -0.0520  2.0110
  548MPD2    H3 8189   3.614   3.361  12.460 -1.4898  0.7672 -0.2437
  548MPD2     N 8190   3.626   2.939  12.637  0.3342  0.1831  0.0496
  548MPD2    H5 8191   3.603   2.894  12.725 -3.3778  0.8774 -0.5887
  548MPD2    N1 8192   3.246   3.230  12.679  0.2216 -0.0432 -0.5231
  548MPD2    H7 8193   3.209   3.315  12.639  0.1466 -1.0631 -2.6387
  549TMC3    C1 8194   3.020   3.180  12.702  0.2849 -0.3560  0.1793
  549TMC3    C2 8195   2.989   3.312  12.686  0.2729  0.5882 -0.6565
  549TMC3    C3 8196   2.892   3.338  12.596  0.3724  0.1029 -0.3091
  549TMC3    C4 8197   2.944   3.081  12.647 -0.0243 -1.0692 -0.8850
  549TMC3    C5 8198   2.847   3.114  12.562 -0.7569  0.6213 -0.2073
  549TMC3    C6 8199   2.819   3.245  12.532  0.0510 -0.5023 -0.3519
  549TMC3     C 8200   3.157   3.141  12.739  0.8045  0.3306 -0.5088
  549TMC3     O 8201   3.180   3.038  12.801  0.3462 -0.9355 -0.1569
  549TMC3     H 8202   3.041   3.384  12.747 -1.7521  1.3700  0.1244
  549TMC3    H1 8203   2.992   2.984  12.637  1.1311 -0.6076  0.1204
  549TMC3    H2 8204   2.753   3.264  12.448 -1.2737  3.4994  1.5914
  549TMC3    C7 8205   2.809   3.010  12.465  0.5726 -0.1393 -0.6386
  549TMC3    C8 8206   2.846   3.472  12.582 -0.4862 -0.0271 -0.0393
  549TMC3    O1 8207   2.760   3.050  12.362 -0.2177  0.1759  0.1373
  549TMC3    O2 8208   2.735   3.490  12.532  0.1041 -0.4904 -0.3047
  550TMC3    C1 8209   1.987   1.255  12.834  0.3283  0.8609 -0.6472
  550TMC3    C2 8210   1.921   1.284  12.949 -0.1426  0.3442 -0.1807
  550TMC3    C3 8211   1.864   1.406  12.966  0.1725 -0.3685  0.9850
  550TMC3    C4 8212   2.003   1.339  12.729 -0.3341  0.9403 -0.1256
  550TMC3    C5 8213   1.950   1.463  12.754 -0.0610  0.6714 -0.0658
  550TMC3    C6 8214   1.872   1.496  12.862  0.3023 -0.6574 -0.2146
  550TMC3     C 8215   2.055   1.132  12.838 -0.4968 -0.1486 -0.7907
  550TMC3     O 8216   2.100   1.090  12.942  0.0169 -0.4936  0.5935
  550TMC3     H 8217   1.903   1.212  13.029 -3.1162  1.1498 -0.1305
  550TMC3    H1 8218   2.066   1.321  12.643 -2.1311  0.6820 -1.4067
  550TMC3    H2 8219   1.849   1.601  12.877 -2.1594 -1.2550  0.2511
  550TMC3    C7 8220   1.921   1.541  12.636  0.3629  0.2981  0.9975
  550TMC3    C8 8221   1.737   1.408  13.035 -0.1418  0.2637 -0.4254
  550TMC3    O1 8222   1.812   1.606  12.640 -0.2175 -0.5151 -0.2516
  550TMC3    O2 8223   1.724   1.364  13.145  0.0113 -0.4964  0.3206
  551TMC3    C1 8224   0.101   3.760  13.534  0.4957 -0.3559 -0.5552
  551TMC3    C2 8225   0.173   3.826  13.444  0.3342 -0.1213  0.7461
  551TMC3    C3 8226   0.307   3.836  13.482  0.1970  0.6165  0.4180
  551TMC3    C4 8227   0.151   3.721  13.660 -0.0997 -0.2648 -0.7494
  551TMC3    C5 8228   0.281   3.743  13.692 -0.4935 -0.2338 -0.0089
  551TMC3    C6 8229   0.360   3.794  13.597 -0.0393  0.7036 -0.0556
  551TMC3     C 8230   4.696   3.771  13.520 -0.3133 -0.4142 -0.1927
  551TMC3     O 8231   4.631   3.827  13.609  0.4026  0.1921  0.0723
  551TMC3     H 8232   0.125   3.869  13.357  1.4726 -0.3870 -0.0145
  551TMC3    H1 8233   0.093   3.658  13.727 -2.1303  0.2166 -2.0579
  551TMC3    H2 8234   0.463   3.813  13.623 -0.2394 -1.9801  2.7214
  551TMC3    C7 8235   0.315   3.780  13.824 -0.2801  0.2765  1.0113
  551TMC3    C8 8236   0.396   3.908  13.389  0.4170  0.8661  0.0379
  551TMC3    O1 8237   0.432   3.804  13.858 -0.1382  0.2424  0.4695
  551TMC3    O2 8238   0.508   3.862  13.375 -0.5289  0.3255  0.0989
  552MPD2     C 8239   1.961   0.820  14.176  0.4412  0.0677  0.7505
  552MPD2    C1 8240   2.017   0.696  14.159  0.1514 -0.5379 -0.3003
  552MPD2    C2 8241   2.145   0.673  14.213 -0.4114 -0.1397  0.4472
  552MPD2    C3 8242   2.210   0.774  14.281  0.4108 -0.6471 -0.0731
  552MPD2    C4 8243   2.153   0.895  14.293 -0.6569  0.2364 -0.5560
  552MPD2    C5 8244   2.028   0.919  14.251 -0.2679 -0.6000  0.0200
  552MPD2     H 8245   2.190   0.576  14.197  1.5276  0.8908 -0.3126
  552MPD2    H1 8246   2.203   0.981  14.338 -0.4427  0.3211 -0.9624
  552MPD2    H2 8247   1.858   0.842  14.148  0.4613 -1.6450 -0.6196
  552MPD2    H3 8248   1.987   1.017  14.271 -1.0080 -0.8017 -0.5126
  552MPD2     N 8249   2.345   0.763  14.332  0.6519  0.4500 -0.8724
  552MPD2    H5 8250   2.384   0.848  14.370  1.7227 -1.1426  1.6071
  552MPD2    N1 8251   1.944   0.599  14.083  0.1167 -0.2216 -0.1476
  552MPD2    H7 8252   1.971   0.502  14.083 -2.9310 -1.0852  0.4633
  553TMC3    C1 8253   1.810   0.490  13.946  0.0704 -0.2732  0.0316
  553TMC3    C2 8254   1.834   0.490  13.805  0.0240  0.1421 -1.0062
  553TMC3    C3 8255   1.873   0.364  13.756 -0.5112  0.6229  0.1471
  553TMC3    C4 8256   1.832   0.385  14.027 -0.4299  0.1077 -0.3401
  553TMC3    C5 8257   1.881   0.268  13.979 -0.0907 -0.3011 -0.3096
  553TMC3    C6 8258   1.889   0.254  13.840 -0.3028  0.0424  0.2222
  553TMC3     C 8259   1.821   0.616  14.013 -0.0383  0.7797 -0.0349
  553TMC3     O 8260   1.755   0.714  13.981 -0.9069  0.1861  0.4132
  553TMC3     H 8261   1.824   0.586  13.755  1.9304  2.0290  2.2697
  553TMC3    H1 8262   1.814   0.401  14.133  0.1573 -0.3466 -0.1727
  553TMC3    H2 8263   1.928   0.163  13.797  1.5968  0.6436  0.6508
  553TMC3    C7 8264   2.006   0.257  14.038 -0.4175  0.5776 -0.2572
  553TMC3    C8 8265   1.893   0.345  13.615 -0.2280  0.0040 -0.7933
  553TMC3    O1 8266   2.035   0.342  14.124 -0.8193 -0.3928  1.0196
  553TMC3    O2 8267   1.941   0.237  13.582  0.0633 -0.0186  0.6682
  554TMC3    C1 8268   4.108   0.114  11.879  0.1920  0.6607 -0.9472
  554TMC3    C2 8269   4.013   0.057  11.795 -0.0994 -0.3616 -0.8359
  554TMC3    C3 8270   4.007   0.116  11.672 -0.2884 -0.2421 -0.2882
  554TMC3    C4 8271   4.154   0.242  11.867  0.0881 -0.2522 -0.3584
  554TMC3    C5 8272   4.128   0.304  11.747  0.3351 -0.5972 -0.6582
  554TMC3    C6 8273   4.055   0.240  11.652  0.3069 -0.2958 -0.5169
  554TMC3     C 8274   4.139   0.052  12.009  0.0070  0.4120  0.3558
  554TMC3     O 8275   4.213   0.101  12.091  0.2175  0.1440 -0.3148
  554TMC3     H 8276   3.975   4.692  11.801 -0.0677 -0.2638  1.0270
  554TMC3    H1 8277   4.227   0.280  11.939 -0.0075  0.0058 -0.3965
  554TMC3    H2 8278   4.032   0.296  11.562 -1.0683 -3.3014 -2.0294
  554TMC3    C7 8279   4.179   0.436  11.711 -1.2565  0.1232 -0.2578
  554TMC3    C8 8280   3.906   0.075  11.574  0.6096 -0.2770 -0.3229
  554TMC3    O1 8281   4.223   0.459  11.595 -0.0675 -0.0558  0.1197
  554TMC3    O2 8282   3.926   0.126  11.462  0.2670  0.5466 -0.4423
  555TMC3    C1 8283   2.589   4.564  15.542  0.3371  0.4518 -0.4544
  555TMC3    C2 8284   2.579   4.618  15.671 -0.3845 -0.0957  0.5483
  555TMC3    C3 8285   2.656   4.560  15.771 -0.1439  0.0625 -0.0426
  555TMC3    C4 8286   2.673   4.461  15.513  0.1611  0.7869 -0.2296
  555TMC3    C5 8287   2.758   4.415  15.613 -0.5803 -0.0706 -0.9111
  555TMC3    C6 8288   2.752   4.466  15.739  0.2158 -0.2287  0.0801
  555TMC3     C 8289   2.530   4.639  15.430 -0.5294  0.4141  0.6562
  555TMC3     O 8290   2.488   0.009  15.471 -0.1020  0.0730  0.2038
  555TMC3     H 8291   2.501   4.687  15.702  0.1856  1.1990 -0.9096
  555TMC3    H1 8292   2.686   4.418  15.415 -0.4237 -0.4465  0.2378
  555TMC3    H2 8293   2.815   4.424  15.818 -0.5728  0.6843  1.1998
  555TMC3    C7 8294   2.827   4.283  15.597 -0.6082  0.1112  0.1764
  555TMC3    C8 8295   2.652   4.620  15.904  0.0740 -0.0883 -0.0887
  555TMC3    O1 8296   2.793   4.214  15.502  0.3742 -0.0917  0.4519
  555TMC3    O2 8297   2.576   4.717  15.917  0.0479 -0.1407 -0.2283
  556MPD2     C 8298   0.684   1.499  10.664 -0.1812 -0.4611 -0.6400
  556MPD2    C1 8299   0.701   1.380  10.729  1.0765  0.1075 -0.1710
  556MPD2    C2 8300   0.713   1.264  10.655  0.2158 -0.3314 -1.0611
  556MPD2    C3 8301   0.704   1.260  10.517  0.4001  0.3771 -0.4685
  556MPD2    C4 8302   0.694   1.384  10.450  0.0817  0.3856  0.0082
  556MPD2    C5 8303   0.681   1.500  10.524  0.3547  0.1554 -0.1035
  556MPD2     H 8304   0.719   1.169  10.708 -2.6360  0.3202  0.4637
  556MPD2    H1 8305   0.680   1.384  10.342 -0.8862  2.0294  0.1424
  556MPD2    H2 8306   0.668   1.593  10.717  1.1674 -0.7357  0.2573
  556MPD2    H3 8307   0.661   1.593  10.471 -1.7925  0.5062  1.3186
  556MPD2     N 8308   0.704   1.137  10.447 -0.3515 -0.1474  0.6499
  556MPD2    H5 8309   0.697   1.056  10.508 -0.5448 -0.7168 -0.1296
  556MPD2    N1 8310   0.712   1.363  10.872 -0.3677  0.7884  0.2282
  556MPD2    H7 8311   0.724   1.267  10.903  0.2873 -0.1973 -3.0368
  557TMC3    C1 8312   0.712   0.981  10.269 -0.0483  0.7933  0.5809
  557TMC3    C2 8313   0.805   0.938  10.181  0.6943  0.2199  0.0771
  557TMC3    C3 8314   0.814   0.802  10.173  0.8500 -0.2244  0.4259
  557TMC3    C4 8315   0.621   0.908  10.326  0.6562  0.3937 -0.1344
  557TMC3    C5 8316   0.628   0.773  10.306  0.1224 -0.0571 -0.0863
  557TMC3    C6 8317   0.732   0.719  10.243 -0.5332 -1.0861  0.2044
  557TMC3     C 8318   0.716   1.123  10.311 -0.6279  0.1676 -0.0430
  557TMC3     O 8319   0.752   1.216  10.235  0.8864 -0.5336  0.2426
  557TMC3     H 8320   0.870   1.007  10.129 -0.5490  1.0747 -0.3524
  557TMC3    H1 8321   0.543   0.950  10.389  1.4310  1.1180  0.3441
  557TMC3    H2 8322   0.722   0.615  10.217  1.4468 -0.6755 -2.1951
  557TMC3    C7 8323   0.561   0.699  10.417 -0.0681 -0.2391 -0.3821
  557TMC3    C8 8324   0.919   0.757  10.082  0.6459 -0.6219  0.1904
  557TMC3    O1 8325   0.461   0.747  10.471 -0.9148 -0.3167 -0.1770
  557TMC3    O2 8326   0.986   0.844  10.025  0.3310 -0.6714 -0.7539
  558TMC3    C1 8327   3.287   3.414  10.673  0.0026  0.1382 -0.3331
  558TMC3    C2 8328   3.154   3.384  10.690  0.3597  0.5013  0.1714
  558TMC3    C3 8329   3.056   3.457  10.628  0.1959 -0.4329 -0.5993
  558TMC3    C4 8330   3.328   3.509  10.584  0.5144 -0.4781 -0.7060
  558TMC3    C5 8331   3.227   3.570  10.512 -0.6721 -0.7112 -0.2968
  558TMC3    C6 8332   3.097   3.544  10.531  0.5732 -0.0185 -0.1173
  558TMC3     C 8333   3.357   3.431  10.799  0.1354 -0.5445 -0.0182
  558TMC3     O 8334   3.424   3.531  10.819 -0.0601  0.5281  0.4601
  558TMC3     H 8335   3.125   3.319  10.772  2.6113  0.4825  0.9810
  558TMC3    H1 8336   3.428   3.547  10.565  0.4974 -0.1375 -0.1079
  558TMC3    H2 8337   3.020   3.604  10.482  1.1744  0.0800 -0.9426
  558TMC3    C7 8338   3.267   3.663  10.412  0.5531  0.2309  0.1299
  558TMC3    C8 8339   2.943   3.490  10.711  0.4219 -0.6223 -0.3731
  558TMC3    O1 8340   3.381   3.709  10.425  0.3954 -0.0137  0.8736
  558TMC3    O2 8341   2.939   3.439  10.821 -0.1656 -0.4704  0.2793
  559MPD2     C 8342   3.340   4.722  10.848 -0.0541  0.4470 -0.3289
  559MPD2    C1 8343   3.256   4.640  10.926 -0.4040  1.2204 -0.6409
  559MPD2    C2 8344   3.320   4.552  11.009 -0.2860 -0.6851  0.6428
  559MPD2    C3 8345   3.459   4.555  11.028 -0.0322 -0.3382 -0.0871
  559MPD2    C4 8346   3.533   4.637  10.949  0.0821 -0.0691 -0.0845
  559MPD2    C5 8347   3.481   4.719  10.856  0.5899  0.7848  0.0750
  559MPD2     H 8348   3.261   4.480  11.063 -3.0597  0.8521 -0.3379
  559MPD2    H1 8349   3.641   4.623  10.951  0.4431  2.8548  1.4543
  559MPD2    H2 8350   3.301   0.050  10.770  0.6809 -0.2433 -1.2646
  559MPD2    H3 8351   3.544   0.052  10.801 -0.5147  1.0745 -0.8294
  559MPD2     N 8352   3.509   4.479  11.127 -0.7059  0.8745 -0.7705
  559MPD2    H5 8353   3.447   4.413  11.172 -1.1697  0.2006 -2.4044
  559MPD2    N1 8354   3.115   4.645  10.915 -0.6893  0.0493  0.6745
  559MPD2    H7 8355   3.075   4.725  10.867 -1.0581  0.0974  1.0632
  560TMC3    C1 8356   3.665   4.393  11.282  0.2670 -0.4710 -0.0635
  560TMC3    C2 8357   3.551   4.346  11.344  0.0335 -0.4468  0.0060
  560TMC3    C3 8358   3.565   4.307  11.475 -0.1615 -0.2174  0.6172
  560TMC3    C4 8359   3.782   4.405  11.349 -0.3768  0.5243  0.8714
  560TMC3    C5 8360   3.792   4.368  11.476 -0.3447 -0.0901 -0.0568
  560TMC3    C6 8361   3.685   4.307  11.541 -0.4759  0.1073  0.3660
  560TMC3     C 8362   3.637   4.483  11.176 -0.6869  0.0750  0.0823
  560TMC3     O 8363   3.718   4.565  11.143  0.4105  0.0313  0.0735
  560TMC3     H 8364   3.454   4.337  11.295  0.9232  2.7417 -2.3663
  560TMC3    H1 8365   3.875   4.441  11.307  0.3656 -0.3572  1.7498
  560TMC3    H2 8366   3.697   4.287  11.647 -1.2229  0.1197  0.4544
  560TMC3    C7 8367   3.915   4.387  11.554  0.3249  0.6501 -0.4488
  560TMC3    C8 8368   3.457   4.221  11.519  0.6538 -0.2706 -0.4574
  560TMC3    O1 8369   3.930   4.320  11.654 -0.0660  0.1470 -0.1215
  560TMC3    O2 8370   3.352   4.219  11.448  0.0596 -0.0025 -0.0180
  561TMC3    C1 8371   1.091   3.361  11.341  0.4014 -0.2499  0.3086
  561TMC3    C2 8372   1.042   3.307  11.457 -0.3026 -0.1295  0.1962
  561TMC3    C3 8373   0.978   3.389  11.544 -0.4984 -0.1503 -0.3452
  561TMC3    C4 8374   1.103   3.499  11.327 -0.7535  0.2151  0.0513
  561TMC3    C5 8375   1.042   3.575  11.415 -0.3982 -0.0910  0.3641
  561TMC3    C6 8376   0.966   3.527  11.520 -0.3172 -0.7101 -0.0525
  561TMC3     C 8377   1.079   3.278  11.218  0.1080 -0.2197 -0.2305
  561TMC3     O 8378   1.015   3.175  11.228  0.6288  0.1082  0.5027
  561TMC3     H 8379   1.043   3.199  11.462  0.8523 -0.1192  0.1927
  561TMC3    H1 8380   1.139   3.539  11.233 -0.2379 -1.0909 -0.3067
  561TMC3    H2 8381   0.924   3.599  11.590 -0.6740  0.7819 -1.8077
  561TMC3    C7 8382   1.022   3.715  11.385  1.1489  1.1014  0.0396
  561TMC3    C8 8383   0.867   3.323  11.610 -0.4343  0.1377  0.0720
  561TMC3    O1 8384   0.914   3.767  11.419 -0.1201 -0.2024 -0.0081
  561TMC3    O2 8385   0.824   3.226  11.552 -0.7563  0.5071 -0.1814
  562TMC3    C1 8386   2.556   4.502  16.467 -0.4699 -0.4637  0.1889
  562TMC3    C2 8387   2.511   4.621  16.417  0.3958  0.6226 -0.3274
  562TMC3    C3 8388   2.466   4.615  16.289 -0.8957  0.3397  0.1903
  562TMC3    C4 8389   2.546   4.387  16.401 -0.2881  0.7276  0.4987
  562TMC3    C5 8390   2.506   4.390  16.271  0.2661  0.2989  0.2602
  562TMC3    C6 8391   2.450   4.502  16.221  0.0639 -0.1005 -0.2312
  562TMC3     C 8392   2.631   4.496  16.591  0.0041 -0.7870  1.0285
  562TMC3     O 8393   2.686   4.391  16.621  0.0022  0.6494  0.0738
  562TMC3     H 8394   2.510   4.719  16.463  0.1374  1.6394 -2.5042
  562TMC3    H1 8395   2.574   4.295  16.451  0.4058  0.7602  0.1742
  562TMC3    H2 8396   2.421   4.502  16.116 -1.4084 -1.0093  0.1795
  562TMC3    C7 8397   2.492   4.271  16.191 -0.2202 -0.4638 -0.3211
  562TMC3    C8 8398   2.371   4.716  16.251 -0.1632 -0.8028 -0.3938
  562TMC3    O1 8399   2.430   4.276  16.085  0.5144 -0.7424 -0.3259
  562TMC3    O2 8400   2.307   0.035  16.342  0.0394  0.7450  0.3466
  563MPD2     C 8401   0.083   0.945  15.983  0.8125  0.0836 -0.5945
  563MPD2    C1 8402   0.136   1.061  16.046 -0.0891 -0.6133 -0.7476
  563MPD2    C2 8403   0.232   1.051  16.138  0.0221 -0.1688 -0.1148
  563MPD2    C3 8404   0.283   0.928  16.183 -0.0873  0.3787  0.3709
  563MPD2    C4 8405   0.220   0.816  16.136  0.2969 -0.6897  0.0457
  563MPD2    C5 8406   0.125   0.826  16.034 -0.4424 -0.8660  0.1697
  563MPD2     H 8407   0.275   1.139  16.186  2.7725 -0.7216 -1.5480
  563MPD2    H1 8408   0.254   0.716  16.158  0.5626 -0.6631 -0.2397
  563MPD2    H2 8409   0.013   0.952  15.900 -1.6335  1.0267  1.5272
  563MPD2    H3 8410   0.079   0.734  16.003  0.6644 -1.4867  0.3676
  563MPD2     N 8411   0.389   0.930  16.269  0.2477  0.3250  0.3981
  563MPD2    H5 8412   0.417   1.023  16.297  1.4532  0.1186 -0.1312
  563MPD2    N1 8413   0.073   1.186  16.009  0.2044  0.0433  0.5115
  563MPD2    H7 8414   4.715   1.181  15.971  0.8052  0.0422 -0.9788
  564TMC3    C1 8415   0.016   1.303  16.200 -0.8209  1.0543  0.2647
  564TMC3    C2 8416   4.627   1.247  16.177 -0.3413  0.4352  0.0470
  564TMC3    C3 8417   4.568   1.195  16.285  0.3526  0.0166  0.0874
  564TMC3    C4 8418   0.080   1.296  16.319  0.0104  0.2605  0.5490
  564TMC3    C5 8419   0.017   1.233  16.424  0.5689 -0.3301 -0.1644
  564TMC3    C6 8420   4.628   1.188  16.408  0.3424 -0.4395 -0.7601
  564TMC3     C 8421   0.105   1.293  16.088 -0.1976 -0.0265  0.4397
  564TMC3     O 8422   0.219   1.336  16.108 -0.0926  0.0834  0.2462
  564TMC3     H 8423   4.579   1.271  16.082 -0.4583 -2.1766 -0.5483
  564TMC3    H1 8424   0.179   1.338  16.334 -0.7447  1.8551  1.0284
  564TMC3    H2 8425   4.570   1.154  16.493  1.4036  0.3800  0.2929
  564TMC3    C7 8426   0.099   1.133  16.482  0.1300  0.1841 -0.7178
  564TMC3    C8 8427   4.502   1.065  16.259 -0.2443  0.1108 -0.0887
  564TMC3    O1 8428   0.209   1.162  16.521  0.2757  0.1957  0.0475
  564TMC3    O2 8429   4.518   0.981  16.348  0.7431 -0.5016  0.3527
  565TMC3    C1 8430   0.600   2.467  10.098 -0.3936 -0.6331 -0.0651
  565TMC3    C2 8431   0.552   2.398  10.204  0.8257  0.3570  0.2126
  565TMC3    C3 8432   0.480   2.283  10.174  0.1678  0.4071  0.4916
  565TMC3    C4 8433   0.559   2.429   9.968  1.0065  0.1636  0.3092
  565TMC3    C5 8434   0.495   2.312   9.947  0.7902 -0.2579  0.4398
  565TMC3    C6 8435   0.453   2.225  10.047  0.3683  1.1962  0.0424
  565TMC3     C 8436   0.670   2.594  10.133  0.2378 -0.0253 -0.1736
  565TMC3     O 8437   0.723   2.650  10.040  0.4138 -0.0397  0.1941
  565TMC3     H 8438   0.567   2.416  10.310  0.3844  1.5204  0.0714
  565TMC3    H1 8439   0.596   2.484   9.882 -1.4413 -1.1080 -1.5483
  565TMC3    H2 8440   0.373   2.153  10.035  1.9632 -0.9541  2.2703
  565TMC3    C7 8441   0.477   2.281   9.809  0.5967 -0.5334  0.1189
  565TMC3    C8 8442   0.485   2.187  10.281  0.1168 -1.0612  0.2926
  565TMC3    O1 8443   0.489   2.377   9.733  0.0082  0.0404  0.0233
  565TMC3    O2 8444   0.498   2.232  10.395 -0.5008  0.5018 -0.2956
  566MPD2     C 8445   2.151   4.103  14.222 -0.4306  0.1212 -0.1866
  566MPD2    C1 8446   2.185   4.163  14.103  0.2524  0.1085 -0.3115
  566MPD2    C2 8447   2.096   4.167  13.993  0.1223 -0.0020  0.0242
  566MPD2    C3 8448   1.964   4.114  14.010 -0.2429 -0.4567  0.4676
  566MPD2    C4 8449   1.929   4.059  14.133 -0.0934 -0.0050  0.6516
  566MPD2    C5 8450   2.021   4.052  14.235  0.1421  0.2577 -0.4594
  566MPD2     H 8451   2.128   4.213  13.900 -0.3900 -2.6098 -1.4430
  566MPD2    H1 8452   1.826   4.025  14.145  0.0150  0.1696  2.0461
  566MPD2    H2 8453   2.223   4.102  14.303 -2.2300 -0.3051  1.4108
  566MPD2    H3 8454   1.983   4.009  14.327  0.0261 -0.1418 -0.6924
  566MPD2     N 8455   1.857   4.139  13.916  0.1177 -0.2037 -0.2034
  566MPD2    H5 8456   1.764   4.125  13.953  1.1159  0.9117  2.6750
  566MPD2    N1 8457   2.308   4.231  14.096  0.3179  0.0533 -0.1504
  566MPD2    H7 8458   2.354   4.242  14.185  1.8880  0.3100 -1.0003
  567TMC3    C1 8459   2.481   4.370  14.015  0.1370 -0.0748 -0.8043
  567TMC3    C2 8460   2.567   4.409  13.915  0.9777 -0.1081  0.3218
  567TMC3    C3 8461   2.670   4.495  13.945 -0.7420  1.2957  0.0218
  567TMC3    C4 8462   2.499   4.424  14.136 -0.0478  0.5154  0.5139
  567TMC3    C5 8463   2.596   4.516  14.158  0.7931 -0.3539  0.3221
  567TMC3    C6 8464   2.684   4.555  14.066  0.2579 -0.2057 -0.4227
  567TMC3     C 8465   2.361   4.292  13.984 -0.5012 -0.5836  0.1545
  567TMC3     O 8466   2.335   4.296  13.864  0.0492 -0.0734  0.2249
  567TMC3     H 8467   2.561   4.368  13.814  0.2689  1.7343 -0.3858
  567TMC3    H1 8468   2.424   4.412  14.214 -1.1889 -0.3845 -0.7272
  567TMC3    H2 8469   2.777   4.600  14.099  0.9273 -2.5770  0.9532
  567TMC3    C7 8470   2.621   4.566  14.291  0.4143 -0.1755 -0.0097
  567TMC3    C8 8471   2.729   4.558  13.821  0.1003 -0.6184  1.0201
  567TMC3    O1 8472   2.657   4.681  14.300  0.0403 -0.1943  0.0398
  567TMC3    O2 8473   2.698   4.509  13.712  0.4596  0.0102 -0.2271
  568MPD2     C 8474   4.539   4.266  16.469 -0.1831  0.0893 -0.4742
  568MPD2    C1 8475   4.585   4.366  16.550  0.1635  0.3856  0.0512
  568MPD2    C2 8476   4.593   4.494  16.498  1.0975 -0.4669  0.1589
  568MPD2    C3 8477   4.550   4.526  16.365 -0.1763 -0.1194 -0.2731
  568MPD2    C4 8478   4.510   4.426  16.280 -0.0341  0.5006 -0.3209
  568MPD2    C5 8479   4.513   4.292  16.331 -0.3481  0.5464  0.0436
  568MPD2     H 8480   4.648   4.571  16.550  0.0532  0.5681 -0.2663
  568MPD2    H1 8481   4.487   4.442  16.175  0.6504  1.3387 -0.3393
  568MPD2    H2 8482   4.531   4.162  16.499  1.4249 -0.4501 -1.9129
  568MPD2    H3 8483   4.497   4.209  16.264 -1.0190  0.7898 -0.0978
  568MPD2     N 8484   4.569   4.659  16.323  0.7678 -0.7513  0.5073
  568MPD2    H5 8485   4.625   4.714  16.386 -1.3598  0.8721  0.9979
  568MPD2    N1 8486   4.630   4.337  16.676 -0.1479 -0.2732  0.1880
  568MPD2    H7 8487   4.633   4.240  16.704 -1.0747 -0.7056 -1.2081
  569TMC3    C1 8488   4.517   0.119  16.227  0.0480  0.3821 -0.2900
  569TMC3    C2 8489   4.512   0.166  16.355 -0.3231 -0.3024  0.0615
  569TMC3    C3 8490   4.523   0.298  16.378  0.0734 -0.9327 -0.1677
  569TMC3    C4 8491   4.543   0.208  16.125  0.1743  0.4761  0.1101
  569TMC3    C5 8492   4.558   0.343  16.158 -0.0148 -0.3238 -0.5006
  569TMC3    C6 8493   4.555   0.390  16.285  0.7629  0.7238 -0.7935
  569TMC3     C 8494   4.524   4.714  16.207  0.5462 -0.3608  0.6471
  569TMC3     O 8495   4.457   4.669  16.120  0.3638 -0.4037  0.4598
  569TMC3     H 8496   4.491   0.108  16.444 -1.1301 -0.2784 -0.1068
  569TMC3    H1 8497   4.534   0.178  16.021  2.9237 -0.7142  0.2158
  569TMC3    H2 8498   4.573   0.493  16.313 -0.9278  0.8081 -0.0256
  569TMC3    C7 8499   4.522   0.434  16.049 -0.5245 -0.3333  0.7738
  569TMC3    C8 8500   4.467   0.340  16.503 -0.1314  0.4426 -0.2184
  569TMC3    O1 8501   4.524   0.403  15.931 -0.0457  0.4837  0.2087
  569TMC3    O2 8502   4.358   0.288  16.528  0.6890  0.3722 -0.0058
  570TMC3    C1 8503   4.007   3.435  16.175  0.0452 -0.4210 -0.4989
  570TMC3    C2 8504   4.071   3.449  16.058  0.2477  0.0710  0.2678
  570TMC3    C3 8505   4.116   3.572  16.023 -0.5477 -0.2427 -0.1210
  570TMC3    C4 8506   3.994   3.551  16.255  0.5334 -0.0329 -0.0055
  570TMC3    C5 8507   4.044   3.674  16.218 -0.6176  0.4754 -0.0269
  570TMC3    C6 8508   4.104   3.688  16.097  0.1321 -0.4850  0.2251
  570TMC3     C 8509   3.959   3.303  16.205  0.5032  0.6626 -0.0526
  570TMC3     O 8510   4.001   3.209  16.138  0.0770  0.0821 -0.0747
  570TMC3     H 8511   4.080   3.369  15.986 -0.6982 -0.5538  0.8396
  570TMC3    H1 8512   3.955   3.548  16.356  0.7774  1.0517  0.1181
  570TMC3    H2 8513   4.171   3.766  16.063  0.5923 -0.2570  1.6622
  570TMC3    C7 8514   4.026   3.793  16.299 -0.1691 -0.5774 -0.4733
  570TMC3    C8 8515   4.231   3.580  15.928  0.4549 -0.0750 -0.4796
  570TMC3    O1 8516   3.989   3.781  16.413  0.0642  0.0812 -0.4918
  570TMC3    O2 8517   4.313   3.668  15.938  0.2769  0.1525  0.4953
  571MPD2     C 8518   2.010   0.342   0.343  0.0707 -0.4606  0.1165
  571MPD2    C1 8519   1.883   0.281   0.343  0.3236 -0.1230  0.1475
  571MPD2    C2 8520   1.773   0.352   0.395  0.2954 -0.4019 -0.4104
  571MPD2    C3 8521   1.786   0.479   0.446 -0.4098  0.1647  0.4220
  571MPD2    C4 8522   1.913   0.541   0.435  0.4465 -0.0279  0.3598
  571MPD2    C5 8523   2.022   0.470   0.386  0.0626  0.0837  0.1355
  571MPD2     H 8524   1.676   0.304   0.402  0.2499  0.1238  2.4649
  571MPD2    H1 8525   1.929   0.639   0.478 -1.0471 -0.8012  2.6701
  571MPD2    H2 8526   2.096   0.292   0.300 -0.4683 -0.9700 -0.3775
  571MPD2    H3 8527   2.114   0.526   0.371  1.2486 -1.9972 -0.3842
  571MPD2     N 8528   1.683   0.558   0.498 -0.3292  0.5853 -0.0633
  571MPD2    H5 8529   1.706   0.653   0.525 -0.1874  0.4746  0.1974
  571MPD2    N1 8530   1.881   0.148   0.301 -0.2025  0.4474  0.6094
  571MPD2    H7 8531   1.971   0.103   0.288  0.4573  2.0151 -0.2143
  572TMC3    C1 8532   1.466   0.623   0.564 -0.7814  0.3876  0.5544
  572TMC3    C2 8533   1.400   0.615   0.685 -0.0640  0.6175  0.6830
  572TMC3    C3 8534   1.350   0.720   0.746 -0.9487 -0.4146 -0.7691
  572TMC3    C4 8535   1.487   0.738   0.510  0.3358 -0.3447  0.1697
  572TMC3    C5 8536   1.447   0.845   0.584 -0.0428 -0.0806 -0.1550
  572TMC3    C6 8537   1.372   0.842   0.700 -0.5950  0.0299 -0.2039
  572TMC3     C 8538   1.555   0.515   0.518  0.5241  0.3549  0.6839
  572TMC3     O 8539   1.508   0.405   0.509  0.3478 -0.4399 -0.1417
  572TMC3     H 8540   1.377   0.518   0.727  1.0856 -0.0781 -0.3071
  572TMC3    H1 8541   1.522   0.746   0.408  0.6824 -1.4931  0.1933
  572TMC3    H2 8542   1.348   0.928   0.761  3.4262 -0.0825  1.5355
  572TMC3    C7 8543   1.493   0.975   0.537  0.1913 -0.1953  0.1303
  572TMC3    C8 8544   1.305   0.696   0.883 -1.6009 -0.1207  0.2767
  572TMC3    O1 8545   1.521   0.992   0.419 -0.6447 -0.1976  0.2387
  572TMC3    O2 8546   1.313   0.582   0.933  0.4304  0.1043  0.1811
  573MPD2     C 8547   3.346   1.575  17.484 -0.1894 -0.0241 -1.0126
  573MPD2    C1 8548   3.441   1.651  17.543  0.3560  1.1452  0.3422
  573MPD2    C2 8549   3.506   1.747  17.465  0.1342 -0.5304  0.7037
  573MPD2    C3 8550   3.462   1.779  17.335 -0.1980 -0.1174  0.1821
  573MPD2    C4 8551   3.361   1.696  17.279 -0.0487  0.3918 -0.6064
  573MPD2    C5 8552   3.300   1.604  17.360  0.4291 -0.6799 -0.1530
  573MPD2     H 8553   3.594   1.796  17.505 -0.7203  2.1227 -0.6611
  573MPD2    H1 8554   3.326   1.716  17.179  0.4842  0.3603 -0.7990
  573MPD2    H2 8555   3.284   1.503  17.536  3.2313 -0.0188  3.0985
  573MPD2    H3 8556   3.217   1.550  17.317  1.5003 -0.6605 -2.2479
  573MPD2     N 8557   3.522   1.866  17.241  0.3114 -0.4913 -0.3531
  573MPD2    H5 8558   3.474   1.891  17.155 -0.6689  0.4665  0.4745
  573MPD2    N1 8559   3.482   1.616  17.675 -0.1569  0.3900 -0.7209
  573MPD2    H7 8560   3.430   1.541  17.720 -0.1222 -0.6601 -2.4267
  574TMC3    C1 8561   3.703   1.993  17.139 -0.5222 -0.2253  0.2954
  574TMC3    C2 8562   3.653   1.978  17.015  0.0903 -0.7137  0.1997
  574TMC3    C3 8563   3.708   2.063  16.919 -0.0488 -0.0000  0.2330
  574TMC3    C4 8564   3.798   2.092  17.170 -0.0716  0.4504 -0.1743
  574TMC3    C5 8565   3.852   2.167  17.076 -0.0306  0.3853  1.0388
  574TMC3    C6 8566   3.804   2.159  16.949  0.0600 -0.3724  0.1496
  574TMC3     C 8567   3.654   1.911  17.248  0.3167 -0.1191 -0.2418
  574TMC3     O 8568   3.729   1.886  17.337 -0.1580 -0.7345 -0.1441
  574TMC3     H 8569   3.586   1.893  17.003  1.2201 -1.6939  0.7641
  574TMC3    H1 8570   3.827   2.103  17.274 -1.7988  0.5102  0.2953
  574TMC3    H2 8571   3.837   2.222  16.868 -0.5514 -1.1853 -0.7451
  574TMC3    C7 8572   3.939   2.276  17.096  0.0515  0.6788 -0.0515
  574TMC3    C8 8573   3.644   2.078  16.792  0.3697 -0.2708  0.3858
  574TMC3    O1 8574   3.950   2.363  17.014 -0.3314  0.6678  0.0336
  574TMC3    O2 8575   3.688   2.139  16.693 -0.3121  0.1095  0.4149
  575TMC3    C1 8576   0.440   2.032  11.102  0.3181 -0.0408  0.2556
  575TMC3    C2 8577   0.388   1.918  11.156  0.6624  0.7532 -0.5136
  575TMC3    C3 8578   0.393   1.807  11.081  0.1794 -0.4590 -0.5217
  575TMC3    C4 8579   0.460   2.046  10.963  0.1772  0.6271  0.3636
  575TMC3    C5 8580   0.461   1.932  10.889 -0.0591 -0.3131 -0.0892
  575TMC3    C6 8581   0.440   1.806  10.947  1.1885  0.2462 -0.9188
  575TMC3     C 8582   0.440   2.157  11.172 -0.0075 -0.7887  0.1233
  575TMC3     O 8583   0.440   2.262  11.110  0.2585 -0.3898 -0.1903
  575TMC3     H 8584   0.353   1.908  11.258  1.2122 -0.3379 -0.4336
  575TMC3    H1 8585   0.494   2.142  10.928  0.5222 -0.2169 -1.6355
  575TMC3    H2 8586   0.476   1.714  10.901 -1.4103 -0.5932 -1.2926
  575TMC3    C7 8587   0.499   1.942  10.751  0.2476  0.2337  0.1094
  575TMC3    C8 8588   0.350   1.674  11.138 -0.4040 -0.4252  0.3709
  575TMC3    O1 8589   0.551   2.050  10.723  0.0805  0.6005 -0.3432
  575TMC3    O2 8590   0.343   1.663  11.262 -0.3575  0.1231 -0.2901
  576MPD2     C 8591   0.110   3.556  12.892 -0.0573  0.2323 -0.4373
  576MPD2    C1 8592   0.142   3.669  12.814 -0.2290 -0.1475 -0.1005
  576MPD2    C2 8593   0.112   3.795  12.866 -1.0262 -0.2028  0.1773
  576MPD2    C3 8594   0.045   3.803  12.986  0.1659 -0.3634 -0.1389
  576MPD2    C4 8595   0.018   3.690  13.057 -0.2212 -0.1641 -0.0890
  576MPD2    C5 8596   0.044   3.564  13.009  0.4733  0.0850 -0.1795
  576MPD2     H 8597   0.144   3.882  12.810 -0.6833 -0.3675  0.1205
  576MPD2    H1 8598   4.700   3.687  13.151 -1.6937 -0.8885 -0.9628
  576MPD2    H2 8599   0.121   3.454  12.857  1.3820  0.3666 -0.3456
  576MPD2    H3 8600   0.013   3.471  13.054 -1.4620  1.2060  0.7710
  576MPD2     N 8601   4.732   3.933  13.012 -0.1802 -0.2067  0.1371
  576MPD2    H5 8602   0.023   4.010  12.951 -0.9114 -0.2351 -0.2242
  576MPD2    N1 8603   0.239   3.661  12.711  0.1332 -0.2377  0.0680
  576MPD2    H7 8604   0.276   3.751  12.683  0.5765 -0.4878 -0.1542
  577TMC3    C1 8605   0.371   3.584  12.534  0.0088 -0.2598  1.1071
  577TMC3    C2 8606   0.377   3.499  12.425 -0.0170 -0.0680 -0.1179
  577TMC3    C3 8607   0.458   3.526  12.315  0.1746  0.1315  0.0866
  577TMC3    C4 8608   0.431   3.703  12.525 -0.5687  1.0333  0.4331
  577TMC3    C5 8609   0.502   3.728  12.414 -0.3224  0.1311  0.5581
  577TMC3    C6 8610   0.518   3.652  12.301 -1.2075  0.1543  0.1443
  577TMC3     C 8611   0.275   3.553  12.637  0.3396 -0.0793 -0.0733
  577TMC3     O 8612   0.225   3.443  12.632 -0.3719  0.1297  0.5682
  577TMC3     H 8613   0.320   3.406  12.429  0.5622 -0.3404  1.9518
  577TMC3    H1 8614   0.429   3.767  12.613  0.9233  0.9780  0.5020
  577TMC3    H2 8615   0.577   3.694  12.220  0.0239 -0.8962  0.5003
  577TMC3    C7 8616   0.561   3.849  12.411  0.2519  0.5067  0.5777
  577TMC3    C8 8617   0.480   3.417  12.230  0.9783  0.5393  0.3265
  577TMC3    O1 8618   0.616   3.896  12.509 -0.4158  0.1091 -0.2152
  577TMC3    O2 8619   0.412   3.316  12.250 -0.1693 -0.1943 -0.3339
  578MPD2     C 8620   3.398   0.219   0.517 -0.4069 -0.5617  0.5021
  578MPD2    C1 8621   3.385   0.084   0.483 -0.5464  1.1050  0.0906
  578MPD2    C2 8622   3.486   4.731   0.515  0.4328 -0.1005  0.7952
  578MPD2    C3 8623   3.602   0.039   0.582  0.6655  0.0422 -0.2876
  578MPD2    C4 8624   3.606   0.169   0.626 -0.0185 -0.0266 -0.4125
  578MPD2    C5 8625   3.505   0.259   0.597 -0.4382 -0.4354  0.2191
  578MPD2     H 8626   3.489   4.628   0.479  1.3158 -0.3768  1.6746
  578MPD2    H1 8627   3.692   0.208   0.681  1.8070 -1.0356 -2.5742
  578MPD2    H2 8628   3.323   0.294   0.493 -0.4365 -0.2187  1.6830
  578MPD2    H3 8629   3.511   0.364   0.625  0.1724 -0.0792 -1.2742
  578MPD2     N 8630   3.702   4.682   0.613  0.5519 -0.1854 -0.4848
  578MPD2    H5 8631   3.690   4.588   0.574 -0.2862 -1.1318  2.0974
  578MPD2    N1 8632   3.282   0.047   0.399 -0.7626 -0.6022  0.8872
  578MPD2    H7 8633   3.216   0.119   0.374 -0.0731  0.2052  1.3651
  579TMC3    C1 8634   3.916   4.596   0.680 -0.3309 -0.7021  0.3824
  579TMC3    C2 8635   4.012   4.610   0.775 -0.1300 -0.4834 -0.1637
  579TMC3    C3 8636   4.117   4.523   0.763  0.1264 -0.6328  0.1532
  579TMC3    C4 8637   3.896   4.491   0.602 -0.0755  0.0576 -0.3617
  579TMC3    C5 8638   3.993   4.395   0.608  0.6720  0.1195  0.4365
  579TMC3    C6 8639   4.110   4.415   0.678 -0.0875 -0.5126 -0.0942
  579TMC3     C 8640   3.819   4.702   0.681  0.0152 -0.2535  0.1808
  579TMC3     O 8641   3.848   0.064   0.751  0.1759 -0.3070 -1.2254
  579TMC3     H 8642   4.009   4.690   0.848  0.5354 -0.7930  0.2081
  579TMC3    H1 8643   3.812   4.489   0.533 -1.4884  0.2908  1.3396
  579TMC3    H2 8644   4.185   4.336   0.673  0.2071 -0.1817 -0.9079
  579TMC3    C7 8645   3.967   4.260   0.552 -0.6330  0.1030  0.1627
  579TMC3    C8 8646   4.239   4.564   0.836  0.0449 -0.2751 -0.1014
  579TMC3    O1 8647   4.067   4.194   0.525 -0.0034  0.2240 -0.1334
  579TMC3    O2 8648   4.221   4.645   0.923 -0.2345  0.1856 -0.1167
  580TMC3    C1 8649   2.245   2.327  11.828 -1.1313 -0.0822  0.4497
  580TMC3    C2 8650   2.258   2.294  11.695 -0.2753  0.2685 -0.3381
  580TMC3    C3 8651   2.335   2.183  11.672 -0.8711 -0.0676  0.2551
  580TMC3    C4 8652   2.270   2.230  11.924  0.0885  0.1272  0.1243
  580TMC3    C5 8653   2.336   2.113  11.897  0.3285 -0.5027  0.5398
  580TMC3    C6 8654   2.378   2.094  11.767  0.3164  0.9200 -0.1114
  580TMC3     C 8655   2.259   2.467  11.857 -0.4565 -0.1985 -0.3317
  580TMC3     O 8656   2.305   2.539  11.765  0.1949  0.0057  0.4072
  580TMC3     H 8657   2.253   2.372  11.619  0.4962  1.8080  1.1976
  580TMC3    H1 8658   2.263   2.258  12.029  0.2915 -2.6051  0.8660
  580TMC3    H2 8659   2.445   2.015  11.735  0.0840  0.7297 -0.1280
  580TMC3    C7 8660   2.423   2.077  12.002 -0.1449 -0.0674  0.6640
  580TMC3    C8 8661   2.413   2.183  11.550 -0.2351 -0.1400 -0.3001
  580TMC3    O1 8662   2.487   2.175  12.048 -0.3506  0.2726  0.4607
  580TMC3    O2 8663   2.430   2.069  11.496 -0.6187  0.3152 -0.0276
  581MPD2     C 8664   1.046   2.270  15.015 -0.0082  0.0895 -0.0045
  581MPD2    C1 8665   1.103   2.384  15.060  0.2018 -0.0297  0.4654
  581MPD2    C2 8666   1.048   2.503  15.015  0.0353 -0.3440 -0.4258
  581MPD2    C3 8667   0.932   2.514  14.933 -0.2323 -0.1036 -0.0662
  581MPD2    C4 8668   0.890   2.388  14.887 -0.0364  0.0513  0.3174
  581MPD2    C5 8669   0.942   2.268  14.923 -0.0075 -0.0576  0.0412
  581MPD2     H 8670   1.091   2.596  15.052  1.1288 -0.2458 -1.9257
  581MPD2    H1 8671   0.814   2.381  14.810  2.8442 -0.7163 -2.4506
  581MPD2    H2 8672   1.084   2.173  15.049  3.1668  1.8022  1.3946
  581MPD2    H3 8673   0.898   2.177  14.885 -0.7687  0.0378  0.6916
  581MPD2     N 8674   0.879   2.637  14.898 -0.8125  0.9460  0.7090
  581MPD2    H5 8675   0.934   2.721  14.917  0.6756  0.8249 -3.0049
  581MPD2    N1 8676   1.202   2.377  15.158  0.1584  0.4422 -0.5822
  581MPD2    H7 8677   1.232   2.280  15.164 -1.5433  0.0729  1.8017
  582TMC3    C1 8678   1.390   2.440  15.276 -0.5143  0.0409  0.4174
  582TMC3    C2 8679   1.402   2.506  15.393  0.6049 -0.2580  0.0809
  582TMC3    C3 8680   1.393   2.428  15.499  0.6714 -0.5285 -0.7397
  582TMC3    C4 8681   1.412   2.302  15.261  0.4862  0.1013  0.4412
  582TMC3    C5 8682   1.420   2.235  15.376 -0.3246 -0.2394  0.4893
  582TMC3    C6 8683   1.391   2.291  15.489  1.0660 -0.1737 -0.2099
  582TMC3     C 8684   1.280   2.485  15.196 -0.0617 -0.4526  0.4676
  582TMC3     O 8685   1.272   2.606  15.171  0.4174  0.5302 -0.3275
  582TMC3     H 8686   1.387   2.614  15.393  0.9920 -0.2014 -0.6157
  582TMC3    H1 8687   1.430   2.256  15.165  0.3563  1.1703 -0.0871
  582TMC3    H2 8688   1.392   2.228  15.578 -0.6724  1.9966  1.3367
  582TMC3    C7 8689   1.357   2.107  15.359 -0.2381  0.0030  0.1212
  582TMC3    C8 8690   1.378   2.483  15.631 -0.3698 -0.0095  0.3312
  582TMC3    O1 8691   1.383   2.046  15.260 -0.0040  0.3831 -0.3246
  582TMC3    O2 8692   1.300   2.574  15.633 -0.3185 -0.2297  0.3856
  583MPD2     C 8693   0.843   4.169  16.630 -0.1586 -0.0741 -0.4795
  583MPD2    C1 8694   0.814   4.287  16.557 -0.0871 -0.3032 -0.8223
  583MPD2    C2 8695   0.710   4.365  16.601  0.5098  0.2394  0.3575
  583MPD2    C3 8696   0.641   4.336  16.717 -0.3364 -0.0541  0.0593
  583MPD2    C4 8697   0.660   4.218  16.780  0.1006 -0.2705  0.7552
  583MPD2    C5 8698   0.768   4.141  16.737  1.0025 -0.2968  0.0285
  583MPD2     H 8699   0.702   4.465  16.558 -1.3881 -0.4259 -0.8378
  583MPD2    H1 8700   0.606   4.195  16.872 -0.1225 -2.2122  0.1356
  583MPD2    H2 8701   0.919   4.098  16.602  0.6780 -0.1034  1.8146
  583MPD2    H3 8702   0.788   4.061  16.807  1.0500 -1.0099 -0.8004
  583MPD2     N 8703   0.554   4.444  16.770  0.4908 -0.3902 -0.0529
  583MPD2    H5 8704   0.544   4.523  16.707 -0.5204 -0.4349  0.0598
  583MPD2    N1 8705   0.896   4.327  16.443  0.2355 -0.6088  0.5702
  583MPD2    H7 8706   0.872   4.417  16.402 -0.0586 -1.4070 -0.9854
  584TMC3    C1 8707   0.457   4.579  16.930  0.2503 -0.2713 -0.1041
  584TMC3    C2 8708   0.495   4.685  16.848  0.4178 -0.8975 -0.3466
  584TMC3    C3 8709   0.529   0.065  16.896 -0.4337 -0.1410 -0.3732
  584TMC3    C4 8710   0.453   4.598  17.069  0.5966  0.1174  0.0160
  584TMC3    C5 8711   0.482   4.724  17.109 -0.4357 -1.0053 -0.2853
  584TMC3    C6 8712   0.520   0.095  17.031  0.3511 -0.1606  0.9259
  584TMC3     C 8713   0.488   4.443  16.894 -0.5331 -0.6762 -0.1785
  584TMC3     O 8714   0.490   4.354  16.979 -0.0789  0.1851  0.3368
  584TMC3     H 8715   0.490   4.668  16.741 -0.8608 -0.4061 -0.3557
  584TMC3    H1 8716   0.440   4.523  17.146  0.2715  1.3074  1.1140
  584TMC3    H2 8717   0.550   0.186  17.081 -0.9958  0.8017 -0.0160
  584TMC3    C7 8718   0.522   4.726  17.245  0.0662  0.0530 -0.0891
  584TMC3    C8 8719   0.628   0.128  16.813  1.1585  0.6467  0.7096
  584TMC3    O1 8720   0.566   4.625  17.298  0.2186  0.5254 -0.1474
  584TMC3    O2 8721   0.618   0.133  16.689 -0.1278 -0.2066  0.5575
  585MPD2     C 8722   0.979   3.068   0.189 -0.5449 -0.6950 -0.2070
  585MPD2    C1 8723   0.876   3.160   0.147 -0.2605  0.4736 -0.1284
  585MPD2    C2 8724   0.808   3.135   0.028 -0.2922  0.3062  0.4097
  585MPD2    C3 8725   0.852   3.038  17.687 -0.2155  1.1022 -0.3302
  585MPD2    C4 8726   0.955   2.954  17.726  0.7388 -0.0232  0.3148
  585MPD2    C5 8727   1.018   2.965   0.107  0.4616  0.1266  0.2796
  585MPD2     H 8728   0.724   3.198   0.001 -0.4631  0.2144  0.7307
  585MPD2    H1 8729   0.997   2.875  17.666  0.5432 -0.2667  0.4991
  585MPD2    H2 8730   1.026   3.088   0.285 -0.5749  1.6184 -0.6842
  585MPD2    H3 8731   1.105   2.904   0.128 -0.7052 -2.1949 -1.7676
  585MPD2     N 8732   0.795   3.013  17.564  0.2987  0.4590 -0.3510
  585MPD2    H5 8733   0.825   2.929  17.516  0.8200  0.9050 -0.8030
  585MPD2    N1 8734   0.860   3.275   0.230  0.1804 -0.3871  0.5055
  585MPD2    H7 8735   0.919   3.290   0.311  1.3971  0.9522 -0.6157
  586TMC3    C1 8736   0.659   3.037  17.382 -0.7100 -0.8779 -0.5191
  586TMC3    C2 8737   0.745   2.964  17.311  0.1496  0.1437  0.4217
  586TMC3    C3 8738   0.689   2.906  17.196 -0.2148  0.3989 -0.2853
  586TMC3    C4 8739   0.522   3.046  17.360 -0.4802 -0.6704 -0.4639
  586TMC3    C5 8740   0.474   2.989  17.246 -1.4407  0.9993 -0.2943
  586TMC3    C6 8741   0.556   2.906  17.168 -0.7670 -0.1221  0.3714
  586TMC3     C 8742   0.699   3.087  17.505 -0.3511 -0.0666  0.6646
  586TMC3     O 8743   0.648   3.194  17.533  0.2840 -0.0219  0.1652
  586TMC3     H 8744   0.850   2.974  17.337  0.6260 -0.9423 -1.0759
  586TMC3    H1 8745   0.463   3.115  17.419 -0.3775 -0.3431 -0.7430
  586TMC3    H2 8746   0.526   2.866  17.072 -3.9800  1.7348  0.5819
  586TMC3    C7 8747   0.337   2.968  17.237  0.2618  0.1784 -0.2865
  586TMC3    C8 8748   0.778   2.845  17.101 -0.3387 -0.4494 -0.4935
  586TMC3    O1 8749   0.300   2.860  17.185  0.5168  0.1890  0.3839
  586TMC3    O2 8750   0.727   2.768  17.021  0.4776 -0.0378  0.4551
  587TMC3    C1 8751   2.792   1.793  15.906  1.1951  0.0437 -0.0207
  587TMC3    C2 8752   2.808   1.884  16.002 -0.4593  0.0628 -0.2327
  587TMC3    C3 8753   2.934   1.905  16.052  0.5248 -0.0495 -0.1424
  587TMC3    C4 8754   2.897   1.711  15.862  0.3580  0.7661 -0.2081
  587TMC3    C5 8755   3.025   1.737  15.915 -0.2405 -0.0904  0.1816
  587TMC3    C6 8756   3.041   1.828  16.018 -0.7622  0.0329 -0.2635
  587TMC3     C 8757   2.662   1.729  15.878  0.0641  0.6502 -0.5055
  587TMC3     O 8758   2.656   1.672  15.769 -0.2816 -0.1492  0.9185
  587TMC3     H 8759   2.723   1.939  16.040 -0.3968  1.3111 -1.9007
  587TMC3    H1 8760   2.883   1.637  15.784  0.1166 -0.6870  1.2090
  587TMC3    H2 8761   3.123   1.817  16.088 -1.3200 -0.8141  0.2572
  587TMC3    C7 8762   3.120   1.641  15.874  0.5168  0.5834  0.0588
  587TMC3    C8 8763   2.962   2.002  16.163 -0.1504 -0.2554 -0.1342
  587TMC3    O1 8764   3.081   1.532  15.834  0.8623 -0.3579 -0.6250
  587TMC3    O2 8765   3.077   2.023  16.192 -0.1948  0.3518 -0.2410
  588TMC3    C1 8766   4.266   4.357  10.147  0.9001 -1.1178 -0.0370
  588TMC3    C2 8767   4.182   4.262  10.192 -0.5345  0.0599 -0.3068
  588TMC3    C3 8768   4.229   4.143  10.231  0.3399  0.2028 -0.1888
  588TMC3    C4 8769   4.404   4.339  10.148 -0.6415  0.0124  0.1448
  588TMC3    C5 8770   4.444   4.219  10.191 -0.3488  0.4826 -0.4011
  588TMC3    C6 8771   4.362   4.118  10.222 -0.8991  0.9489 -0.2776
  588TMC3     C 8772   4.221   4.493  10.174  0.3608  0.0189 -0.5662
  588TMC3     O 8773   4.109   4.511  10.218 -0.5791 -0.3279 -0.0649
  588TMC3     H 8774   4.077   4.288  10.193 -0.4232  0.3137  3.2027
  588TMC3    H1 8775   4.470   4.407  10.095 -2.0482  1.3100  0.0555
  588TMC3    H2 8776   4.407   4.022  10.246 -2.2085  0.2163 -0.7618
  588TMC3    C7 8777   4.583   4.209  10.242  0.5357  0.1692  0.8201
  588TMC3    C8 8778   4.139   4.046  10.294  0.0536  0.1518  0.0238
  588TMC3    O1 8779   4.642   4.103  10.250  0.4613 -0.9756  0.1371
  588TMC3    O2 8780   4.021   4.030  10.258 -0.3941  0.5828 -0.2984
  589TMC3    C1 8781   4.300   2.315   0.993  0.6635 -0.3215 -0.5974
  589TMC3    C2 8782   4.414   2.353   1.045  0.4925  0.6590  0.3335
  589TMC3    C3 8783   4.517   2.267   1.070  0.0306 -0.3346 -0.3575
  589TMC3    C4 8784   4.286   2.179   0.956  0.0748  0.8946  0.2336
  589TMC3    C5 8785   4.393   2.094   0.979  0.4284 -0.5179  0.3105
  589TMC3    C6 8786   4.505   2.133   1.042 -0.1020  0.8342  0.4650
  589TMC3     C 8787   4.203   2.411   0.949 -0.2756 -0.3591  0.6366
  589TMC3     O 8788   4.094   2.361   0.940 -0.4239  0.7292 -0.5048
  589TMC3     H 8789   4.434   2.457   1.068 -0.7294  0.8436  0.5078
  589TMC3    H1 8790   4.198   2.146   0.903  0.3853  1.2926 -0.5240
  589TMC3    H2 8791   4.581   2.063   1.074 -0.2483  0.6305  0.3622
  589TMC3    C7 8792   4.362   1.955   0.965 -0.7471  0.5033 -0.1388
  589TMC3    C8 8793   4.652   2.321   1.110  0.2154 -0.1681  0.4921
  589TMC3    O1 8794   4.244   1.920   0.943  0.1219  0.6641  0.2441
  589TMC3    O2 8795   4.648   2.441   1.134 -0.3501 -1.0231 -0.0308
  590MPD2     C 8796   3.574   0.182  16.780  0.0261 -0.4043 -0.7268
  590MPD2    C1 8797   3.531   0.286  16.701  0.7613  0.3052 -0.6990
  590MPD2    C2 8798   3.618   0.380  16.662 -0.2792  0.0303  0.0524
  590MPD2    C3 8799   3.748   0.365  16.679 -0.1480 -0.5510 -0.2015
  590MPD2    C4 8800   3.794   0.265  16.762  0.2445  0.3147  0.0027
  590MPD2    C5 8801   3.708   0.174  16.810 -0.1561  0.1160  0.8725
  590MPD2     H 8802   3.587   0.474  16.618  0.8746 -0.3342 -1.5119
  590MPD2    H1 8803   3.897   0.247  16.791  0.5743  0.4133 -1.1144
  590MPD2    H2 8804   3.508   0.114  16.834 -1.2854  1.8223  0.4527
  590MPD2    H3 8805   3.753   0.103  16.878 -0.9427 -0.2003  1.0580
  590MPD2     N 8806   3.836   0.462  16.628  0.0149 -0.2675  0.2365
  590MPD2    H5 8807   3.794   0.543  16.584 -1.6799 -0.5139  1.3737
  590MPD2    N1 8808   3.396   0.290  16.671  0.1286 -0.2898  0.4072
  590MPD2    H7 8809   3.335   0.218  16.709 -1.4164  1.0954  0.5915
  591TMC3    C1 8810   4.051   0.541  16.541  0.0157  0.4590  0.3262
  591TMC3    C2 8811   4.115   0.488  16.434  0.3842 -0.1339  0.2834
  591TMC3    C3 8812   4.114   0.568  16.319 -0.6018  0.1884 -0.1418
  591TMC3    C4 8813   4.005   0.669  16.543 -0.8137 -0.3412 -0.6631
  591TMC3    C5 8814   4.029   0.750  16.435 -0.5214 -0.5226 -0.1223
  591TMC3    C6 8815   4.069   0.696  16.322  0.1721  0.0830  0.3951
  591TMC3     C 8816   3.974   0.443  16.620 -0.5479 -0.9184 -0.0583
  591TMC3     O 8817   4.031   0.335  16.648 -0.4063 -0.0244  0.0281
  591TMC3     H 8818   4.144   0.384  16.436  1.8341  0.2848  1.0025
  591TMC3    H1 8819   3.959   0.709  16.633  0.6169 -1.2919  0.4972
  591TMC3    H2 8820   4.078   0.759  16.234 -0.5380 -1.2591 -0.6506
  591TMC3    C7 8821   3.968   0.878  16.436  0.6993  0.2561 -0.3024
  591TMC3    C8 8822   4.142   0.513  16.196  0.2965 -0.5152 -0.4513
  591TMC3    O1 8823   3.863   0.885  16.501  0.0943 -0.3073  0.4290
  591TMC3    O2 8824   4.218   0.418  16.189  0.3972 -0.0248  0.2609
  592MPD2     C 8825   3.663   2.357  11.353  0.5192 -0.3238  0.5835
  592MPD2    C1 8826   3.676   2.398  11.484  0.6429  0.5249  0.0437
  592MPD2    C2 8827   3.644   2.305  11.581  0.1934  0.5978 -0.1835
  592MPD2    C3 8828   3.591   2.186  11.537  0.6346  0.2472  0.1210
  592MPD2    C4 8829   3.576   2.150  11.403 -0.4744 -0.1306 -0.1173
  592MPD2    C5 8830   3.605   2.242  11.315  0.3523  0.7810  0.6176
  592MPD2     H 8831   3.664   2.328  11.685  2.0170 -0.0193 -0.3956
  592MPD2    H1 8832   3.530   2.063  11.358 -0.0728  0.4027 -1.5564
  592MPD2    H2 8833   3.696   2.425  11.274 -0.6979 -2.5147 -1.7981
  592MPD2    H3 8834   3.573   2.238  11.212 -0.7261 -0.4958  0.9902
  592MPD2     N 8835   3.562   2.097  11.635  0.6296  0.4633 -0.3386
  592MPD2    H5 8836   3.563   2.128  11.732 -0.8629  1.5070 -0.6501
  592MPD2    N1 8837   3.715   2.530  11.512  0.4660 -0.0835 -0.5110
  592MPD2    H7 8838   3.742   2.585  11.431  1.6802 -1.4815 -1.0582
  593TMC3    C1 8839   3.768   2.725  11.635 -0.7121  0.1582 -0.0702
  593TMC3    C2 8840   3.776   2.775  11.766 -0.6110  0.4553 -0.4630
  593TMC3    C3 8841   3.882   2.845  11.807  0.5762  0.6004  0.3864
  593TMC3    C4 8842   3.868   2.756  11.544  0.1496  1.3476  0.2967
  593TMC3    C5 8843   3.973   2.835  11.595  0.0695  0.3085  0.0953
  593TMC3    C6 8844   3.986   2.875  11.725 -0.2842  0.2029  0.0262
  593TMC3     C 8845   3.707   2.593  11.626  0.3854 -0.0746 -0.2770
  593TMC3     O 8846   3.658   2.551  11.728 -0.3086 -0.3489 -0.1042
  593TMC3     H 8847   3.701   2.734  11.834 -0.9326  0.0371 -1.0731
  593TMC3    H1 8848   3.873   2.706  11.448  0.4082 -1.3320  1.7113
  593TMC3    H2 8849   4.069   2.934  11.761  0.0954 -0.5748  0.4466
  593TMC3    C7 8850   4.063   2.908  11.500  0.4018 -0.4688 -0.2834
  593TMC3    C8 8851   3.911   2.831  11.946  0.6483  0.1884 -0.5022
  593TMC3    O1 8852   4.146   2.987  11.537  0.2621  0.3243  0.2786
  593TMC3    O2 8853   3.833   2.759  12.004  0.3175  0.6177 -0.0625
  594MPD2     C 8854   2.952   1.031  14.139 -0.0158 -0.1010 -0.0282
  594MPD2    C1 8855   2.943   1.018  14.272 -0.1324 -0.0715 -0.2034
  594MPD2    C2 8856   3.033   1.091  14.352 -0.0612 -0.4577 -0.2931
  594MPD2    C3 8857   3.127   1.175  14.288  0.4566  0.0387  1.0869
  594MPD2    C4 8858   3.136   1.184  14.153 -0.2672 -0.1373 -0.4692
  594MPD2    C5 8859   3.047   1.110  14.085 -0.1899 -0.2051 -0.4482
  594MPD2     H 8860   3.018   1.086  14.459 -0.6130  0.6214 -0.3306
  594MPD2    H1 8861   3.206   1.245  14.098 -3.6963  2.1224 -2.3464
  594MPD2    H2 8862   2.891   0.972  14.071 -0.3034 -0.6237  0.6821
  594MPD2    H3 8863   3.048   1.118  13.977  1.9715 -2.5269 -0.5793
  594MPD2     N 8864   3.217   1.245  14.367 -0.0180  0.2390 -0.5905
  594MPD2    H5 8865   3.203   1.250  14.467 -1.8177 -2.6521 -0.7260
  594MPD2    N1 8866   2.837   0.939  14.328 -0.0459  0.5759 -0.2354
  594MPD2    H7 8867   2.774   0.898  14.260  2.2589 -0.8806 -1.4981
  595TMC3    C1 8868   3.608   1.410  14.543 -0.2617 -0.5441  0.4170
  595TMC3    C2 8869   3.535   1.347  14.449 -0.4874 -0.0777  0.2064
  595TMC3    C3 8870   3.405   1.362  14.443 -0.0222 -0.1343  0.1629
  595TMC3    C4 8871   3.546   1.487  14.632 -0.8543  0.2869  0.7134
  595TMC3    C5 8872   3.414   1.522  14.619 -0.1349  0.8662  0.1055
  595TMC3    C6 8873   3.338   1.445  14.528 -0.8026  0.2414  0.5006
  595TMC3     C 8874   3.758   1.411  14.539  0.6300 -0.2102  0.2889
  595TMC3     O 8875   3.822   1.482  14.621 -0.3237  0.3996  0.2810
  595TMC3     H 8876   3.581   1.286  14.372 -0.1031  0.2294  0.1930
  595TMC3    H1 8877   3.612   1.554  14.686  1.0095  0.5248 -1.8329
  595TMC3    H2 8878   3.235   1.479  14.528 -0.7395  0.4248  1.2114
  595TMC3    C7 8879   3.350   1.603  14.721  0.7045  0.3318  0.0550
  595TMC3    C8 8880   3.334   1.316  14.328 -0.2343 -0.2833  0.0494
  595TMC3    O1 8881   3.238   1.635  14.697  0.0118  0.4840 -0.1748
  595TMC3    O2 8882   3.397   1.331  14.226 -0.7684 -0.2208 -0.0728
  596MPD2     C 8883   1.701   3.970  16.662  0.8174  0.6917 -0.7380
  596MPD2    C1 8884   1.630   4.075  16.616 -0.5067 -0.6242 -0.2083
  596MPD2    C2 8885   1.579   4.077  16.481  0.5823 -0.1202 -0.3618
  596MPD2    C3 8886   1.631   3.988  16.394  0.2504 -0.2024 -0.6436
  596MPD2    C4 8887   1.700   3.875  16.440 -0.4942  0.1568  0.4636
  596MPD2    C5 8888   1.736   3.873  16.575 -0.1291  0.5153  0.2494
  596MPD2     H 8889   1.516   4.158  16.446  0.8962  0.0436 -0.5415
  596MPD2    H1 8890   1.730   3.799  16.369 -0.8816  1.5612 -1.2140
  596MPD2    H2 8891   1.748   3.980  16.759 -1.3507 -0.3002  0.4268
  596MPD2    H3 8892   1.801   3.792  16.606  0.8393  1.6887  1.3118
  596MPD2     N 8893   1.622   4.011  16.255  0.5769  0.2475 -0.2718
  596MPD2    H5 8894   1.683   3.963  16.190 -0.8319  0.2903 -1.6144
  596MPD2    N1 8895   1.609   4.191  16.693  0.6134 -0.1704  0.0972
  596MPD2    H7 8896   1.566   4.269  16.644  3.8224  0.6366 -1.4476
  597TMC3    C1 8897   1.602   4.353  16.858 -0.8085 -0.4944 -1.1535
  597TMC3    C2 8898   1.627   4.452  16.764  0.0590 -0.3750  0.3488
  597TMC3    C3 8899   1.556   4.566  16.777  0.2793 -0.3067 -0.9962
  597TMC3    C4 8900   1.527   4.377  16.975  0.2042 -0.3649  0.1333
  597TMC3    C5 8901   1.455   4.493  16.978 -0.5060  0.1642 -0.0413
  597TMC3    C6 8902   1.466   4.587  16.881 -0.5510  0.0181 -1.0421
  597TMC3     C 8903   1.635   4.212  16.825 -0.2520  0.3690 -0.2392
  597TMC3     O 8904   1.630   4.126  16.911  0.5878 -0.2975  0.0888
  597TMC3     H 8905   1.694   4.439  16.680  1.3493  2.8068  0.8695
  597TMC3    H1 8906   1.511   4.299  17.048 -3.3176  0.3702  0.1694
  597TMC3    H2 8907   1.409   4.679  16.880  0.1530  0.4697  0.4651
  597TMC3    C7 8908   1.391   4.537  17.103  0.8454  1.0893  0.3854
  597TMC3    C8 8909   1.583   4.665  16.673  0.0983 -0.1718 -0.7749
  597TMC3    O1 8910   1.369   4.458  17.190  0.6405 -0.4268 -0.6379
  597TMC3    O2 8911   1.484   4.724  16.624 -0.0696 -0.3075 -0.1808
  598TMC3    C1 8912   4.638   0.673  15.374  0.4700  0.0194 -0.2487
  598TMC3    C2 8913   4.503   0.647  15.345  0.1652 -0.3727 -0.2476
  598TMC3    C3 8914   4.473   0.630  15.214  0.7467 -0.9247 -0.0230
  598TMC3    C4 8915   4.732   0.693  15.276  0.2711  0.4268  0.1902
  598TMC3    C5 8916   4.698   0.671  15.144  0.2297  0.7352 -0.0045
  598TMC3    C6 8917   4.570   0.644  15.120 -0.5079 -0.4963 -0.3010
  598TMC3     C 8918   4.678   0.621  15.498 -0.4327  0.6381 -0.0786
  598TMC3     O 8919   4.584   0.619  15.575  0.3528  0.0450  0.1134
  598TMC3     H 8920   4.422   0.625  15.413  0.4589 -0.3974  0.0970
  598TMC3    H1 8921   0.093   0.735  15.302 -1.2723  3.4344  1.0841
  598TMC3    H2 8922   4.539   0.634  15.016 -2.2539  0.2588  0.1600
  598TMC3    C7 8923   0.045   0.731  15.037 -0.4890 -0.0873  0.0706
  598TMC3    C8 8924   4.341   0.648  15.167  0.2279  0.3787  0.1278
  598TMC3    O1 8925   0.033   0.687  14.926 -0.7973 -0.0920  0.1944
  598TMC3    O2 8926   4.343   0.720  15.068 -0.4264 -0.8207 -0.1312
  599MPD2     C 8927   0.127   2.870  15.339  0.0790 -0.0599 -0.3282
  599MPD2    C1 8928   0.173   2.899  15.463  0.0212  0.3749 -0.3431
  599MPD2    C2 8929   0.087   2.953  15.559 -0.5541 -0.7759 -1.0078
  599MPD2    C3 8930   4.689   2.976  15.529 -0.0594  0.4497 -0.0036
  599MPD2    C4 8931   4.643   2.935  15.409  0.5968 -0.3089  0.0976
  599MPD2    C5 8932   4.724   2.884  15.310 -0.4233 -0.4628 -0.8035
  599MPD2     H 8933   0.117   2.977  15.660 -1.6207 -0.6153 -0.7278
  599MPD2    H1 8934   4.537   2.946  15.390  0.6614 -0.0862 -0.1331
  599MPD2    H2 8935   0.202   2.846  15.265  1.0515 -2.0051  1.2770
  599MPD2    H3 8936   4.685   2.861  15.211 -2.3606  0.9522 -0.3883
  599MPD2     N 8937   4.601   3.026  15.621  0.6343 -0.3221  0.5527
  599MPD2    H5 8938   4.502   3.039  15.603  0.8016  1.0933  0.6984
  599MPD2    N1 8939   0.310   2.871  15.489 -0.6295 -0.3330  0.1421
  599MPD2    H7 8940   0.370   2.838  15.414 -1.0894 -1.6203  0.3493
  600TMC3    C1 8941   4.516   3.102  15.825 -0.4300 -0.9716 -0.6225
  600TMC3    C2 8942   4.417   3.013  15.814  0.8557 -0.2111 -0.0376
  600TMC3    C3 8943   4.313   3.025  15.892 -0.1835 -0.0588 -0.7246
  600TMC3    C4 8944   4.508   3.212  15.906 -0.0887  0.4798  0.0532
  600TMC3    C5 8945   4.403   3.223  15.987  0.0730 -0.4530  0.0341
  600TMC3    C6 8946   4.301   3.125  15.989 -0.7501  0.2021 -0.4243
  600TMC3     C 8947   4.627   3.087  15.743  0.0660  0.4807  0.1433
  600TMC3     O 8948   0.000   3.108  15.796 -0.4606 -0.4479  0.0183
  600TMC3     H 8949   4.414   2.926  15.749 -0.8116  1.4083 -2.1051
  600TMC3    H1 8950   4.598   3.272  15.915  2.7153 -3.4405 -1.7638
  600TMC3    H2 8951   4.217   3.147  16.054 -1.8041 -2.9634 -0.7222
  600TMC3    C7 8952   4.402   3.320  16.097  0.5974  0.0388 -1.0711
  600TMC3    C8 8953   4.226   2.908  15.899 -0.3988  0.0203  0.3215
  600TMC3    O1 8954   4.317   3.307  16.184 -0.2611 -0.2984  0.2186
  600TMC3    O2 8955   4.274   2.796  15.915  0.0199  0.2818 -0.0441
  601MPD2     C 8956   1.657   1.452   0.639  0.3725  0.0821  0.7358
  601MPD2    C1 8957   1.646   1.383   0.520 -0.1044  0.0956  0.2279
  601MPD2    C2 8958   1.599   1.254   0.523  0.0062 -0.4747 -0.5358
  601MPD2    C3 8959   1.561   1.189   0.643  0.0617 -0.5219  0.5748
  601MPD2    C4 8960   1.572   1.260   0.762 -0.2842 -0.6408  0.6048
  601MPD2    C5 8961   1.623   1.385   0.754  0.5589 -0.0212 -0.4233
  601MPD2     H 8962   1.590   1.206   0.426  1.9497 -0.6939 -0.6139
  601MPD2    H1 8963   1.558   1.226   0.863  0.1392 -1.3218  0.4364
  601MPD2    H2 8964   1.687   1.556   0.649 -4.2695  1.3945  1.3635
  601MPD2    H3 8965   1.621   1.446   0.843  2.1018 -0.3926 -0.1468
  601MPD2     N 8966   1.507   1.060   0.640 -0.3454  0.2616 -0.1852
  601MPD2    H5 8967   1.482   1.027   0.732 -0.2390  2.9149  0.7677
  601MPD2    N1 8968   1.678   1.442   0.395  0.4704 -0.2699 -0.5362
  601MPD2    H7 8969   1.636   1.402   0.312 -0.1167  1.4085 -1.0374
  602TMC3    C1 8970   1.722   1.599   0.227 -0.7807 -0.8851  0.3552
  602TMC3    C2 8971   1.708   1.734   0.200  0.1048  0.8298 -0.5390
  602TMC3    C3 8972   1.728   1.770   0.072 -0.6215 -0.3267  0.2733
  602TMC3    C4 8973   1.770   1.514   0.132 -0.2907 -0.4087 -0.5470
  602TMC3    C5 8974   1.795   1.553   0.003  0.7395  0.2604  0.1297
  602TMC3    C6 8975   1.772   1.686  17.714  0.1180  0.5827  0.5032
  602TMC3     C 8976   1.704   1.573   0.371  0.1471  0.2430  0.2330
  602TMC3     O 8977   1.720   1.672   0.445 -0.3247 -0.1523  0.4222
  602TMC3     H 8978   1.669   1.807   0.269  0.8928  0.7255  0.0191
  602TMC3    H1 8979   1.797   1.411   0.151 -0.3313 -0.6394 -1.7093
  602TMC3    H2 8980   1.788   1.729  17.616  0.4371  1.8608  1.1131
  602TMC3    C7 8981   1.873   1.472  17.656  0.1164  0.0900 -0.2465
  602TMC3    C8 8982   1.716   1.909   0.046  0.5784  0.3031  0.3041
  602TMC3    O1 8983   1.941   1.385  17.712  0.2993 -0.0585  0.1297
  602TMC3    O2 8984   1.637   1.976   0.109  0.1985 -0.1647  0.0509
  603TMC3    C1 8985   0.030   2.156  11.287 -0.5719  0.6473  0.5109
  603TMC3    C2 8986   0.068   2.078  11.393 -0.4465 -0.4248 -0.1917
  603TMC3    C3 8987   0.015   2.113  11.517 -0.0137  0.3189  0.7164
  603TMC3    C4 8988   4.686   2.261  11.298 -0.9904  0.0441 -0.1822
  603TMC3    C5 8989   4.634   2.299  11.418 -0.1602 -0.9914 -0.1573
  603TMC3    C6 8990   4.661   2.216  11.524 -0.4534 -0.1358 -0.3857
  603TMC3     C 8991   0.068   2.113  11.158 -0.4956  0.3540 -0.1583
  603TMC3     O 8992   0.084   2.201  11.078 -0.7213 -0.3683 -0.5207
  603TMC3     H 8993   0.136   1.995  11.379 -2.0662 -1.6664 -0.6029
  603TMC3    H1 8994   4.673   2.321  11.209 -0.5814 -0.2345 -0.4308
  603TMC3    H2 8995   4.623   2.244  11.621  0.4588  0.8482 -0.3166
  603TMC3    C7 8996   4.487   2.333  11.419  0.7152 -0.0014  0.0751
  603TMC3    C8 8997   0.073   2.057  11.634 -0.0903  0.0389  0.2307
  603TMC3    O1 8998   4.428   2.288  11.518 -0.4074  0.1799 -0.1857
  603TMC3    O2 8999   0.139   1.958  11.617 -0.5577  0.7802  0.0210
  604MPD2     C 9000   1.187   0.767  16.631 -0.3414 -0.6710  0.2201
  604MPD2    C1 9001   1.081   0.719  16.560  0.9460 -0.7148  0.3618
  604MPD2    C2 9002   1.094   0.693  16.426  0.1530 -0.0035 -0.4124
  604MPD2    C3 9003   1.223   0.710  16.370 -0.1691  0.3987  1.3987
  604MPD2    C4 9004   1.331   0.761  16.440  0.0799  0.5199  0.1025
  604MPD2    C5 9005   1.313   0.773  16.574  0.7230  0.1734 -0.1324
  604MPD2     H 9006   1.010   0.657  16.369 -0.8984  0.6646  0.7200
  604MPD2    H1 9007   1.430   0.779  16.400 -0.9674  0.6754 -2.4220
  604MPD2    H2 9008   1.184   0.786  16.737 -0.6421 -1.5948  0.3758
  604MPD2    H3 9009   1.394   0.800  16.641  1.0366  2.5299 -1.4524
  604MPD2     N 9010   1.229   0.684  16.233  0.2699  0.2907 -0.0730
  604MPD2    H5 9011   1.142   0.656  16.189 -0.4172  0.5380  1.1266
  604MPD2    N1 9012   0.964   0.702  16.632 -0.2761  0.0189 -0.5347
  604MPD2    H7 9013   0.960   0.742  16.726 -0.6221  2.3690 -1.5473
  605TMC3    C1 9014   0.769   0.616  16.713  0.2599 -0.4370  0.9334
  605TMC3    C2 9015   0.821   0.664  16.831 -0.1773 -0.1262  0.6939
  605TMC3    C3 9016   0.758   0.752  16.916  0.4106 -0.7321 -0.3960
  605TMC3    C4 9017   0.648   0.659  16.674 -0.0431 -0.6583 -0.7071
  605TMC3    C5 9018   0.584   0.744  16.758  0.3604 -0.0778 -0.1906
  605TMC3    C6 9019   0.639   0.803  16.866 -0.6006 -0.1020 -0.9437
  605TMC3     C 9020   0.862   0.623  16.599  0.1107  0.7601 -0.0529
  605TMC3     O 9021   0.816   0.602  16.487  0.1135 -0.1513 -0.0101
  605TMC3     H 9022   0.915   0.625  16.869 -1.4078 -1.2880  2.5384
  605TMC3    H1 9023   0.604   0.623  16.582  0.5086 -1.2197 -0.7542
  605TMC3    H2 9024   0.588   0.879  16.925 -0.5804 -1.0733  0.3182
  605TMC3    C7 9025   0.453   0.788  16.725 -0.1992 -0.9333  0.3255
  605TMC3    C8 9026   0.860   0.845  16.947 -0.4573 -0.9467 -0.1822
  605TMC3    O1 9027   0.432   0.904  16.759 -0.0117 -0.5095 -0.2403
  605TMC3    O2 9028   0.908   0.893  16.848 -0.4092  0.8101 -0.1138
  606TMC3    C1 9029   1.954   4.398  16.965  1.2278  1.0811 -0.1091
  606TMC3    C2 9030   1.975   4.346  17.087 -0.0290  0.5699  0.4710
  606TMC3    C3 9031   2.002   4.213  17.107  0.7869 -0.2945 -0.2817
  606TMC3    C4 9032   1.969   4.319  16.852  0.2076  0.8748 -0.3743
  606TMC3    C5 9033   2.002   4.185  16.876  0.3848  0.4165  0.0844
  606TMC3    C6 9034   2.022   4.131  17.002  0.2242  0.4478  0.2562
  606TMC3     C 9035   1.904   4.532  16.945  0.7057  0.2483 -0.9088
  606TMC3     O 9036   1.904   4.564  16.827  0.0540 -0.1367 -0.4204
  606TMC3     H 9037   1.976   4.407  17.177  2.1199  0.2945  0.6282
  606TMC3    H1 9038   1.972   4.363  16.753 -0.7309 -0.8757 -1.1629
  606TMC3    H2 9039   2.056   4.029  17.017  0.5223  0.3972 -0.7303
  606TMC3    C7 9040   2.007   4.110  16.754 -0.1039 -0.2634  0.1283
  606TMC3    C8 9041   2.022   4.172  17.243  0.1092 -0.7512  0.3264
  606TMC3    O1 9042   2.005   4.176  16.652  0.1935  0.4866  0.1044
  606TMC3    O2 9043   2.065   4.259  17.316  0.2401 -0.3903  0.1257
  607MPD2     C 9044   3.763   1.809  11.954 -0.2602  0.3682 -0.5175
  607MPD2    C1 9045   3.817   1.880  12.060 -0.1494 -0.6744 -0.1048
  607MPD2    C2 9046   3.847   1.806  12.176  0.1073  0.4206  0.0777
  607MPD2    C3 9047   3.821   1.674  12.184 -0.7018  0.2455 -0.4927
  607MPD2    C4 9048   3.773   1.600  12.075  0.0461  0.4641  0.5182
  607MPD2    C5 9049   3.743   1.672  11.959 -0.1777  0.2570  0.4041
  607MPD2     H 9050   3.901   1.845  12.262 -0.7740  0.4275  0.6261
  607MPD2    H1 9051   3.751   1.496  12.096 -0.6839  0.3116 -0.9677
  607MPD2    H2 9052   3.734   1.849  11.858  1.6187  0.4861 -1.0385
  607MPD2    H3 9053   3.715   1.626  11.865  0.3680  0.8170 -0.0314
  607MPD2     N 9054   3.837   1.615  12.312 -0.1236  0.0028 -0.1319
  607MPD2    H5 9055   3.873   1.682  12.379  1.3935 -0.8950 -0.0609
  607MPD2    N1 9056   3.842   2.019  12.062 -0.5404 -0.7457 -0.2872
  607MPD2    H7 9057   3.907   2.056  12.131  0.0034 -0.5097 -0.9305
  608TMC3    C1 9058   3.853   2.247  12.007 -0.4693 -1.0455 -0.0420
  608TMC3    C2 9059   3.884   2.264  12.139 -0.0681  0.5463  0.4951
  608TMC3    C3 9060   3.987   2.352  12.167 -0.0236 -0.3299  0.7249
  608TMC3    C4 9061   3.909   2.321  11.902  0.2087  0.2050  0.3090
  608TMC3    C5 9062   3.994   2.420  11.946  0.6504  0.7591  0.6369
  608TMC3    C6 9063   4.029   2.447  12.076  0.2977  0.2878  0.6345
  608TMC3     C 9064   3.801   2.118  11.973 -0.0083  0.7755 -0.4629
  608TMC3     O 9065   3.755   2.115  11.859 -0.2988 -0.6907  0.7466
  608TMC3     H 9066   3.822   2.226  12.220  1.0309 -1.9151  0.1728
  608TMC3    H1 9067   3.902   2.304  11.795  1.9105 -0.0570  0.2326
  608TMC3    H2 9068   4.095   2.526  12.110 -0.5345  1.1729  0.2062
  608TMC3    C7 9069   4.072   2.484  11.835 -0.0478  0.0818  0.3511
  608TMC3    C8 9070   4.029   2.369  12.309  0.2475 -0.5720  0.7815
  608TMC3    O1 9071   4.053   2.446  11.721 -0.3839 -0.8227  0.3615
  608TMC3    O2 9072   4.112   2.456  12.339  0.9214  0.5677  0.1742
  609TMC3    C1 9073   2.340   1.764  10.054 -0.5873  1.0250 -0.3360
  609TMC3    C2 9074   2.353   1.809   9.923  0.5067 -0.3047  0.3479
  609TMC3    C3 9075   2.476   1.831   9.874  1.3335  0.2743  0.0462
  609TMC3    C4 9076   2.451   1.716  10.122  0.5173 -0.0118  0.9423
  609TMC3    C5 9077   2.576   1.729  10.065 -0.1215  1.3305  0.4907
  609TMC3    C6 9078   2.587   1.779   9.940 -0.2085 -0.3997  0.0891
  609TMC3     C 9079   2.222   1.721  10.120 -0.3489  0.1694 -0.0544
  609TMC3     O 9080   2.221   1.642  10.213  0.0580 -0.3679  0.2073
  609TMC3     H 9081   2.268   1.816   9.856  2.6624  2.9184 -2.0003
  609TMC3    H1 9082   2.438   1.693  10.228 -0.5748 -1.1785  0.5593
  609TMC3    H2 9083   2.686   1.807   9.906 -0.2756  1.1782  1.2201
  609TMC3    C7 9084   2.695   1.672  10.125 -0.6402  0.2155 -0.9165
  609TMC3    C8 9085   2.477   1.871   9.739 -0.0209 -0.2559  0.0146
  609TMC3    O1 9086   2.795   1.673  10.059 -0.0029  0.1764  0.3604
  609TMC3    O2 9087   2.371   1.917   9.693 -0.6669  0.2386 -0.0607
  610TMC3    C1 9088   4.292   1.328  12.861  0.0453  0.2796  0.0446
  610TMC3    C2 9089   4.281   1.455  12.912 -0.2051  0.3027  0.2346
  610TMC3    C3 9090   4.386   1.532  12.920  0.1665  0.0805  0.1742
  610TMC3    C4 9091   4.410   1.275  12.821  0.3962  0.7033 -0.1069
  610TMC3    C5 9092   4.519   1.357  12.843  0.1589 -0.4472  0.5257
  610TMC3    C6 9093   4.505   1.482  12.883  0.4627 -0.6193 -0.4847
  610TMC3     C 9094   4.165   1.258  12.827 -0.2841 -0.0519  0.6473
  610TMC3     O 9095   4.074   1.333  12.813 -0.1011 -0.2793  0.3277
  610TMC3     H 9096   4.178   1.489  12.925  0.3764  2.5233 -1.0565
  610TMC3    H1 9097   4.414   1.176  12.776 -0.0406  0.3622  0.6121
  610TMC3    H2 9098   4.591   1.547  12.886  0.5884 -0.9587  2.8305
  610TMC3    C7 9099   4.652   1.298  12.829 -0.8366 -0.0985 -0.0516
  610TMC3    C8 9100   4.354   1.665  12.939 -0.2267 -0.2942  0.7363
  610TMC3    O1 9101   0.013   1.366  12.849 -0.3293  0.1366 -0.4683
  610TMC3    O2 9102   4.258   1.693  13.006 -0.2316  0.1333 -0.4168
  611MPD2     C 9103   3.508   2.350  10.090 -0.5403  0.6958 -0.1026
  611MPD2    C1 9104   3.546   2.247  10.178  0.6352  0.3942  0.0969
  611MPD2    C2 9105   3.670   2.252  10.231 -0.6132 -0.3431  0.0117
  611MPD2    C3 9106   3.762   2.354  10.210 -0.3697  0.2739  0.2209
  611MPD2    C4 9107   3.721   2.449  10.118  0.1601 -0.6256  0.4285
  611MPD2    C5 9108   3.598   2.446  10.063 -0.2286 -0.2531 -0.2351
  611MPD2     H 9109   3.696   2.179  10.307 -1.9461  0.3254  1.1178
  611MPD2    H1 9110   3.784   2.536  10.100  0.0656 -0.4637  0.8831
  611MPD2    H2 9111   3.411   2.353  10.042 -0.6954 -2.6098 -0.0248
  611MPD2    H3 9112   3.572   2.531  10.000  0.8438 -0.9125 -1.5472
  611MPD2     N 9113   3.886   2.368  10.274  0.0820 -0.3958 -0.4527
  611MPD2    H5 9114   3.942   2.447  10.242 -0.2134 -0.0840 -0.1938
  611MPD2    N1 9115   3.458   2.139  10.206 -0.2068  0.0250  0.4737
  611MPD2    H7 9116   3.369   2.138  10.159  1.0389 -2.0303 -1.8475
  612TMC3    C1 9117   4.060   2.324  10.445 -1.1669 -0.0936 -0.7795
  612TMC3    C2 9118   4.085   2.255  10.562 -0.2180 -0.1803 -0.2122
  612TMC3    C3 9119   4.193   2.275  10.638 -0.4774  0.0767 -0.0250
  612TMC3    C4 9120   4.151   2.422  10.407  0.2652  0.1756  0.4355
  612TMC3    C5 9121   4.258   2.441  10.490  0.2497  0.2989  0.6999
  612TMC3    C6 9122   4.279   2.369  10.605  0.7414 -0.2143 -0.0540
  612TMC3     C 9123   3.933   2.290  10.380 -0.1557  0.3315 -0.5851
  612TMC3     O 9124   3.880   2.187  10.426 -0.0781  0.5455  0.6579
  612TMC3     H 9125   4.014   2.182  10.599  2.4251 -1.5252  2.2957
  612TMC3    H1 9126   4.134   2.492  10.326 -1.7452  0.7307  1.3373
  612TMC3    H2 9127   4.370   2.385  10.662  0.4725 -0.6170  0.4918
  612TMC3    C7 9128   4.368   2.521  10.430 -0.4848  0.3782 -0.0054
  612TMC3    C8 9129   4.198   2.211  10.766  1.1702  0.1162  0.2335
  612TMC3    O1 9130   4.341   2.538  10.309 -0.0486 -0.1072  0.7055
  612TMC3    O2 9131   4.143   2.103  10.773 -0.0458 -0.8060 -0.4034
  613MPD2     C 9132   3.215   3.899  17.024  0.4568  0.0697 -0.6656
  613MPD2    C1 9133   3.121   3.940  16.938 -0.2481 -0.0709 -0.7818
  613MPD2    C2 9134   3.079   3.859  16.836 -0.2298 -0.5053  0.4592
  613MPD2    C3 9135   3.118   3.729  16.817 -0.6999 -0.2544 -0.0563
  613MPD2    C4 9136   3.212   3.684  16.912 -0.0300  0.3722  0.1842
  613MPD2    C5 9137   3.255   3.768  17.009 -0.3811  0.4576  0.5075
  613MPD2     H 9138   3.003   3.901  16.772  1.8939  0.6481 -1.2951
  613MPD2    H1 9139   3.258   3.586  16.902 -0.1335  0.2589  0.7966
  613MPD2    H2 9140   3.267   3.955  17.101  0.6426  1.4469 -1.7882
  613MPD2    H3 9141   3.343   3.738  17.066 -0.6005 -0.6198  0.2808
  613MPD2     N 9142   3.099   3.646  16.701 -0.2672 -0.1175  0.1672
  613MPD2    H5 9143   3.132   3.550  16.703  0.8127  0.2771  1.3654
  613MPD2    N1 9144   3.092   4.078  16.941  0.0025 -0.6118  0.5034
  613MPD2    H7 9145   3.158   4.123  17.002  1.4256 -3.5774  1.1853
  614TMC3    C1 9146   3.089   4.273  16.799  0.4471 -0.3336 -0.7598
  614TMC3    C2 9147   3.217   4.239  16.761 -0.0874 -0.0072 -0.2604
  614TMC3    C3 9148   3.252   4.276  16.637  0.6863 -0.1587 -0.0360
  614TMC3    C4 9149   3.000   4.347  16.724  0.3045  0.4199  0.4298
  614TMC3    C5 9150   3.045   4.385  16.600  0.1371  0.3294 -0.0788
  614TMC3    C6 9151   3.171   4.353  16.557 -0.5490 -0.8006  0.3153
  614TMC3     C 9152   3.021   4.149  16.848 -0.3943  0.1063  0.4418
  614TMC3     O 9153   2.909   4.118  16.800  0.5372 -1.1314  0.0577
  614TMC3     H 9154   3.272   4.172  16.825  0.4646  1.0231  0.3567
  614TMC3    H1 9155   2.916   4.393  16.774  0.0001 -0.3442  0.6167
  614TMC3    H2 9156   3.190   4.366  16.451  0.3806  0.8932  0.7006
  614TMC3    C7 9157   2.971   4.498  16.543 -0.3282  0.2986  0.7647
  614TMC3    C8 9158   3.299   4.159  16.562  0.0505  0.3338 -0.0831
  614TMC3    O1 9159   2.937   4.584  16.625  0.1170 -0.0674 -0.2328
  614TMC3    O2 9160   3.278   4.050  16.607 -0.0325  0.0272 -0.0098
  615MPD2     C 9161   2.753   0.596  16.746 -0.1908 -0.1539  0.0552
  615MPD2    C1 9162   2.857   0.640  16.664  0.2207 -0.0350 -0.3898
  615MPD2    C2 9163   2.823   0.685  16.535 -0.2970 -0.0845  0.2224
  615MPD2    C3 9164   2.690   0.694  16.490 -1.1038 -0.3833  0.3717
  615MPD2    C4 9165   2.593   0.642  16.569 -0.1100 -0.1580 -0.0260
  615MPD2    C5 9166   2.626   0.594  16.694 -0.7474  0.5555  0.1808
  615MPD2     H 9167   2.903   0.716  16.468  0.1725  0.8104  1.1934
  615MPD2    H1 9168   2.489   0.636  16.538  0.2609  1.3921 -1.5423
  615MPD2    H2 9169   2.776   0.556  16.844 -0.8294 -2.1974 -0.6227
  615MPD2    H3 9170   2.553   0.534  16.747 -1.4173  1.4104  0.2082
  615MPD2     N 9171   2.640   0.747  16.373 -0.1192 -0.7656  0.2612
  615MPD2    H5 9172   2.541   0.754  16.355 -0.0139  1.4355  0.4886
  615MPD2    N1 9173   2.993   0.634  16.698  0.2699 -0.1288  0.2136
  615MPD2    H7 9174   3.051   0.666  16.621  0.7298  0.2864  0.7309
  616TMC3    C1 9175   3.193   0.610  16.830  0.5198 -0.2156 -0.3262
  616TMC3    C2 9176   3.254   0.702  16.749  0.7403 -0.1148  0.0613
  616TMC3    C3 9177   3.388   0.713  16.745 -0.0680 -1.0078  0.1494
  616TMC3    C4 9178   3.255   0.536  16.920 -0.4142 -0.5766  0.5453
  616TMC3    C5 9179   3.393   0.562  16.931  0.1816 -0.0704  0.1793
  616TMC3    C6 9180   3.460   0.646  16.844 -0.1493  0.1724 -0.2086
  616TMC3     C 9181   3.050   0.593  16.821  0.0114 -0.5462  0.7878
  616TMC3     O 9182   2.990   0.565  16.928 -0.5837  0.9784 -0.4170
  616TMC3     H 9183   3.187   0.778  16.710  0.2860 -0.6118 -0.1354
  616TMC3    H1 9184   3.199   0.465  16.980  0.2644 -2.0770 -0.6035
  616TMC3    H2 9185   3.567   0.656  16.858  0.3388 -1.8868 -2.4060
  616TMC3    C7 9186   3.483   0.482  17.013 -0.2269  0.0729  0.3543
  616TMC3    C8 9187   3.436   0.847  16.711 -0.4062 -0.3086 -0.1096
  616TMC3    O1 9188   3.601   0.478  16.993  0.1038 -0.2165  0.4982
  616TMC3    O2 9189   3.517   0.896  16.789  0.0921  0.2558 -0.6110
  617MPD2     C 9190   1.101   3.451  13.634 -0.0919  0.9521  0.2194
  617MPD2    C1 9191   1.106   3.543  13.740 -0.6233  0.8151  0.3258
  617MPD2    C2 9192   0.996   3.556  13.824  0.0924 -0.6501 -0.5763
  617MPD2    C3 9193   0.888   3.468  13.806  0.3589  0.1820  0.4716
  617MPD2    C4 9194   0.888   3.387  13.695 -0.5116 -0.8939 -0.4468
  617MPD2    C5 9195   1.004   3.365  13.616  0.0855  1.1467 -0.3042
  617MPD2     H 9196   0.999   3.634  13.900  2.9810  1.0398 -2.3991
  617MPD2    H1 9197   0.814   3.307  13.689 -0.1263 -1.3435  0.6959
  617MPD2    H2 9198   1.184   3.439  13.565 -0.6873  1.7854 -0.6358
  617MPD2    H3 9199   1.007   3.296  13.533 -0.0187  1.4526 -0.5648
  617MPD2     N 9200   0.777   3.463  13.893  0.4032 -0.1408  0.6275
  617MPD2    H5 9201   0.711   3.389  13.871  0.5616  0.2311 -1.0978
  617MPD2    N1 9202   1.212   3.631  13.743  0.3102 -0.3019 -0.6340
  617MPD2    H7 9203   1.281   3.639  13.668 -1.8758 -1.9540 -2.8211
  618TMC3    C1 9204   1.345   3.798  13.801  0.6847 -0.0158 -0.6335
  618TMC3    C2 9205   1.445   3.813  13.887 -0.7796 -0.5005  0.2837
  618TMC3    C3 9206   1.557   3.882  13.842  0.5091 -0.2829 -0.3259
  618TMC3    C4 9207   1.335   3.864  13.685 -0.2595  0.7479 -0.3140
  618TMC3    C5 9208   1.444   3.941  13.647 -0.7065  0.3223 -0.6969
  618TMC3    C6 9209   1.558   3.957  13.724 -0.2917  0.4012 -0.1366
  618TMC3     C 9210   1.228   3.720  13.840 -0.1765  0.4335 -0.0387
  618TMC3     O 9211   1.205   3.713  13.959 -0.1069  0.3837  0.3421
  618TMC3     H 9212   1.436   3.767  13.985  0.4457 -1.6112 -0.1146
  618TMC3    H1 9213   1.239   3.864  13.635  0.0270 -0.7822 -0.8481
  618TMC3    H2 9214   1.648   4.007  13.691 -0.4019  1.8441  1.7509
  618TMC3    C7 9215   1.444   4.035  13.530  0.4664 -0.2121  0.5491
  618TMC3    C8 9216   1.685   3.837  13.889  0.9088  0.5983 -0.3580
  618TMC3    O1 9217   1.355   4.128  13.535 -0.1456  0.0039 -0.4884
  618TMC3    O2 9218   1.701   3.850  14.010 -0.3439 -0.0739 -0.5369
  619MPD2     C 9219   2.081   4.572  13.775  0.3846  0.3990 -0.2830
  619MPD2    C1 9220   2.011   4.644  13.683 -0.9492  0.4547 -0.4458
  619MPD2    C2 9221   1.880   4.672  13.703  0.6119 -1.0082 -0.9071
  619MPD2    C3 9222   1.813   4.632  13.816  0.3150 -0.6063 -0.2372
  619MPD2    C4 9223   1.883   4.558  13.911 -0.2718 -0.0069  0.0342
  619MPD2    C5 9224   2.019   4.530  13.890  0.8866  0.3301 -0.0274
  619MPD2     H 9225   1.831   4.725  13.622 -0.1721 -0.3153  0.0221
  619MPD2    H1 9226   1.845   4.543  14.011 -3.4911 -0.9389 -1.3220
  619MPD2    H2 9227   2.186   4.547  13.768  0.5504  1.3816 -1.2562
  619MPD2    H3 9228   2.076   4.470  13.960 -1.0412  1.8806  2.8450
  619MPD2     N 9229   1.679   4.665  13.845  0.4447 -0.0939  0.3381
  619MPD2    H5 9230   1.639   4.623  13.928  1.7330 -1.1792  0.4145
  619MPD2    N1 9231   2.061   4.687  13.559  0.0677 -0.3932 -0.2877
  619MPD2    H7 9232   1.998   4.735  13.496  0.5960 -2.8858 -2.6849
  620TMC3    C1 9233   2.206   0.029  13.413 -0.5449 -0.0015  0.3040
  620TMC3    C2 9234   2.112   0.018  13.309 -0.9002  0.4546 -0.1690
  620TMC3    C3 9235   2.106   0.125  13.219  0.1179 -0.0468 -0.8676
  620TMC3    C4 9236   2.277   0.137  13.436 -0.0257  0.6835  0.3945
  620TMC3    C5 9237   2.268   0.243  13.355 -0.6382 -0.0618  0.6128
  620TMC3    C6 9238   2.182   0.236  13.250 -0.2856  0.6828  0.1680
  620TMC3     C 9239   2.196   4.672  13.519  0.9711 -0.2717 -0.0592
  620TMC3     O 9240   2.292   4.644  13.584  0.4295 -0.1567 -0.0907
  620TMC3     H 9241   2.047   4.668  13.296 -0.6200  0.1518  0.4364
  620TMC3    H1 9242   2.350   0.124  13.515 -0.9195  0.4086  1.1820
  620TMC3    H2 9243   2.172   0.321  13.183 -0.2713 -0.1950 -0.9371
  620TMC3    C7 9244   2.269   0.373  13.429  0.2672  0.6100  0.2755
  620TMC3    C8 9245   1.990   0.136  13.129 -0.1508 -0.1497  0.1087
  620TMC3    O1 9246   2.253   0.475  13.362 -0.4370 -0.6188 -0.1633
  620TMC3    O2 9247   1.969   0.030  13.072 -0.8615 -0.3052  0.1854
  621MPD2     C 9248   2.448   4.631  10.624  0.9449  0.1523  0.8558
  621MPD2    C1 9249   2.362   4.622  10.511 -0.7768  0.0615 -0.5624
  621MPD2    C2 9250   2.360   4.727  10.422 -0.6878  0.4432  0.1564
  621MPD2    C3 9251   2.430   0.106  10.444 -0.2244  0.0904 -0.0904
  621MPD2    C4 9252   2.508   0.121  10.559  0.2860 -0.6890 -0.2202
  621MPD2    C5 9253   2.521   0.014  10.639  0.1966 -0.0636 -0.2271
  621MPD2     H 9254   2.297   4.720  10.334 -0.0266 -0.2022 -0.2654
  621MPD2    H1 9255   2.575   0.203  10.579  0.0492 -0.6597  0.4435
  621MPD2    H2 9256   2.466   4.552  10.695  1.4855 -2.0490 -1.7439
  621MPD2    H3 9257   2.582   0.022  10.728  0.6490  1.9827 -0.7094
  621MPD2     N 9258   2.424   0.206  10.356 -0.5041 -0.1855 -0.6456
  621MPD2    H5 9259   2.381   0.187  10.266  1.5151  0.0759 -1.6599
  621MPD2    N1 9260   2.278   4.510  10.484 -0.2280  0.3379 -0.0998
  621MPD2    H7 9261   2.223   4.515  10.399 -1.5887 -0.6615  0.7168
  622TMC3    C1 9262   2.148   4.325  10.551  0.1798 -0.7252  0.0499
  622TMC3    C2 9263   2.066   4.291  10.652  0.4916 -1.0021  0.0306
  622TMC3    C3 9264   1.960   4.218  10.616  0.5780  0.4120  0.3299
  622TMC3    C4 9265   2.133   4.286  10.419 -0.3767 -0.5692  0.2726
  622TMC3    C5 9266   2.031   4.207  10.388  1.0304 -0.1414 -0.2838
  622TMC3    C6 9267   1.942   4.176  10.485  0.6110 -0.0393  0.2349
  622TMC3     C 9268   2.235   4.434  10.588  0.3411  0.1422  0.0983
  622TMC3     O 9269   2.252   4.461  10.706 -0.4964  0.2300 -0.5679
  622TMC3     H 9270   2.083   4.320  10.754  2.2419  0.2130 -0.6181
  622TMC3    H1 9271   2.207   4.320  10.348 -1.7391 -0.4114 -1.0566
  622TMC3    H2 9272   1.845   4.141  10.449  0.0979  0.5738  1.0324
  622TMC3    C7 9273   1.974   4.214  10.252 -0.1873 -0.7181  0.2254
  622TMC3    C8 9274   1.837   4.236  10.683  0.0951 -0.3246 -0.9327
  622TMC3    O1 9275   1.897   4.127  10.217  0.1631 -0.5823  0.0076
  622TMC3    O2 9276   1.735   4.165  10.658  0.4895 -0.1269  0.4005
  623MPD2     C 9277   1.199   1.025  16.184  0.1062 -0.3177  0.6976
  623MPD2    C1 9278   1.139   1.039  16.311 -0.0526 -0.7166  0.0015
  623MPD2    C2 9279   1.226   1.066  16.413 -0.8274  0.4192  0.3585
  623MPD2    C3 9280   1.362   1.081  16.385 -0.0428 -0.1629 -0.5013
  623MPD2    C4 9281   1.417   1.075  16.256  0.0269 -0.2540  0.1117
  623MPD2    C5 9282   1.329   1.037  16.160 -0.3357 -0.3418 -0.1519
  623MPD2     H 9283   1.185   1.073  16.513  2.1986  1.6642  1.5269
  623MPD2    H1 9284   1.521   1.070  16.228  0.1691  2.6513  0.1549
  623MPD2    H2 9285   1.133   0.981  16.110 -1.5777 -0.4094  2.2511
  623MPD2    H3 9286   1.374   1.009  16.066 -0.2194 -1.1254  0.1294
  623MPD2     N 9287   1.442   1.101  16.502 -0.2624  0.6277 -0.2918
  623MPD2    H5 9288   1.390   1.105  16.589 -0.8576  0.7215 -0.6524
  623MPD2    N1 9289   1.006   1.025  16.351  0.0613 -0.5000 -0.2506
  623MPD2    H7 9290   0.988   1.054  16.446  1.7675  0.1926 -0.1401
  624TMC3    C1 9291   1.717   0.938  16.791  0.1901 -0.5873  0.5102
  624TMC3    C2 9292   1.622   0.962  16.888 -0.2540  0.6451  0.4892
  624TMC3    C3 9293   1.526   1.056  16.861 -0.1354 -0.7539 -1.3997
  624TMC3    C4 9294   1.718   1.000  16.666 -0.2294  0.2161 -0.1517
  624TMC3    C5 9295   1.620   1.096  16.645 -0.2271 -0.3047  0.2572
  624TMC3    C6 9296   1.530   1.128  16.742 -0.3264 -0.4591  0.3749
  624TMC3     C 9297   1.838   0.880  16.849  0.7632 -0.3953 -0.1149
  624TMC3     O 9298   1.813   0.821  16.952 -0.0799 -0.0981  0.1162
  624TMC3     H 9299   1.612   0.888  16.966 -1.3370  0.0452 -0.2248
  624TMC3    H1 9300   1.794   0.980  16.591 -0.7646  1.6586 -1.0677
  624TMC3    H2 9301   1.454   1.204  16.725  1.3559  1.2679  0.5465
  624TMC3    C7 9302   1.574   1.102  16.512 -0.4590 -0.8073  0.0910
  624TMC3    C8 9303   1.383   1.043  16.912  0.7668 -0.6500 -0.1080
  624TMC3    O1 9304   1.666   1.092  16.432  0.5060  0.4060  0.4362
  624TMC3    O2 9305   1.289   1.083  16.842 -0.2325  0.1389  0.0573
  625MPD2     C 9306   1.924   2.049   0.400  0.3561 -0.4602  0.4078
  625MPD2    C1 9307   2.035   2.135   0.426 -0.4441 -0.0753 -0.3349
  625MPD2    C2 9308   2.161   2.079   0.419 -0.2837  0.1312 -0.1481
  625MPD2    C3 9309   2.181   1.943   0.395 -0.1822 -0.1776 -0.9413
  625MPD2    C4 9310   2.072   1.861   0.396  0.0947 -0.3029 -0.3958
  625MPD2    C5 9311   1.948   1.918   0.397  0.8822  0.0173 -0.4768
  625MPD2     H 9312   2.248   2.137   0.444 -0.0785 -0.0265 -0.4975
  625MPD2    H1 9313   2.076   1.753   0.396 -2.0480 -0.4006  1.1925
  625MPD2    H2 9314   1.817   2.067   0.404  0.7544  1.9573 -0.1964
  625MPD2    H3 9315   1.866   1.848   0.397  0.5126  0.4454  0.3169
  625MPD2     N 9316   2.314   1.901   0.401  0.0040  0.6673 -0.1667
  625MPD2    H5 9317   2.376   1.981   0.407 -2.7528  2.6237  2.4959
  625MPD2    N1 9318   2.027   2.274   0.467  0.2643 -0.8291  0.1729
  625MPD2    H7 9319   2.113   2.326   0.485  0.4963 -2.0074  2.4208
  626TMC3    C1 9320   1.951   2.490   0.517 -0.3271  0.6120  0.3204
  626TMC3    C2 9321   1.873   2.591   0.468 -0.4605  0.7350 -0.5974
  626TMC3    C3 9322   1.914   2.719   0.485 -0.0328  0.2187  0.0903
  626TMC3    C4 9323   2.072   2.515   0.573 -0.2313  0.0191 -0.0504
  626TMC3    C5 9324   2.106   2.646   0.582 -0.7652  0.4573 -0.3919
  626TMC3    C6 9325   2.038   2.753   0.530 -0.3665 -0.5632  0.0330
  626TMC3     C 9326   1.912   2.348   0.488  0.3600 -0.1428 -0.5980
  626TMC3     O 9327   1.795   2.314   0.468 -0.0772 -0.3951  0.3632
  626TMC3     H 9328   1.785   2.578   0.407 -0.0555 -0.9751 -0.8096
  626TMC3    H1 9329   2.121   2.439   0.633  0.5066  1.2780  0.9563
  626TMC3    H2 9330   2.083   2.851   0.518  1.2600 -1.1434  1.5295
  626TMC3    C7 9331   2.194   2.667   0.696 -0.6024  0.3316  0.2073
  626TMC3    C8 9332   1.865   2.811   0.380  0.0318  0.3642 -0.7609
  626TMC3    O1 9333   2.269   2.580   0.738 -0.8144  0.5912 -0.0533
  626TMC3    O2 9334   1.952   2.875   0.324 -0.2499 -0.2947 -0.4784
  627MPD2     C 9335   0.153   2.714  14.436  0.8711 -0.3906 -0.3151
  627MPD2    C1 9336   0.226   2.629  14.521 -0.3119  0.2384 -0.1028
  627MPD2    C2 9337   0.200   2.492  14.528  0.7174 -0.1903  0.2126
  627MPD2    C3 9338   0.114   2.436  14.437  0.0493 -0.2126 -0.5539
  627MPD2    C4 9339   0.054   2.518  14.342  0.0479 -0.1268 -0.3862
  627MPD2    C5 9340   0.059   2.652  14.349 -0.4867 -0.3882  0.4066
  627MPD2     H 9341   0.232   2.425  14.607 -0.1140 -0.9821 -0.1208
  627MPD2    H1 9342   4.723   2.469  14.272 -2.0769  2.2499  0.0068
  627MPD2    H2 9343   0.175   2.820  14.426 -0.1573 -0.2794 -1.4062
  627MPD2    H3 9344   0.019   2.720  14.275 -0.3031  0.6888  1.2989
  627MPD2     N 9345   0.097   2.298  14.455 -0.1421 -0.4639  0.1479
  627MPD2    H5 9346   0.138   2.259  14.539  0.4564 -1.2586 -0.4999
  627MPD2    N1 9347   0.329   2.677  14.608 -0.2093 -0.3691  0.1985
  627MPD2    H7 9348   0.377   2.615  14.672  2.0974 -0.4829 -1.5940
  628TMC3    C1 9349   0.479   2.823  14.705  0.0622 -0.6611  0.0741
  628TMC3    C2 9350   0.578   2.731  14.721  0.2328  0.1139  0.3523
  628TMC3    C3 9351   0.695   2.754  14.803  0.1423  0.7433 -0.2709
  628TMC3    C4 9352   0.489   2.940  14.769  0.4237 -0.2151 -0.0970
  628TMC3    C5 9353   0.603   2.964  14.841  0.1055 -0.0130  0.7312
  628TMC3    C6 9354   0.708   2.879  14.862 -0.2918  0.0139  0.2184
  628TMC3     C 9355   0.372   2.803  14.611 -0.6529 -0.0063  0.1545
  628TMC3     O 9356   0.319   2.904  14.565 -0.5192  0.4470  0.8154
  628TMC3     H 9357   0.580   2.648  14.652  0.2208  0.6060 -0.2399
  628TMC3    H1 9358   0.412   3.015  14.757 -0.8424 -1.0521  2.8871
  628TMC3    H2 9359   0.767   2.886  14.952 -2.8766  2.3853  1.6965
  628TMC3    C7 9360   0.629   3.097  14.858 -0.7297 -0.7243  0.8632
  628TMC3    C8 9361   0.747   2.640  14.863 -0.0812 -0.7558  0.1006
  628TMC3    O1 9362   0.696   3.122  14.955  0.0301 -0.0053  0.9663
  628TMC3    O2 9363   0.660   2.552  14.876 -0.6778  0.4372 -0.0573
  629MPD2     C 9364   3.473   1.253  16.401  0.1195  0.6786 -0.3054
  629MPD2    C1 9365   3.549   1.221  16.513  0.6123  0.7617 -0.3525
  629MPD2    C2 9366   3.524   1.099  16.567  0.0055 -0.0435  0.0018
  629MPD2    C3 9367   3.432   1.009  16.524  0.3513 -0.6448  0.3120
  629MPD2    C4 9368   3.363   1.041  16.407  0.1299 -0.9411  0.4870
  629MPD2    C5 9369   3.387   1.160  16.347 -0.1697  0.5120  0.0914
  629MPD2     H 9370   3.584   1.063  16.650 -2.8975 -0.4787  1.8840
  629MPD2    H1 9371   3.284   0.974  16.375  0.7137 -1.3934 -0.0094
  629MPD2    H2 9372   3.485   1.351  16.357 -0.3763  0.9001  0.0601
  629MPD2    H3 9373   3.335   1.188  16.257  2.3701 -0.1343 -1.5884
  629MPD2     N 9374   3.395   0.883  16.583  0.0526 -0.6020 -0.2252
  629MPD2    H5 9375   3.324   0.826  16.538 -1.0461 -0.3942  1.2476
  629MPD2    N1 9376   3.643   1.314  16.557  0.1004  0.2960  0.0020
  629MPD2    H7 9377   3.667   1.397  16.503 -1.1554  2.4943  2.8021
  630TMC3    C1 9378   3.826   1.372  16.690  0.2688  0.3337 -0.5440
  630TMC3    C2 9379   3.888   1.422  16.578  0.1894  0.1494 -0.4780
  630TMC3    C3 9380   4.007   1.489  16.601  0.6536  0.3850  0.0227
  630TMC3    C4 9381   3.880   1.369  16.817  0.8422 -1.0050  0.3802
  630TMC3    C5 9382   3.997   1.429  16.838  0.2619 -0.5715  0.2897
  630TMC3    C6 9383   4.071   1.487  16.733 -0.6934 -1.1127  0.5296
  630TMC3     C 9384   3.706   1.298  16.678  0.8773 -0.4105  0.4224
  630TMC3     O 9385   3.673   1.219  16.766  0.5105  0.3425 -0.8164
  630TMC3     H 9386   3.844   1.423  16.479  0.6025  0.0335 -0.6579
  630TMC3    H1 9387   3.822   1.342  16.904 -0.5200 -0.7498 -0.4440
  630TMC3    H2 9388   4.168   1.532  16.752 -0.9113 -0.2029 -0.5031
  630TMC3    C7 9389   4.055   1.405  16.967  0.8819  0.0000 -0.2070
  630TMC3    C8 9390   4.063   1.582  16.504 -1.0184  0.1359 -0.0316
  630TMC3    O1 9391   4.008   1.324  17.046 -0.8021 -0.1505  0.3714
  630TMC3    O2 9392   4.142   1.661  16.547 -0.0077 -0.4552 -0.3073
  631MPD2     C 9393   1.854   0.912  15.820  0.0425  0.2372  0.4110
  631MPD2    C1 9394   1.930   1.024  15.806 -0.3128  0.3367 -0.5224
  631MPD2    C2 9395   2.066   1.011  15.843 -0.6571 -0.1728 -0.5576
  631MPD2    C3 9396   2.117   0.892  15.896 -0.1924 -0.3921  0.5853
  631MPD2    C4 9397   2.035   0.783  15.907  0.5429  0.2848  0.0669
  631MPD2    C5 9398   1.904   0.794  15.880 -0.0322 -0.3889  0.2931
  631MPD2     H 9399   2.137   1.089  15.816 -0.3291  0.1924  1.3634
  631MPD2    H1 9400   2.074   0.686  15.935 -0.8348  0.1052  1.3657
  631MPD2    H2 9401   1.756   0.916  15.775  0.2379 -2.1931 -0.2001
  631MPD2    H3 9402   1.850   0.700  15.890  1.1443 -0.9513  1.3632
  631MPD2     N 9403   2.256   0.884  15.921 -0.3369  0.3707  0.5637
  631MPD2    H5 9404   2.303   0.971  15.898  0.0029  0.1656  0.4742
  631MPD2    N1 9405   1.876   1.132  15.735  0.5566 -0.2408  0.2924
  631MPD2    H7 9406   1.780   1.128  15.703  1.5639 -1.0747 -2.6125
  632TMC3    C1 9407   1.852   1.372  15.690  0.6917 -0.1400 -0.1266
  632TMC3    C2 9408   1.718   1.349  15.652  0.3838 -0.2735 -0.4928
  632TMC3    C3 9409   1.652   1.462  15.606  0.4239  0.2828 -0.0851
  632TMC3    C4 9410   1.919   1.490  15.666 -0.2052 -0.1460 -0.0998
  632TMC3    C5 9411   1.855   1.584  15.599 -0.1231 -0.4717 -0.1493
  632TMC3    C6 9412   1.721   1.578  15.579 -0.1436 -0.1835 -0.3532
  632TMC3     C 9413   1.927   1.262  15.751 -0.0673 -0.4022 -0.2255
  632TMC3     O 9414   2.022   1.299  15.817 -0.5015  0.1964  0.3498
  632TMC3     H 9415   1.664   1.258  15.676  3.0215 -1.4414  0.9107
  632TMC3    H1 9416   2.023   1.505  15.692  0.1426  2.2818 -2.9499
  632TMC3    H2 9417   1.684   1.676  15.550  0.6966  1.2110  3.3293
  632TMC3    C7 9418   1.925   1.703  15.552  0.7727  0.0423  0.7237
  632TMC3    C8 9419   1.509   1.462  15.638  0.3267 -0.1192 -0.0742
  632TMC3    O1 9420   2.016   1.741  15.620 -0.0153  0.2023  0.3757
  632TMC3    O2 9421   1.469   1.373  15.709  0.2204  0.1459  0.8038
  633MPD2     C 9422   1.581   3.723  17.153 -0.2316  0.5533  0.2787
  633MPD2    C1 9423   1.583   3.704  17.017  0.0772  0.9028 -0.5089
  633MPD2    C2 9424   1.662   3.604  16.967  0.0218  0.7366 -0.8558
  633MPD2    C3 9425   1.740   3.512  17.037 -0.1362  0.2215  0.0583
  633MPD2    C4 9426   1.727   3.527  17.170  0.3566 -0.5540 -0.5420
  633MPD2    C5 9427   1.646   3.630  17.229  0.5212  0.1881 -0.2785
  633MPD2     H 9428   1.644   3.582  16.863 -2.3744 -1.0776 -0.0538
  633MPD2    H1 9429   1.795   3.474  17.237  2.4582  0.7830 -1.6257
  633MPD2    H2 9430   1.522   3.803  17.195 -1.1153  0.3631 -0.6087
  633MPD2    H3 9431   1.640   3.639  17.337 -0.4738 -2.2117 -0.1310
  633MPD2     N 9432   1.823   3.421  16.971 -0.5148  0.2872 -0.2340
  633MPD2    H5 9433   1.801   3.414  16.872  1.6039  0.4022 -0.7186
  633MPD2    N1 9434   1.507   3.782  16.923 -0.0100 -0.3667 -0.1570
  633MPD2    H7 9435   1.511   3.751  16.826  0.8910 -0.3979 -0.1181
  634TMC3    C1 9436   1.370   3.939  16.829  0.0622  0.5042 -1.0260
  634TMC3    C2 9437   1.338   3.850  16.731  0.2638 -0.3901  0.9838
  634TMC3    C3 9438   1.289   3.910  16.616 -0.6455  0.5919 -0.3438
  634TMC3    C4 9439   1.329   4.074  16.841 -0.3790 -0.2769  0.8607
  634TMC3    C5 9440   1.289   4.125  16.719  0.9820 -0.4825 -0.1682
  634TMC3    C6 9441   1.264   4.047  16.612 -0.3385  0.4611  0.2329
  634TMC3     C 9442   1.426   3.886  16.953  0.6072 -0.5501  0.6589
  634TMC3     O 9443   1.394   3.939  17.062 -0.1418 -0.6973 -0.5169
  634TMC3     H 9444   1.353   3.743  16.733  0.9122 -0.3211  0.1960
  634TMC3    H1 9445   1.370   4.131  16.923  1.5775  1.4342 -1.2980
  634TMC3    H2 9446   1.239   4.101  16.522 -1.0393 -0.9529 -0.4187
  634TMC3    C7 9447   1.288   4.269  16.692  0.4986 -0.3114  0.1294
  634TMC3    C8 9448   1.296   3.836  16.489 -0.4007 -0.3087  0.3841
  634TMC3    O1 9449   1.369   4.315  16.610 -0.3559  0.0112  0.0663
  634TMC3    O2 9450   1.365   3.735  16.487  0.0305 -0.1169 -0.0177
  635TMC3    C1 9451   1.794   4.673   0.227  0.0569 -0.1882  0.1614
  635TMC3    C2 9452   1.692   4.607   0.173 -0.0184 -0.3083 -0.4079
  635TMC3    C3 9453   1.720   4.473   0.138 -0.1360 -0.3655 -0.4155
  635TMC3    C4 9454   1.911   4.617   0.273  0.0968 -0.3727 -0.6094
  635TMC3    C5 9455   1.924   4.481   0.253 -0.1123 -0.4113  0.6167
  635TMC3    C6 9456   1.837   4.416   0.168 -0.1897  0.3932 -0.0933
  635TMC3     C 9457   1.765   0.071   0.267 -0.2931  0.2371 -0.2733
  635TMC3     O 9458   1.647   0.106   0.274  0.0869 -0.1959  0.3241
  635TMC3     H 9459   1.600   4.656   0.144  0.0264  0.1628  0.2439
  635TMC3    H1 9460   1.981   4.668   0.337 -1.6288  1.7314 -0.3939
  635TMC3    H2 9461   1.860   4.315   0.133 -0.0942  0.1570  0.6446
  635TMC3    C7 9462   2.031   4.404   0.318  0.2297 -0.0224 -0.2952
  635TMC3    C8 9463   1.637   4.409   0.034 -0.1153 -0.0140 -0.2701
  635TMC3    O1 9464   2.128   4.462   0.352 -1.1518 -0.0092  0.1126
  635TMC3    O2 9465   1.569   4.494  17.715 -0.1506 -0.3080 -0.1312
  636MPD2     C 9466   2.564   4.018  16.041  0.5293 -0.1758  0.0354
  636MPD2    C1 9467   2.624   4.066  16.155 -0.0222  0.0191  0.3867
  636MPD2    C2 9468   2.730   3.989  16.206  0.0948  0.3205  0.6636
  636MPD2    C3 9469   2.764   3.865  16.153 -0.5751  0.4661  0.0851
  636MPD2    C4 9470   2.693   3.823  16.045 -0.0076  0.2815 -0.4405
  636MPD2    C5 9471   2.590   3.894  15.996 -0.9911  0.0551 -0.1413
  636MPD2     H 9472   2.787   4.025  16.292 -0.6887 -0.2779  1.4304
  636MPD2    H1 9473   2.698   3.718  16.015  1.4608  0.7941 -2.0198
  636MPD2    H2 9474   2.480   4.075  16.003 -1.7559 -2.8517  1.0726
  636MPD2    H3 9475   2.533   3.848  15.916 -1.3285  1.0585 -0.4792
  636MPD2     N 9476   2.857   3.785  16.216  0.6340 -0.5862  0.3970
  636MPD2    H5 9477   2.890   3.819  16.306  1.4480  2.2988 -0.9827
  636MPD2    N1 9478   2.580   4.175  16.230  0.1125  0.7953 -0.3631
  636MPD2    H7 9479   2.634   4.199  16.312 -0.4186  1.7699 -0.3069
  637TMC3    C1 9480   2.978   3.599  16.270 -0.7403  0.1524 -0.5193
  637TMC3    C2 9481   2.940   3.608  16.396 -0.1362  0.0335  0.6484
  637TMC3    C3 9482   3.033   3.573  16.491 -0.6740  0.2306  0.1490
  637TMC3    C4 9483   3.106   3.582  16.232  0.1383 -0.2152 -0.7613
  637TMC3    C5 9484   3.205   3.567  16.329  0.7473  0.2780 -0.2629
  637TMC3    C6 9485   3.160   3.536  16.454 -0.3094 -0.2788 -0.6507
  637TMC3     C 9486   2.898   3.663  16.169  0.0121 -0.3618  0.1600
  637TMC3     O 9487   2.909   3.633  16.049  0.3953 -0.2699 -0.2318
  637TMC3     H 9488   2.836   3.613  16.426 -0.6607 -0.5499 -1.0383
  637TMC3    H1 9489   3.135   3.621  16.135  1.4848  0.5336 -0.0629
  637TMC3    H2 9490   3.237   3.520  16.528 -1.6964 -2.1816  0.3543
  637TMC3    C7 9491   3.300   3.674  16.340  0.2246 -0.2779 -0.9893
  637TMC3    C8 9492   3.021   3.670  16.598  0.4327  0.5207  0.1292
  637TMC3    O1 9493   3.343   3.691  16.453 -0.1340 -0.2173  0.3799
  637TMC3    O2 9494   2.944   3.766  16.577 -0.1296  0.5015  0.4733
  638MPD2     C 9495   3.166   3.117  14.625  0.1607 -0.2069  0.5062
  638MPD2    C1 9496   3.126   2.988  14.598 -0.9441  0.4550 -0.3371
  638MPD2    C2 9497   3.041   2.919  14.688 -0.5896  0.1204 -0.0890
  638MPD2    C3 9498   3.009   2.974  14.810  0.7634  0.5841 -0.0140
  638MPD2    C4 9499   3.044   3.103  14.833 -0.5046  0.5898  0.2430
  638MPD2    C5 9500   3.118   3.169  14.743  0.2742  0.0086 -0.1198
  638MPD2     H 9501   3.023   2.812  14.684 -1.5288  0.2258  1.1954
  638MPD2    H1 9502   3.006   3.146  14.925  2.2469 -1.1267  2.1807
  638MPD2    H2 9503   3.212   3.185  14.555 -0.1416  0.9077  1.4048
  638MPD2    H3 9504   3.140   3.274  14.761 -0.3263  0.0435  0.4568
  638MPD2     N 9505   2.951   2.883  14.907  0.6049 -0.1954 -0.2579
  638MPD2    H5 9506   2.911   2.796  14.874  0.4743 -0.6235  1.0368
  638MPD2    N1 9507   3.179   2.935  14.483 -0.2990  0.2916  0.1846
  638MPD2    H7 9508   3.260   2.979  14.439  0.7471 -0.9944  0.8195
  639TMC3    C1 9509   2.911   2.786  15.117 -0.1428  0.3151  0.3979
  639TMC3    C2 9510   2.812   2.717  15.056  0.3119  0.3605  0.6822
  639TMC3    C3 9511   2.787   2.581  15.082 -1.1222 -0.4585 -0.0509
  639TMC3    C4 9512   3.000   2.724  15.199 -0.6889 -0.0709  0.4929
  639TMC3    C5 9513   2.992   2.584  15.212 -0.2677 -0.8663 -0.1266
  639TMC3    C6 9514   2.885   2.511  15.160 -0.0961 -0.0125  0.0742
  639TMC3     C 9515   2.963   2.897  15.048  0.4672  0.1353 -0.2460
  639TMC3     O 9516   3.009   2.985  15.122  0.5435  0.2836  0.6163
  639TMC3     H 9517   2.741   2.771  14.994  1.1174 -1.1632 -1.5709
  639TMC3    H1 9518   3.084   2.781  15.237 -0.0380  0.1606 -1.2908
  639TMC3    H2 9519   2.875   2.404  15.171  1.7107 -0.2553 -0.6247
  639TMC3    C7 9520   3.122   2.515  15.225  0.6889 -0.2368  0.0567
  639TMC3    C8 9521   2.690   2.518  15.003 -0.0949 -0.1309 -1.1211
  639TMC3    O1 9522   3.182   2.562  15.317  0.1181 -0.0104  0.4756
  639TMC3    O2 9523   2.738   2.446  14.918  0.3515  0.6638 -0.1011
  640MPD2     C 9524   2.860   2.551   9.488  0.3907 -0.2627 -0.8545
  640MPD2    C1 9525   2.869   2.417   9.541 -0.0058 -0.4980 -0.0820
  640MPD2    C2 9526   2.815   2.387   9.665  0.0170 -0.0921  0.3713
  640MPD2    C3 9527   2.759   2.496   9.735 -0.1070  0.2631 -0.6360
  640MPD2    C4 9528   2.759   2.622   9.687  0.2661  0.0442 -0.3920
  640MPD2    C5 9529   2.796   2.642   9.555 -0.2324  0.2845  0.6445
  640MPD2     H 9530   2.811   2.286   9.704 -1.6357 -0.0642  0.2747
  640MPD2    H1 9531   2.724   2.701   9.753 -2.1124 -0.0860 -1.5143
  640MPD2    H2 9532   2.900   2.575   9.390 -0.6562  0.1172 -1.1909
  640MPD2    H3 9533   2.785   2.744   9.520 -0.5028 -0.2444 -0.8080
  640MPD2     N 9534   2.701   2.478   9.865 -0.1327 -0.0527  0.5894
  640MPD2    H5 9535   2.669   2.556   9.921  0.2015 -0.1917  0.9746
  640MPD2    N1 9536   2.950   2.318   9.480 -0.1475  0.3822 -0.3918
  640MPD2    H7 9537   2.993   2.336   9.391  1.2225  0.2609  0.2432
  641TMC3    C1 9538   3.079   2.116   9.457 -0.6036 -0.0611  0.2314
  641TMC3    C2 9539   3.138   2.006   9.515 -0.8114 -0.3965  0.8377
  641TMC3    C3 9540   3.252   1.947   9.462  0.3216 -0.0990  0.5213
  641TMC3    C4 9541   3.120   2.148   9.329  0.7162  0.5829 -0.0513
  641TMC3    C5 9542   3.233   2.081   9.277 -0.1845 -0.0031 -0.1162
  641TMC3    C6 9543   3.297   1.978   9.343 -1.0370  1.0386 -0.4594
  641TMC3     C 9544   2.981   2.190   9.533  0.3367 -0.0815 -0.0917
  641TMC3     O 9545   2.947   2.140   9.640 -0.5958 -0.9069  0.1788
  641TMC3     H 9546   3.094   1.970   9.608 -1.0614 -1.8561  0.1463
  641TMC3    H1 9547   3.063   2.218   9.269  0.3547  0.5408  0.2425
  641TMC3    H2 9548   3.390   1.943   9.300 -0.4158 -0.4777  2.0943
  641TMC3    C7 9549   3.302   2.133   9.164  0.1781 -0.5819  0.2770
  641TMC3    C8 9550   3.286   1.828   9.528  0.0126  0.3716  0.0792
  641TMC3    O1 9551   3.386   2.061   9.109  0.1006 -0.2853  0.0047
  641TMC3    O2 9552   3.200   1.766   9.585  0.0641 -0.2395 -0.0095
  642TMC3    C1 9553   3.740   2.745  12.557  0.7313  0.1510 -0.1233
  642TMC3    C2 9554   3.783   2.711  12.682 -0.0880  0.0629  0.2774
  642TMC3    C3 9555   3.815   2.584  12.717  0.2044  0.9258  0.2919
  642TMC3    C4 9556   3.729   2.643  12.466 -0.3923 -0.4623 -0.1125
  642TMC3    C5 9557   3.762   2.519  12.506 -0.1165  0.0851  0.7616
  642TMC3    C6 9558   3.809   2.484  12.630  0.1123  1.3050 -0.6742
  642TMC3     C 9559   3.680   2.877  12.530 -0.5602  0.0708  0.3894
  642TMC3     O 9560   3.685   2.910  12.408 -0.2928 -0.9666  0.0886
  642TMC3     H 9561   3.818   2.791  12.747 -1.6169 -1.1059  2.5381
  642TMC3    H1 9562   3.690   2.661  12.367 -0.0291  1.2016  0.0404
  642TMC3    H2 9563   3.837   2.382  12.654  1.8750  1.8235 -0.5405
  642TMC3    C7 9564   3.703   2.414  12.430  0.9138  0.3997 -0.1044
  642TMC3    C8 9565   3.872   2.551  12.845 -0.7221 -0.2895  0.1355
  642TMC3    O1 9566   3.690   2.438  12.306  0.6304 -0.4192  0.3534
  642TMC3    O2 9567   3.960   2.468  12.863  0.4802 -0.2726  0.5845
  643TMC3    C1 9568   3.332   2.390   0.465 -0.3048  0.1965 -1.0796
  643TMC3    C2 9569   3.200   2.375   0.502 -0.1733  0.0923 -0.0260
  643TMC3    C3 9570   3.113   2.302   0.429  0.1988 -0.4458 -0.8570
  643TMC3    C4 9571   3.380   2.335   0.358 -0.4004 -0.6188 -0.2040
  643TMC3    C5 9572   3.304   2.253   0.285  0.0422 -0.4871  0.9075
  643TMC3    C6 9573   3.173   2.227   0.322 -0.1002 -0.0974  0.3984
  643TMC3     C 9574   3.373   2.525   0.500  0.4798 -0.5608  0.0756
  643TMC3     O 9575   3.287   2.609   0.482  0.0771  0.5199 -0.0172
  643TMC3     H 9576   3.155   2.421   0.590  1.0890  3.0278 -0.9221
  643TMC3    H1 9577   3.474   2.376   0.322 -1.0201 -1.1695 -2.4752
  643TMC3    H2 9578   3.110   2.159   0.265 -1.0774  1.0972  0.0370
  643TMC3    C7 9579   3.348   2.244   0.140 -1.0587 -0.1268  0.3621
  643TMC3    C8 9580   2.994   2.373   0.385  0.3608 -0.2055  0.8939
  643TMC3    O1 9581   3.444   2.310   0.098 -0.2349  0.6674  0.3253
  643TMC3    O2 9582   2.923   2.308   0.305 -0.3973  0.0648  0.3682
  644MPD2     C 9583   2.980   2.796  10.045  0.0888  0.6883  0.0664
  644MPD2    C1 9584   3.039   2.807   9.919  0.2110 -0.4562  1.0060
  644MPD2    C2 9585   3.082   2.931   9.876  0.8009 -0.2147 -0.4711
  644MPD2    C3 9586   3.077   3.036   9.965 -0.0284 -0.3692  0.4927
  644MPD2    C4 9587   3.023   3.027  10.088 -0.5584  0.1647  0.6105
  644MPD2    C5 9588   2.963   2.909  10.123 -0.2045  0.4684 -0.0446
  644MPD2     H 9589   3.125   2.958   9.780 -1.4552  3.3350 -0.4888
  644MPD2    H1 9590   3.024   3.111  10.157 -1.9699 -0.3457  1.2479
  644MPD2    H2 9591   2.951   2.699  10.084  1.3413  0.9562  1.6634
  644MPD2    H3 9592   2.921   2.901  10.222  0.3402  0.9436  0.2251
  644MPD2     N 9593   3.134   3.154   9.922  1.1085 -0.2182  0.2152
  644MPD2    H5 9594   3.151   3.173   9.824  2.6799  3.5014  1.2387
  644MPD2    N1 9595   3.050   2.686   9.839  0.3968  0.1896  0.1191
  644MPD2    H7 9596   3.015   2.604   9.889  0.3140  0.9793  1.3691
  645TMC3    C1 9597   3.255   3.361   9.940 -0.0191 -0.2734  0.3140
  645TMC3    C2 9598   3.311   3.454  10.024 -0.0883  0.2641 -0.0330
  645TMC3    C3 9599   3.347   3.570   9.976  0.1614  0.0930 -0.3005
  645TMC3    C4 9600   3.225   3.399   9.808 -0.6131 -0.1511 -0.0045
  645TMC3    C5 9601   3.262   3.519   9.763 -0.3567  0.7136  0.1719
  645TMC3    C6 9602   3.324   3.611   9.846  0.0797 -0.5965  0.0586
  645TMC3     C 9603   3.185   3.253  10.006 -0.1869 -0.7154  0.2725
  645TMC3     O 9604   3.204   3.259  10.127 -0.2557  0.1924  0.1149
  645TMC3     H 9605   3.337   3.428  10.126 -1.8119 -2.6081 -0.3084
  645TMC3    H1 9606   3.175   3.333   9.738 -1.1597  0.4579 -0.1956
  645TMC3    H2 9607   3.371   3.702   9.809  0.3859 -1.0351 -0.6237
  645TMC3    C7 9608   3.194   3.568   9.643  0.0245 -0.2591  0.8428
  645TMC3    C8 9609   3.456   3.631  10.055  0.4117  0.5336 -0.4843
  645TMC3    O1 9610   3.144   3.484   9.573  0.4572 -0.5335  0.2472
  645TMC3    O2 9611   3.516   3.562  10.137 -0.4815  0.7478  0.1834
  646MPD2     C 9612   2.952   1.688  14.545  0.1840 -1.0479 -0.2281
  646MPD2    C1 9613   2.886   1.709  14.662  0.2026 -0.1770 -0.0510
  646MPD2    C2 9614   2.760   1.774  14.650  0.3226  0.3575 -0.0683
  646MPD2    C3 9615   2.710   1.825  14.529 -0.4496  0.2405 -0.1591
  646MPD2    C4 9616   2.789   1.807  14.415  0.2639 -0.4548 -0.1807
  646MPD2    C5 9617   2.903   1.734  14.420 -0.9876  0.1996 -0.1575
  646MPD2     H 9618   2.693   1.776  14.735 -0.0633  0.2173 -0.3664
  646MPD2    H1 9619   2.767   1.860  14.323  0.3284  0.3498  0.2689
  646MPD2    H2 9620   3.046   1.635  14.535  0.4821 -0.6331  0.3996
  646MPD2    H3 9621   2.971   1.736  14.336 -1.8895 -0.8777 -0.9026
  646MPD2     N 9622   2.584   1.883  14.529  0.4907  0.5911  0.7376
  646MPD2    H5 9623   2.543   1.892  14.622  0.3013 -1.6645  0.8820
  646MPD2    N1 9624   2.932   1.650  14.784  0.1694  0.1761  0.0411
  646MPD2    H7 9625   3.016   1.594  14.775 -1.0408 -1.5949 -0.1619
  647TMC3    C1 9626   2.958   1.624  15.024 -0.1124 -0.5443 -0.2292
  647TMC3    C2 9627   2.872   1.620  15.139  1.0732  0.3862 -0.1668
  647TMC3    C3 9628   2.911   1.533  15.240  0.4573  0.0296  0.7476
  647TMC3    C4 9629   3.075   1.553  15.012  0.9327 -0.0307  0.2649
  647TMC3    C5 9630   3.115   1.483  15.124 -0.0893 -0.3892 -0.0699
  647TMC3    C6 9631   3.035   1.466  15.233 -0.6929 -0.0553  0.4735
  647TMC3     C 9632   2.886   1.685  14.909 -0.0401 -0.2838 -0.1383
  647TMC3     O 9633   2.804   1.767  14.936 -0.2953 -0.3467 -0.4083
  647TMC3     H 9634   2.782   1.680  15.146  2.2508  1.8670  2.5743
  647TMC3    H1 9635   3.141   1.574  14.928 -0.8776  2.9149 -0.4251
  647TMC3    H2 9636   3.070   1.408  15.318 -1.6273  0.6555  1.3432
  647TMC3    C7 9637   3.246   1.433  15.142  0.4372  0.1403  0.5027
  647TMC3    C8 9638   2.808   1.471  15.318 -0.2519  0.3173  0.3863
  647TMC3    O1 9639   3.284   1.434  15.256 -0.4413  0.0363 -0.2359
  647TMC3    O2 9640   2.844   1.423  15.424 -0.2267 -0.3666 -0.4607
  648TMC3    C1 9641   1.554   4.108  16.050 -0.4021  0.5045 -0.4448
  648TMC3    C2 9642   1.597   3.997  15.989  0.1291  0.2203  0.2071
  648TMC3    C3 9643   1.639   4.008  15.861 -0.1377  0.0892 -0.2506
  648TMC3    C4 9644   1.540   4.228  15.985 -0.2555 -0.2471  0.1761
  648TMC3    C5 9645   1.574   4.229  15.846 -0.7008  0.5930 -0.1885
  648TMC3    C6 9646   1.630   4.120  15.783 -0.3989 -0.0455 -0.2891
  648TMC3     C 9647   1.553   4.116  16.195  0.3631 -0.3645  0.4592
  648TMC3     O 9648   1.484   4.202  16.244  0.4422  0.0497 -0.2616
  648TMC3     H 9649   1.595   3.897  16.031 -1.0748 -0.5960 -1.8432
  648TMC3    H1 9650   1.502   4.315  16.038 -0.3022 -0.3820  0.3657
  648TMC3    H2 9651   1.669   4.130  15.682 -0.0552  2.1937  0.0661
  648TMC3    C7 9652   1.583   4.360  15.781  0.1731 -0.2742 -0.5570
  648TMC3    C8 9653   1.662   3.883  15.796  0.7363 -0.3191 -0.5070
  648TMC3    O1 9654   1.673   4.377  15.698  0.0036  0.5505 -0.3686
  648TMC3    O2 9655   1.567   3.805  15.788 -0.2272  0.3123  0.0152
  649TMC3    C1 9656   1.093   0.206  13.222 -0.3509  0.1100  0.2578
  649TMC3    C2 9657   1.191   0.115  13.265 -0.6723  0.0250 -0.5511
  649TMC3    C3 9658   1.159   0.049  13.379  0.6474  0.0802 -0.5944
  649TMC3    C4 9659   0.970   0.219  13.288 -0.8527  0.4697  0.0208
  649TMC3    C5 9660   0.945   0.139  13.395 -0.3966 -0.0611 -0.0124
  649TMC3    C6 9661   1.039   0.057  13.442 -0.0586 -0.0974  0.8297
  649TMC3     C 9662   1.120   0.274  13.098 -0.2186  0.7229 -0.1164
  649TMC3     O 9663   1.025   0.317  13.037 -0.0118 -0.3630  0.1885
  649TMC3     H 9664   1.277   0.089  13.204 -0.9132 -2.5318  0.2368
  649TMC3    H1 9665   0.900   0.296  13.256  0.2447  1.2249 -0.5903
  649TMC3    H2 9666   1.037   0.001  13.534  1.4375 -1.0673  0.2682
  649TMC3    C7 9667   0.814   0.133  13.455  0.0973 -0.4852  0.1250
  649TMC3    C8 9668   1.243   4.675  13.420  0.3437  0.1824 -0.2092
  649TMC3    O1 9669   0.748   0.232  13.461 -0.3961  0.4389  0.1726
  649TMC3    O2 9670   1.188   4.584  13.482  0.0115  0.4189  0.0145
  650TMC3    C1 9671   3.114   2.069  12.651  0.4113  0.1719 -0.9827
  650TMC3    C2 9672   3.070   2.199  12.666 -0.3249 -0.4004 -0.2421
  650TMC3    C3 9673   2.944   2.226  12.621  0.3998  0.7814  0.1139
  650TMC3    C4 9674   3.026   1.972  12.609  0.3771  0.0915  0.3377
  650TMC3    C5 9675   2.902   2.010  12.555  0.5377  0.7386 -0.3012
  650TMC3    C6 9676   2.863   2.141  12.559  0.5447  0.3905  0.8348
  650TMC3     C 9677   3.240   2.035  12.716  0.1327 -0.1821  0.5139
  650TMC3     O 9678   3.289   2.133  12.777  0.1926 -0.0710  0.6627
  650TMC3     H 9679   3.122   2.283  12.711 -1.0848 -0.3860  0.6222
  650TMC3    H1 9680   3.047   1.866  12.603 -0.4781 -0.0981  0.6475
  650TMC3    H2 9681   2.760   2.173  12.549  0.8064  0.3329 -1.9356
  650TMC3    C7 9682   2.812   1.906  12.497  0.4529 -0.5541  0.0746
  650TMC3    C8 9683   2.916   2.373  12.602 -0.0604 -0.0425  0.0051
  650TMC3    O1 9684   2.829   1.788  12.532 -0.1924  0.0374 -0.4048
  650TMC3    O2 9685   2.961   2.442  12.693  0.2032 -0.3757  0.1955
  651MPD2     C 9686   2.177   4.080  10.902 -0.3875  0.4643 -0.0952
  651MPD2    C1 9687   2.173   4.192  10.981  0.1691 -0.2510  0.0158
  651MPD2    C2 9688   2.286   4.275  10.994  0.2027  0.5880 -0.3902
  651MPD2    C3 9689   2.400   4.245  10.927 -0.1513 -0.1585  0.4991
  651MPD2    C4 9690   2.416   4.124  10.857  0.3677 -0.6453 -0.6916
  651MPD2    C5 9691   2.301   4.047  10.844 -0.1252 -0.2719  0.2108
  651MPD2     H 9692   2.289   4.360  11.061 -1.0674 -0.1837  0.6390
  651MPD2    H1 9693   2.507   4.097  10.806  0.0471  0.5541 -1.9018
  651MPD2    H2 9694   2.091   4.016  10.884 -0.7433  1.1166 -0.7139
  651MPD2    H3 9695   2.303   3.950  10.797  2.8631 -0.4138  0.6003
  651MPD2     N 9696   2.498   4.337  10.947  0.0442  0.0880  0.3331
  651MPD2    H5 9697   2.466   4.419  10.997  0.1832  0.0401  0.5022
  651MPD2    N1 9698   2.052   4.237  11.041  0.8071 -0.3417  0.5250
  651MPD2    H7 9699   2.057   4.327  11.088  0.6377  0.7033 -1.4676
  652TMC3    C1 9700   2.901   4.567  10.894 -0.4535  0.4232  0.2926
  652TMC3    C2 9701   2.826   4.454  10.879 -0.0152 -0.0428 -0.1083
  652TMC3    C3 9702   2.692   4.459  10.904  0.4218  0.5245  0.1249
  652TMC3    C4 9703   2.852   4.690  10.938 -0.0504  0.9465 -0.0615
  652TMC3    C5 9704   2.720   4.680  10.962 -0.3477  0.6742 -0.0999
  652TMC3    C6 9705   2.636   4.573  10.942  0.6527 -0.3201  0.6535
  652TMC3     C 9706   3.031   4.538  10.949  0.6156 -0.0872  0.0070
  652TMC3     O 9707   3.051   4.423  10.985  0.1576 -0.2347 -0.1031
  652TMC3     H 9708   2.864   4.362  10.837 -2.0662  0.1162 -2.3155
  652TMC3    H1 9709   2.916   0.027  10.986 -1.3021  1.3908  0.9157
  652TMC3    H2 9710   2.528   4.580  10.950  0.5323 -1.6718  0.2534
  652TMC3    C7 9711   2.652   0.064  11.012 -0.4564  0.9165  0.7072
  652TMC3    C8 9712   2.624   4.330  10.885 -0.4472 -0.3284 -0.8346
  652TMC3    O1 9713   2.542   0.036  11.061 -0.0688  0.0274 -0.4561
  652TMC3    O2 9714   2.685   4.240  10.831 -0.2446 -0.5980 -0.7427
  653MPD2     C 9715   1.330   4.106   0.181 -0.3757  0.5308 -0.1930
  653MPD2    C1 9716   1.271   4.198   0.099  0.9071  0.4426  0.2170
  653MPD2    C2 9717   1.217   4.155  17.724 -0.2509 -0.0816  0.7621
  653MPD2    C3 9718   1.223   4.024  17.692  0.6784 -0.2811  0.0859
  653MPD2    C4 9719   1.268   3.929   0.036  0.5872  0.1521  0.5724
  653MPD2    C5 9720   1.331   3.973   0.149  0.4838  0.1330  0.2766
  653MPD2     H 9721   1.186   4.230  17.652 -1.2550 -0.7432  0.5076
  653MPD2    H1 9722   1.269   3.821   0.026  0.3748  0.1607  0.4585
  653MPD2    H2 9723   1.380   4.130   0.274 -1.0495 -1.0647  0.5741
  653MPD2    H3 9724   1.380   3.899   0.210  1.3490  0.1934 -0.3434
  653MPD2     N 9725   1.180   3.989  17.563 -0.0299 -0.5391  0.3238
  653MPD2    H5 9726   1.154   4.070  17.507  3.0227  0.2278 -0.0108
  653MPD2    N1 9727   1.275   4.344   0.112  0.1943 -0.2873  0.7210
  653MPD2    H7 9728   1.224   4.401   0.046 -1.5869 -3.4044 -0.6091
  654TMC3    C1 9729   1.144   3.852  17.369  0.2933 -0.4948  0.6344
  654TMC3    C2 9730   1.029   3.927  17.338  0.2494  0.4732 -0.7239
  654TMC3    C3 9731   0.968   3.892  17.220 -0.4600  0.4872 -0.0068
  654TMC3    C4 9732   1.199   3.762  17.284  0.1805 -0.3570  0.1471
  654TMC3    C5 9733   1.130   3.736  17.165  0.0465 -0.5995  0.1438
  654TMC3    C6 9734   1.021   3.804  17.130 -0.3776 -0.6170  0.2860
  654TMC3     C 9735   1.204   3.863  17.497 -0.6067 -0.0960  0.0261
  654TMC3     O 9736   1.269   3.768  17.539 -0.0412  0.4691 -0.4209
  654TMC3     H 9737   0.970   3.986  17.407  0.7544 -2.9678  2.6387
  654TMC3    H1 9738   1.298   3.719  17.295  0.9449  0.8048 -2.0491
  654TMC3    H2 9739   0.964   3.783  17.040 -0.2045 -1.8393  0.4678
  654TMC3    C7 9740   1.170   3.639  17.060 -0.2848  0.3430  0.7058
  654TMC3    C8 9741   0.831   3.933  17.197 -0.0211  0.9343 -0.7832
  654TMC3    O1 9742   1.136   3.665  16.946  0.0951 -0.2766  0.1220
  654TMC3    O2 9743   0.794   4.045  17.232  0.4129 -0.5695  0.0108
  655MPD2     C 9744   2.430   4.314  15.764 -0.2108  0.8555  0.0100
  655MPD2    C1 9745   2.362   4.364  15.654  0.3417 -0.3667 -0.4440
  655MPD2    C2 9746   2.386   4.305  15.534 -0.4745  0.0016 -0.4748
  655MPD2    C3 9747   2.469   4.191  15.526  0.1281  0.5532 -0.6789
  655MPD2    C4 9748   2.513   4.131  15.643  0.2755  0.6118  0.0236
  655MPD2    C5 9749   2.508   4.202  15.757  0.0439  0.0995  0.0500
  655MPD2     H 9750   2.328   4.333  15.447 -2.0551  0.6110  0.7653
  655MPD2    H1 9751   2.566   4.036  15.646 -1.5719 -0.4144  0.0370
  655MPD2    H2 9752   2.429   4.364  15.860  0.7233 -1.4937  1.2566
  655MPD2    H3 9753   2.548   4.159  15.849 -1.1703 -0.3318  0.3703
  655MPD2     N 9754   2.477   4.122  15.405 -0.3579 -0.4443 -0.6781
  655MPD2    H5 9755   2.511   4.026  15.404  0.3208 -0.2346  2.2606
  655MPD2    N1 9756   2.275   4.478  15.666 -0.1967  0.0890 -0.0346
  655MPD2    H7 9757   2.229   4.513  15.583 -1.3310  0.2872  0.6832
  656TMC3    C1 9758   2.104   4.592  15.779 -0.5994  0.4393  0.2390
  656TMC3    C2 9759   2.019   4.562  15.882 -0.3395 -0.6853 -0.3698
  656TMC3    C3 9760   1.907   4.645  15.891 -0.1598 -0.6833  0.0774
  656TMC3    C4 9761   2.100   4.702  15.692 -0.2832  0.1710 -0.0873
  656TMC3    C5 9762   1.980   0.034  15.703 -0.1394  0.0720  0.1580
  656TMC3    C6 9763   1.882   0.001  15.795  0.3358  0.4957  0.6045
  656TMC3     C 9764   2.230   4.524  15.791 -0.4009  0.3337  0.0036
  656TMC3     O 9765   2.255   4.497  15.906  0.2763  0.3087 -0.0392
  656TMC3     H 9766   2.029   4.472  15.942  0.8574  0.2287  0.8030
  656TMC3    H1 9767   2.179   4.736  15.626 -1.0913 -0.1456 -1.2131
  656TMC3    H2 9768   1.787   0.050  15.779 -0.3709 -0.2745  2.5017
  656TMC3    C7 9769   1.973   0.149  15.619 -0.3870 -0.2645 -0.1540
  656TMC3    C8 9770   1.815   4.630  15.999  0.3992 -0.5895 -0.3030
  656TMC3    O1 9771   2.058   0.182  15.536 -0.5886  0.0725 -0.2302
  656TMC3    O2 9772   1.728   4.715  16.002  0.0922 -0.3973  0.5348
  657TMC3    C1 9773   1.082   3.417  15.364  0.5798 -0.0036  0.2550
  657TMC3    C2 9774   0.976   3.409  15.450 -0.3762 -0.4723 -0.7979
  657TMC3    C3 9775   0.943   3.531  15.513 -0.2771 -0.2203 -0.1983
  657TMC3    C4 9776   1.154   3.527  15.349 -0.2713  0.0499 -0.9650
  657TMC3    C5 9777   1.110   3.645  15.410  0.4035  0.0986  0.4991
  657TMC3    C6 9778   1.001   3.648  15.498 -0.3041 -0.3124  0.3892
  657TMC3     C 9779   1.130   3.288  15.324  0.5418 -1.1388 -0.2157
  657TMC3     O 9780   1.047   3.201  15.324 -0.3161 -0.3910 -0.1640
  657TMC3     H 9781   0.918   3.320  15.474  1.1762 -1.3747 -0.4085
  657TMC3    H1 9782   1.249   3.532  15.297  0.8336 -0.7173  0.9869
  657TMC3    H2 9783   0.968   3.740  15.544 -0.3646  0.8284 -1.9072
  657TMC3    C7 9784   1.170   3.769  15.370 -0.8721 -0.5554 -0.6162
  657TMC3    C8 9785   0.825   3.522  15.595 -0.0856  0.3812 -0.5233
  657TMC3    O1 9786   1.218   3.772  15.257  0.2702 -0.3535  0.0967
  657TMC3    O2 9787   0.811   3.604  15.681 -0.3901 -0.0486  0.3382
  658MPD2     C 9788   2.620   4.541  14.803  0.3327 -0.0299  0.1260
  658MPD2    C1 9789   2.572   4.425  14.755 -0.0601  0.2911 -0.2014
  658MPD2    C2 9790   2.559   4.405  14.617  0.3462 -0.6323  0.0445
  658MPD2    C3 9791   2.586   4.505  14.533 -0.2178  0.5280 -0.0311
  658MPD2    C4 9792   2.616   4.630  14.583  0.5188  0.3268 -0.6040
  658MPD2    C5 9793   2.646   4.643  14.720  0.0552 -0.3675 -0.3381
  658MPD2     H 9794   2.524   4.310  14.578  2.4676 -0.7756 -1.5504
  658MPD2    H1 9795   2.632   4.720  14.525  0.1293  0.7045 -0.1249
  658MPD2    H2 9796   2.635   4.554  14.910 -1.0408  2.6159 -0.0080
  658MPD2    H3 9797   2.672   0.007  14.752  1.3893 -0.6553 -0.4973
  658MPD2     N 9798   2.573   4.480  14.393 -0.4583 -0.3625 -1.0483
  658MPD2    H5 9799   2.538   4.393  14.354 -1.9246 -0.8792  1.4188
  658MPD2    N1 9800   2.559   4.322  14.848 -0.4877 -0.2936  0.5823
  658MPD2    H7 9801   2.587   4.343  14.943  3.7185 -1.4195 -0.3932
  659TMC3    C1 9802   2.478   4.120  14.942  0.1509 -0.8538 -0.1895
  659TMC3    C2 9803   2.527   4.165  15.061 -0.1326  0.4565  0.4824
  659TMC3    C3 9804   2.472   4.103  15.166  0.4499  0.4903  0.2639
  659TMC3    C4 9805   2.385   4.018  14.928 -0.2211  0.4063  0.4361
  659TMC3    C5 9806   2.329   3.971  15.043 -0.4053 -0.2419 -0.2679
  659TMC3    C6 9807   2.373   4.015  15.163  0.1082 -0.1015 -0.4348
  659TMC3     C 9808   2.497   4.199  14.822  0.1025 -0.2755  0.4245
  659TMC3     O 9809   2.438   4.164  14.719 -0.3049 -0.5275  0.1448
  659TMC3     H 9810   2.600   4.244  15.070 -1.2630  1.6265 -0.5655
  659TMC3    H1 9811   2.345   3.992  14.831  0.0513 -2.8464  1.2091
  659TMC3    H2 9812   2.319   3.981  15.250 -0.6648  0.9900 -0.4917
  659TMC3    C7 9813   2.184   3.977  15.037 -0.1472  0.2963  0.5145
  659TMC3    C8 9814   2.464   4.183  15.284  0.7737 -0.2221  0.1329
  659TMC3    O1 9815   2.118   4.069  15.078  0.2855  0.0364 -0.4925
  659TMC3    O2 9816   2.473   4.303  15.262  0.1031  0.3260  0.5939
  660MPD2     C 9817   0.320   3.206  12.827  0.8985  0.2353 -0.0521
  660MPD2    C1 9818   0.188   3.193  12.858 -0.1600  0.0355 -0.3515
  660MPD2    C2 9819   0.143   3.151  12.984 -0.4887 -0.3240 -0.0206
  660MPD2    C3 9820   0.247   3.118  13.068 -0.7227  0.3744 -0.0231
  660MPD2    C4 9821   0.379   3.127  13.031  0.0857 -0.3349  0.2439
  660MPD2    C5 9822   0.417   3.174  12.915  0.5451 -0.1792 -0.9571
  660MPD2     H 9823   0.042   3.129  13.015 -0.2946  0.9043  1.5049
  660MPD2    H1 9824   0.449   3.088  13.104 -1.2588  0.6162  2.0330
  660MPD2    H2 9825   0.361   3.240  12.732 -0.0260  1.9303  0.1509
  660MPD2    H3 9826   0.523   3.176  12.895  0.5886 -0.6274 -0.7537
  660MPD2     N 9827   0.223   3.077  13.196  0.4454  0.0461 -0.0662
  660MPD2    H5 9828   0.302   3.052  13.254  1.3893 -0.6737 -1.6831
  660MPD2    N1 9829   0.097   3.222  12.757  0.1886 -0.2880  0.0506
  660MPD2    H7 9830   0.136   3.260  12.671 -2.9372  1.8625 -0.4308
  661TMC3    C1 9831   4.634   3.238  12.639 -0.1642 -0.5911  0.1542
  661TMC3    C2 9832   4.702   3.296  12.536 -0.3229  0.2019  0.6218
  661TMC3    C3 9833   4.658   3.278  12.405 -0.4238  0.3587 -0.1855
  661TMC3    C4 9834   4.534   3.157  12.611 -0.3264  0.2859  0.0225
  661TMC3    C5 9835   4.503   3.129  12.483 -0.6403 -0.3424  0.2163
  661TMC3    C6 9836   4.563   3.187  12.372  0.0612 -0.7632 -0.5504
  661TMC3     C 9837   4.699   3.216  12.766 -0.3157 -0.1413 -0.1301
  661TMC3     O 9838   4.621   3.178  12.854  0.0880 -0.4033 -0.0746
  661TMC3     H 9839   0.058   3.352  12.547  1.2104 -2.4184  1.0821
  661TMC3    H1 9840   4.480   3.106  12.690 -1.4901  2.5012  0.6476
  661TMC3    H2 9841   4.558   3.160  12.267 -1.0763  0.1126 -0.7110
  661TMC3    C7 9842   4.396   3.034  12.471 -0.2897 -0.4806  0.3963
  661TMC3    C8 9843   0.007   3.331  12.297 -0.2171 -0.9496  0.5921
  661TMC3    O1 9844   4.388   2.954  12.563  0.7739 -0.1322  0.7028
  661TMC3    O2 9845   0.007   3.269  12.191 -0.6518  0.0393 -0.4065
  662MPD2     C 9846   1.237   2.792  16.892 -0.5622 -0.0877 -0.1084
  662MPD2    C1 9847   1.126   2.713  16.879 -0.9014 -0.0577  0.9536
  662MPD2    C2 9848   1.009   2.743  16.951  0.3805  0.3522  0.8587
  662MPD2    C3 9849   1.007   2.861  17.032 -0.0534  0.1652  0.2540
  662MPD2    C4 9850   1.124   2.935  17.038 -0.2616  0.2038  0.6651
  662MPD2    C5 9851   1.227   2.907  16.963 -0.1014  0.0132  0.0239
  662MPD2     H 9852   0.931   2.669  16.966  1.0251 -0.4495  0.2159
  662MPD2    H1 9853   1.120   3.031  17.088 -0.2336 -0.5128  2.0521
  662MPD2    H2 9854   1.325   2.779  16.831 -0.8234 -1.5225 -0.1676
  662MPD2    H3 9855   1.305   2.981  16.968 -0.0624 -0.0924  0.8861
  662MPD2     N 9856   0.900   2.904  17.107 -0.6241  0.6057 -0.2736
  662MPD2    H5 9857   0.912   2.974  17.180 -0.6751  1.2029 -0.8362
  662MPD2    N1 9858   1.133   2.580  16.827 -0.5417  0.3349  0.3807
  662MPD2    H7 9859   1.059   2.512  16.839 -1.2468  0.7966 -1.3124
  663TMC3    C1 9860   1.233   2.374  16.808 -0.9810 -0.1519 -0.7037
  663TMC3    C2 9861   1.332   2.300  16.870 -0.4099 -0.0093  0.0761
  663TMC3    C3 9862   1.307   2.168  16.899 -0.1068  0.8234 -0.5163
  663TMC3    C4 9863   1.107   2.329  16.777  0.1204  0.1044  0.0528
  663TMC3    C5 9864   1.084   2.200  16.811  0.3593 -0.8854 -0.5059
  663TMC3    C6 9865   1.181   2.124  16.879 -0.0758 -0.0557 -0.1675
  663TMC3     C 9866   1.252   2.518  16.798  0.2232  0.0327 -0.1604
  663TMC3     O 9867   1.365   2.557  16.810  0.0668 -0.2553 -0.3928
  663TMC3     H 9868   1.406   2.358  16.924  1.1131 -0.4690 -1.5292
  663TMC3    H1 9869   1.029   2.382  16.725 -1.5242  0.2451  2.6683
  663TMC3    H2 9870   1.174   2.016  16.890  0.7098  0.0778  1.5972
  663TMC3    C7 9871   0.964   2.142  16.759  0.2846 -0.4776  0.0615
  663TMC3    C8 9872   1.377   2.135  17.025  0.1891  0.3728 -0.1382
  663TMC3    O1 9873   0.904   2.193  16.665  0.4325  0.1476  0.0834
  663TMC3    O2 9874   1.493   2.159  17.037 -0.0827  0.0156 -0.1495
  664MPD2     C 9875   3.355   1.235  17.646  0.0985 -0.9291  0.3873
  664MPD2    C1 9876   3.489   1.249  17.692 -0.1779  1.0271 -0.4056
  664MPD2    C2 9877   3.514   1.218   0.084  0.6456  0.2871  0.4410
  664MPD2    C3 9878   3.411   1.179   0.169  0.8078  0.9992  0.6059
  664MPD2    C4 9879   3.284   1.151   0.120  0.1817  0.2512 -0.5300
  664MPD2    C5 9880   3.265   1.185  17.734 -0.2519 -0.0327 -0.2500
  664MPD2     H 9881   3.614   1.230   0.124  0.4312  1.9223  0.4973
  664MPD2    H1 9882   3.191   1.122   0.167  0.2518  0.0387 -0.5187
  664MPD2    H2 9883   3.317   1.243  17.545  0.3273  0.3057  0.4057
  664MPD2    H3 9884   3.164   1.178  17.696 -0.6619 -1.1229  1.0414
  664MPD2     N 9885   3.444   1.164   0.308  0.2577  0.1729 -0.7222
  664MPD2    H5 9886   3.536   1.193   0.341  0.2801  0.1435 -0.7582
  664MPD2    N1 9887   3.598   1.297  17.615 -0.5254 -0.6482 -0.5884
  664MPD2    H7 9888   3.687   1.299  17.663 -0.4882 -0.3884 -0.6669
  665TMC3    C1 9889   3.395   1.153   0.549  0.0611  0.6890 -0.2265
  665TMC3    C2 9890   3.292   1.174   0.636 -0.3040  0.4359 -0.0152
  665TMC3    C3 9891   3.322   1.244   0.750  0.1422 -0.5313 -0.1037
  665TMC3    C4 9892   3.522   1.191   0.575  0.0511  0.2791 -0.3669
  665TMC3    C5 9893   3.541   1.260   0.687 -0.3718 -0.5436 -0.0424
  665TMC3    C6 9894   3.449   1.290   0.782  0.1037  0.1163  0.1958
  665TMC3     C 9895   3.356   1.117   0.410  0.0715  0.4611  0.0148
  665TMC3     O 9896   3.240   1.067   0.397 -0.1867  0.1782  0.5687
  665TMC3     H 9897   3.199   1.122   0.614  0.1553 -0.3729 -0.0284
  665TMC3    H1 9898   3.605   1.161   0.512  1.8469  1.2936  1.5474
  665TMC3    H2 9899   3.468   1.341   0.875 -1.1436  4.3285 -1.8358
  665TMC3    C7 9900   3.661   1.343   0.672 -0.8196 -0.1835  0.8538
  665TMC3    C8 9901   3.221   1.264   0.852  0.6623  0.1044  1.1234
  665TMC3    O1 9902   3.703   1.351   0.558  0.1563 -0.8958  0.1629
  665TMC3    O2 9903   3.258   1.301   0.963 -0.0262 -0.3306 -0.1187
  666TMC3    C1 9904   2.420   0.431  10.268 -0.0374 -0.5167  0.6730
  666TMC3    C2 9905   2.445   0.402  10.134  0.3430 -0.4472 -0.2881
  666TMC3    C3 9906   2.389   0.488  10.040  0.3333  0.1532  0.4419
  666TMC3    C4 9907   2.352   0.539  10.315  0.1763 -0.1867 -0.7933
  666TMC3    C5 9908   2.311   0.630  10.217  0.4464  0.7447 -0.1506
  666TMC3    C6 9909   2.323   0.607  10.082 -0.0539 -0.3927 -0.1954
  666TMC3     C 9910   2.459   0.337  10.378  0.2373  0.3397 -0.1699
  666TMC3     O 9911   2.505   0.398  10.475  0.1756 -0.0323  0.3506
  666TMC3     H 9912   2.495   0.311  10.102 -1.0539 -0.9117 -1.1667
  666TMC3    H1 9913   2.337   0.551  10.422 -0.5960 -2.3229 -0.6721
  666TMC3    H2 9914   2.291   0.680  10.008  0.9480 -1.0855 -1.3119
  666TMC3    C7 9915   2.253   0.758  10.261  0.3052  0.9561  0.1414
  666TMC3    C8 9916   2.437   0.466   9.904 -0.1897  0.6046 -0.3672
  666TMC3    O1 9917   2.260   0.778  10.384 -0.0086  0.5371 -0.4744
  666TMC3    O2 9918   2.438   0.345   9.878 -0.3243 -0.2516 -0.6785
  667MPD2     C 9919   4.393   0.730  14.563  0.6658 -0.2583 -0.3594
  667MPD2    C1 9920   4.358   0.734  14.699 -0.0776 -0.1836 -0.2745
  667MPD2    C2 9921   4.292   0.630  14.759  0.2015 -0.5868 -0.4122
  667MPD2    C3 9922   4.248   0.525  14.681  0.5202 -0.5004  0.1046
  667MPD2    C4 9923   4.277   0.519  14.542 -0.5045  0.1954 -1.2211
  667MPD2    C5 9924   4.346   0.620  14.487  0.5237 -0.7183  0.4742
  667MPD2     H 9925   4.255   0.653  14.858 -0.1780 -2.0527 -0.2229
  667MPD2    H1 9926   4.226   0.451  14.476 -2.0373  0.6088 -0.4618
  667MPD2    H2 9927   4.445   0.812  14.515 -0.7333  0.8552  0.0217
  667MPD2    H3 9928   4.358   0.630  14.380 -1.0009  0.8940  0.4419
  667MPD2     N 9929   4.173   0.418  14.737 -0.0115  1.3745  0.1128
  667MPD2    H5 9930   4.117   0.357  14.678 -0.7061  0.1930  1.9730
  667MPD2    N1 9931   4.401   0.835  14.799 -0.3860 -0.5201  0.2512
  667MPD2    H7 9932   4.364   0.828  14.894 -2.0610  0.3822 -0.3268
  668TMC3    C1 9933   4.512   1.015  14.890 -0.0240  0.6800 -0.1064
  668TMC3    C2 9934   4.617   1.100  14.889  0.6708  0.0407 -0.0693
  668TMC3    C3 9935   4.642   1.178  15.002  0.1689  0.5898  0.0868
  668TMC3    C4 9936   4.436   1.004  15.006 -0.6594  0.8326 -0.0220
  668TMC3    C5 9937   4.477   1.070  15.124 -0.5365 -0.4974  0.1353
  668TMC3    C6 9938   4.580   1.160  15.126  0.4701  0.4162  0.0339
  668TMC3     C 9939   4.500   0.921  14.780  0.3707  0.3409  0.4405
  668TMC3     O 9940   4.574   0.933  14.683 -0.1139 -0.0410  0.4152
  668TMC3     H 9941   4.689   1.100  14.807  0.1774 -1.2355 -0.4944
  668TMC3    H1 9942   4.350   0.939  15.013 -0.9048  1.0713 -0.8562
  668TMC3    H2 9943   4.591   1.217  15.217  0.6044  0.1862  0.1635
  668TMC3    C7 9944   4.421   1.026  15.247 -0.2756  0.5738 -0.3006
  668TMC3    C8 9945   4.721   1.302  14.995 -0.6066 -0.5865  0.0224
  668TMC3    O1 9946   4.500   1.016  15.341 -0.2827 -0.3244 -0.2678
  668TMC3    O2 9947   4.729   1.367  15.099  0.5278  0.0222  0.3170
  669TMC3    C1 9948   2.635   0.645  14.629  0.4118 -0.2790  0.4242
  669TMC3    C2 9949   2.533   0.615  14.542  0.6358 -0.3102 -0.0038
  669TMC3    C3 9950   2.545   0.668  14.419 -0.4847  0.0512 -0.0667
  669TMC3    C4 9951   2.734   0.742  14.610 -0.1282 -0.2086  0.5111
  669TMC3    C5 9952   2.727   0.802  14.487 -0.4690  0.6169 -0.2055
  669TMC3    C6 9953   2.639   0.765  14.391  0.3337  0.1671  0.6631
  669TMC3     C 9954   2.625   0.585  14.762 -0.3188 -0.4522 -0.0894
  669TMC3     O 9955   2.514   0.546  14.793  0.7582 -0.3240 -0.5644
  669TMC3     H 9956   2.448   0.550  14.555 -0.7178  1.3245 -0.7178
  669TMC3    H1 9957   2.801   0.763  14.692 -1.1762  1.2900  0.9901
  669TMC3    H2 9958   2.621   0.826  14.303  2.1515 -0.3306 -0.0523
  669TMC3    C7 9959   2.828   0.903  14.459  0.2255  0.2253  0.5058
  669TMC3    C8 9960   2.416   0.645  14.346 -0.1760 -0.0906 -0.3381
  669TMC3    O1 9961   2.905   0.916  14.555  0.1749 -0.2171  0.1193
  669TMC3    O2 9962   2.375   0.529  14.326 -0.2842  0.3255  0.4101
  670MPD2     C 9963   1.093   3.069  13.794 -0.5740  0.2513  0.6304
  670MPD2    C1 9964   1.163   3.174  13.850 -0.1614  0.2398 -0.5842
  670MPD2    C2 9965   1.108   3.233  13.960 -0.3253 -0.0493  0.0686
  670MPD2    C3 9966   0.982   3.212  14.001 -0.4456 -0.1264  0.2041
  670MPD2    C4 9967   0.899   3.136  13.930  0.5842  0.3172 -0.1572
  670MPD2    C5 9968   0.958   3.051  13.835  0.4933 -0.1120  0.6834
  670MPD2     H 9969   1.164   3.303  14.019  0.3845 -1.5003  1.1205
  670MPD2    H1 9970   0.792   3.129  13.948  0.5440 -0.5420 -0.6831
  670MPD2    H2 9971   1.115   2.997  13.716  0.2389  1.4695 -0.2617
  670MPD2    H3 9972   0.898   2.981  13.777  0.6030  2.1505 -2.1483
  670MPD2     N 9973   0.941   3.286  14.114  0.3037  0.9986 -0.1544
  670MPD2    H5 9974   1.016   3.318  14.175  0.6087 -1.1081  0.6129
  670MPD2    N1 9975   1.290   3.211  13.804  0.7119 -0.2105 -0.1563
  670MPD2    H7 9976   1.351   3.279  13.849 -1.8897  1.4957  0.8208
  671TMC3    C1 9977   0.827   3.305  14.308  0.4665 -0.0451 -0.1154
  671TMC3    C2 9978   0.955   3.332  14.348  0.0701  0.2420 -0.2602
  671TMC3    C3 9979   1.017   3.268  14.443  0.2450 -1.1635  0.1167
  671TMC3    C4 9980   0.762   3.208  14.376 -0.1971 -0.1372 -0.0025
  671TMC3    C5 9981   0.819   3.147  14.477  0.4138  0.3972 -0.8035
  671TMC3    C6 9982   0.947   3.167  14.512  0.6992  0.0399 -0.8622
  671TMC3     C 9983   0.819   3.280  14.167 -0.1090  0.4437 -0.3927
  671TMC3     O 9984   0.713   3.247  14.120  0.2049  0.1254 -0.2006
  671TMC3     H 9985   1.011   3.414  14.303 -0.2101  0.9937  0.7756
  671TMC3    H1 9986   0.661   3.177  14.355 -0.6855 -0.6804  3.1004
  671TMC3    H2 9987   0.982   3.126  14.606 -1.8461  1.7147  0.8180
  671TMC3    C7 9988   0.760   3.013  14.497  0.0608 -0.2110 -0.7179
  671TMC3    C8 9989   1.146   3.212  14.405 -0.2757 -0.0416  0.1315
  671TMC3    O1 9990   0.637   3.009  14.501  0.0487 -0.2184  0.0121
  671TMC3    O2 9991   1.166   3.099  14.444  0.3158  1.3283 -0.0929
  672MPD2     C 9992   1.047   3.544   0.975  0.8066 -0.2131  0.4912
  672MPD2    C1 9993   1.115   3.653   0.920 -0.4020 -0.3617 -0.2871
  672MPD2    C2 9994   1.153   3.755   1.009 -1.0642 -0.6546 -0.2746
  672MPD2    C3 9995   1.118   3.753   1.139 -1.1882 -0.1473 -0.5231
  672MPD2    C4 9996   1.032   3.656   1.188  0.4736  0.4637  0.5299
  672MPD2    C5 9997   1.005   3.546   1.108 -0.4855 -0.8279 -0.4487
  672MPD2     H 9998   1.205   3.845   0.978 -1.8310 -0.1000  0.0151
  672MPD2    H1 9999   0.981   3.665   1.283 -1.0186 -1.3669 -0.0990
  672MPD2    H210000   1.014   3.456   0.920 -1.2700 -0.0051  1.4185
  672MPD2    H310001   0.944   3.466   1.148  0.3601  0.4200  3.3620
  672MPD2     N10002   1.168   3.859   1.216  0.2962  0.5218 -0.0551
  672MPD2    H510003   1.238   3.916   1.169  0.2151  2.1868  1.8642
  672MPD2    N110004   1.163   3.663   0.788  0.7155  0.2313 -0.0589
  672MPD2    H710005   1.229   3.734   0.759 -1.6208  2.7185  0.7415
  673TMC3    C110006   1.186   3.628   0.570 -0.4319 -0.3718  0.7783
  673TMC3    C210007   1.326   3.612   0.559 -0.3238  0.1109 -0.2447
  673TMC3    C310008   1.380   3.610   0.434  0.4086  1.1470  0.1838
  673TMC3    C410009   1.100   3.636   0.462  0.4441 -0.3942 -0.8939
  673TMC3    C510010   1.161   3.628   0.339  0.5326 -0.2898 -0.4020
  673TMC3    C610011   1.301   3.620   0.316  0.0309  0.5243 -0.8898
  673TMC3     C10012   1.126   3.587   0.688 -0.7496 -0.5689 -0.9272
  673TMC3     O10013   1.028   3.515   0.676 -0.1926 -0.2858 -1.0166
  673TMC3     H10014   1.375   3.604   0.655  1.6262  0.1292 -1.2298
  673TMC3    H110015   0.995   3.625   0.483  0.1902 -0.0042 -1.9575
  673TMC3    H210016   1.348   3.603   0.220 -0.6516 -1.0623 -0.9457
  673TMC3    C710017   1.090   3.670   0.222  0.7302  0.3788 -0.5499
  673TMC3    C810018   1.520   3.596   0.415  0.2570 -0.5732  0.1650
  673TMC3    O110019   1.114   3.609   0.119 -0.1825  0.4721 -0.5006
  673TMC3    O210020   1.560   3.619   0.301  0.3025 -0.4242  0.6797
  674MPD2     C10021   1.520   3.379  17.509  0.0311  0.1924 -0.7262
  674MPD2    C110022   1.473   3.365  17.632  0.1176  0.3791  0.1759
  674MPD2    C210023   1.346   3.400  17.658 -0.0644 -0.2600 -0.4976
  674MPD2    C310024   1.256   3.437  17.561  0.1339  0.1915 -0.8266
  674MPD2    C410025   1.300   3.441  17.436 -0.5988 -0.0764 -0.3223
  674MPD2    C510026   1.436   3.421  17.408 -0.1915 -0.5517  0.0536
  674MPD2     H10027   1.301   3.385   0.012 -0.1326 -0.8408 -0.6200
  674MPD2    H110028   1.234   3.477  17.357  0.7126  1.3680 -0.7522
  674MPD2    H210029   1.625   3.372  17.482  0.2923  0.8376  0.1207
  674MPD2    H310030   1.483   3.437  17.311  2.7427 -0.5441  1.4673
  674MPD2     N10031   1.126   3.459  17.605 -0.4421 -0.0390 -0.2970
  674MPD2    H510032   1.116   3.469  17.706 -0.7226  1.0384 -0.4348
  674MPD2    N110033   1.558   3.322  17.739  0.2385  0.1690  0.0467
  674MPD2    H710034   1.657   3.312  17.717 -0.1270 -0.7023 -1.1801
  675TMC3    C110035   1.621   3.278   0.215 -0.1800  0.0019  0.5415
  675TMC3    C210036   1.585   3.240   0.340 -0.6702 -0.2437 -0.2422
  675TMC3    C310037   1.680   3.204   0.428  1.3361 -0.2172 -0.1924
  675TMC3    C410038   1.752   3.275   0.175 -0.4821 -0.4388  0.2690
  675TMC3    C510039   1.849   3.225   0.255 -0.4954 -0.4360 -0.1060
  675TMC3    C610040   1.814   3.186   0.386 -0.1247 -0.2176  0.4816
  675TMC3     C10041   1.521   3.323   0.127  0.1661 -0.1256  0.5380
  675TMC3     O10042   1.416   3.349   0.185  0.5178  0.2684 -0.0488
  675TMC3     H10043   1.484   3.266   0.368 -0.7418 -1.3339  0.5213
  675TMC3    H110044   1.779   3.324   0.082  0.2237  0.8442  1.1686
  675TMC3    H210045   1.890   3.172   0.461  0.3867  1.1287  0.2047
  675TMC3    C710046   1.989   3.224   0.213  0.3082  0.1268  0.8309
  675TMC3    C810047   1.642   3.199   0.572  0.6954 -0.0738 -0.4881
  675TMC3    O110048   2.024   3.307   0.129 -0.4948 -0.4833 -0.3913
  675TMC3    O210049   1.732   3.205   0.656  0.1966  0.2743 -0.1535
  676MPD2     C10050   3.291   2.068  11.154  0.5325  0.4560 -0.4841
  676MPD2    C110051   3.215   1.968  11.221  0.0359  0.6018  0.3205
  676MPD2    C210052   3.268   1.838  11.223 -0.7681 -0.1333 -0.8843
  676MPD2    C310053   3.390   1.809  11.165 -0.0457  0.0443 -0.3541
  676MPD2    C410054   3.462   1.908  11.107  0.2540 -0.1949 -0.2030
  676MPD2    C510055   3.409   2.035  11.100 -0.0493 -0.6964  0.6411
  676MPD2     H10056   3.208   1.763  11.273 -1.4845  0.2489 -1.1698
  676MPD2    H110057   3.559   1.888  11.063 -0.1371 -0.0363 -1.1235
  676MPD2    H210058   3.251   2.168  11.144 -0.2967 -0.0450 -2.0228
  676MPD2    H310059   3.458   2.115  11.045 -0.3086  0.4309  2.0765
  676MPD2     N10060   3.442   1.676  11.165 -0.2844 -0.3892 -0.4802
  676MPD2    H510061   3.524   1.660  11.108  0.7752 -0.7652  1.1335
  676MPD2    N110062   3.085   1.994  11.279  0.2325 -0.2736 -0.6959
  676MPD2    H710063   3.032   1.913  11.308  1.1003 -0.2881  0.8780
  677TMC3    C110064   2.921   2.106  11.400 -0.2526 -0.3235 -0.0336
  677TMC3    C210065   2.850   1.990  11.389  0.7443  0.4137  0.1220
  677TMC3    C310066   2.771   1.940  11.487 -0.3645 -0.0889 -0.2753
  677TMC3    C410067   2.900   2.189  11.501 -0.4469  0.2833 -0.2231
  677TMC3    C510068   2.803   2.149  11.598  0.2218 -0.9654  0.4921
  677TMC3    C610069   2.742   2.026  11.594  0.3211 -0.0247 -0.0094
  677TMC3     C10070   3.035   2.116  11.306  0.0672  0.1864 -0.2371
  677TMC3     O10071   3.098   2.220  11.318 -0.6938 -0.0749  0.4698
  677TMC3     H10072   2.857   1.922  11.305  0.8547  2.8197 -1.8347
  677TMC3    H110073   2.926   2.294  11.491  2.6410 -0.4001  0.4701
  677TMC3    H210074   2.671   1.995  11.670  0.2849 -0.3661 -0.1863
  677TMC3    C710075   2.755   2.246  11.698  0.4004 -0.1093 -0.5016
  677TMC3    C810076   2.687   1.831  11.454  0.7650  0.5863  0.2453
  677TMC3    O110077   2.673   2.203  11.777  0.1793  0.7276 -0.8262
  677TMC3    O210078   2.649   1.835  11.341 -0.2969  0.5397  0.2580
  678MPD2     C10079   0.426   2.321   1.159 -0.1772 -0.1996  0.0964
  678MPD2    C110080   0.393   2.205   1.107 -0.4549  0.2531  0.0054
  678MPD2    C210081   0.259   2.182   1.094 -0.0670  0.0401  0.2894
  678MPD2    C310082   0.162   2.276   1.125 -0.4446  0.0248  0.1608
  678MPD2    C410083   0.204   2.403   1.162 -0.7376  0.2705 -0.4045
  678MPD2    C510084   0.340   2.423   1.185  0.8908  1.2720  0.1104
  678MPD2     H10085   0.229   2.082   1.066 -1.3456  0.3356  0.5967
  678MPD2    H110086   0.129   2.479   1.178 -0.8963 -0.1549  0.9726
  678MPD2    H210087   0.530   2.344   1.180  0.3480 -1.8362 -0.7880
  678MPD2    H310088   0.382   2.520   1.207 -1.1419  2.1109  0.3176
  678MPD2     N10089   0.026   2.236   1.099  0.5545 -0.0413 -0.5208
  678MPD2    H510090   0.013   2.145   1.055 -2.1421 -0.7192  1.6468
  678MPD2    N110091   0.479   2.101   1.068 -0.2200 -0.1494  0.4847
  678MPD2    H710092   0.438   2.015   1.031  2.6194 -1.0386 -0.6035
  679TMC3    C110093   0.726   1.775   0.983  0.0229 -0.1675 -0.2677
  679TMC3    C210094   0.642   1.868   1.038 -0.8071 -0.8090 -0.1686
  679TMC3    C310095   0.680   1.996   1.009  1.4823  0.1154 -0.9693
  679TMC3    C410096   0.830   1.802   0.895  0.1892 -0.4432  0.6549
  679TMC3    C510097   0.861   1.934   0.867 -0.5581 -0.5122  0.2933
  679TMC3    C610098   0.787   2.028   0.927  0.0208  0.2207  0.6286
  679TMC3     C10099   0.705   1.635   1.013  0.1646  0.2684  0.5797
  679TMC3     O10100   0.781   1.558   0.961  0.2772  0.1867  0.1803
  679TMC3     H10101   0.550   1.847   1.092  0.1843 -0.3957  1.6844
  679TMC3    H110102   0.888   1.717   0.861  0.6372  0.5831 -1.1440
  679TMC3    H210103   0.818   2.130   0.907 -3.5139  1.2504  0.3940
  679TMC3    C710104   0.900   1.970   0.734  0.5219 -0.0792 -1.0728
  679TMC3    C810105   0.617   2.114   1.063 -0.1807  0.8193  0.1762
  679TMC3    O110106   0.890   2.089   0.702 -0.4759 -0.1003 -0.3560
  679TMC3    O210107   0.686   2.213   1.065 -0.4031  0.2402 -0.7251
  680MPD2     C10108   0.279   0.759  13.557 -0.3045 -0.1981 -0.3702
  680MPD2    C110109   0.347   0.673  13.641  0.0402  0.4894  0.7266
  680MPD2    C210110   0.483   0.685  13.646 -0.7011 -0.2836  0.1997
  680MPD2    C310111   0.552   0.782  13.573  0.5939  0.3414 -0.2790
  680MPD2    C410112   0.484   0.856  13.483 -0.2027  0.2177 -0.7301
  680MPD2    C510113   0.342   0.843  13.471 -0.6376  0.2338  0.4847
  680MPD2     H10114   0.534   0.619  13.715 -0.2259 -0.9819 -0.8210
  680MPD2    H110115   0.542   0.923  13.422  1.8787 -0.8299  0.0852
  680MPD2    H210116   0.171   0.770  13.560 -0.4293 -1.4888 -0.0413
  680MPD2    H310117   0.287   0.905  13.401 -0.8956 -0.6842 -0.1274
  680MPD2     N10118   0.687   0.810  13.584 -0.1078 -0.0092 -0.1564
  680MPD2    H510119   0.721   0.892  13.534  0.3252  0.4957  0.9674
  680MPD2    N110120   0.284   0.580  13.732 -0.0907 -0.9047  0.5031
  680MPD2    H710121   0.350   0.529  13.790  0.0184 -0.3439  0.8774
  681TMC3    C110122   0.129   0.451  13.832 -0.5324 -0.0251  0.0185
  681TMC3    C210123   0.105   0.500  13.957  0.2576 -0.5487  0.5552
  681TMC3    C310124   0.150   0.420  14.053 -0.4562  0.1966  0.0215
  681TMC3    C410125   0.202   0.337  13.803 -0.1937 -0.3039 -0.4874
  681TMC3    C510126   0.235   0.259  13.902 -0.6240  0.1365  0.0143
  681TMC3    C610127   0.216   0.298  14.036  0.3077  0.9187 -0.5274
  681TMC3     C10128   0.152   0.553  13.736 -0.1608 -0.5113 -0.6451
  681TMC3     O10129   0.063   0.591  13.665  0.0938 -0.6527  0.2096
  681TMC3     H10130   0.058   0.597  13.968  2.5324  0.6116  0.1337
  681TMC3    H110131   0.229   0.302  13.704  0.4458 -1.7536  0.2050
  681TMC3    H210132   0.253   0.237  14.117 -4.0897 -0.4876  0.4040
  681TMC3    C710133   0.325   0.145  13.881  0.0021 -0.0971 -1.0665
  681TMC3    C810134   0.148   0.472  14.186  0.0123 -0.0478  0.3331
  681TMC3    O110135   0.315   0.059  13.971  0.0863  0.8964  0.7131
  681TMC3    O210136   0.073   0.565  14.205  0.4809  0.0305  0.1512
  682MPD2     C10137   1.932   1.907  10.952  0.1626  0.0889 -0.5214
  682MPD2    C110138   1.950   1.782  11.007  0.4674 -0.0151 -0.7986
  682MPD2    C210139   1.937   1.764  11.148  0.3028 -1.0654  0.2941
  682MPD2    C310140   1.907   1.878  11.231  0.1696  0.1122 -0.1279
  682MPD2    C410141   1.885   2.004  11.173 -0.4067  0.4880  0.0553
  682MPD2    C510142   1.894   2.014  11.036  0.1688 -0.5019 -0.0041
  682MPD2     H10143   1.937   1.667  11.197 -0.7765 -0.8852  0.6461
  682MPD2    H110144   1.845   2.089  11.227 -0.7813  0.8005 -0.7087
  682MPD2    H210145   1.947   1.934  10.848 -2.4526  1.6438 -0.4668
  682MPD2    H310146   1.890   2.109  10.983  0.0675  1.0043  2.7069
  682MPD2     N10147   1.889   1.879  11.369 -0.4311 -0.1658 -0.3465
  682MPD2    H510148   1.862   1.965  11.414 -0.1555 -0.3872  0.2397
  682MPD2    N110149   2.001   1.672  10.939  0.3860  0.4517 -0.3140
  682MPD2    H710150   1.995   1.582  10.986 -0.9595  0.1518 -1.0478
  683TMC3    C110151   1.963   1.975  11.736  0.3876  0.1538  0.1315
  683TMC3    C210152   2.042   1.894  11.817  0.4403 -0.0389 -1.1983
  683TMC3    C310153   2.044   1.760  11.775 -0.0820 -0.1144 -0.8636
  683TMC3    C410154   1.896   1.921  11.627 -0.5888 -0.2842  0.2683
  683TMC3    C510155   1.907   1.796  11.589 -0.1365 -0.4337  0.4356
  683TMC3    C610156   1.980   1.708  11.663  0.1237 -0.3263 -0.6862
  683TMC3     C10157   1.908   2.107  11.784  0.1148  0.7673  0.3079
  683TMC3     O10158   1.886   2.195  11.702 -0.3214 -0.0357 -0.6983
  683TMC3     H10159   2.107   1.921  11.899  0.4828 -0.3109 -1.1425
  683TMC3    H110160   1.832   1.986  11.568 -1.2494 -0.6911  0.5481
  683TMC3    H210161   1.989   1.608  11.623  1.7787 -0.7641  0.7669
  683TMC3    C710162   1.923   1.771  11.450 -0.3641  0.3832  0.1030
  683TMC3    C810163   2.147   1.680  11.832 -0.6770 -0.1675  0.0214
  683TMC3    O110164   1.956   1.657  11.423  0.0183  0.8714  0.3419
  683TMC3    O210165   2.234   1.740  11.892  0.4164 -0.5280 -0.2770
  684MPD2     C10166   0.479   1.488  16.318 -0.4529 -0.3294 -0.6228
  684MPD2    C110167   0.589   1.461  16.393 -0.0428  0.0873  0.0496
  684MPD2    C210168   0.689   1.557  16.412 -0.4972  0.0905  0.2024
  684MPD2    C310169   0.667   1.684  16.353  0.2886 -0.0897 -0.4284
  684MPD2    C410170   0.548   1.715  16.298  0.2171 -0.8299 -0.1678
  684MPD2    C510171   0.457   1.615  16.281  0.2437 -0.5010 -0.5154
  684MPD2     H10172   0.773   1.522  16.470 -0.2259  1.6525  0.7333
  684MPD2    H110173   0.522   1.817  16.272 -1.3246 -0.7250  1.8100
  684MPD2    H210174   0.404   1.416  16.285 -1.8652  1.6923 -1.8580
  684MPD2    H310175   0.371   1.642  16.222  2.7518 -0.7622 -4.3275
  684MPD2     N10176   0.763   1.783  16.343  0.9086  0.1441 -0.0762
  684MPD2    H510177   0.729   1.877  16.329  0.9601  0.1958  0.1382
  684MPD2    N110178   0.627   1.338  16.452 -0.2848 -0.5045 -0.7223
  684MPD2    H710179   0.715   1.326  16.501 -1.1622  0.5852  1.0922
  685TMC3    C110180   0.627   1.094  16.469 -0.2498 -0.1534  0.7028
  685TMC3    C210181   0.542   0.991  16.450 -0.0822 -0.0446  0.3367
  685TMC3    C310182   0.575   0.876  16.388 -0.3235  0.0929  0.0185
  685TMC3    C410183   0.752   1.081  16.404  0.2734 -0.0066  0.4901
  685TMC3    C510184   0.787   0.963  16.348  0.0209  0.2440 -0.2059
  685TMC3    C610185   0.705   0.853  16.342 -0.6042  0.2753  0.2620
  685TMC3     C10186   0.566   1.219  16.418  0.5663  0.1925  1.0473
  685TMC3     O10187   0.471   1.199  16.344  0.2176 -0.3455 -0.5760
  685TMC3     H10188   0.440   0.995  16.487  0.1325 -1.1104  1.0554
  685TMC3    H110189   0.814   1.168  16.417  3.4476 -2.4558  1.8800
  685TMC3    H210190   0.744   0.760  16.303 -0.7943  0.3460 -0.0909
  685TMC3    C710191   0.915   0.952  16.285  0.3975 -0.3786  0.2522
  685TMC3    C810192   0.474   0.826  16.300  0.1875 -0.0459  0.1866
  685TMC3    O110193   0.928   0.873  16.196 -0.1168 -0.6837  0.1053
  685TMC3    O210194   0.469   0.707  16.266 -0.3636  0.2200  0.0277
  686MPD2     C10195   2.308   1.282  15.712 -0.0309  0.1313  1.1178
  686MPD2    C110196   2.356   1.245  15.843  0.3916 -0.3136  0.5146
  686MPD2    C210197   2.485   1.195  15.857  0.2716 -0.1596 -0.6461
  686MPD2    C310198   2.554   1.163  15.742 -0.2431  0.6618 -0.0016
  686MPD2    C410199   2.506   1.198  15.615  0.5798 -0.1253  0.3241
  686MPD2    C510200   2.386   1.258  15.604 -0.6412  0.2609  0.2334
  686MPD2     H10201   2.524   1.193  15.958 -2.5139 -0.8921  0.4186
  686MPD2    H110202   2.562   1.180  15.524 -1.1554  0.3922 -0.8503
  686MPD2    H210203   2.212   1.330  15.694  1.2021  1.7405 -1.1172
  686MPD2    H310204   2.352   1.289  15.506  1.2411 -1.1105 -0.8352
  686MPD2     N10205   2.686   1.097  15.744 -0.0440  0.2439  0.8274
  686MPD2    H510206   2.747   1.111  15.665 -0.7449  0.7807  0.3755
  686MPD2    N110207   2.262   1.252  15.943 -0.0977 -0.2830  0.6493
  686MPD2    H710208   2.172   1.291  15.918 -0.4137 -1.0959  0.5347
  687TMC3    C110209   2.644   0.972  15.954  0.4807  0.0935 -0.1718
  687TMC3    C210210   2.521   0.920  15.924  0.6335  0.7002  0.2060
  687TMC3    C310211   2.468   0.824  16.014 -0.3958 -0.2968  0.1006
  687TMC3    C410212   2.702   0.946  16.076 -0.0237 -0.0666  0.4289
  687TMC3    C510213   2.648   0.855  16.160 -0.3911 -1.2728 -0.1369
  687TMC3    C610214   2.532   0.785  16.131  0.2563  0.1460 -0.7491
  687TMC3     C10215   2.738   1.024  15.851 -0.5714 -0.3731  0.3870
  687TMC3     O10216   2.855   0.993  15.871  0.0337 -0.7582  0.1724
  687TMC3     H10217   2.490   0.920  15.821 -0.0779  0.9938  0.4223
  687TMC3    H110218   2.793   1.001  16.096 -0.1479  0.0872  0.5752
  687TMC3    H210219   2.479   0.709  16.187  2.1471 -0.2770  0.4761
  687TMC3    C710220   2.718   0.814  16.282 -0.0996 -0.5478  0.6374
  687TMC3    C810221   2.326   0.784  15.984 -0.4983  0.3710  0.2955
  687TMC3    O110222   2.832   0.853  16.291 -0.3758 -0.2813 -0.2456
  687TMC3    O210223   2.278   0.691  16.049 -0.2074  0.5366  1.0816
  688MPD2     C10224   1.158   0.148  17.393  0.6157 -0.0467  0.9364
  688MPD2    C110225   1.213   0.028  17.429  0.1591 -0.7120 -0.1827
  688MPD2    C210226   1.255   4.680  17.327 -0.5362  0.2839  0.3186
  688MPD2    C310227   1.258   4.721  17.193 -0.0741 -0.0044  0.0053
  688MPD2    C410228   1.189   0.103  17.164  0.0601 -0.5032  0.3512
  688MPD2    C510229   1.140   0.187  17.262 -0.0612  0.9797 -0.5598
  688MPD2     H10230   1.317   4.596  17.359  2.8607  2.5178 -0.4207
  688MPD2    H110231   1.184   0.142  17.063 -0.8492 -3.0440 -0.5939
  688MPD2    H210232   1.107   0.215  17.462 -0.2899 -1.5402  1.7257
  688MPD2    H310233   1.087   0.277  17.233 -3.6625 -1.7513 -2.3845
  688MPD2     N10234   1.326   4.656  17.089  0.5549 -0.3891 -0.4458
  688MPD2    H510235   1.332   4.715  17.007 -2.1187  0.3178 -0.1423
  688MPD2    N110236   1.225   4.722  17.567 -0.1964  0.5129 -0.1834
  688MPD2    H710237   1.259   4.627  17.573  1.5998  1.2050  0.6058
  689TMC3    C110238   1.209   4.728   0.067 -0.3935 -0.5149 -0.8641
  689TMC3    C210239   1.171   0.058   0.182 -0.0770 -0.2200  0.2930
  689TMC3    C310240   1.191   0.001   0.305  0.0598 -0.0418 -0.1111
  689TMC3    C410241   1.278   4.613   0.081 -0.0159 -0.3432  0.1266
  689TMC3    C510242   1.294   4.554   0.209  0.3556 -0.4756  0.2988
  689TMC3    C610243   1.250   4.614   0.320  0.3714 -0.3449  0.0792
  689TMC3     C10244   1.196   0.066  17.681  0.5316 -0.6547  0.2746
  689TMC3     O10245   1.168   0.184  17.682 -0.5762 -0.4391 -0.6563
  689TMC3     H10246   1.125   0.155   0.170 -0.7906 -0.4831  0.8441
  689TMC3    H110247   1.323   4.560  17.741 -1.1108  0.1409 -0.7796
  689TMC3    H210248   1.273   4.575   0.419  0.5038 -0.4943 -0.0101
  689TMC3    C710249   1.311   4.409   0.224 -0.3439 -0.3064 -0.6569
  689TMC3    C810250   1.112   0.054   0.417 -0.1373 -0.2385  0.3342
  689TMC3    O110251   1.350   4.365   0.331  0.0294 -0.2986 -0.6235
  689TMC3    O210252   1.151   0.035   0.532  0.7747  0.1251 -0.5155
  690MPD2     C10253   3.845   1.979  15.698  0.1353 -0.2431  0.3085
  690MPD2    C110254   3.818   1.945  15.562  0.3233 -0.6781 -0.4573
  690MPD2    C210255   3.921   1.940  15.471 -0.1400  0.6911  0.3067
  690MPD2    C310256   4.049   1.954  15.520  0.0970 -0.3875 -0.0508
  690MPD2    C410257   4.071   1.980  15.654  0.0031  0.5555 -0.0140
  690MPD2    C510258   3.970   1.989  15.743 -0.3825 -0.3667 -0.1355
  690MPD2     H10259   3.903   1.898  15.373 -0.0343  1.6670 -0.1325
  690MPD2    H110260   4.167   2.006  15.698 -0.6047  0.7301  1.2114
  690MPD2    H210261   3.775   1.996  15.778  0.0427  0.8104 -0.0020
  690MPD2    H310262   3.985   2.016  15.847  0.8775  1.6439 -0.8446
  690MPD2     N10263   4.143   1.949  15.420 -0.0503 -0.4797  0.1644
  690MPD2    H510264   4.104   1.936  15.327  0.8361  1.9895 -0.5479
  690MPD2    N110265   3.696   1.891  15.526  0.6805  0.6078  0.5326
  690MPD2    H710266   3.683   1.841  15.438  0.7436 -1.8853  1.9193
  691TMC3    C110267   3.486   1.806  15.544 -0.0484 -0.0517 -0.1953
  691TMC3    C210268   3.353   1.841  15.551  0.1940 -0.4878  0.5152
  691TMC3    C310269   3.264   1.741  15.512  0.1312  0.2569  0.2863
  691TMC3    C410270   3.527   1.683  15.513  0.1964 -0.2569 -0.6185
  691TMC3    C510271   3.437   1.587  15.502  0.1048 -0.1732 -0.4046
  691TMC3    C610272   3.306   1.612  15.484  0.5109  0.5654 -0.5027
  691TMC3     C10273   3.576   1.895  15.600 -0.2126 -0.0623  0.3379
  691TMC3     O10274   3.546   1.963  15.699 -0.1792  0.0202 -0.0470
  691TMC3     H10275   3.330   1.945  15.572  0.3888 -0.5622  1.0953
  691TMC3    H110276   3.633   1.658  15.518  0.4147  0.3508 -2.1318
  691TMC3    H210277   3.234   1.533  15.462  1.4614 -0.6924  0.8836
  691TMC3    C710278   3.477   1.445  15.506  0.6063  0.0291  0.5189
  691TMC3    C810279   3.124   1.760  15.523 -0.3363 -0.3817 -0.7176
  691TMC3    O110280   3.589   1.412  15.470  0.1686  0.2664 -0.4187
  691TMC3    O210281   3.062   1.664  15.493  0.2616 -0.0380  0.5074
  692TMC3    C110282   0.509   2.833  15.612 -0.1103  0.9255 -0.0704
  692TMC3    C210283   0.606   2.906  15.678  0.1463 -0.3412 -0.1620
  692TMC3    C310284   0.714   2.853  15.739  0.0894 -0.5632 -0.1352
  692TMC3    C410285   0.527   2.701  15.605 -0.0212  0.9127 -0.1455
  692TMC3    C510286   0.632   2.648  15.669 -0.3268  0.2602  0.6958
  692TMC3    C610287   0.716   2.719  15.744 -0.7870 -0.1859  0.5921
  692TMC3     C10288   0.379   2.894  15.608  0.0626 -0.3235  0.0014
  692TMC3     O10289   0.345   2.957  15.709 -0.0959 -0.2978 -0.0606
  692TMC3     H10290   0.598   3.014  15.672  1.1451 -0.0831  3.3267
  692TMC3    H110291   0.445   2.647  15.559  1.5346 -1.8847  0.3372
  692TMC3    H210292   0.803   2.675  15.792  0.1500 -0.1029 -1.0481
  692TMC3    C710293   0.649   2.504  15.648 -0.1995 -0.4628  0.5927
  692TMC3    C810294   0.744   2.914  15.862  0.0276  0.0871 -0.3195
  692TMC3    O110295   0.613   2.457  15.541 -0.4931 -0.0464  0.2058
  692TMC3    O210296   0.838   2.870  15.928  0.6180  0.6150 -0.0998
  693MPD2     C10297   4.479   1.011  10.801 -0.3047 -0.1820  0.2952
  693MPD2    C110298   4.462   0.974  10.936  0.7459  0.1798 -0.2067
  693MPD2    C210299   4.546   0.887  11.003 -0.4208  0.3145 -0.5678
  693MPD2    C310300   4.656   0.843  10.930  0.3306 -1.0530 -0.2286
  693MPD2    C410301   4.671   0.889  10.802 -0.2402 -0.3887 -0.1899
  693MPD2    C510302   4.589   0.973  10.726  0.4752 -0.5298  0.2540
  693MPD2     H10303   4.525   0.841  11.099 -0.2981  0.8430 -0.2878
  693MPD2    H110304   0.021   0.852  10.747  2.4777  0.8880  3.1815
  693MPD2    H210305   4.403   1.069  10.749 -1.0170  0.8049  2.4528
  693MPD2    H310306   4.610   1.010  10.626  0.4892 -0.2710  0.3533
  693MPD2     N10307   0.010   0.751  10.976 -0.0393 -0.6838 -0.9593
  693MPD2    H510308   0.094   0.743  10.921  1.1061  1.3262  0.4865
  693MPD2    N110309   4.334   1.009  10.990 -0.1895 -0.2909 -0.3859
  693MPD2    H710310   4.275   1.047  10.917  0.0317  0.7901 -0.0038
  694TMC3    C110311   4.161   1.026  11.159 -0.7558 -0.7813 -0.3117
  694TMC3    C210312   4.051   0.996  11.071 -0.9998  1.1158  0.5195
  694TMC3    C310313   3.927   0.979  11.130 -0.0480 -0.5939  0.3631
  694TMC3    C410314   4.146   1.043  11.300 -0.5841  0.6243 -0.3646
  694TMC3    C510315   4.017   1.040  11.344 -0.4765 -0.0759  0.3041
  694TMC3    C610316   3.909   1.003  11.267 -0.4577 -0.0751 -0.6167
  694TMC3     C10317   4.299   1.000  11.123  0.1956  0.8550 -0.2193
  694TMC3     O10318   4.380   0.988  11.211  1.1897 -0.3480  0.0355
  694TMC3     H10319   4.067   0.967  10.968  1.5160 -0.1895  1.2852
  694TMC3    H110320   4.220   1.069  11.374 -0.3047 -0.4133 -0.2878
  694TMC3    H210321   3.806   0.996  11.302 -0.0347  2.0322  1.0562
  694TMC3    C710322   4.010   1.019  11.483  0.0045  0.5003  0.0394
  694TMC3    C810323   3.828   0.889  11.064  0.3525 -0.2229  0.1714
  694TMC3    O110324   3.928   1.088  11.544 -0.5028 -0.0589  0.3473
  694TMC3    O210325   3.768   0.823  11.148 -0.5388  0.2521  0.6971
  695MPD2     C10326   1.077   2.726  13.617  0.0918  0.0304 -0.3775
  695MPD2    C110327   1.090   2.652  13.730  0.2569 -0.0860 -0.2267
  695MPD2    C210328   0.981   2.602  13.795 -0.3725  0.1817 -0.1274
  695MPD2    C310329   0.854   2.628  13.746 -0.4054  0.0791 -0.6350
  695MPD2    C410330   0.838   2.704  13.628  0.5331  0.1336  0.4221
  695MPD2    C510331   0.952   2.740  13.558  0.1857 -0.2126  0.0707
  695MPD2     H10332   0.992   2.552  13.891  0.5282 -1.2858 -0.9977
  695MPD2    H110333   0.743   2.724  13.582 -0.3361 -2.2214  1.1724
  695MPD2    H210334   1.163   2.764  13.563  0.2533  0.1614 -0.0290
  695MPD2    H310335   0.939   2.784  13.461  0.8635  0.1300  0.1336
  695MPD2     N10336   0.743   2.595  13.833 -0.1173 -0.4824 -0.3677
  695MPD2    H510337   0.758   2.568  13.930 -0.4276  0.0079 -0.1792
  695MPD2    N110338   1.220   2.643  13.782  0.7110  0.1413  0.1762
  695MPD2    H710339   1.291   2.696  13.733  0.8230 -1.0566 -0.9472
  696TMC3    C110340   0.515   2.586  13.909 -0.0488 -0.1775  0.4955
  696TMC3    C210341   0.558   2.540  14.028 -0.0767  0.1940 -0.1626
  696TMC3    C310342   0.465   2.533  14.132 -0.5078  0.3493  0.2434
  696TMC3    C410343   0.393   2.645  13.897 -0.0178 -0.0007  0.0746
  696TMC3    C510344   0.312   2.636  13.999 -0.8026 -0.6218  0.1945
  696TMC3    C610345   0.341   2.576  14.112  0.3404  0.1519  0.7247
  696TMC3     C10346   0.611   2.615  13.800 -0.0547 -1.0597 -0.4830
  696TMC3     O10347   0.563   2.662  13.700  0.0569 -0.0861  0.1510
  696TMC3     H10348   0.661   2.520  14.054 -0.0392  1.3758  0.6047
  696TMC3    H110349   0.362   2.663  13.795  0.9326  1.7561  0.0848
  696TMC3    H210350   0.271   2.580  14.195  0.5177 -0.5097  0.9017
  696TMC3    C710351   0.194   2.725  13.993 -0.1745 -0.2525  0.0995
  696TMC3    C810352   0.523   2.607  14.241 -0.1351 -0.0641 -0.0790
  696TMC3    O110353   0.092   2.685  14.050 -0.0234 -0.5440 -0.1070
  696TMC3    O210354   0.476   2.720  14.254 -0.4232  0.2170  0.2771
  697MPD2     C10355   0.124   4.451  15.669  0.2534  0.2237  0.3957
  697MPD2    C110356   0.122   4.414  15.537  0.1911  0.0695 -0.4332
  697MPD2    C210357   0.141   4.503  15.433  0.4715 -0.2121  0.3067
  697MPD2    C310358   0.158   4.633  15.457 -0.9368  0.2710  0.1875
  697MPD2    C410359   0.163   4.676  15.592 -1.0792 -0.0528  0.0713
  697MPD2    C510360   0.137   4.586  15.693 -0.0849 -0.6948 -0.3181
  697MPD2     H10361   0.148   4.469  15.330 -0.6810  4.3899 -1.3171
  697MPD2    H110362   0.192   0.039  15.626  0.5867  0.1677 -1.9638
  697MPD2    H210363   0.104   4.381  15.750  1.9377 -2.7684 -1.8039
  697MPD2    H310364   0.131   4.620  15.796 -0.9857 -0.6126 -0.4007
  697MPD2     N10365   0.165   4.722  15.349  0.0642 -0.0643  0.5867
  697MPD2    H510366   0.182   4.686  15.256 -1.4387 -1.7636  0.9571
  697MPD2    N110367   0.121   4.283  15.499 -0.2004  0.2385 -0.5113
  697MPD2    H710368   0.133   4.260  15.401  1.4603  2.5642 -0.8613
  698TMC3    C110369   0.175   0.205  15.234 -0.1712 -0.3065  0.4996
  698TMC3    C210370   0.223   0.335  15.260 -0.4091  0.7566  1.3933
  698TMC3    C310371   0.241   0.417  15.148  1.0168  0.0383  0.5119
  698TMC3    C410372   0.151   0.157  15.108 -0.5928  0.2887 -0.2890
  698TMC3    C510373   0.161   0.247  15.003 -0.2409 -0.3952 -0.7505
  698TMC3    C610374   0.211   0.375  15.021  0.0515 -0.0936  0.7082
  698TMC3     C10375   0.162   0.125  15.356  0.1605  0.1986 -0.1802
  698TMC3     O10376   0.141   0.194  15.455 -0.2371  0.2013  0.9018
  698TMC3     H10377   0.251   0.374  15.357  0.0380 -2.5345  2.5904
  698TMC3    H110378   0.113   0.058  15.088 -3.5084  0.6736  3.2820
  698TMC3    H210379   0.209   0.447  14.940  3.1540 -0.0078  0.6999
  698TMC3    C710380   0.115   0.189  14.877  0.5846 -0.3956 -0.3032
  698TMC3    C810381   0.307   0.544  15.180 -0.6490 -0.2078  1.5876
  698TMC3    O110382   0.009   0.132  14.874  0.7446  0.0618  0.5020
  698TMC3    O210383   0.281   0.590  15.291  0.3458 -0.5362  0.0012
  699TMC3    C110384   0.112   3.023  13.404  0.3796  0.7961 -1.1933
  699TMC3    C210385   0.179   2.907  13.423 -0.7746  0.8547 -0.1416
  699TMC3    C310386   0.142   2.829  13.533  0.3804 -0.5740  0.2150
  699TMC3    C410387   0.009   3.061  13.488  0.1251 -0.5635 -0.5756
  699TMC3    C510388   4.724   2.985  13.602  0.0707  0.3755  0.8505
  699TMC3    C610389   0.060   2.873  13.627 -0.2699  0.4397 -0.3959
  699TMC3     C10390   0.104   3.079  13.264 -0.7644 -1.4010  0.2631
  699TMC3     O10391   4.726   3.108  13.237 -0.2539  0.1760 -0.5381
  699TMC3     H10392   0.211   2.859  13.331  1.5932  0.9351  0.6401
  699TMC3    H110393   4.675   3.143  13.476  0.4433 -0.0855  0.7421
  699TMC3    H210394   0.030   2.805  13.706 -0.6167  1.1452  0.0712
  699TMC3    C710395   4.587   2.984  13.651 -0.3743 -0.3895 -0.6767
  699TMC3    C810396   0.185   2.691  13.540 -0.1443 -0.3719 -1.5202
  699TMC3    O110397   4.549   2.877  13.699  0.0576  0.5313 -0.3896
  699TMC3    O210398   0.116   2.613  13.604  0.1181  0.1327 -0.0855
  700TMC3    C110399   4.132   0.365  17.369 -0.3678 -0.1371  0.5483
  700TMC3    C210400   4.217   0.248  17.372  0.4739  0.6924  0.0248
  700TMC3    C310401   4.334   0.258  17.446  0.5650 -0.1951  0.0418
  700TMC3    C410402   4.168   0.479  17.441  0.1068  0.1550 -0.0438
  700TMC3    C510403   4.276   0.475  17.520  0.1855 -0.1908  0.4300
  700TMC3    C610404   4.365   0.370  17.523 -0.4297  0.1079 -0.3201
  700TMC3     C10405   4.054   0.384  17.252 -0.5155 -0.4201 -0.0318
  700TMC3     O10406   4.000   0.288  17.194  0.0520  0.4259 -0.2164
  700TMC3     H10407   4.189   0.159  17.317 -2.6333  0.4614  1.9814
  700TMC3    H110408   4.098   0.562  17.441  2.1465  1.8427  1.4781
  700TMC3    H210409   4.459   0.380  17.575  0.2273 -1.9194 -1.0765
  700TMC3    C710410   4.321   0.601  17.583  0.2278 -0.6807  0.6884
  700TMC3    C810411   4.446   0.170  17.407 -0.0496 -0.1345 -0.4285
  700TMC3    O110412   4.433   0.605  17.632 -0.5382 -0.3481 -0.2766
  700TMC3    O210413   4.428   0.122  17.295 -0.1125 -0.5689 -0.1779
  701TMC3    C110414   4.182   3.817  15.501 -0.0774  0.5490  0.6944
  701TMC3    C210415   4.186   3.771  15.373  0.5059 -0.3957 -0.2702
  701TMC3    C310416   4.286   3.816  15.285 -0.7993 -0.4339  0.0966
  701TMC3    C410417   4.261   3.918  15.537 -0.7025  0.6949  0.1272
  701TMC3    C510418   4.352   3.971  15.445  0.0059  0.0035  0.2315
  701TMC3    C610419   4.371   3.917  15.323  0.9604 -0.0716 -0.3723
  701TMC3     C10420   4.072   3.782  15.595 -0.2741 -0.2010 -0.2917
  701TMC3     O10421   4.041   3.864  15.679  0.1822 -0.2216 -0.2185
  701TMC3     H10422   4.118   3.690  15.349  0.5304 -0.4214 -0.2531
  701TMC3    H110423   4.242   3.976  15.627  0.6599  1.3276 -0.0021
  701TMC3    H210424   4.456   3.954  15.266  1.9257 -0.9195  0.5207
  701TMC3    C710425   4.409   4.098  15.463 -0.3253 -0.8401 -0.3761
  701TMC3    C810426   4.332   3.738  15.170 -0.3264 -0.3577  0.0200
  701TMC3    O110427   4.442   4.159  15.363  0.0454 -0.4386  0.0328
  701TMC3    O210428   4.441   3.773  15.132  0.0031 -0.6517 -0.2537
  702MPD2     C10429   3.588   1.249  10.627  0.6344 -0.2559 -0.2630
  702MPD2    C110430   3.519   1.348  10.700  0.0832 -0.3722 -0.6672
  702MPD2    C210431   3.459   1.456  10.639  0.2802 -0.0744 -0.2198
  702MPD2    C310432   3.471   1.471  10.503 -0.2548 -0.1395 -0.2594
  702MPD2    C410433   3.545   1.380  10.431  0.2474 -0.3181 -0.1933
  702MPD2    C510434   3.599   1.272  10.490  0.6470  0.3513 -0.4132
  702MPD2     H10435   3.413   1.538  10.692 -0.0931 -0.4645  0.0632
  702MPD2    H110436   3.553   1.382  10.323  1.3768  0.2837 -0.1067
  702MPD2    H210437   3.648   1.168  10.667 -0.1297 -1.6968 -2.0466
  702MPD2    H310438   3.649   1.206  10.420  0.6750  2.0646 -2.0018
  702MPD2     N10439   3.417   1.576  10.435  0.4798  0.4151  0.0578
  702MPD2    H510440   3.453   1.598  10.342  2.0742 -2.4984 -0.0292
  702MPD2    N110441   3.512   1.340  10.842 -0.4358  0.6993  0.2874
  702MPD2    H710442   3.447   1.409  10.880 -1.6707 -0.6001  0.5202
  703TMC3    C110443   3.287   1.754  10.399  0.3513 -0.0523 -0.1867
  703TMC3    C210444   3.160   1.792  10.385 -0.0805 -0.5219 -0.4933
  703TMC3    C310445   3.139   1.920  10.346 -0.6539 -0.2437  0.3841
  703TMC3    C410446   3.393   1.824  10.357  0.2593 -0.4455  0.3939
  703TMC3    C510447   3.365   1.950  10.311  0.1486  0.9850 -0.1335
  703TMC3    C610448   3.242   2.001  10.306  0.5720 -0.1885  0.1216
  703TMC3     C10449   3.310   1.637  10.478  0.1773  0.7854 -0.6499
  703TMC3     O10450   3.226   1.597  10.557 -0.2285 -0.2294 -0.5782
  703TMC3     H10451   3.084   1.716  10.393  1.7603 -2.1718  1.3969
  703TMC3    H110452   3.492   1.779  10.357 -0.5349 -2.1886 -2.7504
  703TMC3    H210453   3.224   2.100  10.264  0.1176 -0.7521 -1.0047
  703TMC3    C710454   3.485   2.023  10.278 -0.5524 -0.3449  0.2297
  703TMC3    C810455   3.000   1.945  10.317  0.3374  0.5598 -0.2246
  703TMC3    O110456   3.588   1.983  10.324 -0.1029  0.3171 -0.2463
  703TMC3    O210457   2.965   2.011  10.219  1.0378  0.2808  0.1566
  704TMC3    C110458   1.257   4.248  12.933  0.0799  0.3174  0.1334
  704TMC3    C210459   1.346   4.256  12.829  0.4158  0.2335  0.1637
  704TMC3    C310460   1.453   4.167  12.841 -0.3388  0.8093  0.7751
  704TMC3    C410461   1.263   4.171  13.040  0.3734 -0.0203  0.0920
  704TMC3    C510462   1.371   4.092  13.055  0.4288 -0.2502  0.4447
  704TMC3    C610463   1.476   4.095  12.958  0.9418 -1.0161  0.5820
  704TMC3     C10464   1.119   4.265  12.895 -0.5932  0.0284 -0.2749
  704TMC3     O10465   1.039   4.304  12.977 -0.0208  0.1374 -0.4867
  704TMC3     H10466   1.328   4.304  12.733 -1.9074  3.3422  2.1270
  704TMC3    H110467   1.172   4.158  13.097  0.9128 -1.1493  0.6993
  704TMC3    H210468   1.559   4.032  12.986  0.7745 -1.9458 -1.0237
  704TMC3    C710469   1.367   3.978  13.137  0.2581  0.0833  0.1035
  704TMC3    C810470   1.441   4.083  12.722 -0.5807  0.1306 -0.7654
  704TMC3    O110471   1.402   3.870  13.087 -0.0804  0.1059  0.0874
  704TMC3    O210472   1.331   4.085  12.669  0.2614  1.2354  0.0730
  705MPD2     C10473   0.546   2.534  16.642 -0.1999 -0.1017 -0.3313
  705MPD2    C110474   0.590   2.664  16.640  0.0607  0.3513  0.6723
  705MPD2    C210475   0.521   2.762  16.715  0.3773 -0.0769 -0.3500
  705MPD2    C310476   0.402   2.723  16.772 -0.3309 -0.2862  0.0588
  705MPD2    C410477   0.363   2.594  16.777  0.4534  0.0766 -0.1430
  705MPD2    C510478   0.433   2.503  16.708 -0.3761  0.8580  0.1028
  705MPD2     H10479   0.555   2.865  16.717 -3.4918  1.2354 -2.3340
  705MPD2    H110480   0.274   2.556  16.826  0.2265 -3.4964 -3.3583
  705MPD2    H210481   0.587   2.450  16.587  2.1181  1.0155 -0.3246
  705MPD2    H310482   0.378   2.410  16.701 -3.1759  2.5164  0.1018
  705MPD2     N10483   0.318   2.820  16.829 -0.7859 -0.1284  0.1993
  705MPD2    H510484   0.235   2.789  16.878 -0.0296  0.2944  1.7626
  705MPD2    N110485   0.709   2.699  16.579  0.4683  0.0891 -0.5967
  705MPD2    H710486   0.727   2.799  16.588 -0.0391  0.2640 -1.5425
  706TMC3    C110487   1.107   2.639  16.321 -1.0509 -0.2567  0.2199
  706TMC3    C210488   1.105   2.766  16.278  0.1290 -0.1569  0.2152
  706TMC3    C310489   1.017   2.845  16.347  0.3806 -0.1140 -0.1957
  706TMC3    C410490   1.013   2.589  16.411  0.2048  0.1115  0.6612
  706TMC3    C510491   0.916   2.673  16.467  0.0714  0.2269  0.2527
  706TMC3    C610492   0.920   2.809  16.435  0.2409  0.1510 -0.5218
  706TMC3     C10493   1.203   2.543  16.271  0.0266 -0.3584  0.1691
  706TMC3     O10494   1.240   2.447  16.338 -0.5237 -0.0284  0.1448
  706TMC3     H10495   1.177   2.817  16.214 -1.0876  0.2529 -0.8251
  706TMC3    H110496   1.009   2.482  16.432 -2.5447  0.0600 -0.0770
  706TMC3    H210497   0.846   2.879  16.474  0.1200  0.0184 -0.5131
  706TMC3    C710498   0.804   2.610  16.533  0.2583  0.1479  0.0057
  706TMC3    C810499   1.037   2.991  16.333 -0.5937  0.1980  0.7956
  706TMC3    O110500   0.812   2.492  16.552  0.0292  0.0473 -0.2224
  706TMC3    O210501   1.064   3.039  16.225 -0.0285  0.0122 -0.0074
  707TMC3    C110502   2.723   1.504   0.501 -0.0334  0.2632  0.8725
  707TMC3    C210503   2.656   1.469   0.617 -0.1544  0.8855  0.2443
  707TMC3    C310504   2.520   1.451   0.606 -0.1913 -0.3713 -0.0923
  707TMC3    C410505   2.662   1.492   0.374 -0.2972 -0.1376 -0.4971
  707TMC3    C510506   2.528   1.463   0.369 -0.0681 -0.3164  0.0567
  707TMC3    C610507   2.461   1.437   0.486  0.1201  0.2129  0.1246
  707TMC3     C10508   2.859   1.547   0.506  0.2581  0.5853 -0.4191
  707TMC3     O10509   2.916   1.552   0.397  0.7661  0.4438 -0.2770
  707TMC3     H10510   2.703   1.451   0.714 -1.7921  2.8590  1.4028
  707TMC3    H110511   2.721   1.522   0.289  0.0854 -1.0500 -0.5582
  707TMC3    H210512   2.355   1.411   0.489  0.3716 -0.8211  0.2031
  707TMC3    C710513   2.470   1.404   0.254  0.4521 -0.4949  0.5233
  707TMC3    C810514   2.448   1.394   0.723 -0.5057  0.1995  0.1061
  707TMC3    O110515   2.353   1.373   0.256 -0.5075  0.0471  0.0802
  707TMC3    O210516   2.358   1.316   0.702  0.3621  0.1917  0.2505
  708MPD2     C10517   3.724   0.598  13.962 -0.2657 -0.3477  0.3845
  708MPD2    C110518   3.774   0.725  13.962 -0.5573  0.4050  0.1169
  708MPD2    C210519   3.852   0.759  14.071 -0.9252 -0.1302  0.7604
  708MPD2    C310520   3.883   0.671  14.173  0.0661  0.1955  1.3500
  708MPD2    C410521   3.842   0.538  14.163 -0.2855  0.5120  0.2609
  708MPD2    C510522   3.767   0.507  14.059 -0.8907 -0.2497  0.6672
  708MPD2     H10523   3.882   0.862  14.084 -1.1256 -0.0745  0.7848
  708MPD2    H110524   3.856   0.455  14.231  2.6972 -0.0458 -1.0329
  708MPD2    H210525   3.671   0.563  13.874  1.3697 -1.0460 -0.3287
  708MPD2    H310526   3.731   0.406  14.047  1.4552 -0.8219 -1.5527
  708MPD2     N10527   3.952   0.725  14.291 -0.4242  0.2983  0.5869
  708MPD2    H510528   3.972   0.825  14.295  0.9630 -0.0011  1.1021
  708MPD2    N110529   3.725   0.817  13.875  0.0708 -1.1289 -0.0844
  708MPD2    H710530   3.638   0.789  13.830 -0.3435 -2.3759  1.4899
  709TMC3    C110531   3.678   1.042  13.822  0.8288 -0.7133  0.0489
  709TMC3    C210532   3.564   0.996  13.760  0.2909 -0.3549 -0.6566
  709TMC3    C310533   3.448   1.021  13.817  0.0801  0.7956 -0.2353
  709TMC3    C410534   3.668   1.119  13.934  0.5627  0.5119 -0.2767
  709TMC3    C510535   3.544   1.132  13.996  0.5534 -0.5755 -0.7616
  709TMC3    C610536   3.428   1.077  13.944 -0.6886  0.3019  0.3729
  709TMC3     C10537   3.780   0.937  13.854 -0.2478 -0.5709 -0.3770
  709TMC3     O10538   3.889   0.979  13.892  0.0839  0.2219 -0.0035
  709TMC3     H10539   3.576   0.920  13.684 -1.9602  0.3445 -1.7021
  709TMC3    H110540   3.760   1.148  13.983  1.0880 -0.5270 -0.6567
  709TMC3    H210541   3.327   1.102  13.974 -0.6400 -0.8125  1.4656
  709TMC3    C710542   3.563   1.098  14.137  0.0169  0.3752  0.9165
  709TMC3    C810543   3.343   1.058  13.732  0.5390 -0.6763 -0.0833
  709TMC3    O110544   3.670   1.122  14.196  0.3293 -0.3978  0.4728
  709TMC3    O210545   3.230   1.090  13.775  0.7956  0.2567 -0.1482
  710TMC3    C110546   0.838   2.474   0.045 -0.2218  0.4790 -0.0087
  710TMC3    C210547   0.911   2.441  17.681  0.4373 -0.1357  0.4865
  710TMC3    C310548   0.999   2.337  17.685 -0.9810 -0.1743 -0.3634
  710TMC3    C410549   0.847   2.407   0.162  0.4106  0.9471  0.0577
  710TMC3    C510550   0.928   2.296   0.152 -0.1135  1.1500  0.4245
  710TMC3    C610551   1.004   2.259   0.046 -0.0707  0.1316  0.4908
  710TMC3     C10552   0.747   2.578   0.028  0.2080  0.4868 -0.1987
  710TMC3     O10553   0.697   2.590  17.658  0.1112 -0.3618  0.3528
  710TMC3     H10554   0.897   2.504  17.594  1.7341  0.1146  0.4659
  710TMC3    H110555   0.790   2.432   0.251  1.1781  1.6442  0.3591
  710TMC3    H210556   1.073   2.176   0.052 -0.1329  0.0140 -0.5282
  710TMC3    C710557   0.918   2.205   0.267  0.4219 -0.4094 -1.1125
  710TMC3    C810558   1.074   2.302  17.566 -0.8834  0.7009  0.1287
  710TMC3    O110559   0.885   2.242   0.379 -0.4517 -0.4805 -0.2589
  710TMC3    O210560   1.026   2.326  17.458 -0.3616 -0.6840  0.1090
  711TMC3    C110561   0.131   3.498  15.058 -0.2631 -0.2211  0.4743
  711TMC3    C210562   0.129   3.553  15.185  0.1088  0.1395 -0.0573
  711TMC3    C310563   0.247   3.541  15.258 -0.1023 -0.2429  0.3484
  711TMC3    C410564   0.239   3.431  15.009  0.8451 -0.6427  0.0326
  711TMC3    C510565   0.333   3.396  15.102  0.4518  0.1632 -0.1260
  711TMC3    C610566   0.344   3.452  15.225 -0.3013  0.0035 -0.5919
  711TMC3     C10567   0.005   3.442  15.010  0.2518 -0.2372 -0.0916
  711TMC3     O10568   0.008   3.436  14.892 -0.3368 -0.0118  0.6947
  711TMC3     H10569   0.040   3.603  15.222  0.7744  0.6987  0.7715
  711TMC3    H110570   0.239   3.393  14.908  3.3218  0.6034 -0.4399
  711TMC3    H210571   0.412   3.419  15.303 -1.9912  2.6323  1.9701
  711TMC3    C710572   0.360   3.252  15.109  0.1720 -0.1710  1.1049
  711TMC3    C810573   0.228   3.582  15.400 -0.2346 -0.2373 -0.4717
  711TMC3    O110574   0.409   3.214  15.218  0.4970 -0.1461  0.2921
  711TMC3    O210575   0.114   3.586  15.437 -0.1012 -1.0961 -0.9239
  712MPD2     C10576   1.030   4.093  13.795 -0.0259  0.0794  0.1040
  712MPD2    C110577   0.970   4.206  13.738 -0.1743 -0.1673 -0.2004
  712MPD2    C210578   1.028   4.334  13.751 -0.2486  0.5345  0.2546
  712MPD2    C310579   1.149   4.347  13.810  0.1237 -0.0372 -0.4285
  712MPD2    C410580   1.209   4.236  13.855  0.1099 -0.5428  0.1508
  712MPD2    C510581   1.154   4.116  13.848  0.6280  0.2961  0.3970
  712MPD2     H10582   0.984   4.423  13.707 -3.7440 -0.9221  0.7997
  712MPD2    H110583   1.305   4.248  13.904  0.7779  0.5211 -1.4289
  712MPD2    H210584   0.983   3.996  13.784  2.2539 -0.7671 -2.1896
  712MPD2    H310585   1.217   4.037  13.886  1.0146 -0.0289 -0.9238
  712MPD2     N10586   1.215   4.469  13.820  0.3654  0.3236  0.4815
  712MPD2    H510587   1.311   4.474  13.852  0.1866 -0.5439  1.1520
  712MPD2    N110588   0.851   4.199  13.662 -0.2308  0.2910 -0.8036
  712MPD2    H710589   0.817   4.282  13.614  0.0346  0.1631 -1.2085
  713TMC3    C110590   1.255   4.696  13.774 -0.2089  0.5917 -0.0006
  713TMC3    C210591   1.393   4.661  13.786  0.7419  0.0911  0.0196
  713TMC3    C310592   1.475   0.022  13.819 -0.1507  0.0118 -0.3805
  713TMC3    C410593   1.212   0.085  13.762  0.1547 -0.2439 -0.3475
  713TMC3    C510594   1.309   0.184  13.784  0.0751  0.1298 -0.1434
  713TMC3    C610595   1.434   0.155  13.828  0.2170 -0.3015 -0.5297
  713TMC3     C10596   1.160   4.592  13.779  0.1040 -0.8045  0.1819
  713TMC3     O10597   1.043   4.623  13.761  0.2017  0.1063  0.0969
  713TMC3     H10598   1.439   4.564  13.773  0.5905  0.2513 -1.6228
  713TMC3    H110599   1.107   0.107  13.752  0.2503 -0.1384 -1.1114
  713TMC3    H210600   1.511   0.230  13.844 -0.9335  0.8625 -0.4747
  713TMC3    C710601   1.275   0.325  13.755 -0.2717  0.0177 -0.7292
  713TMC3    C810602   1.609   0.021  13.775 -0.1466  0.0401  0.4394
  713TMC3    O110603   1.369   0.405  13.754 -0.1083 -0.3654 -0.4770
  713TMC3    O210604   1.652   0.103  13.695 -0.0866 -0.2845 -0.5724
  714MPD2     C10605   3.532   4.002   0.807  1.1919  0.7424  0.2940
  714MPD2    C110606   3.560   3.870   0.789  0.6594  0.4009  0.5497
  714MPD2    C210607   3.465   3.775   0.803  0.4224 -0.0006 -0.4414
  714MPD2    C310608   3.332   3.816   0.793 -0.2841 -0.3367  0.6935
  714MPD2    C410609   3.305   3.952   0.810  0.7182  0.3459 -0.1764
  714MPD2    C510610   3.400   4.047   0.810  0.3124 -0.7331 -0.0485
  714MPD2     H10611   3.482   3.669   0.816 -3.2054 -0.5072  0.1364
  714MPD2    H110612   3.207   3.995   0.795  0.4786 -1.3343 -3.3802
  714MPD2    H210613   3.600   4.085   0.815  2.2025  0.0144 -0.6822
  714MPD2    H310614   3.361   4.148   0.813  1.1257 -0.3561 -2.3813
  714MPD2     N10615   3.228   3.724   0.794  0.1580 -0.1329  0.7364
  714MPD2    H510616   3.252   3.625   0.794 -1.4088 -0.5181  0.5910
  714MPD2    N110617   3.696   3.840   0.789 -0.1894  0.6929  0.1766
  714MPD2    H710618   3.745   3.927   0.806 -0.3915  0.6371  1.0533
  715TMC3    C110619   3.900   3.720   0.740  0.1296  0.1512 -0.4067
  715TMC3    C210620   3.953   3.598   0.711  0.2070 -0.1933 -0.1993
  715TMC3    C310621   4.088   3.598   0.701 -0.6077 -0.1828  0.0447
  715TMC3    C410622   3.974   3.835   0.762 -0.0568 -0.2318 -0.2826
  715TMC3    C510623   4.110   3.828   0.738 -0.1327 -0.0104  0.1254
  715TMC3    C610624   4.166   3.711   0.704 -0.1055  0.2631 -0.0161
  715TMC3     C10625   3.755   3.721   0.758  0.9976  0.0549 -0.3380
  715TMC3     O10626   3.707   3.605   0.764 -0.2732  0.0422  0.1093
  715TMC3     H10627   3.899   3.507   0.689  1.5801 -1.1242  0.2975
  715TMC3    H110628   3.930   3.934   0.751 -0.9902 -0.7512 -1.1883
  715TMC3    H210629   4.273   3.707   0.683  0.1714  0.3512  1.3335
  715TMC3    C710630   4.203   3.935   0.765  0.2393 -0.5758  0.5640
  715TMC3    C810631   4.150   3.473   0.694 -0.7071  0.3158 -0.0002
  715TMC3    O110632   4.322   3.917   0.744  0.6208  0.6682 -0.1634
  715TMC3    O210633   4.077   3.383   0.661 -0.3250  0.4480  0.2851
  716MPD2     C10634   3.606   1.659   9.495  0.4510 -0.1825  0.6214
  716MPD2    C110635   3.481   1.683   9.551  0.1519 -0.6456 -0.3939
  716MPD2    C210636   3.430   1.589   9.645  0.1364  0.2741 -0.0355
  716MPD2    C310637   3.504   1.483   9.683  0.4855  0.3633  0.6775
  716MPD2    C410638   3.628   1.462   9.635  0.3013 -1.0550 -0.6247
  716MPD2    C510639   3.676   1.547   9.539  0.0667 -0.5720 -0.0280
  716MPD2     H10640   3.337   1.608   9.698  0.6679  1.0560  0.6284
  716MPD2    H110641   3.695   1.391   9.682  0.0421 -0.9535 -0.1098
  716MPD2    H210642   3.652   1.718   9.417  1.4554 -0.2416  1.1772
  716MPD2    H310643   3.774   1.532   9.496 -0.9038  0.4115 -2.5915
  716MPD2     N10644   3.452   1.410   9.790  0.3369  0.2644  0.3204
  716MPD2    H510645   3.354   1.422   9.812  0.2041 -0.8841  0.3708
  716MPD2    N110646   3.411   1.792   9.503  0.3432  0.1447 -0.8348
  716MPD2    H710647   3.468   1.857   9.449 -0.9578  0.9384 -1.2599
  717TMC3    C110648   3.429   1.271   9.975 -0.4980  0.2361 -0.5338
  717TMC3    C210649   3.337   1.360  10.026  0.5382  0.8076  0.3820
  717TMC3    C310650   3.266   1.317  10.139 -0.5576  0.0654 -0.1673
  717TMC3    C410651   3.455   1.148  10.034 -0.2772  0.2803 -0.3067
  717TMC3    C510652   3.358   1.104  10.123  0.5963 -0.1995  0.2693
  717TMC3    C610653   3.270   1.188  10.184 -0.2862 -0.3210 -0.1188
  717TMC3     C10654   3.516   1.316   9.870  0.2463  0.4789 -0.1086
  717TMC3     O10655   3.630   1.273   9.863  0.4689 -0.6606 -0.7112
  717TMC3     H10656   3.331   1.461   9.988 -0.7166 -0.1344 -1.9210
  717TMC3    H110657   3.531   1.082   9.992  0.3555  0.5197  0.4549
  717TMC3    H210658   3.207   1.151  10.264 -1.8861  1.1231 -0.7044
  717TMC3    C710659   3.395   0.979  10.196 -0.0328  0.4979  0.5890
  717TMC3    C810660   3.154   1.410  10.181 -0.7521  0.8227  0.2014
  717TMC3    O110661   3.375   0.979  10.321  0.5654 -0.5581 -0.3538
  717TMC3    O210662   3.138   1.521  10.128 -0.1913  0.3884 -0.3556
  718MPD2     C10663   2.898   4.281  12.798  0.0840 -0.6271  0.4237
  718MPD2    C110664   2.857   4.352  12.688 -0.4209  0.3496  0.0525
  718MPD2    C210665   2.729   4.380  12.660  0.2049  0.3410 -0.0900
  718MPD2    C310666   2.633   4.328  12.754 -0.0433 -0.0419 -0.1529
  718MPD2    C410667   2.671   4.260  12.866  0.2066 -0.0619  0.5216
  718MPD2    C510668   2.802   4.248  12.890  0.3406  0.4521  0.7422
  718MPD2     H10669   2.698   4.448  12.582 -1.4446  1.3139  1.4177
  718MPD2    H110670   2.593   4.228  12.933 -1.1750  0.1129 -1.0009
  718MPD2    H210671   2.998   4.250  12.825  0.2636 -0.6015 -0.2259
  718MPD2    H310672   2.839   4.195  12.976  0.4020 -0.4283  0.1715
  718MPD2     N10673   2.496   4.358  12.721 -0.3943  0.0579  0.1428
  718MPD2    H510674   2.480   4.404  12.631 -2.0443 -0.6526  0.0643
  718MPD2    N110675   2.951   4.400  12.593 -0.0369 -0.2924 -0.8559
  718MPD2    H710676   2.920   4.422  12.499 -1.2337 -3.1105 -1.1243
  719TMC3    C110677   3.151   4.466  12.477  0.8334  0.0306  0.1836
  719TMC3    C210678   3.059   4.473  12.373  0.2798  0.1446  0.2832
  719TMC3    C310679   3.020   4.586  12.303  0.0716  0.2865  0.0878
  719TMC3    C410680   3.204   4.591  12.514  0.7864 -0.9021 -0.3498
  719TMC3    C510681   3.178   4.698  12.430  0.0340  0.6950 -0.1605
  719TMC3    C610682   3.090   4.701  12.331 -0.2927  0.0851  0.5411
  719TMC3     C10683   3.090   4.411  12.600 -0.5285 -0.4230  0.0300
  719TMC3     O10684   3.164   4.403  12.699  0.1983 -0.4559 -0.0867
  719TMC3     H10685   3.017   4.381  12.335  0.1692  1.5297 -2.9002
  719TMC3    H110686   3.273   4.589  12.597 -0.0184  1.3601  0.3753
  719TMC3    H210687   3.071   0.057  12.277 -0.5094 -0.8945 -1.0461
  719TMC3    C710688   3.262   0.072  12.447 -0.3494  0.2979 -0.0039
  719TMC3    C810689   2.872   4.598  12.301 -0.4290  0.3339 -0.0660
  719TMC3    O110690   3.307   0.116  12.346  0.2370 -0.3328  0.6410
  719TMC3    O210691   2.813   4.514  12.366  0.0926  0.3169  0.0753
  720MPD2     C10692   1.246   1.744  14.442  0.7874  0.0602 -0.1355
  720MPD2    C110693   1.337   1.763  14.341  0.4648 -0.4127  0.8571
  720MPD2    C210694   1.474   1.761  14.370  0.0416 -0.3178  0.3686
  720MPD2    C310695   1.514   1.739  14.501  0.5981  0.5815 -0.9063
  720MPD2    C410696   1.423   1.719  14.599 -0.2390 -0.1282 -0.2198
  720MPD2    C510697   1.290   1.725  14.571  0.6710  0.9015 -0.1833
  720MPD2     H10698   1.549   1.784  14.296  0.5620  1.9782  1.5951
  720MPD2    H110699   1.452   1.691  14.700  0.0594 -3.0005 -1.1239
  720MPD2    H210700   1.143   1.731  14.411  0.3858 -0.9064  1.5574
  720MPD2    H310701   1.219   1.683  14.642 -0.8948  0.1093 -2.1870
  720MPD2     N10702   1.656   1.746  14.525 -0.0910  0.3257 -0.0587
  720MPD2    H510703   1.717   1.751  14.444  0.8274 -2.0124  0.4554
  720MPD2    N110704   1.302   1.780  14.206 -0.0941 -0.6184 -0.2486
  720MPD2    H710705   1.376   1.783  14.136 -0.8185  2.6446 -0.8593
  721TMC3    C110706   1.845   1.829  14.651 -0.3061  0.2165 -0.1844
  721TMC3    C210707   1.881   1.900  14.761 -0.1198  0.6245 -0.0098
  721TMC3    C310708   2.014   1.925  14.767 -0.3110 -0.2763 -0.2447
  721TMC3    C410709   1.933   1.782  14.559 -0.5956  0.3962 -0.1845
  721TMC3    C510710   2.071   1.806  14.576 -0.2491  0.0463  0.1747
  721TMC3    C610711   2.114   1.878  14.687  1.1950  0.3843 -0.4062
  721TMC3     C10712   1.705   1.785  14.651 -0.2752  0.1465 -0.1958
  721TMC3     O10713   1.644   1.807  14.754 -0.3902 -0.6778 -0.4061
  721TMC3     H10714   1.814   1.957  14.823 -0.1457  2.1470 -1.4154
  721TMC3    H110715   1.905   1.711  14.482 -1.6783  2.5990 -1.8168
  721TMC3    H210716   2.217   1.899  14.713  0.8043  0.2700  1.2482
  721TMC3    C710717   2.154   1.706  14.530  0.9169  0.9779  0.4669
  721TMC3    C810718   2.055   1.980  14.897  0.0401  0.1681 -0.0841
  721TMC3    O110719   2.125   1.645  14.428 -0.4039  0.3261 -0.1059
  721TMC3    O210720   2.157   2.049  14.908  0.1401  0.4969 -0.2984
  722MPD2     C10721   0.196   0.111  13.501 -0.0076 -0.0535  0.7368
  722MPD2    C110722   0.134   0.218  13.452 -0.8874 -0.1770  0.0613
  722MPD2    C210723   4.735   0.216  13.435 -0.5989  0.7975  0.0318
  722MPD2    C310724   4.658   0.103  13.464 -1.0201  0.1623  0.6234
  722MPD2    C410725   4.727   4.726  13.510 -0.0529 -0.4821 -0.3261
  722MPD2    C510726   0.127   4.735  13.536 -0.2773 -0.6030  0.2039
  722MPD2     H10727   4.688   0.297  13.380  0.2676  1.7623  0.6997
  722MPD2    H110728   4.676   4.636  13.544  0.9587 -1.5670 -1.7127
  722MPD2    H210729   0.303   0.091  13.509 -0.3357 -1.3907  1.8250
  722MPD2    H310730   0.179   4.649  13.577 -0.5046  0.3702  2.5313
  722MPD2     N10731   4.518   0.101  13.439  0.1284  0.6256 -0.0055
  722MPD2    H510732   4.480   0.193  13.415 -1.0039  0.0531 -0.4035
  722MPD2    N110733   0.206   0.322  13.403 -0.0273  0.3665  0.2219
  722MPD2    H710734   0.162   0.385  13.336 -1.1787  0.0481  0.6796
  723TMC3    C110735   4.326   0.016  13.345 -0.1127  0.2621  0.5388
  723TMC3    C210736   4.293   4.672  13.241  0.7547 -0.7136  0.3361
  723TMC3    C310737   4.230   4.731  13.127 -0.2692 -0.2307 -0.1650
  723TMC3    C410738   4.274   0.143  13.353  0.6462  0.2206 -0.2044
  723TMC3    C510739   4.208   0.199  13.247  0.3278 -0.0124  0.0936
  723TMC3    C610740   4.189   0.127  13.129  0.0239 -0.3852 -0.4029
  723TMC3     C10741   4.439   4.723  13.425 -0.5800  1.0469 -0.0293
  723TMC3     O10742   4.480   4.609  13.427 -0.3987 -0.3591 -0.2436
  723TMC3     H10743   4.353   4.582  13.236  1.0271 -0.4227 -1.8688
  723TMC3    H110744   4.290   0.204  13.441  1.6733 -2.4196  1.3941
  723TMC3    H210745   4.163   0.173  13.034  0.8730 -1.7654 -1.2913
  723TMC3    C710746   4.105   0.298  13.265  0.9484  0.2984  0.6979
  723TMC3    C810747   4.226   4.659  13.002  1.1439 -0.3208  0.3040
  723TMC3    O110748   4.059   0.354  13.166  0.6185  0.0953 -0.3036
  723TMC3    O210749   4.196   4.724  12.900  0.6169 -0.8831 -0.4724
  724TMC3    C110750   0.413   2.856  10.292 -0.1506 -0.6346 -0.5927
  724TMC3    C210751   0.460   2.901  10.173 -0.3277 -0.0040  0.1120
  724TMC3    C310752   0.550   3.002  10.175 -0.0054 -0.0447  0.7910
  724TMC3    C410753   0.454   2.903  10.415  0.7058 -0.6035  0.4289
  724TMC3    C510754   0.542   3.006  10.414  0.0947 -0.8939 -0.6711
  724TMC3    C610755   0.589   3.053  10.294  0.5328  0.6532  0.6988
  724TMC3     C10756   0.353   2.721  10.309 -0.0268  0.7393 -0.1214
  724TMC3     O10757   0.346   2.666  10.418  0.1511  0.7978  0.0061
  724TMC3     H10758   0.439   2.846  10.082  0.0982 -0.2779  0.1819
  724TMC3    H110759   0.405   2.869  10.506  0.3271  0.2867  0.5666
  724TMC3    H210760   0.676   3.117  10.304  0.7535  0.5607 -0.6246
  724TMC3    C710761   0.583   3.082  10.535 -0.0829 -1.0795 -0.0454
  724TMC3    C810762   0.614   3.048  10.052 -0.2403  0.5014 -0.1573
  724TMC3    O110763   0.629   3.190  10.515 -0.6217 -0.0518 -0.0201
  724TMC3    O210764   0.609   2.971   9.959  0.1882  0.0002 -0.8145
  725TMC3    C110765   1.405   2.190  12.674 -0.5510  0.5943  0.1470
  725TMC3    C210766   1.339   2.188  12.558 -1.2008  0.1433 -0.4960
  725TMC3    C310767   1.240   2.094  12.538 -0.0818  0.1168  0.1437
  725TMC3    C410768   1.400   2.085  12.765  0.5185  0.8660  0.2891
  725TMC3    C510769   1.308   1.986  12.738 -0.3327  0.3113  0.4295
  725TMC3    C610770   1.219   2.003  12.637  0.0539  0.0910 -0.3732
  725TMC3     C10771   1.514   2.280  12.693  0.3319  0.3418 -0.4885
  725TMC3     O10772   1.560   2.335  12.593  0.9636 -0.1154  0.7855
  725TMC3     H10773   1.341   2.283  12.505 -0.0980  1.0271  1.1436
  725TMC3    H110774   1.486   2.078  12.830 -0.4443 -1.0300  1.3602
  725TMC3    H210775   1.146   1.925  12.622  1.9383 -1.6572 -0.5344
  725TMC3    C710776   1.356   1.851  12.766  0.7326 -0.1782  0.6024
  725TMC3    C810777   1.134   2.133  12.454 -0.3403  0.4313  0.4013
  725TMC3    O110778   1.451   1.814  12.697 -0.3363 -0.4489 -0.1244
  725TMC3    O210779   1.024   2.089  12.491 -0.6990  0.9891 -0.4555
  726MPD2     C10780   4.156   3.957  11.102  0.5229  0.0211  0.0512
  726MPD2    C110781   4.057   3.946  11.009  0.1768  0.7356  0.4742
  726MPD2    C210782   3.955   3.849  11.028  0.1806 -0.1197 -0.5016
  726MPD2    C310783   3.963   3.760  11.138 -0.1531 -0.3295  0.4947
  726MPD2    C410784   4.070   3.763  11.220  0.1863  0.4288 -0.2385
  726MPD2    C510785   4.161   3.868  11.205  0.0107 -0.5257 -0.2120
  726MPD2     H10786   3.877   3.847  10.953 -2.8732 -0.3928  2.6752
  726MPD2    H110787   4.082   3.700  11.307 -1.6017 -0.4109 -0.5873
  726MPD2    H210788   4.236   4.030  11.091  0.9488 -0.6414 -1.2276
  726MPD2    H310789   4.239   3.878  11.280  0.4370  0.4433 -0.7781
  726MPD2     N10790   3.887   3.643  11.148  0.6941 -0.2490  0.2407
  726MPD2    H510791   3.930   3.564  11.195 -0.9356 -2.7061 -2.3889
  726MPD2    N110792   4.043   4.019  10.888  0.1851 -0.2675 -0.0772
  726MPD2    H710793   3.968   3.990  10.827  1.5675 -0.8183 -1.5183
  727TMC3    C110794   4.107   4.159  10.716  0.0341 -0.2999 -0.1364
  727TMC3    C210795   4.212   4.233  10.661 -0.3568 -0.1839 -0.1456
  727TMC3    C310796   4.180   4.304  10.552  0.2564 -0.0768  0.5044
  727TMC3    C410797   3.979   4.152  10.662 -0.1715  0.6389 -0.3165
  727TMC3    C510798   3.955   4.237  10.553 -0.4451  0.3658  0.5524
  727TMC3    C610799   4.054   4.321  10.503  0.4619  0.2288  0.6150
  727TMC3     C10800   4.131   4.112  10.849 -0.3468 -0.0083 -0.0832
  727TMC3     O10801   4.208   4.183  10.918  0.2530  0.3655  0.0992
  727TMC3     H10802   4.308   4.244  10.711 -1.3618 -0.8955  1.9329
  727TMC3    H110803   3.895   4.092  10.697  0.5194  0.9417  1.8663
  727TMC3    H210804   4.027   4.403  10.438  1.8862  0.0840 -0.1635
  727TMC3    C710805   3.819   4.258  10.498 -0.0271 -0.1532 -0.1974
  727TMC3    C810806   4.272   4.407  10.523 -0.0357  0.0803 -0.9014
  727TMC3    O110807   3.806   4.364  10.437 -0.1362  0.1792  0.4918
  727TMC3    O210808   4.380   4.370  10.484 -0.2361 -0.2707  0.2670
  728TMC3    C110809   4.366   1.943  15.333  0.0058  0.4776  0.7448
  728TMC3    C210810   4.497   1.980  15.355  0.2735 -0.3749  1.1066
  728TMC3    C310811   4.569   2.036  15.254  1.0664 -0.5934  0.2023
  728TMC3    C410812   4.313   1.951  15.207 -0.5842  0.1703 -0.1161
  728TMC3    C510813   4.392   2.010  15.109 -0.5056 -0.4591 -0.2015
  728TMC3    C610814   4.520   2.050  15.127  0.0336  0.0847 -0.0743
  728TMC3     C10815   4.281   1.947  15.445 -0.1983 -0.0737  0.5766
  728TMC3     O10816   4.335   1.953  15.554  0.2185 -0.1423  0.2878
  728TMC3     H10817   4.551   1.967  15.449  1.2134 -0.1712  0.5920
  728TMC3    H110818   4.227   1.892  15.177 -0.3036  1.3926 -3.3034
  728TMC3    H210819   4.585   2.080  15.046 -0.1856 -0.8023 -0.5857
  728TMC3    C710820   4.336   2.006  14.974 -0.3045  0.2049 -0.2937
  728TMC3    C810821   4.694   2.087  15.289  0.0671 -0.0293 -0.3823
  728TMC3    O110822   4.242   1.933  14.947 -0.0724 -0.1618 -0.1468
  728TMC3    O210823   0.018   2.025  15.371  0.4861  0.2469  0.4607
  729MPD2     C10824   1.448   3.086  16.412 -0.5374  0.3128  0.3295
  729MPD2    C110825   1.575   3.116  16.372 -0.6365  0.0770  0.0050
  729MPD2    C210826   1.679   3.086  16.456  0.4328  0.7908 -0.5118
  729MPD2    C310827   1.666   3.047  16.583  0.2561  0.0869 -0.0099
  729MPD2    C410828   1.532   3.026  16.630  0.4765 -0.4474  0.3187
  729MPD2    C510829   1.430   3.049  16.542 -0.2717 -0.8344  0.6796
  729MPD2     H10830   1.781   3.086  16.419  0.8228  2.3075  0.5323
  729MPD2    H110831   1.522   2.986  16.730  0.9024  0.0511  0.5603
  729MPD2    H210832   1.360   3.108  16.352 -0.8330  0.3833  0.7936
  729MPD2    H310833   1.332   3.010  16.565 -1.1877  2.2323  1.8448
  729MPD2     N10834   1.770   3.039  16.677  0.3411 -0.3986 -0.6789
  729MPD2    H510835   1.741   3.036  16.775  0.8255 -0.0034 -0.5254
  729MPD2    N110836   1.592   3.168  16.246  0.6860 -0.9164  0.2374
  729MPD2    H710837   1.513   3.188  16.185 -0.0727  0.2717  1.6091
  730TMC3    C110838   1.980   3.112  16.736 -0.2207  0.1540 -0.1187
  730TMC3    C210839   2.081   3.182  16.677 -0.2375  0.3430  0.1010
  730TMC3    C310840   2.120   3.292  16.734 -0.2265  0.7703 -0.2590
  730TMC3    C410841   1.928   3.151  16.856 -0.2067 -0.0100  0.9744
  730TMC3    C510842   1.979   3.261  16.918 -0.2627  0.5508  0.0694
  730TMC3    C610843   2.089   3.325  16.863 -0.1404  0.3436 -0.2879
  730TMC3     C10844   1.901   3.035  16.646  0.4374  0.3108 -0.4131
  730TMC3     O10845   1.950   3.015  16.536  0.0292  0.3677 -0.2703
  730TMC3     H10846   2.113   3.171  16.574  1.1510 -1.7765  0.7640
  730TMC3    H110847   1.829   3.121  16.890  0.5992 -1.6860  1.8359
  730TMC3    H210848   2.135   3.403  16.923 -0.8516 -0.0224  0.7367
  730TMC3    C710849   1.897   3.318  17.022 -0.4678  0.1348  0.1028
  730TMC3    C810850   2.154   3.408  16.647 -0.1908  0.0881 -0.3169
  730TMC3    O110851   1.883   3.267  17.131  0.1792  0.1109  0.1675
  730TMC3    O210852   2.200   3.387  16.531  0.0466  0.4842  0.2366
  731MPD2     C10853   1.040   1.781  12.388  0.3961  0.3557 -0.2553
  731MPD2    C110854   1.176   1.752  12.400  0.2401  0.3828  0.5068
  731MPD2    C210855   1.225   1.682  12.506  0.6381  0.2530  0.0405
  731MPD2    C310856   1.144   1.618  12.594  0.4307  0.5642  0.0067
  731MPD2    C410857   1.010   1.667  12.594 -0.5199  0.1066 -0.3846
  731MPD2    C510858   0.961   1.742  12.489  0.2050 -0.0434  0.1433
  731MPD2     H10859   1.329   1.653  12.501  0.0982 -2.1165  2.5549
  731MPD2    H110860   0.933   1.624  12.657  1.0379 -2.2813 -0.1329
  731MPD2    H210861   0.996   1.840  12.308 -1.3020 -0.5605  0.0053
  731MPD2    H310862   0.852   1.744  12.485  0.2916 -0.1305 -2.3532
  731MPD2     N10863   1.200   1.535  12.694 -0.2452  0.1609  0.4382
  731MPD2    H510864   1.301   1.528  12.693 -0.3719 -0.8471 -4.0600
  731MPD2    N110865   1.274   1.801  12.315 -0.8896  0.4029  0.2490
  731MPD2    H710866   1.367   1.775  12.347 -0.6442  2.5320  1.2990
  732TMC3    C110867   1.374   1.925  12.138 -0.7433  0.0884  0.5777
  732TMC3    C210868   1.363   2.029  12.053  0.1605 -0.8777 -0.1218
  732TMC3    C310869   1.458   2.053  11.960  0.2025  0.0017  0.1694
  732TMC3    C410870   1.492   1.847  12.131  0.1680 -0.6596 -0.1006
  732TMC3    C510871   1.591   1.890  12.053 -0.2378  0.2427  0.2075
  732TMC3    C610872   1.577   1.990  11.962  0.0114  0.0087  0.0997
  732TMC3     C10873   1.255   1.881  12.212  0.1876 -1.0056  0.0695
  732TMC3     O10874   1.150   1.921  12.165  0.1972  0.6209 -0.1139
  732TMC3     H10875   1.275   2.092  12.063  1.8507  1.7620 -1.9152
  732TMC3    H110876   1.492   1.756  12.189 -2.6597  0.1112  1.1235
  732TMC3    H210877   1.646   2.012  11.881  0.8043 -2.6760  0.0531
  732TMC3    C710878   1.718   1.817  12.069  0.2635 -0.3830  0.5772
  732TMC3    C810879   1.403   2.062  11.829 -0.1284 -0.3055  0.0161
  732TMC3    O110880   1.797   1.818  11.972 -0.2475 -0.1044 -0.3319
  732TMC3    O210881   1.478   2.079  11.738  0.2659  0.7380  0.0444
  733TMC3    C110882   2.061   4.469  12.698 -0.1531 -0.6830  0.8255
  733TMC3    C210883   2.153   4.385  12.762  0.4378 -0.2929 -0.1677
  733TMC3    C310884   2.277   4.383  12.703 -0.5380 -0.6012 -0.4927
  733TMC3    C410885   2.087   4.536  12.580 -0.4071  0.6309 -0.2794
  733TMC3    C510886   2.212   4.521  12.520 -0.0616  0.1673  0.7722
  733TMC3    C610887   2.308   4.445  12.578  0.5765 -0.0509  0.3086
  733TMC3     C10888   1.931   4.493  12.757  0.2196  0.3525 -0.0602
  733TMC3     O10889   1.870   4.583  12.702  0.2205 -0.3842 -0.2467
  733TMC3     H10890   2.134   4.337  12.857  0.8529  1.1314  0.6201
  733TMC3    H110891   2.014   4.601  12.532 -0.7813 -1.0948 -2.0369
  733TMC3    H210892   2.401   4.426  12.527  0.2406 -0.3412 -0.2008
  733TMC3    C710893   2.247   4.611  12.403  0.3494 -0.3677 -0.0143
  733TMC3    C810894   2.384   4.316  12.780  0.2514  0.6535  0.0679
  733TMC3    O110895   2.160   4.660  12.329  0.1825  0.3796  0.2157
  733TMC3    O210896   2.361   4.255  12.884 -0.0054  0.3130  0.4637
  734MPD2     C10897   4.114   2.096  12.737 -0.4917 -0.0968 -0.4455
  734MPD2    C110898   4.030   2.022  12.652 -0.4260  0.6750 -0.2891
  734MPD2    C210899   3.992   2.081  12.535 -0.2417  0.2365  0.2438
  734MPD2    C310900   4.034   2.206  12.504 -0.6070 -0.3906  0.5613
  734MPD2    C410901   4.106   2.278  12.595  0.7007  0.1446  0.2081
  734MPD2    C510902   4.149   2.224  12.712 -0.0280 -0.4719  0.4024
  734MPD2     H10903   3.927   2.035  12.462 -0.6328 -0.9777  1.3480
  734MPD2    H110904   4.124   2.383  12.574  1.6531  0.4483  2.5780
  734MPD2    H210905   4.158   2.045  12.822  0.0476 -2.5619 -2.2075
  734MPD2    H310906   4.212   2.289  12.771 -2.9821  2.6064  0.1517
  734MPD2     N10907   3.993   2.257  12.381  1.0085  0.6434  0.1711
  734MPD2    H510908   3.945   2.190  12.321  3.3457 -1.5335  0.7218
  734MPD2    N110909   3.996   1.889  12.690 -0.0985 -0.3612 -0.4394
  734MPD2    H710910   4.034   1.861  12.780  0.8894  1.5766 -0.2648
  735TMC3    C110911   3.939   1.663  12.643  0.4756  0.3818 -0.1137
  735TMC3    C210912   3.842   1.595  12.568  0.3117 -0.5174  0.5164
  735TMC3    C310913   3.873   1.481  12.492 -0.0165  0.1443  0.9279
  735TMC3    C410914   4.067   1.619  12.634  0.2774 -0.5756  0.9630
  735TMC3    C510915   4.097   1.509  12.555 -0.6536  0.0880 -0.1974
  735TMC3    C610916   4.002   1.438  12.495 -0.1840  0.0919 -0.0760
  735TMC3     C10917   3.926   1.800  12.611  0.3161  0.8943  0.1016
  735TMC3     O10918   3.880   1.818  12.501 -0.3131  0.3599 -0.0483
  735TMC3     H10919   3.742   1.635  12.556  0.0966 -0.8334  1.3257
  735TMC3    H110920   4.146   1.678  12.679  0.7049 -0.1587 -0.3454
  735TMC3    H210921   4.024   1.349  12.437  0.0236 -0.5727  1.0452
  735TMC3    C710922   4.235   1.475  12.529  0.8336 -0.0391 -0.4266
  735TMC3    C810923   3.816   1.490  12.360 -0.5611  0.0908  1.0997
  735TMC3    O110924   4.318   1.563  12.554  0.5254 -0.2884 -0.0475
  735TMC3    O210925   3.772   1.389  12.301 -0.4577 -0.2559 -0.0189
  736MPD2     C10926   4.331   1.127  12.504 -0.4163 -0.5194  0.3319
  736MPD2    C110927   4.356   1.265  12.497  0.0516  0.3947 -0.0029
  736MPD2    C210928   4.488   1.309  12.493  0.1123  0.3132  0.3325
  736MPD2    C310929   4.592   1.226  12.459 -0.0186 -0.3541 -0.0857
  736MPD2    C410930   4.566   1.087  12.461  0.4530  0.0509  0.0961
  736MPD2    C510931   4.441   1.045  12.487  0.0814 -0.1506  0.7668
  736MPD2     H10932   4.502   1.416  12.501  0.4276  0.5121 -2.5601
  736MPD2    H110933   4.638   1.014  12.426  0.1860  0.1010 -0.5665
  736MPD2    H210934   4.229   1.092  12.518 -1.1529  2.2540  1.7997
  736MPD2    H310935   4.433   0.937  12.494 -0.8540 -0.0610  1.0834
  736MPD2     N10936   4.723   1.275  12.429 -0.0518 -0.0872 -0.6504
  736MPD2    H510937   0.055   1.203  12.408 -0.1860 -0.6365  0.7572
  736MPD2    N110938   4.242   1.340  12.516 -0.4843 -0.1662 -0.2844
  736MPD2    H710939   4.159   1.286  12.533 -0.3770 -0.5904 -1.1377
  737TMC3    C110940   0.156   1.423  12.367 -0.3052  0.6805  0.4667
  737TMC3    C210941   0.183   1.559  12.358  0.1325 -0.8159 -0.0898
  737TMC3    C310942   0.233   1.608  12.238 -0.1970 -0.5353  0.3270
  737TMC3    C410943   0.183   1.336  12.265 -0.1689  0.6615 -0.7737
  737TMC3    C510944   0.226   1.390  12.147  0.2271  0.1178 -0.0018
  737TMC3    C610945   0.250   1.524  12.132 -0.0972 -0.5891 -0.6441
  737TMC3     C10946   0.030   1.403  12.444  0.5072 -0.6892 -0.2598
  737TMC3     O10947   4.707   1.510  12.470  0.3586  0.1121  0.5833
  737TMC3     H10948   0.158   1.629  12.437  0.0357  0.1918 -0.9975
  737TMC3    H110949   0.164   1.229  12.272 -1.8681  1.0698  1.1661
  737TMC3    H210950   0.287   1.569  12.040  0.3053 -1.4595 -0.9062
  737TMC3    C710951   0.242   1.301  12.030 -0.5041  0.7156 -0.7719
  737TMC3    C810952   0.221   1.757  12.213 -0.5156 -0.4152  0.5968
  737TMC3    O110953   0.221   1.187  12.055  0.1149 -0.1869  1.0238
  737TMC3    O210954   0.195   1.822  12.314 -0.0987 -0.4654  0.2009
  738MPD2     C10955   0.432   0.807  15.186  0.0118  0.0742 -0.0773
  738MPD2    C110956   0.457   0.712  15.087 -0.0970 -0.1902 -0.6389
  738MPD2    C210957   0.553   0.735  14.989 -0.4489  0.2434 -0.4831
  738MPD2    C310958   0.637   0.848  14.994 -0.5617  0.4265 -0.0257
  738MPD2    C410959   0.612   0.940  15.094 -0.9026  0.6170 -0.4843
  738MPD2    C510960   0.511   0.917  15.188  0.3092 -0.2321 -0.1307
  738MPD2     H10961   0.583   0.662  14.915 -0.5485 -1.2246  0.9121
  738MPD2    H110962   0.658   1.038  15.099 -1.4070  0.8430 -0.3124
  738MPD2    H210963   0.347   0.809  15.253  0.1177  0.2411  0.0543
  738MPD2    H310964   0.496   0.981  15.273  3.4466  0.4832 -0.1404
  738MPD2     N10965   0.751   0.879  14.914  0.2972  0.1349 -0.0839
  738MPD2    H510966   0.794   0.965  14.944 -2.1737  1.6104 -0.7532
  738MPD2    N110967   0.394   0.587  15.081  0.5182  0.0632  0.7498
  738MPD2    H710968   0.412   0.525  15.004 -1.0582 -0.8284  1.1034
  739TMC3    C110969   0.933   0.863  14.777  0.3959 -0.0934 -0.5483
  739TMC3    C210970   0.988   0.838  14.658  0.6632  0.4455 -0.3394
  739TMC3    C310971   1.103   0.900  14.623 -0.2394  0.4565  0.9888
  739TMC3    C410972   1.002   0.938  14.873  0.5075 -0.5068  0.2680
  739TMC3    C510973   1.126   0.994  14.832 -0.8256  0.0750 -0.5887
  739TMC3    C610974   1.176   0.987  14.701 -0.3614 -0.3347 -0.6370
  739TMC3     C10975   0.808   0.799  14.816 -0.5964 -0.2374 -0.5447
  739TMC3     O10976   0.770   0.697  14.761 -0.2679 -0.3178  0.7229
  739TMC3     H10977   0.938   0.768  14.592 -0.5665  0.8516  0.1560
  739TMC3    H110978   0.972   0.931  14.977  0.5726 -2.2787  0.1761
  739TMC3    H210979   1.252   1.057  14.669  0.8655 -0.7721  1.3304
  739TMC3    C710980   1.164   1.102  14.920 -0.2131  0.3744 -0.2446
  739TMC3    C810981   1.125   0.894  14.481  0.1309 -0.2258 -0.0163
  739TMC3    O110982   1.126   1.094  15.035 -0.0444  0.2414  0.1855
  739TMC3    O210983   1.029   0.893  14.409 -0.2900 -0.9178  0.2931
  740TMC3    C110984   1.215   2.103  14.562 -0.7881  0.0793  0.0893
  740TMC3    C210985   1.274   2.129  14.680  0.7340 -0.1056 -0.5220
  740TMC3    C310986   1.401   2.173  14.677 -0.7027  0.5940 -0.8412
  740TMC3    C410987   1.291   2.119  14.445 -0.0881  0.2042  0.1787
  740TMC3    C510988   1.413   2.161  14.446  0.3710  0.5023  0.1645
  740TMC3    C610989   1.474   2.180  14.565 -1.1974  0.3041  0.2306
  740TMC3     C10990   1.070   2.096  14.544  0.0312  0.4848 -0.4292
  740TMC3     O10991   1.026   2.138  14.438 -0.0763  0.3511  0.3693
  740TMC3     H10992   1.208   2.131  14.766  0.3393 -0.0450 -0.8245
  740TMC3    H110993   1.246   2.077  14.355 -0.2295  1.6326 -0.4245
  740TMC3    H210994   1.575   2.219  14.576 -1.3252  0.8054 -0.3378
  740TMC3    C710995   1.496   2.132  14.331 -0.5982 -0.1921 -0.4215
  740TMC3    C810996   1.453   2.228  14.801  0.1652 -0.8886 -0.4729
  740TMC3    O110997   1.612   2.107  14.356  0.2911  0.3693 -0.2660
  740TMC3    O210998   1.375   2.293  14.866 -0.1074 -0.2574  0.0325
  741TMC3    C110999   1.018   1.284  14.570  0.4345 -0.4345 -0.4882
  741TMC3    C211000   0.935   1.188  14.525  0.3393  0.0084  0.1852
  741TMC3    C311001   0.835   1.141  14.599  0.1723 -0.3173 -0.6663
  741TMC3    C411002   1.003   1.340  14.690  0.4170  0.1130 -0.3146
  741TMC3    C511003   0.890   1.300  14.759 -0.1288  0.9961  0.0148
  741TMC3    C611004   0.802   1.206  14.717  0.7212  0.7362 -0.0137
  741TMC3     C11005   1.137   1.308  14.498  0.7182  0.5423  0.1849
  741TMC3     O11006   1.236   1.298  14.573  0.0251  0.5352  0.3989
  741TMC3     H11007   0.940   1.140  14.427  1.4857  1.0327 -0.2473
  741TMC3    H111008   1.069   1.417  14.727 -0.8036  0.5917  0.8925
  741TMC3    H211009   0.715   1.177  14.774  1.5903 -0.8444  0.4981
  741TMC3    C711010   0.873   1.338  14.901  0.1801 -0.1354 -0.1701
  741TMC3    C811011   0.726   1.061  14.545  0.9222 -0.1336 -0.3364
  741TMC3    O111012   0.817   1.254  14.972  0.1839 -0.1535 -0.4039
  741TMC3    O211013   0.621   1.093  14.600  0.1560  0.3247  0.0756
  742TMC3    C111014   1.093   0.195  15.225 -0.2652  0.1281  0.0348
  742TMC3    C211015   1.006   0.136  15.137 -0.2823 -0.5766  0.3690
  742TMC3    C311016   1.039   0.043  15.045 -0.1266  0.2835 -0.1957
  742TMC3    C411017   1.222   0.155  15.217 -0.5560 -0.0700 -0.0713
  742TMC3    C511018   1.253   0.053  15.135 -0.1042 -0.3969 -0.0104
  742TMC3    C611019   1.169   0.001  15.043  0.3464 -0.1562  0.2530
  742TMC3     C11020   1.043   0.290  15.320  0.1395  0.6623 -0.4870
  742TMC3     O11021   0.942   0.351  15.291  0.0521  0.1690  0.7210
  742TMC3     H11022   0.901   0.154  15.159  0.0378 -0.2723  1.6552
  742TMC3    H111023   1.303   0.190  15.280 -1.6922 -0.2321  1.4765
  742TMC3    H211024   1.204   4.658  14.978 -0.6896 -2.3006  2.3070
  742TMC3    C711025   1.342   4.680  15.181 -0.1154  0.1314 -0.5310
  742TMC3    C811026   0.939   4.701  14.965 -0.2068  0.1151 -0.0517
  742TMC3    O111027   1.293   4.565  15.171 -0.8932 -0.3450 -0.3681
  742TMC3    O211028   0.982   4.603  14.901 -0.7069 -0.1196 -0.0271
  743MPD2     C11029   2.842   2.167   1.636 -0.0406  0.5166 -0.3584
  743MPD2    C111030   2.902   2.099   1.525  0.8995  0.0203  0.1863
  743MPD2    C211031   3.031   2.130   1.489  0.2431  0.2172 -0.5662
  743MPD2    C311032   3.105   2.220   1.557 -0.1668  0.0843  0.0996
  743MPD2    C411033   3.048   2.293   1.664  0.8534 -0.4433 -0.3060
  743MPD2    C511034   2.912   2.271   1.692 -0.0651  0.5966  0.5050
  743MPD2     H11035   3.091   2.070   1.421 -0.6312 -0.6228 -0.5865
  743MPD2    H111036   3.095   2.366   1.729 -0.7474  0.3119  0.0109
  743MPD2    H211037   2.740   2.141   1.658  0.3111 -1.3587 -0.8953
  743MPD2    H311038   2.872   2.327   1.776 -0.7316  0.9707 -0.0573
  743MPD2     N11039   3.248   2.226   1.537  0.1486  0.0487 -0.2264
  743MPD2    H511040   3.282   2.175   1.456  2.4364  0.4851  0.4717
  743MPD2    N111041   2.838   1.982   1.480  0.0690 -0.4542 -0.2373
  743MPD2    H711042   2.745   1.957   1.513  0.0098 -0.1958 -0.2138
  744TMC3    C111043   2.821   1.757   1.401  0.2295  0.2398 -0.4436
  744TMC3    C211044   2.688   1.750   1.416 -0.1076  0.2468  0.2248
  744TMC3    C311045   2.632   1.624   1.406 -0.1284  0.5736  0.2732
  744TMC3    C411046   2.904   1.649   1.384  1.2884  0.9344  0.7809
  744TMC3    C511047   2.840   1.531   1.362 -0.4989 -0.1164 -0.3418
  744TMC3    C611048   2.705   1.512   1.380  0.6425 -0.6120  0.6725
  744TMC3     C11049   2.893   1.883   1.398  0.1108 -0.0335  0.5059
  744TMC3     O11050   2.999   1.886   1.331  0.0194 -0.3127  0.7152
  744TMC3     H11051   2.628   1.840   1.431 -1.9040 -0.4967 -2.4235
  744TMC3    H111052   3.009   1.667   1.364  0.9356  2.2107  0.0915
  744TMC3    H211053   2.668   1.410   1.374 -1.0671 -0.0802  2.4218
  744TMC3    C711054   2.905   1.458   1.259 -0.3119  0.1387  0.1972
  744TMC3    C811055   2.513   1.628   1.325  1.1004 -0.2509  0.1600
  744TMC3    O111056   3.029   1.463   1.240 -0.1291 -0.3902  0.6144
  744TMC3    O211057   2.508   1.716   1.240  0.5100 -0.2269 -0.6521
  745TMC3    C111058   0.646   4.115  13.592 -0.1629  0.4428 -0.3308
  745TMC3    C211059   0.538   4.078  13.673  0.0196 -0.7689 -0.7005
  745TMC3    C311060   0.425   4.144  13.671 -0.6643  0.6511 -0.0831
  745TMC3    C411061   0.636   4.227  13.515 -0.1422 -0.1076  0.4049
  745TMC3    C511062   0.513   4.288  13.505  0.1495  0.7420  0.3681
  745TMC3    C611063   0.411   4.246  13.581 -0.2958 -0.9217  0.7669
  745TMC3     C11064   0.769   4.091  13.657  0.1610  0.3339 -0.2000
  745TMC3     O11065   0.782   3.982  13.714  0.1024 -0.3349 -0.0623
  745TMC3     H11066   0.542   3.988  13.733  0.0359 -0.5302 -0.3421
  745TMC3    H111067   0.725   4.253  13.458  0.1428 -3.2433 -0.6293
  745TMC3    H211068   0.326   4.313  13.590 -1.6524 -2.8177  1.9384
  745TMC3    C711069   0.495   4.416  13.437  0.0873 -0.3344 -0.2246
  745TMC3    C811070   0.379   4.192  13.801  0.5031 -0.0038 -0.4314
  745TMC3    O111071   0.386   4.470  13.443  0.3894 -0.6507 -0.3279
  745TMC3    O211072   0.277   4.259  13.799 -0.1268  0.4444 -0.5279
  746TMC3    C111073   3.473   1.446  11.219  0.2057  0.4217 -0.7677
  746TMC3    C211074   3.530   1.413  11.098  0.7765 -0.4027  0.3064
  746TMC3    C311075   3.547   1.285  11.065 -0.0728 -0.8029 -0.0123
  746TMC3    C411076   3.430   1.341  11.294  0.1190 -0.4837  0.5952
  746TMC3    C511077   3.464   1.213  11.263 -0.5206  0.2701 -0.0625
  746TMC3    C611078   3.531   1.183  11.153  0.5318 -0.1772  0.1534
  746TMC3     C11079   3.391   1.573  11.238 -0.3178 -0.1011 -0.0846
  746TMC3     O11080   3.289   1.557  11.304  0.0835 -0.6469 -0.8719
  746TMC3     H11081   3.544   1.499  11.033  1.4030 -1.3088 -0.7573
  746TMC3    H111082   3.375   1.360  11.386  2.0537 -2.8106  2.2662
  746TMC3    H211083   3.552   1.081  11.121  0.2096 -0.2404  0.1417
  746TMC3    C711084   3.391   1.107  11.319  0.2709 -0.2705  0.5135
  746TMC3    C811085   3.575   1.252  10.925 -0.3044 -0.4829 -0.8308
  746TMC3    O111086   3.367   1.011  11.245 -0.1252  0.4088 -0.4665
  746TMC3    O211087   3.664   1.171  10.903 -0.3074  0.0684 -0.2129
  747TMC3    C111088   0.732   1.438  11.102 -0.4974  0.5325  0.3456
  747TMC3    C211089   0.635   1.368  11.165 -0.0111 -0.3586 -0.1591
  747TMC3    C311090   0.612   1.393  11.296 -0.8867  0.6665 -0.0550
  747TMC3    C411091   0.811   1.520  11.165  0.0167  0.2815 -0.3338
  747TMC3    C511092   0.782   1.558  11.291  0.1727 -0.4387 -0.2267
  747TMC3    C611093   0.675   1.501  11.364 -0.2011  0.6704  0.0603
  747TMC3     C11094   0.717   1.470  10.962 -0.5392 -0.3007 -0.7617
  747TMC3     O11095   0.724   1.592  10.937  0.0342 -0.5789  0.0489
  747TMC3     H11096   0.584   1.297  11.100 -2.0057  1.4249 -0.5195
  747TMC3    H111097   0.893   1.565  11.110 -0.4280 -0.1565 -1.3628
  747TMC3    H211098   0.670   1.509  11.472  0.4859 -1.4426  0.2554
  747TMC3    C711099   0.771   1.703  11.315 -0.2994 -0.4959 -0.0474
  747TMC3    C811100   0.546   1.293  11.368 -0.0605 -0.0260 -0.7459
  747TMC3    O111101   0.711   1.736  11.415 -0.3255 -0.3827 -0.1764
  747TMC3    O211102   0.546   1.183  11.314 -0.4868  0.3970  0.6841
  748MPD2     C11103   2.602   2.592   0.924 -0.3606 -0.2302  0.0483
  748MPD2    C111104   2.690   2.485   0.913  0.0044  0.0513  0.6704
  748MPD2    C211105   2.820   2.518   0.884  0.7050 -0.3231  0.3340
  748MPD2    C311106   2.860   2.646   0.850 -0.1997  0.2070  0.0029
  748MPD2    C411107   2.767   2.748   0.858  0.0245  1.1231  0.1730
  748MPD2    C511108   2.640   2.719   0.903 -0.6531  0.5887  0.0072
  748MPD2     H11109   2.890   2.438   0.865  1.1925 -0.8620  4.4533
  748MPD2    H111110   2.785   2.854   0.849 -0.4366  1.0564 -1.5964
  748MPD2    H211111   2.502   2.578   0.963 -1.2620 -0.1577 -2.2081
  748MPD2    H311112   2.572   2.802   0.920  0.0506  1.3680 -0.9568
  748MPD2     N11113   2.995   2.672   0.811  0.2730  0.2913  0.5723
  748MPD2    H511114   3.065   2.599   0.815  0.3370  0.3606  0.7050
  748MPD2    N111115   2.637   2.361   0.952  0.1149 -0.1623 -0.6201
  748MPD2    H711116   2.540   2.357   0.981  0.3735  1.7115  0.5144
  749TMC3    C111117   3.169   2.807   0.722 -0.1318 -0.0328  0.3915
  749TMC3    C211118   3.262   2.798   0.827  0.4191  0.5313 -0.9541
  749TMC3    C311119   3.359   2.895   0.841  0.1346 -0.1216 -0.6660
  749TMC3    C411120   3.173   2.913   0.639  0.4365  0.5395  0.2689
  749TMC3    C511121   3.257   3.021   0.665 -0.0508 -0.7374 -0.3068
  749TMC3    C611122   3.352   3.010   0.766  0.2611  0.0868  0.0099
  749TMC3     C11123   3.030   2.797   0.763  1.0957 -0.7557 -0.7299
  749TMC3     O11124   2.955   2.867   0.695  0.0608  0.3203 -0.9353
  749TMC3     H11125   3.259   2.711   0.891  0.7603  0.2873 -1.2746
  749TMC3    H111126   3.110   2.916   0.551 -1.1748 -1.1291  1.3641
  749TMC3    H211127   3.423   3.091   0.783  1.9379 -1.7306  1.6193
  749TMC3    C711128   3.219   3.154   0.622  0.1266  0.8060  0.2386
  749TMC3    C811129   3.457   2.901   0.952  0.0397 -0.1361 -0.2509
  749TMC3    O111130   3.305   3.231   0.646 -0.0987 -1.2210  0.5575
  749TMC3    O211131   3.524   3.005   0.961 -0.0825  0.5941  0.1547
  750MPD2     C11132   2.951   3.219  11.434 -0.4478  0.6569 -0.1058
  750MPD2    C111133   2.854   3.131  11.479  0.2626  0.3382  0.3424
  750MPD2    C211134   2.803   3.031  11.401  0.0027  1.2420  0.7210
  750MPD2    C311135   2.842   3.016  11.270  0.1182  0.2931 -0.3307
  750MPD2    C411136   2.947   3.095  11.229  0.0592  0.4921  0.5270
  750MPD2    C511137   2.999   3.192  11.305  0.6337 -0.0897 -0.2607
  750MPD2     H11138   2.724   2.964  11.433  0.0533  0.7096 -0.2909
  750MPD2    H111139   2.993   3.088  11.132 -2.2959 -0.8859 -0.4892
  750MPD2    H211140   2.985   3.302  11.494  1.8436 -0.6230  0.3787
  750MPD2    H311141   3.077   3.257  11.270  0.9362 -0.9530 -1.1945
  750MPD2     N11142   2.791   2.911  11.187 -0.2304  0.1949  0.0726
  750MPD2    H511143   2.837   2.904  11.097 -1.1739  1.4336 -0.5072
  750MPD2    N111144   2.803   3.150  11.610 -0.4345  0.7160  0.5763
  750MPD2    H711145   2.838   3.234  11.655  0.7032  0.1009  0.8263
  751TMC3    C111146   2.645   2.740  11.111  0.4507 -0.4728  1.0058
  751TMC3    C211147   2.529   2.676  11.121 -0.2143  1.2023  0.2716
  751TMC3    C311148   2.497   2.582  11.034 -0.1452 -0.0486  0.0450
  751TMC3    C411149   2.740   2.696  11.024 -0.5118  0.3563  0.2367
  751TMC3    C511150   2.703   2.597  10.933  0.0124  0.1591  0.1666
  751TMC3    C611151   2.576   2.544  10.934 -0.1219  0.2522 -0.1034
  751TMC3     C11152   2.679   2.833  11.213  0.2583 -0.2403 -0.4639
  751TMC3     O11153   2.602   2.846  11.308 -0.0534  0.2757 -0.1262
  751TMC3     H11154   2.476   2.695  11.213  0.3320  1.0169  0.6287
  751TMC3    H111155   2.837   2.743  11.012  0.6887 -2.0953  0.5208
  751TMC3    H211156   2.548   2.462  10.869 -1.0112 -0.4701  1.1823
  751TMC3    C711157   2.811   2.548  10.845 -0.3173  0.6119 -0.0283
  751TMC3    C811158   2.381   2.504  11.034 -0.4327 -0.3138  0.4389
  751TMC3    O111159   2.928   2.567  10.872 -0.0078  0.0028  0.0881
  751TMC3    O211160   2.347   2.439  10.937 -0.4014 -0.4433 -0.1571
  752TMC3    C111161   2.604   3.383  16.359  0.0629  0.1362  0.3638
  752TMC3    C211162   2.730   3.334  16.340 -0.5001 -0.7200  0.1612
  752TMC3    C311163   2.779   3.261  16.446 -0.0858  0.1246 -0.0771
  752TMC3    C411164   2.533   3.357  16.472  0.0774  0.0301 -0.1328
  752TMC3    C511165   2.580   3.275  16.568 -0.1845 -0.1316 -0.4632
  752TMC3    C611166   2.706   3.231  16.557  0.3171 -0.9441  0.5370
  752TMC3     C11167   2.562   3.487  16.278  0.8238  0.7075 -0.1094
  752TMC3     O11168   2.601   3.596  16.315  0.0804  0.1952  0.5065
  752TMC3     H11169   2.794   3.363  16.257  0.1841 -0.2865  0.8358
  752TMC3    H111170   2.433   3.396  16.476 -0.4046 -1.2952  0.9045
  752TMC3    H211171   2.754   3.185  16.643  1.4174 -0.0195  0.4046
  752TMC3    C711172   2.532   3.279  16.701  0.0888 -0.0607  0.2825
  752TMC3    C811173   2.894   3.177  16.412 -0.1032 -0.5887 -0.3409
  752TMC3    O111174   2.532   3.173  16.766  0.0314  0.3533 -0.2403
  752TMC3    O211175   2.940   3.200  16.301  0.3067  0.3007  0.4214
  753TMC3    C111176   3.979   4.085  13.334 -0.3771  0.4071 -0.0247
  753TMC3    C211177   4.045   4.092  13.455 -0.0320 -0.1336  0.3282
  753TMC3    C311178   4.033   3.990  13.546  0.6040 -0.0105 -0.2246
  753TMC3    C411179   3.896   3.978  13.312 -0.3846  0.4401  0.6878
  753TMC3    C511180   3.888   3.876  13.401 -0.5800  0.7130  0.1308
  753TMC3    C611181   3.952   3.882  13.520  0.5484 -0.3307  0.3942
  753TMC3     C11182   3.968   4.198  13.239  0.3698 -0.2621 -0.2252
  753TMC3     O11183   3.920   4.167  13.132 -0.5529  0.2896  0.0920
  753TMC3     H11184   4.134   4.153  13.469 -1.2051  1.6230  0.1228
  753TMC3    H111185   3.839   3.964  13.221  0.7538 -1.0388  0.1989
  753TMC3    H211186   3.957   3.795  13.585  3.5863  0.3064  1.0432
  753TMC3    C711187   3.871   3.744  13.347  0.3606 -0.4148  0.4483
  753TMC3    C811188   4.131   3.978  13.650  0.2590 -0.2531  0.5105
  753TMC3    O111189   3.919   3.707  13.238  0.0231 -0.0688  0.7218
  753TMC3    O211190   4.149   3.863  13.692  0.6394  0.1430  0.3491
  754MPD2     C11191   2.539   2.069  12.754 -0.6786  0.1555 -0.2523
  754MPD2    C111192   2.519   2.184  12.827  0.2510 -0.4951  0.3329
  754MPD2    C211193   2.487   2.300  12.755 -0.6190  0.2055  0.5963
  754MPD2    C311194   2.473   2.301  12.618 -0.4552  0.1307 -0.3726
  754MPD2    C411195   2.491   2.184  12.555  0.5962  0.7662 -0.6887
  754MPD2    C511196   2.522   2.067  12.619 -0.1419  0.2977 -0.7209
  754MPD2     H11197   2.482   2.391  12.815 -1.9022  0.1119  0.6353
  754MPD2    H111198   2.487   2.178  12.447  0.7747  1.1392 -0.7162
  754MPD2    H211199   2.567   1.975  12.801  0.0752 -0.6215 -2.2278
  754MPD2    H311200   2.537   1.979  12.557  2.5111  1.0677 -1.1838
  754MPD2     N11201   2.428   2.413  12.543  0.1760  0.3160 -0.5093
  754MPD2    H511202   2.396   2.401  12.448 -0.5298  0.1754 -0.2520
  754MPD2    N111203   2.544   2.190  12.965 -0.3012  0.5029  0.0212
  754MPD2    H711204   2.575   2.104  13.009 -0.0836  1.7812  2.3589
  755MPD2     C11205   2.522   3.265  12.975 -0.3533  0.2102  0.5410
  755MPD2    C111206   2.411   3.189  13.010  0.5051 -0.4177 -0.0098
  755MPD2    C211207   2.355   3.109  12.910 -0.3201 -0.3277 -0.2677
  755MPD2    C311208   2.400   3.108  12.776  0.2461  0.2490  0.1212
  755MPD2    C411209   2.506   3.182  12.748 -0.0828  0.7487 -0.2958
  755MPD2    C511210   2.567   3.263  12.848  0.3890  0.1558  0.2917
  755MPD2     H11211   2.270   3.047  12.935  0.5810 -1.4009  0.1096
  755MPD2    H111212   2.558   3.181  12.653 -1.6096 -1.6511 -1.1097
  755MPD2    H211213   2.582   3.305  13.056 -1.1760 -0.3122  1.4169
  755MPD2    H311214   2.655   3.324  12.828 -0.3205  0.8893 -0.6005
  755MPD2     N11215   2.355   3.015  12.687  0.5301  0.4412  0.1331
  755MPD2    H511216   2.423   2.985  12.618  2.3287  1.2623  1.5750
  755MPD2    N111217   2.349   3.192  13.143  0.6546  0.4658 -0.0666
  755MPD2    H711218   2.278   3.125  13.171 -0.5046  1.9400  0.5335
  756MPD2     C11219   3.286   3.892  10.217  0.7451  0.7434 -0.9576
  756MPD2    C111220   3.186   3.797  10.218 -0.1560 -1.0136 -0.0071
  756MPD2    C211221   3.083   3.808  10.130  0.9717  0.7711  0.2243
  756MPD2    C311222   3.066   3.915  10.044  0.1045  0.1043  0.0546
  756MPD2    C411223   3.157   4.016  10.056  0.3707 -0.1778  0.1690
  756MPD2    C511224   3.258   4.006  10.147  0.1780  0.4913  0.0380
  756MPD2     H11225   3.014   3.725  10.116  1.8303  0.3117 -1.2646
  756MPD2    H111226   3.144   4.109  10.003  1.0816 -0.7834 -1.0658
  756MPD2    H211227   3.373   3.890  10.282 -1.0512  2.5525  1.5070
  756MPD2    H311228   3.326   4.089  10.165  2.0712 -1.3823  1.4408
  756MPD2     N11229   2.957   3.916   9.951  1.0095 -0.1151 -0.4613
  756MPD2    H511230   2.903   3.831   9.939  0.0436  0.6373 -1.4476
  756MPD2    N111231   3.176   3.689  10.313 -0.6868 -0.0653 -0.4968
  756MPD2    H711232   3.090   3.635  10.303 -1.5405  1.1344  0.3360
  757MPD2     C11233   2.855   3.200   9.717 -0.5044 -0.0378 -0.1410
  757MPD2    C111234   2.777   3.254   9.818 -0.2976 -0.7997 -0.1842
  757MPD2    C211235   2.750   3.390   9.805 -0.0596  0.2184 -0.1489
  757MPD2    C311236   2.784   3.453   9.689  0.2501  0.4518  0.1235
  757MPD2    C411237   2.838   3.389   9.581 -0.8428 -0.2342  0.1187
  757MPD2    C511238   2.879   3.265   9.599 -0.7091  0.2070 -0.2450
  757MPD2     H11239   2.701   3.449   9.881 -2.7277  0.4440 -2.0512
  757MPD2    H111240   2.881   3.434   9.492  0.1981 -0.3304  0.5692
  757MPD2    H211241   2.899   3.103   9.737  0.7375  0.7054  0.7590
  757MPD2    H311242   2.937   3.212   9.525 -0.7891 -1.8831  1.1955
  757MPD2     N11243   2.774   3.594   9.690  0.6040  1.0758 -0.1813
  757MPD2    H511244   2.777   3.647   9.776 -3.1640 -0.0038  0.6135
  757MPD2    N111245   2.761   3.173   9.932  0.5208 -0.4966  0.2112
  757MPD2    H711246   2.782   3.074   9.922  0.6823 -0.4823  0.4068
  758MPD2     C11247   3.221   2.224  15.475  0.2099  0.0411  0.2175
  758MPD2    C111248   3.326   2.259  15.561  0.1179 -0.1935 -0.0003
  758MPD2    C211249   3.290   2.292  15.689 -0.3628 -0.3894 -0.2063
  758MPD2    C311250   3.162   2.305  15.736  0.1771 -0.7269 -1.0505
  758MPD2    C411251   3.059   2.277  15.643  0.5041 -0.3744  0.1335
  758MPD2    C511252   3.093   2.239  15.517  0.6323  0.6262 -1.2937
  758MPD2     H11253   3.370   2.290  15.763  0.3760  0.4296 -0.9835
  758MPD2    H111254   2.955   2.291  15.672  0.2021  1.3417 -1.7634
  758MPD2    H211255   3.259   2.199  15.377  1.0364  2.3284 -0.0518
  758MPD2    H311256   3.012   2.210  15.450  0.2449  0.7234 -0.8656
  758MPD2     N11257   3.120   2.322  15.869 -0.0586 -0.0672 -0.2600
  758MPD2    H511258   3.020   2.319  15.887  0.4261  2.8691  2.9206
  758MPD2    N111259   3.464   2.253  15.520 -0.5423 -0.3112  0.0034
  758MPD2    H711260   3.492   2.203  15.436  0.8281  1.2151 -0.4437
  759MPD2     C11261   1.851   0.814  10.938  0.2216 -0.2151 -0.3287
  759MPD2    C111262   1.742   0.771  10.866 -0.1828 -0.2029 -0.2191
  759MPD2    C211263   1.693   0.845  10.761  0.1403  0.3880  0.3985
  759MPD2    C311264   1.752   0.965  10.727  0.1634 -0.2564  0.1513
  759MPD2    C411265   1.860   1.005  10.798  0.2782  0.9148  0.6073
  759MPD2    C511266   1.909   0.930  10.900  0.3969 -0.0799  0.5961
  759MPD2     H11267   1.609   0.812  10.700  1.8977 -2.5772 -0.4428
  759MPD2    H111268   1.906   1.097  10.764  2.1935 -0.3041 -0.0784
  759MPD2    H211269   1.890   0.754  11.019 -0.6258  0.0050  0.2452
  759MPD2    H311270   1.999   0.964  10.950  0.6933  0.3177 -0.2052
  759MPD2     N11271   1.701   1.032  10.617  0.1618  0.7012  0.8076
  759MPD2    H511272   1.636   0.973  10.566 -0.0929  1.0244  0.7622
  759MPD2    N111273   1.676   0.646  10.897  0.7667  0.2653 -0.0991
  759MPD2    H711274   1.613   0.613  10.824  0.1568 -1.0317  1.0146
  760MPD2     C11275   1.160   3.184  11.809 -0.3881  0.4275  0.0420
  760MPD2    C111276   1.262   3.135  11.730  0.1670  0.2699 -0.0791
  760MPD2    C211277   1.230   3.032  11.651 -0.2526  0.0838 -0.6834
  760MPD2    C311278   1.108   2.972  11.644  0.2565 -0.6648  0.4145
  760MPD2    C411279   1.012   3.008  11.736 -0.6639 -0.3642  0.6678
  760MPD2    C511280   1.031   3.117  11.815 -0.4306 -0.7919 -0.0770
  760MPD2     H11281   1.316   2.993  11.597 -0.7026  1.1902 -2.2025
  760MPD2    H111282   0.930   2.943  11.764 -1.9411  0.7064 -0.5713
  760MPD2    H211283   1.175   3.271  11.872 -2.4870 -0.5122  1.8327
  760MPD2    H311284   0.957   3.132  11.892 -0.2035 -2.3221  0.4402
  760MPD2     N11285   1.094   2.841  11.589 -0.1509 -0.4727 -0.1960
  760MPD2    H511286   1.001   2.802  11.593  0.0153 -0.9235 -0.6551
  760MPD2    N111287   1.390   3.200  11.717 -0.9541 -0.4477 -0.1949
  760MPD2    H711288   1.452   3.164  11.646 -1.0581 -0.8101 -0.1060
  761MPD2     C11289   2.145   2.169  11.330 -0.1064 -0.1691  0.1974
  761MPD2    C111290   2.201   2.158  11.207  0.4804  0.3133 -0.0469
  761MPD2    C211291   2.251   2.276  11.145  0.0907 -0.6251  0.2206
  761MPD2    C311292   2.246   2.395  11.207 -0.3229 -0.9435 -0.4701
  761MPD2    C411293   2.178   2.409  11.320 -0.3259 -0.3813 -0.1407
  761MPD2    C511294   2.125   2.296  11.375  0.2424  0.6082 -0.6119
  761MPD2     H11295   2.303   2.261  11.052  1.0790  3.2375  0.1288
  761MPD2    H111296   2.172   2.508  11.364  0.3743 -0.5427  0.3130
  761MPD2    H211297   2.108   2.082  11.384 -3.0147  2.0314  1.6827
  761MPD2    H311298   2.069   2.303  11.468  0.1046 -2.8784 -0.4055
  761MPD2     N11299   2.323   2.503  11.161 -0.8358  0.4924  0.0414
  761MPD2    H511300   2.346   2.577  11.227 -1.1817  1.5791 -1.0691
  761MPD2    N111301   2.219   2.028  11.154  0.7678 -0.2492 -0.2565
  761MPD2    H711302   2.191   1.952  11.216  1.3600  2.5976  3.4930
  762MPD2     C11303   2.522   1.889  10.450  0.5498 -0.2709  0.0781
  762MPD2    C111304   2.594   1.851  10.561 -0.5564 -0.0402  0.3710
  762MPD2    C211305   2.734   1.853  10.552  0.0902  0.1201  0.3952
  762MPD2    C311306   2.790   1.904  10.433  0.5954 -0.0981  0.7728
  762MPD2    C411307   2.711   1.936  10.325  0.5816 -0.5383  0.0754
  762MPD2    C511308   2.577   1.933  10.335  0.2839 -0.1126 -0.2231
  762MPD2     H11309   2.801   1.821  10.632 -2.0553 -0.1432  2.0810
  762MPD2    H111310   2.749   1.968  10.228  0.4726  2.2326  0.9586
  762MPD2    H211311   2.413   1.895  10.450  0.5079 -1.1433 -1.2473
  762MPD2    H311312   2.517   1.973  10.254  0.3642 -0.7633 -0.6058
  762MPD2     N11313   2.927   1.895  10.423  0.3954  0.5641 -0.2009
  762MPD2    H511314   2.976   1.857  10.504  4.3241  1.1639 -2.2604
  762MPD2    N111315   2.523   1.816  10.678  0.4946  0.5873 -0.1701
  762MPD2    H711316   2.422   1.822  10.675  0.5069  0.9544  0.0908
  763MPD2     C11317   0.070   2.500  16.355  0.0795 -0.1606 -0.2964
  763MPD2    C111318   0.026   2.553  16.233  0.1686 -0.2889 -0.2832
  763MPD2    C211319   4.706   2.680  16.236  0.8056  0.1163  0.4541
  763MPD2    C311320   4.697   2.760  16.351  0.1694 -0.4874  0.2908
  763MPD2    C411321   0.021   2.711  16.460 -0.5211 -0.1548  0.3795
  763MPD2    C511322   0.063   2.579  16.464 -0.8954  0.1328  1.3502
  763MPD2     H11323   4.669   2.728  16.146  0.7365 -2.8044 -1.0750
  763MPD2    H111324   0.035   2.775  16.546 -2.4601 -1.4563  1.6622
  763MPD2    H211325   0.115   2.403  16.369 -0.1153 -0.5591 -2.4502
  763MPD2    H311326   0.108   2.541  16.554  1.5666  1.8053  0.8247
  763MPD2     N11327   4.661   2.902  16.357  0.0111 -0.5692  0.3934
  763MPD2    H511328   4.676   2.942  16.448 -0.2419 -0.9978  0.6254
  763MPD2    N111329   0.026   2.482  16.113 -0.0858  0.5274  0.1757
  763MPD2    H711330   0.003   2.542  16.035  0.9999 -2.1419 -2.1766
  764MPD2     C11331   2.468   4.683  17.469  0.1336  0.4865 -0.0240
  764MPD2    C111332   2.433   4.551  17.429  0.8390 -0.4887 -0.1818
  764MPD2    C211333   2.430   4.449  17.525  0.3018  0.0256 -0.0140
  764MPD2    C311334   2.469   4.479  17.656  0.1485 -0.4561  0.2526
  764MPD2    C411335   2.510   4.606  17.691 -0.1798 -0.1202  0.3290
  764MPD2    C511336   2.511   4.701  17.593 -0.0526 -0.7345  0.1290
  764MPD2     H11337   2.394   4.352  17.493  0.4641  0.1219 -0.4776
  764MPD2    H111338   2.541   4.637   0.046  0.6249  1.0393 -0.2874
  764MPD2    H211339   2.483   0.022  17.393  1.6927  1.1004  0.9022
  764MPD2    H311340   2.541   0.063  17.626 -0.0315 -0.2628 -1.3044
  764MPD2     N11341   2.465   4.373   0.009 -0.4418  0.5852  0.8119
  764MPD2    H511342   2.418   4.288  17.723 -0.1828  1.0913 -1.0582
  764MPD2    N111343   2.389   4.515  17.299  0.4454 -0.1664  0.4884
  764MPD2    H711344   2.361   4.418  17.284  0.1915 -0.2065  1.2302
  765MPD2     C11345   2.676   1.964  15.591 -0.0580  0.5725  0.4133
  765MPD2    C111346   2.762   2.035  15.668 -0.2632  0.0161 -0.0537
  765MPD2    C211347   2.896   2.007  15.676  0.5251  0.0069 -0.4119
  765MPD2    C311348   2.941   1.909  15.589  0.4850  0.0254  0.4674
  765MPD2    C411349   2.856   1.851  15.499  0.2306 -0.2633  0.8407
  765MPD2    C511350   2.721   1.873  15.498  0.0946 -0.5038 -0.2630
  765MPD2     H11351   2.971   2.056  15.737  0.1213  0.9550 -0.6718
  765MPD2    H111352   2.890   1.777  15.427 -0.7882 -1.2770  1.3867
  765MPD2    H211353   2.569   1.981  15.603 -0.0298  1.0861 -0.0786
  765MPD2    H311354   2.654   1.805  15.448  0.6574  0.5833 -2.5012
  765MPD2     N11355   3.079   1.874  15.589  0.6052  0.2439 -0.0594
  765MPD2    H511356   3.138   1.929  15.651 -0.7119  1.9131 -0.2780
  765MPD2    N111357   2.697   2.132  15.756  0.2132  0.2877 -0.2552
  765MPD2    H711358   2.596   2.135  15.749  0.3613  2.4619 -1.5236
  766MPD2     C11359   2.155   2.351  15.436  0.1482 -0.4537 -0.0657
  766MPD2    C111360   2.269   2.311  15.509  0.6376 -0.6638  0.1340
  766MPD2    C211361   2.371   2.272  15.424  0.2715  1.2852  1.4264
  766MPD2    C311362   2.364   2.268  15.283 -0.0418  0.7207 -0.1427
  766MPD2    C411363   2.247   2.309  15.222 -0.0907  0.2261  0.9056
  766MPD2    C511364   2.142   2.347  15.299  0.2286  0.4544  0.8885
  766MPD2     H11365   2.457   2.228  15.473 -2.3699 -3.7534  1.6509
  766MPD2    H111366   2.220   2.290  15.119  0.3622 -1.3678  1.0701
  766MPD2    H211367   2.066   2.379  15.492 -0.5135 -2.1937 -0.2441
  766MPD2    H311368   2.045   2.370  15.256  0.4726  0.5052  0.3630
  766MPD2     N11369   2.467   2.216  15.195 -0.1262  0.1004  0.2974
  766MPD2    H511370   2.450   2.201  15.096  1.4593 -0.7395  0.1564
  766MPD2    N111371   2.268   2.318  15.651  0.5131  0.0012  0.1881
  766MPD2    H711372   2.203   2.376  15.702 -0.4077 -0.6943 -0.1949
  767MPD2     C11373   2.324   2.559  15.019 -0.4772  0.1047 -0.1550
  767MPD2    C111374   2.438   2.503  14.978 -0.2984  0.0667 -0.7331
  767MPD2    C211375   2.440   2.408  14.887 -0.7885 -0.3080  0.2163
  767MPD2    C311376   2.322   2.379  14.819  0.0564 -0.5885  0.5042
  767MPD2    C411377   2.201   2.443  14.858  0.5538 -0.1835  0.1286
  767MPD2    C511378   2.207   2.536  14.959  0.7302  0.1257  0.0142
  767MPD2     H11379   2.535   2.362  14.860 -1.1780  0.0015 -1.6842
  767MPD2    H111380   2.109   2.440  14.802  0.2617 -1.4742  0.6756
  767MPD2    H211381   2.324   2.632  15.100  0.4953  0.5932 -0.5833
  767MPD2    H311382   2.120   2.591  14.993  1.8166  0.2855  2.5109
  767MPD2     N11383   2.327   2.287  14.717  0.1876 -0.1402  0.3314
  767MPD2    H511384   2.420   2.247  14.712  0.3923  0.3940 -0.1309
  767MPD2    N111385   2.560   2.545  15.039  0.1449 -0.0821 -0.3975
  767MPD2    H711386   2.541   2.621  15.104  0.1803 -0.3634 -0.0588
  768MPD2     C11387   3.090   0.718  10.971 -0.0337 -0.1969  0.3024
  768MPD2    C111388   3.089   0.631  11.084 -0.3430  0.0511  0.1813
  768MPD2    C211389   3.203   0.621  11.169 -1.0238  0.6424 -0.4009
  768MPD2    C311390   3.313   0.695  11.134  0.1670 -0.5020  0.5273
  768MPD2    C411391   3.314   0.771  11.018 -0.2188 -0.6398  0.3123
  768MPD2    C511392   3.208   0.784  10.935  0.0397 -0.3152  0.4704
  768MPD2     H11393   3.192   0.557  11.255 -1.1917  1.1754 -0.0266
  768MPD2    H111394   3.396   0.839  10.998  0.8382 -1.9440  0.1681
  768MPD2    H211395   3.002   0.726  10.909 -0.7648  0.2626  1.3920
  768MPD2    H311396   3.216   0.855  10.854  0.6977 -0.6900  0.2161
  768MPD2     N11397   3.425   0.696  11.225 -0.3063  0.1587  0.1108
  768MPD2    H511398   3.489   0.774  11.213 -2.1610  2.0028  2.2268
  768MPD2    N111399   2.971   0.563  11.122 -0.4803  0.1004 -0.3852
  768MPD2    H711400   2.982   0.519  11.213  1.2250  1.6169  0.1352
  769MPD2     C11401   4.331   3.353  14.824 -0.2497  0.0611 -0.6731
  769MPD2    C111402   4.238   3.321  14.925  0.1097  0.0807 -0.0840
  769MPD2    C211403   4.213   3.415  15.027 -0.0098 -0.2243  0.3344
  769MPD2    C311404   4.280   3.539  15.023 -0.4278 -0.0003  0.6471
  769MPD2    C411405   4.364   3.569  14.910 -0.5403  0.7042  0.1718
  769MPD2    C511406   4.384   3.476  14.816 -0.3358  0.7655 -0.0444
  769MPD2     H11407   4.140   3.404  15.106 -0.0528  0.4755  0.3924
  769MPD2    H111408   4.413   3.666  14.910  0.5979  0.1314 -0.2018
  769MPD2    H211409   4.356   3.273  14.755 -0.3382  0.1454 -0.8021
  769MPD2    H311410   4.453   3.494  14.734  0.6357 -0.8135  0.4129
  769MPD2     N11411   4.259   3.628  15.135 -0.7262 -0.0528  0.2315
  769MPD2    H511412   4.172   3.608  15.184  1.0424 -0.7726  3.0966
  769MPD2    N111413   4.191   3.184  14.929  0.3377  0.9004  0.5763
  769MPD2    H711414   4.208   3.127  14.847 -0.3395  0.7239  0.5627
  770MPD2     C11415   3.366   2.596  14.846 -0.0354  0.6044  0.6844
  770MPD2    C111416   3.476   2.528  14.792  0.2940 -0.1503  0.0545
  770MPD2    C211417   3.599   2.577  14.835 -0.0039 -0.0659  0.4218
  770MPD2    C311418   3.608   2.669  14.933  0.5214 -0.2417 -0.7229
  770MPD2    C411419   3.499   2.737  14.988  0.3233  0.2100  0.1534
  770MPD2    C511420   3.378   2.704  14.934  0.0374  0.3441 -0.0460
  770MPD2     H11421   3.691   2.524  14.810 -0.3262  0.1575 -1.2286
  770MPD2    H111422   3.514   2.798  15.075 -0.3569  1.7522 -0.8186
  770MPD2    H211423   3.272   2.559  14.807  0.0345 -0.3216  1.3855
  770MPD2    H311424   3.289   2.756  14.968 -0.0507 -0.5293  1.0635
  770MPD2     N11425   3.740   2.703  14.974  0.4007  0.0744  0.3664
  770MPD2    H511426   3.818   2.665  14.922  1.4725  1.1692  1.1617
  770MPD2    N111427   3.450   2.435  14.693 -0.0205  0.0201  0.4314
  770MPD2    H711428   3.356   2.407  14.671 -0.7604  2.7339  0.1185
  771MPD2     C11429   4.700   1.341  13.558  0.2565  0.1882 -0.3225
  771MPD2    C111430   4.609   1.440  13.555 -0.1936  0.5128 -0.4391
  771MPD2    C211431   4.478   1.406  13.538 -0.2762 -0.4989  0.2300
  771MPD2    C311432   4.433   1.275  13.529 -0.8598 -0.1361 -0.4935
  771MPD2    C411433   4.526   1.178  13.543 -0.6279 -0.2715 -0.2502
  771MPD2    C511434   4.663   1.210  13.557  0.5885  0.3424 -0.0547
  771MPD2     H11435   4.414   1.491  13.517  1.2197  0.6424  0.3076
  771MPD2    H111436   4.492   1.076  13.561  1.3366 -1.4715 -3.3147
  771MPD2    H211437   0.069   1.350  13.585  0.0587 -2.0642  1.2338
  771MPD2    H311438   4.736   1.131  13.574  0.1554  0.4552  2.2840
  771MPD2     N11439   4.298   1.241  13.508  0.0007  0.1558  0.3499
  771MPD2    H511440   4.243   1.326  13.506 -0.3163 -0.0860 -0.7626
  771MPD2    N111441   4.640   1.576  13.567 -0.4988  0.1829 -0.2535
  771MPD2    H711442   4.566   1.645  13.572 -0.2422  0.5696 -1.7390
  772MPD2     C11443   4.531   2.096  14.075 -0.4517 -0.1425 -0.0359
  772MPD2    C111444   4.490   1.999  13.984  0.1354  0.5840 -0.6645
  772MPD2    C211445   4.369   1.934  14.003 -0.0070  1.1770  0.3528
  772MPD2    C311446   4.299   1.954  14.122 -0.1015  0.1653  0.7523
  772MPD2    C411447   4.338   2.067  14.200  0.2295 -0.5543 -0.4616
  772MPD2    C511448   4.457   2.125  14.185 -0.1002 -0.3641  0.1164
  772MPD2     H11449   4.338   1.860  13.930  0.6566  1.4802 -0.2289
  772MPD2    H111450   4.273   2.090  14.283 -0.4834 -1.9959 -0.6198
  772MPD2    H211451   4.629   2.141  14.068 -0.6010  0.0108 -1.1306
  772MPD2    H311452   4.493   2.203  14.251 -1.5052 -0.7013  1.2770
  772MPD2     N11453   4.192   1.882  14.167  0.7231 -0.0748 -0.0828
  772MPD2    H511454   4.147   1.908  14.254  1.6769 -0.9872  0.6707
  772MPD2    N111455   4.571   1.961  13.875  0.6404 -0.5472  0.3060
  772MPD2    H711456   4.537   1.892  13.809  2.0926 -0.8394 -0.1354
  773MPD2     C11457   3.753   3.129   0.215  0.3067 -0.0769 -0.4517
  773MPD2    C111458   3.652   3.042   0.240  0.2114  0.6849  0.6633
  773MPD2    C211459   3.686   2.906   0.242 -0.3378 -0.1749 -0.2204
  773MPD2    C311460   3.815   2.857   0.232 -0.0849 -0.1268 -0.5426
  773MPD2    C411461   3.911   2.956   0.231 -0.3032  0.4190 -0.5034
  773MPD2    C511462   3.876   3.084   0.215  0.0264 -0.1570  0.7299
  773MPD2     H11463   3.607   2.834   0.260  1.5921 -2.5264 -1.0665
  773MPD2    H111464   4.017   2.931   0.233 -0.5138 -0.2065  2.5664
  773MPD2    H211465   3.746   3.237   0.203  0.8175  0.1863  1.6264
  773MPD2    H311466   3.949   3.164   0.209  1.3861 -1.4498  0.1621
  773MPD2     N11467   3.833   2.717   0.249 -0.0221 -0.0085 -0.5671
  773MPD2    H511468   3.750   2.658   0.246  1.6754 -2.4580  0.4850
  773MPD2    N111469   3.516   3.090   0.238  0.0517 -0.4889  0.3295
  773MPD2    H711470   3.449   3.017   0.259 -0.9712  0.1266 -0.7704
  774MPD2     C11471   2.350   1.599  13.742  0.6907 -0.1149  0.3538
  774MPD2    C111472   2.480   1.648  13.750  0.0919 -0.1907 -0.2245
  774MPD2    C211473   2.517   1.752  13.670  0.0233  0.2435  0.1444
  774MPD2    C311474   2.438   1.794  13.564  0.0604  0.1811  0.6502
  774MPD2    C411475   2.316   1.736  13.549 -1.0739 -0.9237  0.3631
  774MPD2    C511476   2.278   1.638  13.630 -0.1217  0.3802  0.1310
  774MPD2     H11477   2.615   1.798  13.668 -0.4096  1.1725  0.3756
  774MPD2    H111478   2.247   1.750  13.466  1.3579 -3.4348 -2.0679
  774MPD2    H211479   2.309   1.523  13.807 -0.2460  2.5453  2.8596
  774MPD2    H311480   2.178   1.598  13.619  0.8166 -1.3109 -2.1902
  774MPD2     N11481   2.487   1.905  13.492  0.9212 -0.0244  0.2065
  774MPD2    H511482   2.577   1.935  13.526  1.0555  1.2368 -1.2725
  774MPD2    N111483   2.565   1.587  13.848  0.3663 -0.4240 -0.3162
  774MPD2    H711484   2.533   1.512  13.908  0.3583 -1.6325 -1.8362
  775MPD2     C11485   4.327   3.354  15.647 -0.2221  0.7111  0.1572
  775MPD2    C111486   4.319   3.474  15.721  0.0784 -0.2167  0.2783
  775MPD2    C211487   4.409   3.575  15.675 -0.1835  0.1419 -0.0284
  775MPD2    C311488   4.494   3.558  15.565  0.4424  0.0899 -0.2548
  775MPD2    C411489   4.502   3.435  15.507 -0.7868 -0.0828  0.0638
  775MPD2    C511490   4.409   3.335  15.543  0.1098  0.4504 -0.0008
  775MPD2     H11491   4.387   3.673  15.716  1.1553  0.0731  0.8593
  775MPD2    H111492   4.560   3.397  15.424  0.4348 -1.1961  1.4442
  775MPD2    H211493   4.272   3.266  15.680  1.1684 -0.3637 -0.3438
  775MPD2    H311494   4.419   3.234  15.505  0.7953  0.2762  0.6376
  775MPD2     N11495   4.582   3.659  15.520  0.5193 -1.1067  0.1395
  775MPD2    H511496   4.641   3.633  15.441  0.8244 -0.7820  0.2610
  775MPD2    N111497   4.227   3.485  15.825  0.0624 -0.2452  0.7449
  775MPD2    H711498   4.152   3.416  15.832 -2.1340  1.8998 -1.5168
  776MPD2     C11499   2.414   3.651  11.935 -0.2577 -0.3724 -0.0836
  776MPD2    C111500   2.547   3.622  11.938  0.0564  0.1126 -0.6204
  776MPD2    C211501   2.630   3.729  11.910  0.6036  0.5180  0.7294
  776MPD2    C311502   2.582   3.853  11.874 -0.0001 -0.5390 -0.0802
  776MPD2    C411503   2.443   3.874  11.870 -0.3674  0.3405  0.3134
  776MPD2    C511504   2.364   3.777  11.915 -0.8153 -0.1225  0.3988
  776MPD2     H11505   2.735   3.701  11.902  0.0546 -1.2395 -0.3088
  776MPD2    H111506   2.401   3.966  11.830 -2.7668 -1.9385 -2.4507
  776MPD2    H211507   2.348   3.567  11.952  0.1507 -0.3459  1.6262
  776MPD2    H311508   2.257   3.793  11.925 -0.7079  0.3834  0.7526
  776MPD2     N11509   2.668   3.963  11.846  0.3370 -0.0844  0.5078
  776MPD2    H511510   2.624   4.047  11.808  1.7705  0.1684 -0.5867
  776MPD2    N111511   2.587   3.486  11.968  0.2462 -0.5545  0.6445
  776MPD2    H711512   2.513   3.418  11.984 -0.2089  0.2123  1.7894
  777MPD2     C11513   4.033   1.667   0.784 -0.3301 -0.0906  0.3413
  777MPD2    C111514   3.916   1.713   0.847 -0.4113 -0.0792 -0.4954
  777MPD2    C211515   3.803   1.635   0.847  0.1219 -0.2402 -0.9788
  777MPD2    C311516   3.799   1.516   0.775 -0.1608  0.0332 -0.8405
  777MPD2    C411517   3.916   1.472   0.709 -0.9744  0.0280 -0.6012
  777MPD2    C511518   4.025   1.553   0.713  0.1077  0.3730 -0.2637
  777MPD2     H11519   3.716   1.671   0.901  0.8819  0.8817 -0.5070
  777MPD2    H111520   3.933   1.381   0.652 -0.4779  0.9303 -1.9036
  777MPD2    H211521   4.121   1.729   0.775  0.0847 -0.7263  0.0193
  777MPD2    H311522   4.119   1.531   0.663 -0.8200  2.3279 -2.8853
  777MPD2     N11523   3.683   1.442   0.767 -0.6052 -0.2303  0.1490
  777MPD2    H511524   3.602   1.457   0.827 -0.8078 -0.9863  0.0678
  777MPD2    N111525   3.926   1.838   0.913  0.3992 -0.6781 -0.1637
  777MPD2    H711526   4.015   1.887   0.909  0.3373 -0.4085  1.6313
  778MPD2     C11527   0.097   1.567  14.905  0.8927  0.2431  0.1016
  778MPD2    C111528   0.089   1.457  14.824 -0.0232 -0.6158  0.8820
  778MPD2    C211529   0.135   1.464  14.697  0.5442 -0.1913  0.4395
  778MPD2    C311530   0.209   1.570  14.659  1.0098 -0.1073 -0.1725
  778MPD2    C411531   0.223   1.676  14.746  0.0651  0.4550  0.7379
  778MPD2    C511532   0.160   1.675  14.866  0.0878 -0.2873  0.4258
  778MPD2     H11533   0.124   1.374  14.637  2.0663  1.7518 -2.7013
  778MPD2    H111534   0.284   1.764  14.731 -1.5110  1.3630 -0.3670
  778MPD2    H211535   0.054   1.586  15.003 -0.3076 -0.4136 -0.2966
  778MPD2    H311536   0.167   1.759  14.935 -2.4958  0.6708 -0.4824
  778MPD2     N11537   0.283   1.573  14.536  0.1739  0.3956 -0.5024
  778MPD2    H511538   0.266   1.502  14.467  1.0707 -1.3714  1.0968
  778MPD2    N111539   0.028   1.336  14.872 -0.1324  0.0440  0.7531
  778MPD2    H711540   0.019   1.260  14.804  1.8533  0.5752 -0.1053
  779MPD2     C11541   4.249   0.468  14.122  0.3801  0.8369  0.2011
  779MPD2    C111542   4.371   0.423  14.160 -0.0323 -0.7407 -0.1914
  779MPD2    C211543   4.478   0.508  14.157 -0.0666 -0.0820 -0.7130
  779MPD2    C311544   4.463   0.640  14.122  0.4348  0.5569  0.0612
  779MPD2    C411545   4.334   0.688  14.092 -0.5013 -0.4033  0.0663
  779MPD2    C511546   4.232   0.600  14.099 -0.7447  0.2092  0.0080
  779MPD2     H11547   4.580   0.482  14.181 -0.9686 -0.7200  2.4878
  779MPD2    H111548   4.309   0.788  14.060  1.0486 -0.0567 -0.0709
  779MPD2    H211549   4.168   0.398  14.108  1.5061 -0.5591  0.6410
  779MPD2    H311550   4.137   0.644  14.069 -0.6050 -0.7642 -1.8445
  779MPD2     N11551   4.586   0.711  14.119  0.5277  0.2176  0.3101
  779MPD2    H511552   4.664   0.659  14.156  0.1193 -1.2790 -0.9507
  779MPD2    N111553   4.400   0.286  14.171 -0.5540  0.2617 -0.1727
  779MPD2    H711554   4.494   0.255  14.192  0.1361  1.6924 -1.1514
  780MPD2     C11555   4.138   0.515   0.989  0.2557  0.1760 -0.2138
  780MPD2    C111556   4.051   0.536   0.881  0.2155 -0.2203 -0.6456
  780MPD2    C211557   4.102   0.589   0.763  0.6796  0.1731 -0.3941
  780MPD2    C311558   4.239   0.610   0.758 -0.3286 -0.6218  0.0432
  780MPD2    C411559   4.323   0.594   0.863  0.5548  0.5498  0.4574
  780MPD2    C511560   4.272   0.547   0.987  0.2582 -0.1920  0.1308
  780MPD2     H11561   4.042   0.614   0.676  0.2425 -0.3944 -0.2568
  780MPD2    H111562   4.430   0.614   0.861  0.7208 -0.4308 -0.2765
  780MPD2    H211563   4.102   0.495   1.090 -0.0535  5.8411  0.8317
  780MPD2    H311564   4.343   0.540   1.069 -0.4139  0.7175  0.7799
  780MPD2     N11565   4.275   0.658   0.630 -0.0975  0.0604 -0.0584
  780MPD2    H511566   4.199   0.678   0.565 -0.0972 -0.0354 -0.0880
  780MPD2    N111567   3.910   0.512   0.897 -0.2839  0.0867 -0.1674
  780MPD2    H711568   3.877   0.491   0.991 -0.9886 -0.2854 -0.4929
  781MPD2     C11569   0.343   2.383  12.270  0.7444  0.3871 -0.5938
  781MPD2    C111570   0.446   2.301  12.233 -0.2291  0.1863 -1.0703
  781MPD2    C211571   0.491   2.298  12.100 -0.2422 -0.0111 -0.7098
  781MPD2    C311572   0.444   2.398  12.012  0.2670  0.2541  0.6076
  781MPD2    C411573   0.357   2.485  12.058 -0.5408 -0.9416 -0.3277
  781MPD2    C511574   0.303   2.477  12.181  0.8634  0.3324  0.3050
  781MPD2     H11575   0.554   2.216  12.067 -0.6969 -1.0057  0.8658
  781MPD2    H111576   0.328   2.564  11.990  1.2732 -0.0142 -0.0258
  781MPD2    H211577   0.313   2.381  12.375  3.5030 -0.4390  0.1716
  781MPD2    H311578   0.238   2.558  12.212  0.3446  0.3339 -0.7811
  781MPD2     N11579   0.494   2.422  11.885  0.3604  0.0159 -0.7045
  781MPD2    H511580   0.461   2.509  11.845 -2.4889  0.2185  2.0462
  781MPD2    N111581   0.512   2.219  12.324 -0.0991 -0.2113  0.1739
  781MPD2    H711582   0.559   2.137  12.286  0.2223  0.8639 -1.7754
  782MPD2     C11583   3.478   3.071  10.333  0.0363  0.9402  0.0477
  782MPD2    C111584   3.510   2.984  10.431 -0.4080 -1.3544  0.4467
  782MPD2    C211585   3.555   3.031  10.551 -0.1342 -0.0488  1.4808
  782MPD2    C311586   3.568   3.166  10.576 -0.8719 -0.8155  0.0428
  782MPD2    C411587   3.537   3.257  10.471  0.6694 -0.2486 -0.0189
  782MPD2    C511588   3.508   3.208  10.354  0.1177 -0.3945  0.0721
  782MPD2     H11589   3.592   2.961  10.625  0.0362 -0.1181  1.3293
  782MPD2    H111590   3.550   3.363  10.488 -0.1280 -0.3049  0.9564
  782MPD2    H211591   3.435   3.035  10.240 -0.4985  0.3245  0.5298
  782MPD2    H311592   3.484   3.280  10.276 -0.2375  1.3883  1.8279
  782MPD2     N11593   3.611   3.204  10.701  0.2995  0.3181  0.5760
  782MPD2    H511594   3.635   3.120  10.753  1.6887  0.8056  0.7284
  782MPD2    N111595   3.513   2.844  10.409 -0.3966  0.1018  0.2102
  782MPD2    H711596   3.540   2.786  10.488  0.8938 -0.0297 -0.3299
  783MPD2     C11597   2.766   2.343  10.544 -0.6684 -0.5723  0.3135
  783MPD2    C111598   2.835   2.419  10.632 -0.4633  0.2251 -0.0606
  783MPD2    C211599   2.974   2.443  10.604 -0.7495  0.4292 -0.3667
  783MPD2    C311600   3.033   2.384  10.497 -0.3947  0.4965  0.0362
  783MPD2    C411601   2.963   2.311  10.407  0.0100 -0.2409  0.5905
  783MPD2    C511602   2.832   2.280  10.436  0.3239 -0.2320 -0.4376
  783MPD2     H11603   3.031   2.508  10.669  0.6011 -0.4647 -0.6651
  783MPD2    H111604   3.003   2.258  10.322 -1.8558  0.0312 -0.4687
  783MPD2    H211605   2.658   2.331  10.554 -1.0629  1.6575 -1.3755
  783MPD2    H311606   2.780   2.216  10.366  2.0286 -0.2981 -1.6437
  783MPD2     N11607   3.160   2.428  10.471  0.2481 -0.3326 -0.6399
  783MPD2    H511608   3.207   2.483  10.542 -0.5542 -2.5367  1.5714
  783MPD2    N111609   2.759   2.475  10.740 -0.1684  0.3101  0.3363
  783MPD2    H711610   2.658   2.476  10.732 -0.1787 -2.3819 -0.0924
  784MPD2     C11611   2.002   3.501   0.578  0.0926  0.7576 -0.2230
  784MPD2    C111612   1.916   3.516   0.687  0.0034 -0.0120 -0.4888
  784MPD2    C211613   1.783   3.543   0.677 -0.2745  0.2892  0.0991
  784MPD2    C311614   1.730   3.571   0.551 -0.6120 -0.6890 -0.2510
  784MPD2    C411615   1.812   3.561   0.440 -0.3042  0.1855  0.0663
  784MPD2    C511616   1.949   3.524   0.454 -0.5975 -0.1175 -0.4029
  784MPD2     H11617   1.720   3.532   0.765  1.3395 -1.6531  1.0375
  784MPD2    H111618   1.766   3.581   0.344 -1.2695  1.7726  0.8611
  784MPD2    H211619   2.107   3.474   0.590  0.6103  2.5932 -0.6935
  784MPD2    H311620   2.010   3.519   0.365 -1.9269 -0.4291 -1.3039
  784MPD2     N11621   1.589   3.584   0.532 -0.4300 -0.7013 -0.0481
  784MPD2    H511622   1.536   3.594   0.618 -2.3439  0.7763 -1.3969
  784MPD2    N111623   1.969   3.496   0.818  0.1278  0.2366  0.3214
  784MPD2    H711624   1.900   3.495   0.892 -1.7039  0.1381 -1.3980
  785MPD2     C11625   1.541   1.206  11.060 -0.0543 -0.4654 -0.4826
  785MPD2    C111626   1.441   1.298  11.059 -0.8033  0.4698 -0.4770
  785MPD2    C211627   1.346   1.305  10.959  1.0383 -0.2289 -0.6121
  785MPD2    C311628   1.346   1.209  10.859 -0.1965 -0.3289 -0.2181
  785MPD2    C411629   1.437   1.102  10.871 -0.0621  0.0291  0.5743
  785MPD2    C511630   1.534   1.113  10.966 -0.1856 -0.6209  0.2963
  785MPD2     H11631   1.288   1.396  10.954  1.3098 -0.0999 -1.4805
  785MPD2    H111632   1.435   1.021  10.800 -0.8795  0.1822  0.4203
  785MPD2    H211633   1.624   1.204  11.130 -0.6298 -1.4327  0.1726
  785MPD2    H311634   1.606   1.032  10.970 -0.7761 -1.1890 -0.6579
  785MPD2     N11635   1.243   1.218  10.758  0.0749  0.1762 -0.4899
  785MPD2    H511636   1.180   1.297  10.767  1.9316  1.5043  0.9372
  785MPD2    N111637   1.437   1.402  11.149  0.0852 -0.3636 -0.1267
  785MPD2    H711638   1.344   1.443  11.155  0.8380  1.0866  1.7959
  786MPD2     C11639   0.476   4.569  14.780  0.1467 -0.0379 -0.2351
  786MPD2    C111640   0.606   4.524  14.756 -0.2470 -0.3307  0.4640
  786MPD2    C211641   0.708   4.583  14.813  0.1771  0.0938 -0.3178
  786MPD2    C311642   0.698   4.690  14.894 -0.5106  0.2745 -0.0761
  786MPD2    C411643   0.569   4.734  14.927 -0.2061 -1.5234 -0.4902
  786MPD2    C511644   0.463   4.666  14.876  0.1073  0.3277  0.4933
  786MPD2     H11645   0.801   4.533  14.788 -0.0083 -0.4821  0.1627
  786MPD2    H111646   0.537   0.080  14.991  1.2216 -1.4690  0.1473
  786MPD2    H211647   0.385   4.520  14.747 -0.1491  0.4951 -0.2142
  786MPD2    H311648   0.365   4.698  14.910  0.3862  0.0341  1.5787
  786MPD2     N11649   0.811   0.010  14.967  0.4871  0.3978 -0.5262
  786MPD2    H511650   0.788   0.083  15.035  2.3003  1.0239 -0.5961
  786MPD2    N111651   0.633   4.404  14.686  0.0326  0.2766 -0.3580
  786MPD2    H711652   0.728   4.370  14.677 -0.0307  0.2086 -0.8080
  787MPD2     C11653   0.861   3.889  15.000  0.1179 -0.0202  0.6275
  787MPD2    C111654   0.863   3.858  14.871  0.4197  0.1863 -0.0111
  787MPD2    C211655   0.909   3.733  14.844 -0.2464 -0.2913 -0.4104
  787MPD2    C311656   0.932   3.629  14.934  0.4512  0.3579  0.3436
  787MPD2    C411657   0.907   3.661  15.066  0.2322 -0.5549  0.1195
  787MPD2    C511658   0.871   3.792  15.104 -0.4612 -0.9036  0.2836
  787MPD2     H11659   0.924   3.709  14.740 -1.1268  0.3133 -0.6810
  787MPD2    H111660   0.921   3.588  15.145 -1.2040 -0.3769  0.5322
  787MPD2    H211661   0.831   3.986  15.039 -0.3514  0.5474 -1.1809
  787MPD2    H311662   0.885   3.821  15.208  0.9351  0.2017 -0.2122
  787MPD2     N11663   0.985   3.509  14.876  0.2315 -0.0190 -0.1366
  787MPD2    H511664   1.014   3.516  14.778  1.1038  0.6301  0.1624
  787MPD2    N111665   0.839   3.959  14.777  0.2151  0.2850  0.3432
  787MPD2    H711666   0.808   4.048  14.814 -0.6898  1.1928 -2.5928
  788MPD2     C11667   2.680   2.350   0.568  0.3854 -0.0708 -0.5220
  788MPD2    C111668   2.608   2.287   0.471  1.4173 -0.3874 -0.4989
  788MPD2    C211669   2.510   2.363   0.409 -0.3001  0.5362  0.1712
  788MPD2    C311670   2.497   2.505   0.427  0.0779 -0.0438  0.1262
  788MPD2    C411671   2.590   2.567   0.500 -0.4237  0.1886 -0.0540
  788MPD2    C511672   2.680   2.494   0.567 -0.1602 -0.1679  0.2398
  788MPD2     H11673   2.440   2.316   0.341  0.3331 -0.3412  0.1395
  788MPD2    H111674   2.572   2.674   0.498  1.7819  0.5554 -0.2480
  788MPD2    H211675   2.747   2.306   0.641 -2.1194  0.7450  2.2755
  788MPD2    H311676   2.750   2.540   0.636 -1.2846 -0.9697  1.9073
  788MPD2     N11677   2.410   2.588   0.349 -0.1114  0.0764  0.1686
  788MPD2    H511678   2.418   2.689   0.346 -1.0011  0.1490  0.2402
  788MPD2    N111679   2.621   2.150   0.441 -0.7363  0.3485  0.0787
  788MPD2    H711680   2.574   2.107   0.362  1.0503 -3.1291  0.9056
  789MPD2     C11681   2.952   2.120  16.430 -0.4196 -0.4389  0.2718
  789MPD2    C111682   2.847   2.112  16.348  0.9552 -0.0308  0.8271
  789MPD2    C211683   2.715   2.148  16.391 -0.6564 -0.3239  0.8417
  789MPD2    C311684   2.702   2.218  16.507  0.5451  0.3130 -0.0975
  789MPD2    C411685   2.812   2.216  16.594 -0.3077  0.0251 -0.2587
  789MPD2    C511686   2.934   2.171  16.561  0.2453  0.2354 -0.2015
  789MPD2     H11687   2.632   2.135  16.323  1.2561  0.9455 -1.7293
  789MPD2    H111688   2.791   2.254  16.693 -1.0333  1.8482 -1.1237
  789MPD2    H211689   3.051   2.080  16.411  0.9139  3.0484 -0.1060
  789MPD2    H311690   3.018   2.185  16.629 -0.4347  0.3067  0.6225
  789MPD2     N11691   2.584   2.264  16.568  0.3917  0.2448  0.1671
  789MPD2    H511692   2.587   2.323  16.651  0.9127  1.2942 -0.6093
  789MPD2    N111693   2.847   2.048  16.222 -0.9892 -0.0143 -0.7721
  789MPD2    H711694   2.758   2.006  16.197 -1.2630 -0.5614  1.1468
  790MPD2     C11695   3.461   4.113  13.713 -0.2024 -0.3887  0.0709
  790MPD2    C111696   3.534   3.997  13.688  0.2086  0.4294  0.4987
  790MPD2    C211697   3.511   3.925  13.573 -0.6364  0.1676 -0.1328
  790MPD2    C311698   3.409   3.967  13.486  1.0299  0.1597  0.1509
  790MPD2    C411699   3.344   4.083  13.505  0.5555  0.6271  0.2106
  790MPD2    C511700   3.369   4.152  13.619 -0.5092  0.2291 -0.8006
  790MPD2     H11701   3.561   3.831  13.551 -0.8170  0.1468 -0.4481
  790MPD2    H111702   3.258   4.125  13.453 -1.1338 -3.0183  0.0520
  790MPD2    H211703   3.480   4.176  13.799  2.5805 -0.7579 -0.2658
  790MPD2    H311704   3.323   4.248  13.638 -1.1055  0.3142 -2.7166
  790MPD2     N11705   3.366   3.876  13.387  0.3703  0.6974  0.2415
  790MPD2    H511706   3.419   3.795  13.357  1.4909  2.1164 -1.5772
  790MPD2    N111707   3.618   3.959  13.796  0.6802  0.7218  0.1325
  790MPD2    H711708   3.614   4.012  13.882  0.3329  1.0271 -0.0754
  791MPD2     C11709   2.687   3.920  12.993 -0.1846 -0.9327  0.7001
  791MPD2    C111710   2.740   3.796  12.990 -0.2582  0.4439  0.0106
  791MPD2    C211711   2.655   3.691  12.945  0.2729  0.0863  0.6351
  791MPD2    C311712   2.527   3.714  12.906  0.2257  0.1088  0.1311
  791MPD2    C411713   2.483   3.845  12.907 -0.0727  0.2244  0.4611
  791MPD2    C511714   2.564   3.943  12.950 -0.7966  0.2151 -0.3646
  791MPD2     H11715   2.691   3.588  12.938  0.2756  0.1053  0.3341
  791MPD2    H111716   2.381   3.872  12.881 -0.2378  0.4463  1.3539
  791MPD2    H211717   2.745   4.001  13.035  1.7993 -1.7991 -0.3662
  791MPD2    H311718   2.527   4.045  12.950 -0.2928  0.3894  1.8466
  791MPD2     N11719   2.453   3.604  12.855 -0.0641  0.2557 -0.0989
  791MPD2    H511720   2.496   3.512  12.861 -4.4068 -1.8647 -1.5167
  791MPD2    N111721   2.870   3.767  13.043  0.3226 -0.4926  0.2683
  791MPD2    H711722   2.910   3.850  13.086  0.8607 -1.0417  0.8320
  792MPD2     C11723   3.491   3.923  11.732  0.4085  0.8342  0.0028
  792MPD2    C111724   3.431   4.007  11.644  0.4335 -0.2684  0.1272
  792MPD2    C211725   3.298   3.985  11.608  0.1893  0.5523  0.3964
  792MPD2    C311726   3.233   3.867  11.638  0.4383  0.5603 -0.0782
  792MPD2    C411727   3.301   3.776  11.710 -0.0234  0.2941  0.2652
  792MPD2    C511728   3.426   3.807  11.759 -0.0322  0.8776  0.1072
  792MPD2     H11729   3.240   4.055  11.549  1.5391 -0.3425 -1.9994
  792MPD2    H111730   3.249   3.687  11.743 -0.1865  1.2905  2.7213
  792MPD2    H211731   3.588   3.949  11.773  1.0226  0.7408 -1.3757
  792MPD2    H311732   3.478   3.735  11.821 -1.8108  1.9442  2.8406
  792MPD2     N11733   3.102   3.831  11.596  0.1961  0.3677 -0.5834
  792MPD2    H511734   3.068   3.736  11.611  1.7714 -0.1534 -0.2611
  792MPD2    N111735   3.499   4.126  11.608  0.2230  0.0916 -0.7304
  792MPD2    H711736   3.595   4.141  11.637 -0.3469 -0.2544  1.3651
  793MPD2     C11737   2.686   3.746  10.690  0.3603 -1.2110 -0.3930
  793MPD2    C111738   2.769   3.663  10.753  0.0363 -0.9083  0.7372
  793MPD2    C211739   2.780   3.660  10.893 -0.3706 -0.4087  0.1453
  793MPD2    C311740   2.701   3.744  10.970  0.5031 -0.4589  0.4277
  793MPD2    C411741   2.598   3.816  10.908  0.0523  0.4152  0.2371
  793MPD2    C511742   2.593   3.814  10.764  0.8453 -0.4088  0.6074
  793MPD2     H11743   2.862   3.607  10.941  0.3446 -0.6605 -1.3535
  793MPD2    H111744   2.533   3.878  10.968  1.2471  0.4966  1.4492
  793MPD2    H211745   2.691   3.761  10.583 -3.0385 -0.6589 -0.4958
  793MPD2    H311746   2.514   3.869  10.714  2.5599  2.5418  1.1927
  793MPD2     N11747   2.732   3.756  11.110 -0.4734  0.1705 -0.4284
  793MPD2    H511748   2.799   3.687  11.142 -0.6039  0.5367  0.6411
  793MPD2    N111749   2.860   3.591  10.672  0.3078 -0.0850 -0.0084
  793MPD2    H711750   2.859   3.619  10.575  0.3620 -2.0439 -0.5859
  794MPD2     C11751   2.985   3.774  17.737  0.1397 -0.5373  0.3061
  794MPD2    C111752   3.015   3.649  17.679 -0.7104  0.0775  0.8314
  794MPD2    C211753   2.980   3.624  17.545 -0.1759  0.0779  0.1272
  794MPD2    C311754   2.919   3.723  17.473  0.2606  0.1918 -1.2146
  794MPD2    C411755   2.884   3.838  17.529  0.6008 -1.0567 -0.0570
  794MPD2    C511756   2.917   3.862  17.662 -0.7046 -0.1958 -0.8842
  794MPD2     H11757   2.994   3.522  17.511 -1.1443 -0.0830  0.2120
  794MPD2    H111758   2.856   3.926  17.472 -0.5316 -1.7986 -0.6254
  794MPD2    H211759   3.005   3.802   0.096  0.6502  0.6461 -0.1192
  794MPD2    H311760   2.898   3.953  17.718  0.4585  0.6196 -1.8011
  794MPD2     N11761   2.909   3.703  17.332 -0.0985 -0.2220 -0.3278
  794MPD2    H511762   2.870   3.783  17.283 -3.2632 -1.2923  0.4743
  794MPD2    N111763   3.067   3.541   0.002  0.0915 -0.0233 -0.1937
  794MPD2    H711764   3.066   3.451  17.700  0.0945 -0.3646  0.4762
  795MPD2     C11765   1.027   0.618  13.419 -0.4044 -0.6845 -0.1996
  795MPD2    C111766   0.941   0.534  13.488  0.6763 -0.2973 -0.4486
  795MPD2    C211767   0.988   0.445  13.582 -0.1559 -0.2574 -0.2118
  795MPD2    C311768   1.117   0.453  13.631 -0.5511  0.2325 -0.5641
  795MPD2    C411769   1.199   0.555  13.572 -0.0042  0.3414  0.4366
  795MPD2    C511770   1.154   0.629  13.467  0.2270 -0.1052  0.5255
  795MPD2     H11771   0.920   0.374  13.627 -1.6783  0.8343 -0.7996
  795MPD2    H111772   1.294   0.586  13.612  0.3422 -1.4836  1.0435
  795MPD2    H211773   0.997   0.688  13.341 -1.3390 -0.9050 -0.0419
  795MPD2    H311774   1.224   0.695  13.417 -0.0914 -0.2126 -0.0497
  795MPD2     N11775   1.148   0.342  13.713 -0.2165  0.2234 -0.0461
  795MPD2    H511776   1.076   0.272  13.731  0.4554 -0.9247 -1.8145
  795MPD2    N111777   0.814   0.511  13.433 -0.3803 -0.1583 -0.6415
  795MPD2    H711778   0.765   0.429  13.467  0.9541 -0.5001  0.4622
  796MPD2     C11779   0.806   2.047  15.797 -0.3747  0.5495 -0.6867
  796MPD2    C111780   0.856   2.137  15.887 -0.1036  0.4609  0.0490
  796MPD2    C211781   0.825   2.269  15.869  0.1895 -0.1982  0.7560
  796MPD2    C311782   0.748   2.308  15.761  0.2907 -0.1300  0.0005
  796MPD2    C411783   0.711   2.214  15.668 -0.5437 -0.5387  0.3924
  796MPD2    C511784   0.736   2.085  15.691  0.1456  0.9983  0.3407
  796MPD2     H11785   0.846   2.339  15.949 -0.1957 -2.7547  3.0798
  796MPD2    H111786   0.655   2.245  15.581 -1.6463 -0.4041  1.1517
  796MPD2    H211787   0.832   1.942  15.794 -0.4073  0.5137  0.2418
  796MPD2    H311788   0.699   2.014  15.619  0.3952  1.1193  0.0904
  796MPD2     N11789   0.723   2.449  15.752 -0.1058  0.2990 -0.0855
  796MPD2    H511790   0.764   2.502  15.828 -0.8689  0.1306  0.4446
  796MPD2    N111791   0.926   2.074  15.991 -0.1442 -0.2267  0.3363
  796MPD2    H711792   0.931   1.972  15.989 -0.1892 -0.2149 -0.7835
  797MPD2     C11793   2.061   1.431  17.426  0.0871  0.4652  0.2331
  797MPD2    C111794   1.948   1.508  17.427  0.2851 -0.8500 -0.1575
  797MPD2    C211795   1.919   1.579  17.312  0.4747 -0.0729 -0.1912
  797MPD2    C311796   1.997   1.569  17.199  0.1024  0.3098  0.1068
  797MPD2    C411797   2.112   1.487  17.203 -0.3890  0.0403 -0.0598
  797MPD2    C511798   2.144   1.421  17.319 -0.7766 -0.0861 -0.0445
  797MPD2     H11799   1.828   1.638  17.307  0.2387 -0.4449 -0.2417
  797MPD2    H111800   2.185   1.481  17.123  0.7112 -0.0024  0.9442
  797MPD2    H211801   2.093   1.387  17.520 -2.1488  0.4870  1.0088
  797MPD2    H311802   2.238   1.368  17.322 -0.4352  0.5077 -0.2312
  797MPD2     N11803   1.988   1.666  17.088 -0.5456  0.1291 -0.3316
  797MPD2    H511804   2.069   1.685  17.031 -0.1578 -1.2953 -0.2604
  797MPD2    N111805   1.857   1.519  17.532  0.6656 -0.4719  0.3017
  797MPD2    H711806   1.788   1.594  17.526  0.8986 -0.0803  2.3280
  798MPD2     C11807   1.777   2.285  17.449 -0.5624 -0.5352  0.1914
  798MPD2    C111808   1.871   2.185  17.422  0.3974 -0.0604  0.2755
  798MPD2    C211809   1.886   2.081  17.510 -0.2989 -0.3974  0.5246
  798MPD2    C311810   1.811   2.078  17.629 -0.2228 -0.2965  0.3337
  798MPD2    C411811   1.709   2.171  17.647 -0.2700 -0.1600 -0.0398
  798MPD2    C511812   1.700   2.280  17.564  0.6719 -0.2301 -0.1211
  798MPD2     H11813   1.946   1.993  17.490 -0.4715 -0.3619 -0.1348
  798MPD2    H111814   1.648   2.170  17.736 -1.3499 -0.0029 -0.7651
  798MPD2    H211815   1.753   2.356  17.371 -0.9325 -0.9464 -0.0663
  798MPD2    H311816   1.632   2.362  17.585 -0.4252 -1.0135 -0.6088
  798MPD2     N11817   1.807   1.952  17.696  0.1871 -0.2474 -0.1799
  798MPD2    H511818   1.874   1.882  17.666  0.4533  0.7322 -1.8344
  798MPD2    N111819   1.935   2.194  17.294 -0.1211  1.0064  0.5229
  798MPD2    H711820   1.907   2.261  17.223  0.8318 -0.2433 -1.0293
  799MPD2     C11821   0.633   3.392  14.822 -1.5784 -0.3212  0.0694
  799MPD2    C111822   0.602   3.304  14.723 -0.0054 -0.1561  0.0239
  799MPD2    C211823   0.577   3.352  14.595 -0.5514 -0.2775 -0.2431
  799MPD2    C311824   0.571   3.485  14.568 -0.1665 -0.1666 -0.2149
  799MPD2    C411825   0.611   3.570  14.663  0.2609 -0.1079  0.2398
  799MPD2    C511826   0.641   3.529  14.791  0.8484 -0.3295 -0.0170
  799MPD2     H11827   0.554   3.277  14.520  0.0527 -1.7351  1.0261
  799MPD2    H111828   0.624   3.675  14.640  0.5177 -0.3082 -0.5335
  799MPD2    H211829   0.645   3.360  14.925 -1.4662  0.4630  0.3038
  799MPD2    H311830   0.660   3.597  14.874 -1.6523  1.7672 -1.1435
  799MPD2     N11831   0.533   3.529  14.438  0.3942 -0.7343  0.4404
  799MPD2    H511832   0.546   3.626  14.410  0.2343 -0.1832  2.3047
  799MPD2    N111833   0.594   3.165  14.742  0.3295 -0.4564 -0.2109
  799MPD2    H711834   0.567   3.112  14.660 -1.2450 -1.1737  0.7843
  800MPD2     C11835   0.558   4.416  14.219  0.2145 -0.0603 -0.3658
  800MPD2    C111836   0.651   4.323  14.183 -0.0877  0.0781  0.5830
  800MPD2    C211837   0.625   4.246  14.075  0.9661 -0.4080 -0.0074
  800MPD2    C311838   0.503   4.263  14.003 -0.2662 -1.0340  0.5271
  800MPD2    C411839   0.412   4.361  14.045  0.8727 -0.1822 -0.0633
  800MPD2    C511840   0.438   4.429  14.157 -0.3184  0.2483 -0.5599
  800MPD2     H11841   0.691   4.169  14.038 -0.9880 -1.6659 -0.8919
  800MPD2    H111842   0.318   4.363  13.991  0.0165  0.4944  1.4877
  800MPD2    H211843   0.577   4.479  14.306 -0.7536  0.8892 -0.8385
  800MPD2    H311844   0.365   4.507  14.175  0.5060  0.8069  0.3992
  800MPD2     N11845   0.487   4.179  13.890  0.4175  0.0846 -0.3728
  800MPD2    H511846   0.550   4.101  13.875 -1.1978 -1.1381 -0.8647
  800MPD2    N111847   0.776   4.315  14.264 -0.4785 -0.6494 -0.9075
  800MPD2    H711848   0.786   4.386  14.336  0.1071 -1.5869 -0.0765
  801MPD2     C11849   1.214   0.123  14.201 -0.2315 -0.3864  0.2658
  801MPD2    C111850   1.143   0.030  14.273  0.0632  0.3810  0.2246
  801MPD2    C211851   1.084   0.068  14.392  0.0971  0.5864 -0.5675
  801MPD2    C311852   1.096   0.197  14.439  0.5588 -0.2296  0.2049
  801MPD2    C411853   1.170   0.288  14.368  0.0808 -0.2658  0.0244
  801MPD2    C511854   1.238   0.248  14.257  0.3405  0.2692  0.5068
  801MPD2     H11855   1.043   4.725  14.453  2.8086 -0.2879  0.1087
  801MPD2    H111856   1.200   0.381  14.416 -1.5158 -0.2896  1.0789
  801MPD2    H211857   1.265   0.099  14.108 -0.2666 -0.1360  0.1840
  801MPD2    H311858   1.314   0.314  14.217 -0.3619  0.4189 -0.5733
  801MPD2     N11859   1.029   0.245  14.556  0.1407 -0.1001 -0.3470
  801MPD2    H511860   1.038   0.344  14.578  0.1708 -1.0685  3.9030
  801MPD2    N111861   1.125   4.629  14.243  0.1567 -0.1612  0.0188
  801MPD2    H711862   1.061   4.574  14.298 -1.2319  0.8866 -0.5502
  802MPD2     C11863   0.588   1.562   0.342 -0.1950  0.3350 -0.5283
  802MPD2    C111864   0.467   1.493   0.342  0.6806  0.0727 -0.6045
  802MPD2    C211865   0.472   1.365   0.293  0.5013 -0.4553  0.2410
  802MPD2    C311866   0.589   1.300   0.260  0.5346 -0.6017 -0.3436
  802MPD2    C411867   0.706   1.375   0.253  0.1119  0.7783 -0.0105
  802MPD2    C511868   0.707   1.506   0.307 -0.3757  0.0578  0.4667
  802MPD2     H11869   0.388   1.297   0.286  1.4051 -1.5418 -0.1375
  802MPD2    H111870   0.800   1.334   0.218 -0.6879 -0.6066 -0.5433
  802MPD2    H211871   0.596   1.659   0.390 -1.7405 -0.4549  1.3390
  802MPD2    H311872   0.793   1.571   0.320 -0.0964 -0.8414  2.9759
  802MPD2     N11873   0.581   1.168   0.213 -0.2154  0.1138 -0.1104
  802MPD2    H511874   0.485   1.135   0.204 -0.8778  1.6988  1.1591
  802MPD2    N111875   0.346   1.549   0.385  0.2906 -0.7524  0.5648
  802MPD2    H711876   0.271   1.483   0.401 -1.3081  1.1252  0.7851
  803MPD2     C11877   0.768   3.564  12.591  0.1415  0.7155 -0.0529
  803MPD2    C111878   0.893   3.515  12.584  0.0667 -0.2668 -0.5694
  803MPD2    C211879   0.936   3.461  12.706 -0.1801  0.4635 -0.1881
  803MPD2    C311880   0.863   3.446  12.822 -0.0474 -0.5709  0.6506
  803MPD2    C411881   0.739   3.503  12.825 -0.2097  0.5021 -0.3514
  803MPD2    C511882   0.700   3.572  12.708  0.3319 -0.0959 -0.0068
  803MPD2     H11883   1.035   3.417  12.710 -0.9849 -1.1404  1.9708
  803MPD2    H111884   0.671   3.494  12.909 -1.2734  1.3302 -1.1285
  803MPD2    H211885   0.718   3.611  12.507  0.4740  0.3881 -0.4374
  803MPD2    H311886   0.600   3.613  12.712  0.2494 -0.1919 -1.0900
  803MPD2     N11887   0.910   3.371  12.930  0.4263 -1.0125  0.1250
  803MPD2    H511888   0.865   3.369  13.021 -1.4194  0.9152 -0.7643
  803MPD2    N111889   0.968   3.505  12.469 -0.1602 -0.5099 -0.5335
  803MPD2    H711890   1.064   3.472  12.477  0.5290  1.3156 -1.2377
  804MPD2     C11891   0.883   0.257  16.702  0.4728 -0.0910 -0.7984
  804MPD2    C111892   0.839   0.255  16.834  0.3443  0.2768  0.3842
  804MPD2    C211893   0.918   0.316  16.926  0.1453 -0.1872  0.3055
  804MPD2    C311894   1.028   0.386  16.894  0.3843 -0.3016  0.3903
  804MPD2    C411895   1.070   0.393  16.762  0.0432 -0.3509  0.0556
  804MPD2    C511896   0.992   0.327  16.666  0.1833 -0.2129  0.5787
  804MPD2     H11897   0.904   0.308  17.034  0.5951  0.9595  0.4453
  804MPD2    H111898   1.151   0.456  16.728 -1.3207  1.9559  1.0326
  804MPD2    H211899   0.842   0.196  16.623 -0.4339 -0.6132  0.0821
  804MPD2    H311900   1.018   0.318  16.562  0.7879  1.4746  0.5801
  804MPD2     N11901   1.099   0.448  17.000 -0.1394 -0.1835 -0.6865
  804MPD2    H511902   1.058   0.446  17.092 -0.4870 -1.2401 -0.8642
  804MPD2    N111903   0.725   0.186  16.889 -1.0068 -0.3914  0.0338
  804MPD2    H711904   0.725   0.176  16.990 -0.9112  1.4472  0.2240
  805MPD2     C11905   0.259   3.723  15.667 -0.5607  0.5079 -0.2474
  805MPD2    C111906   0.364   3.670  15.592  0.1801 -0.7418 -0.1023
  805MPD2    C211907   0.493   3.691  15.644 -0.7591  0.1707  0.2896
  805MPD2    C311908   0.512   3.752  15.768 -0.0797  0.5173 -0.0988
  805MPD2    C411909   0.411   3.819  15.825 -0.1503  0.2220  1.2971
  805MPD2    C511910   0.279   3.806  15.778 -0.5413 -0.1011 -0.1713
  805MPD2     H11911   0.585   3.657  15.598 -1.2259  1.2917 -1.4561
  805MPD2    H111912   0.426   3.879  15.914  0.9067  2.6029 -0.4806
  805MPD2    H211913   0.157   3.710  15.631 -0.8295 -0.5275  0.9086
  805MPD2    H311914   0.199   3.851  15.835 -1.4766  0.0654 -1.6106
  805MPD2     N11915   0.651   3.773  15.813 -0.6686 -0.4418 -0.1927
  805MPD2    H511916   0.721   3.718  15.764  0.6665  0.5810  0.5826
  805MPD2    N111917   0.346   3.597  15.469  0.5665  0.2835  0.0237
  805MPD2    H711918   0.431   3.594  15.414  2.0448  0.3892  2.3097
  806MPD2     C11919   1.334   3.322   0.956  0.5660  0.3860 -0.1142
  806MPD2    C111920   1.468   3.329   0.948  0.1039  0.0813  0.7269
  806MPD2    C211921   1.528   3.293   0.830  0.0238 -0.2330  0.2383
  806MPD2    C311922   1.447   3.255   0.722 -0.2381  0.1668  1.2334
  806MPD2    C411923   1.305   3.253   0.738 -0.0540  0.1065 -0.5773
  806MPD2    C511924   1.246   3.286   0.857 -0.0003  0.0787 -0.4558
  806MPD2     H11925   1.634   3.307   0.811 -0.2967 -1.3670 -2.3448
  806MPD2    H111926   1.246   3.217   0.655 -0.9665 -1.0197  0.5816
  806MPD2    H211927   1.282   3.364   1.042 -0.8431  1.2614 -1.3821
  806MPD2    H311928   1.138   3.286   0.855 -0.0177 -1.2866  0.1903
  806MPD2     N11929   1.505   3.217   0.597  0.7179 -0.2410 -0.0655
  806MPD2    H511930   1.441   3.223   0.518 -0.6453  0.6782  1.1201
  806MPD2    N111931   1.533   3.362   1.072  0.3111 -0.0366  0.2931
  806MPD2    H711932   1.489   3.375   1.163 -0.6046 -2.0313  0.1532
  807MPD2     C11933   1.303   3.037   1.588  0.1462  0.7546 -0.3394
  807MPD2    C111934   1.421   2.975   1.553  0.5737 -0.9188 -0.2237
  807MPD2    C211935   1.437   2.839   1.566 -0.8950 -0.7142  0.0680
  807MPD2    C311936   1.333   2.756   1.615 -0.5391 -0.2227  0.0779
  807MPD2    C411937   1.214   2.820   1.649 -0.4167  0.0733  0.2766
  807MPD2    C511938   1.204   2.955   1.630  0.4037  0.2513  0.2333
  807MPD2     H11939   1.532   2.790   1.547 -0.5029 -1.0456  2.8482
  807MPD2    H111940   1.129   2.763   1.684 -1.8205  2.2234  0.3733
  807MPD2    H211941   1.297   3.146   1.590  2.1283  0.8580 -0.0451
  807MPD2    H311942   1.110   2.995   1.665  0.2911 -1.5926  2.0944
  807MPD2     N11943   1.358   2.619   1.633 -0.3864 -0.3223  0.2661
  807MPD2    H511944   1.451   2.587   1.608  0.8297  0.6771  3.5567
  807MPD2    N111945   1.523   3.043   1.492 -0.4463  0.1836  0.1013
  807MPD2    H711946   1.609   2.990   1.476 -1.3322 -0.8303 -1.2619
  808MPD2     C11947   1.078   4.319   9.693 -0.4442 -0.1214  0.2616
  808MPD2    C111948   1.003   4.343   9.811 -0.2524  0.2451 -0.2320
  808MPD2    C211949   1.018   4.461   9.875  0.0023 -0.0803  0.0443
  808MPD2    C311950   1.099   4.565   9.828 -0.4288 -0.1718 -0.3854
  808MPD2    C411951   1.168   4.545   9.712 -0.4520  0.0380  0.2950
  808MPD2    C511952   1.168   4.425   9.654  0.2901 -0.5123  0.4406
  808MPD2     H11953   0.967   4.474   9.970 -0.7183 -1.3459 -0.1592
  808MPD2    H111954   1.244   4.616   9.681 -1.3841  0.6765 -0.5100
  808MPD2    H211955   1.071   4.226   9.639 -0.8841 -0.7477  1.3976
  808MPD2    H311956   1.233   4.401   9.570  0.4077 -0.4888  0.5257
  808MPD2     N11957   1.129   4.678   9.891  0.3137 -0.2560  0.4767
  808MPD2    H511958   1.173   0.019   9.843 -0.4622  1.2509  2.1568
  808MPD2    N111959   0.924   4.239   9.874 -0.3034  0.4798 -0.7401
  808MPD2    H711960   0.888   4.265   9.965  1.0267 -1.3593  0.3245
  809MPD2     C11961   1.802   0.639   9.914 -0.3069 -0.3204  0.2080
  809MPD2    C111962   1.774   0.514   9.860  0.2164 -0.3511  0.4240
  809MPD2    C211963   1.650   0.463   9.888 -0.6767  0.3890  0.6170
  809MPD2    C311964   1.553   0.532   9.960 -0.3214  0.1829  0.2019
  809MPD2    C411965   1.578   0.658  10.004 -0.4153  0.6209 -0.6059
  809MPD2    C511966   1.706   0.707   9.983  0.2512 -0.3408 -0.0241
  809MPD2     H11967   1.633   0.361   9.857  1.3018  0.7809 -1.6860
  809MPD2    H111968   1.511   0.717  10.066  0.6955  0.8569  0.3878
  809MPD2    H211969   1.891   0.698   9.895 -1.8689  2.4242  1.3869
  809MPD2    H311970   1.729   0.807  10.018 -0.4745  0.1036 -0.8153
  809MPD2     N11971   1.426   0.480  10.002 -0.8561 -0.5091  0.0798
  809MPD2    H511972   1.375   0.530  10.074  2.5355  1.1290  1.3334
  809MPD2    N111973   1.876   0.434   9.799  0.0259 -0.0226  0.0829
  809MPD2    H711974   1.851   0.342   9.765  1.8879  1.2080 -4.7188
  810MPD2     C11975   0.363   3.777  10.901 -0.0267  0.4569  0.6913
  810MPD2    C111976   0.239   3.842  10.920  0.0787  0.7692 -0.5379
  810MPD2    C211977   0.226   3.971  10.883 -0.4632  0.3181  0.3735
  810MPD2    C311978   0.341   4.037  10.841 -0.3021 -0.0761  0.5448
  810MPD2    C411979   0.459   3.977  10.829  0.1141  0.0434 -1.0188
  810MPD2    C511980   0.471   3.843  10.848 -0.1525  0.2757 -0.7824
  810MPD2     H11981   0.125   4.010  10.875  0.1124  1.7596  0.1674
  810MPD2    H111982   0.551   4.029  10.802  0.0416  0.2996 -0.7810
  810MPD2    H211983   0.377   3.677  10.940  0.0286 -0.3965 -1.5379
  810MPD2    H311984   0.570   3.800  10.834 -0.1337 -0.3812  1.4826
  810MPD2     N11985   0.338   4.177  10.809  0.4213  0.1655 -0.4012
  810MPD2    H511986   0.430   4.220  10.800  0.5754  0.7186  3.5697
  810MPD2    N111987   0.127   3.756  10.949 -0.0530  0.8349 -0.4437
  810MPD2    H711988   0.136   3.655  10.954 -0.9798  0.7585 -0.3813
  811MPD2     C11989   4.073   3.633  10.602 -0.2188 -0.7378 -0.0223
  811MPD2    C111990   4.168   3.720  10.662 -0.6284  0.0022 -0.0534
  811MPD2    C211991   4.206   3.835  10.591  0.2187 -1.0983  0.3828
  811MPD2    C311992   4.146   3.870  10.472  0.4698 -0.1909 -0.3542
  811MPD2    C411993   4.056   3.783  10.418  0.2590 -0.0750  0.4691
  811MPD2    C511994   4.020   3.674  10.483 -0.0625 -0.5125 -0.2342
  811MPD2     H11995   4.298   3.890  10.605 -0.8469  1.1886 -1.4483
  811MPD2    H111996   4.017   3.793  10.317  0.7243 -0.8071  0.2157
  811MPD2    H211997   4.030   3.548  10.656 -0.5784 -0.3946  0.2339
  811MPD2    H311998   3.939   3.612  10.448  0.2093 -1.2025  0.3704
  811MPD2     N11999   4.206   3.980  10.398 -0.6822  0.0150  0.3168
  811MPD2    H512000   4.302   4.006  10.415 -1.1217  0.5562  1.9415
  811MPD2    N112001   4.225   3.682  10.785  0.5518 -0.9679  0.4576
  811MPD2    H712002   4.207   3.588  10.819 -0.1942 -1.0797 -0.2480
  812MPD2     C12003   3.934   3.293  12.329 -0.0619  0.7827  0.2567
  812MPD2    C112004   3.972   3.401  12.409 -0.6186  0.4922  0.2208
  812MPD2    C212005   4.025   3.385  12.535 -0.2082 -0.2799 -0.1407
  812MPD2    C312006   4.032   3.254  12.585  0.0685 -0.0680 -0.2024
  812MPD2    C412007   3.981   3.154  12.504 -1.3858  0.2000 -0.2814
  812MPD2    C512008   3.946   3.165  12.374 -0.1916 -0.2590  0.0570
  812MPD2     H12009   4.076   3.465  12.586 -1.6633  1.4130 -1.3261
  812MPD2    H112010   3.990   3.051  12.536 -1.8977  0.2705  0.0795
  812MPD2    H212011   3.882   3.310  12.235  0.5487  0.7925 -0.0811
  812MPD2    H312012   3.921   3.075  12.318 -0.0038  0.0121 -0.4599
  812MPD2     N12013   4.080   3.238  12.717 -0.5809 -0.2336  0.2564
  812MPD2    H512014   4.115   3.318  12.768 -1.8677  0.7299 -0.3985
  812MPD2    N112015   3.954   3.525  12.343 -0.1868 -0.1436 -0.0708
  812MPD2    H712016   3.912   3.512  12.251 -2.7417  0.7382  0.9654
  813MPD2     C12017   3.359   0.691  12.832 -0.8517 -0.3768  0.3479
  813MPD2    C112018   3.320   0.824  12.861 -0.4936 -0.3544 -0.0851
  813MPD2    C212019   3.251   0.859  12.972 -0.4264  0.3371 -0.4312
  813MPD2    C312020   3.222   0.765  13.070 -0.4305 -0.3331 -0.3396
  813MPD2    C412021   3.268   0.633  13.051 -0.2862 -0.5070 -0.1293
  813MPD2    C512022   3.332   0.597  12.934  0.9269 -0.0727 -0.1548
  813MPD2     H12023   3.220   0.962  12.991  1.7231  1.0866 -1.0452
  813MPD2    H112024   3.262   0.554  13.126 -0.0052 -0.4596 -0.0578
  813MPD2    H212025   3.427   0.658  12.753 -3.3347 -1.5644 -1.2986
  813MPD2    H312026   3.372   0.497  12.921 -0.7155 -0.5115 -1.9235
  813MPD2     N12027   3.159   0.816  13.183  0.3547  0.3202  0.3811
  813MPD2    H512028   3.115   0.907  13.180  0.8133  0.4988 -0.8975
  813MPD2    N112029   3.389   0.935  12.805  0.4855  0.9945 -0.5759
  813MPD2    H712030   3.357   1.027  12.832  0.9879  1.7153 -2.4178
  814MPD2     C12031   3.545   1.931  12.352  0.9566 -0.5345 -0.5871
  814MPD2    C112032   3.533   2.043  12.272  0.2130  0.4420 -0.0518
  814MPD2    C212033   3.570   2.162  12.330  0.1639 -0.0166  0.2118
  814MPD2    C312034   3.633   2.177  12.448  0.0085 -0.1864  0.0362
  814MPD2    C412035   3.638   2.062  12.527 -0.0903 -0.0472  0.1009
  814MPD2    C512036   3.590   1.939  12.477 -0.0832 -0.3976  0.1390
  814MPD2     H12037   3.553   2.252  12.272  0.2651 -0.5571 -0.6630
  814MPD2    H112038   3.687   2.066  12.624  0.8305  1.4023 -0.4181
  814MPD2    H212039   3.512   1.835  12.314  1.1458 -1.4601  1.6115
  814MPD2    H312040   3.590   1.847  12.535 -0.9344  0.1284  0.9878
  814MPD2     N12041   3.682   2.298  12.504  0.4509 -0.4627  0.2361
  814MPD2    H512042   3.710   2.297  12.602  0.8664 -0.5682  0.1167
  814MPD2    N112043   3.481   2.040  12.138 -0.0907  0.4959  0.3089
  814MPD2    H712044   3.486   2.129  12.089  1.3277 -1.0887 -2.4705
  815MPD2     C12045   4.295   1.038  11.942 -0.0321 -0.4209  0.2011
  815MPD2    C112046   4.354   0.915  11.928 -0.4263  0.0143 -0.2943
  815MPD2    C212047   4.328   0.817  12.027  0.4826 -0.5807 -0.2312
  815MPD2    C312048   4.243   0.849  12.133  0.5076 -0.0474  0.5291
  815MPD2    C412049   4.188   0.971  12.146  0.6753  0.0108 -0.1647
  815MPD2    C512050   4.212   1.064  12.046  0.3289  0.4758  0.3270
  815MPD2     H12051   4.368   0.717  12.017  1.7373  0.0464 -1.3989
  815MPD2    H112052   4.111   0.995  12.217 -0.0840 -0.8952 -0.6761
  815MPD2    H212053   4.303   1.120  11.872  1.1012 -0.3486  0.4182
  815MPD2    H312054   4.177   1.166  12.056 -3.0037 -0.5533 -0.7331
  815MPD2     N12055   4.194   0.732  12.209 -0.2725  0.3309 -0.0397
  815MPD2    H512056   4.257   0.653  12.203  0.0352  0.7073 -1.9353
  815MPD2    N112057   4.424   0.882  11.807 -0.3136  0.0052  0.8499
  815MPD2    H712058   4.407   0.944  11.728  0.9877  2.2129  2.3079
  816MPD2     C12059   0.039   0.101  17.562 -0.1558 -0.4235 -0.0845
  816MPD2    C112060   4.666   0.086  17.481 -0.7035  0.3859  0.4133
  816MPD2    C212061   4.673   4.724  17.384  0.1483 -0.6328  0.3073
  816MPD2    C312062   0.045   4.656  17.352  0.1558  0.3612 -0.3686
  816MPD2    C412063   0.157   4.689  17.424  0.0685 -0.1750 -0.2116
  816MPD2    C512064   0.157   0.036  17.528 -0.6446 -0.5645 -1.3558
  816MPD2     H12065   4.588   4.691  17.327  0.6437  1.7993 -1.8112
  816MPD2    H112066   0.248   4.631  17.413 -1.1196 -2.0915  0.2529
  816MPD2    H212067   0.040   0.171  17.645 -0.9942 -1.0201  0.4278
  816MPD2    H312068   0.252   0.055  17.577 -1.5502  1.4081 -0.4097
  816MPD2     N12069   0.040   4.556  17.252  0.3789  0.2995  0.5084
  816MPD2    H512070   4.685   4.551  17.207  0.7073  3.1252 -0.4714
  816MPD2    N112071   4.548   0.163  17.498  0.3103  0.2205 -0.0399
  816MPD2    H712072   4.542   0.216  17.584 -0.7880  2.4156 -1.4917
  817MPD2     C12073   3.332   1.774  10.051 -1.0409  0.6178  0.3339
  817MPD2    C112074   3.447   1.837   9.994  0.0826 -0.4477  0.6972
  817MPD2    C212075   3.423   1.959   9.934  0.1148 -0.2112 -0.4683
  817MPD2    C312076   3.304   2.020   9.931  0.6692  0.4341 -0.2577
  817MPD2    C412077   3.185   1.955   9.972  0.8893  0.1564 -0.0653
  817MPD2    C512078   3.206   1.836  10.035  0.3263  0.2944 -0.0229
  817MPD2     H12079   3.509   2.003   9.884 -0.2098  0.6960 -0.2296
  817MPD2    H112080   3.084   1.986   9.950  1.0941 -0.2582 -1.5943
  817MPD2    H212081   3.340   1.680  10.104 -1.4359  1.3138  1.6364
  817MPD2    H312082   3.116   1.791  10.075  0.9024 -1.4820 -0.7103
  817MPD2     N12083   3.304   2.144   9.866  0.4607  0.4815 -0.4243
  817MPD2    H512084   3.389   2.167   9.815  0.5749 -1.1196 -0.9357
  817MPD2    N112085   3.571   1.771   9.998  0.3409 -0.2007  0.1938
  817MPD2    H712086   3.646   1.810   9.941  0.0059  2.3624  1.4739
  818MPD2     C12087   1.982   1.192  10.213  0.5326  0.4684  0.3405
  818MPD2    C112088   2.090   1.159  10.299 -0.7256  0.0281 -0.1572
  818MPD2    C212089   2.144   1.037  10.290 -0.2190  0.2941 -0.1508
  818MPD2    C312090   2.107   0.947  10.193  0.3783  0.3936 -0.8827
  818MPD2    C412091   2.002   0.987  10.108 -0.3207 -0.0732  0.1642
  818MPD2    C512092   1.940   1.103  10.116  0.4232 -0.1707 -0.2095
  818MPD2     H12093   2.223   1.010  10.359 -1.5756 -0.7859  0.9807
  818MPD2    H112094   1.963   0.921  10.031 -0.4344 -0.8750  0.9134
  818MPD2    H212095   1.932   1.288  10.209  1.2992  0.7539 -2.0628
  818MPD2    H312096   1.864   1.130  10.044  0.4589 -1.7082 -0.8173
  818MPD2     N12097   2.173   0.825  10.169  0.3227  0.4172 -0.7005
  818MPD2    H512098   2.157   0.785  10.077  1.5174 -2.3109  0.2616
  818MPD2    N112099   2.137   1.241  10.402  0.2969 -0.6445 -0.0122
  818MPD2    H712100   2.218   1.211  10.457  1.4183  2.4852  0.0887
  819MPD2     C12101   0.978   3.033  15.567  0.7182  0.1935 -0.6073
  819MPD2    C112102   1.032   2.912  15.521  0.1978  0.2998 -0.1210
  819MPD2    C212103   1.144   2.854  15.577  0.7219  0.0049  0.3421
  819MPD2    C312104   1.206   2.920  15.683  0.2600  0.1959  0.0541
  819MPD2    C412105   1.161   3.042  15.727  0.3175  0.3656 -0.3524
  819MPD2    C512106   1.043   3.093  15.671  0.6610  0.1096  0.2918
  819MPD2     H12107   1.177   2.757  15.542 -0.1574  0.0462 -0.6100
  819MPD2    H112108   1.202   3.100  15.808 -0.1633  3.6081 -2.4275
  819MPD2    H212109   0.894   3.091  15.531 -0.1154 -1.3513 -1.1191
  819MPD2    H312110   1.019   3.194  15.705 -1.0888  1.3167 -4.4680
  819MPD2     N12111   1.318   2.855  15.739 -0.1686 -0.2802 -0.0552
  819MPD2    H512112   1.348   2.771  15.692  0.7778 -0.4269  0.8249
  819MPD2    N112113   0.951   2.843  15.425 -0.3844 -0.3196 -0.4639
  819MPD2    H712114   0.889   2.901  15.369  1.0974 -0.0075 -1.7720
  820MPD2     C12115   0.152   2.994  14.949  0.4318 -0.3974 -0.3262
  820MPD2    C112116   0.257   3.043  15.020  0.6338  0.3630  0.0263
  820MPD2    C212117   0.350   2.960  15.075  0.1810 -0.3587 -0.5195
  820MPD2    C312118   0.344   2.827  15.047  0.1667  0.3816  0.5175
  820MPD2    C412119   0.238   2.775  14.970  0.2839 -0.4680 -0.0584
  820MPD2    C512120   0.147   2.863  14.915 -0.8855  0.0804  1.1996
  820MPD2     H12121   0.423   3.006  15.141  1.0939 -0.3366 -1.5443
  820MPD2    H112122   0.235   2.671  14.941 -0.4488 -0.4133 -0.1879
  820MPD2    H212123   0.079   3.070  14.925 -0.1327 -0.4397  1.2482
  820MPD2    H312124   0.064   2.825  14.856 -0.3534  0.7927 -0.0094
  820MPD2     N12125   0.447   2.737  15.094 -0.2098  0.4890  0.2135
  820MPD2    H512126   0.459   2.662  15.028  0.0657  1.9068 -1.3496
  820MPD2    N112127   0.282   3.179  15.019  0.2621 -0.3883 -0.0221
  820MPD2    H712128   0.215   3.233  14.964  1.0495 -0.0105 -0.6149
  821MPD2     C12129   0.531   4.680  13.285 -0.4770  0.6141  0.4843
  821MPD2    C112130   0.620   4.574  13.289  0.4320  0.3760 -0.2153
  821MPD2    C212131   0.738   4.597  13.209 -0.2861  0.2045 -0.1965
  821MPD2    C312132   0.759   4.713  13.140 -0.5627 -0.4747  0.1577
  821MPD2    C412133   0.665   0.075  13.145 -0.3585 -0.1392 -0.0261
  821MPD2    C512134   0.545   0.056  13.211 -0.8741  0.4581 -0.3338
  821MPD2     H12135   0.813   4.518  13.210 -0.7258 -0.1920  0.9051
  821MPD2    H112136   0.687   0.168  13.095 -0.2816 -0.5924 -0.8461
  821MPD2    H212137   0.445   4.677  13.351  0.1590 -0.1712  1.2614
  821MPD2    H312138   0.479   0.141  13.220 -2.4831 -1.0022  1.4676
  821MPD2     N12139   0.874   0.000  13.059 -0.4640 -0.1413  0.4812
  821MPD2    H512140   0.874   0.086  13.004  2.0309 -1.7058 -1.9612
  821MPD2    N112141   0.605   4.448  13.359  0.5139 -0.2210  0.0908
  821MPD2    H712142   0.677   4.378  13.343  0.0220 -0.9979  1.3014
  822MPD2     C12143   1.541   4.642  15.701  0.1074  0.3864  0.4239
  822MPD2    C112144   1.473   4.577  15.800  0.2890  0.4906 -0.1302
  822MPD2    C212145   1.396   4.653  15.880  0.1264  0.2650 -0.1397
  822MPD2    C312146   1.415   0.057  15.891  0.6162  0.0397 -0.2739
  822MPD2    C412147   1.486   0.122  15.795  0.3915 -0.0702 -0.3191
  822MPD2    C512148   1.537   0.043  15.690  0.1258 -0.1976 -0.9224
  822MPD2     H12149   1.344   4.594  15.955 -1.3288  0.2519 -1.1675
  822MPD2    H112150   1.504   0.228  15.782  0.6469 -0.3071 -1.9113
  822MPD2    H212151   1.586   4.585  15.620  0.3601  1.0408  0.1058
  822MPD2    H312152   1.591   0.095  15.611  0.4246 -0.9440 -1.2035
  822MPD2     N12153   1.365   0.123  15.998  0.4261  1.0723 -0.2280
  822MPD2    H512154   1.331   0.066  16.075  2.0493 -0.8906 -0.9369
  822MPD2    N112155   1.489   4.440  15.829  0.6909  0.4940  0.6195
  822MPD2    H712156   1.421   4.407  15.898  1.3841 -0.9124  0.6250
  823MPD2     C12157   0.996   4.667  16.622  0.2265  0.2179  0.2363
  823MPD2    C112158   1.126   4.654  16.585  0.8793  0.2396 -0.1243
  823MPD2    C212159   1.189   4.543  16.631  0.3510  0.3352 -0.3278
  823MPD2    C312160   1.130   4.451  16.715  0.4958 -0.1028  0.5751
  823MPD2    C412161   1.000   4.475  16.767 -0.8161  0.5068 -0.0001
  823MPD2    C512162   0.935   4.582  16.716  0.4510 -0.3665  0.1819
  823MPD2     H12163   1.294   4.526  16.610  0.8773  0.6804  1.9263
  823MPD2    H112164   0.951   4.404  16.833  0.4896 -0.6198 -0.2381
  823MPD2    H212165   0.940   0.015  16.585 -0.8944 -0.1567  1.0589
  823MPD2    H312166   0.833   4.603  16.745  1.2220  2.8936  0.4711
  823MPD2     N12167   1.177   4.321  16.744 -0.4675  0.3205  0.0136
  823MPD2    H512168   1.113   4.257  16.789 -1.0354  0.6006 -0.3935
  823MPD2    N112169   1.190   0.013  16.499 -0.5300  0.2792 -0.0336
  823MPD2    H712170   1.292   0.007  16.495 -0.5485  0.1497 -0.3367
  824MPD2     C12171   1.786   3.641  15.694 -0.0832 -0.6867  0.5345
  824MPD2    C112172   1.859   3.749  15.731  0.2978 -0.2158 -0.9678
  824MPD2    C212173   2.000   3.741  15.733  0.2162 -0.2614 -0.5820
  824MPD2    C312174   2.067   3.631  15.699 -0.0267  0.1210  0.1012
  824MPD2    C412175   1.995   3.530  15.639  0.6313  1.1345  0.3626
  824MPD2    C512176   1.858   3.529  15.650 -0.6510 -0.2145  0.0042
  824MPD2     H12177   2.053   3.828  15.771  0.3772 -1.0388  0.9505
  824MPD2    H112178   2.036   3.439  15.597  0.4297  1.4594 -0.5304
  824MPD2    H212179   1.681   3.647  15.669 -0.4607 -1.5161  1.9197
  824MPD2    H312180   1.804   3.447  15.605 -0.5684  0.2098 -0.8821
  824MPD2     N12181   2.207   3.630  15.710 -0.0794  0.1628  0.5240
  824MPD2    H512182   2.260   3.716  15.717  1.0685 -0.5185  0.3685
  824MPD2    N112183   1.797   3.868  15.769 -0.6167  0.7290  1.2753
  824MPD2    H712184   1.860   3.942  15.797 -1.1936  1.5269  0.4249
  825MPD2     C12185   3.024   3.887  15.842 -0.0546 -0.1562  0.1657
  825MPD2    C112186   2.917   3.893  15.759 -0.0870 -0.0918 -0.3935
  825MPD2    C212187   2.887   4.011  15.687  0.0272  0.2059  0.1951
  825MPD2    C312188   2.963   4.119  15.719  0.4466 -0.3543 -0.0426
  825MPD2    C412189   3.070   4.113  15.804  0.0009  0.4999  0.4088
  825MPD2    C512190   3.103   3.995  15.865  0.2733  0.6709  0.0628
  825MPD2     H12191   2.797   4.016  15.626 -0.1205 -0.9193  0.3089
  825MPD2    H112192   3.145   4.190  15.815 -0.1095  0.9893 -2.1411
  825MPD2    H212193   3.050   3.798  15.898 -0.9256 -0.0534  0.7464
  825MPD2    H312194   3.195   3.987  15.921  0.3738  1.3341 -0.0021
  825MPD2     N12195   2.921   4.254  15.694  0.1993 -1.1166  0.3273
  825MPD2    H512196   2.947   4.330  15.756  0.6595 -2.3024  1.5876
  825MPD2    N112197   2.830   3.780  15.758  0.2661  0.1785 -0.4460
  825MPD2    H712198   2.855   3.703  15.820 -3.2286  0.5364  1.4379
  826MPD2     C12199   2.625   3.753  13.854  0.1660  0.7882 -0.6467
  826MPD2    C112200   2.538   3.686  13.765 -0.1452  0.2869 -0.2457
  826MPD2    C212201   2.421   3.748  13.730 -0.2847  0.1061 -0.8158
  826MPD2    C312202   2.379   3.867  13.785  0.2025  0.0341  0.0887
  826MPD2    C412203   2.459   3.924  13.881  0.0868  0.0743 -0.5181
  826MPD2    C512204   2.577   3.866  13.916 -0.1305 -0.0802  0.3138
  826MPD2     H12205   2.358   3.693  13.661 -0.7337 -0.5808  0.1371
  826MPD2    H112206   2.433   4.020  13.924  2.5135  0.4459  0.1014
  826MPD2    H212207   2.728   3.723  13.871 -0.8700 -1.3110  1.8244
  826MPD2    H312208   2.649   3.924  13.973 -1.3796 -0.4812  2.3156
  826MPD2     N12209   2.272   3.949  13.739  0.1070 -0.0385 -0.5389
  826MPD2    H512210   2.248   4.030  13.796  0.7852  0.0810 -0.4225
  826MPD2    N112211   2.594   3.577  13.691 -0.0151  0.3390 -0.7412
  826MPD2    H712212   2.694   3.562  13.684 -0.0585  0.2627 -1.1861
  827MPD2     C12213   2.924   0.545  10.660  0.7287 -0.3480  0.5284
  827MPD2    C112214   2.957   0.419  10.696  0.1475  0.4311  0.2689
  827MPD2    C212215   2.915   0.313  10.618 -0.2876 -0.0733  0.4256
  827MPD2    C312216   2.842   0.326  10.507 -0.4107  0.0712  0.5616
  827MPD2    C412217   2.802   0.450  10.474  0.0151 -0.4196  0.1300
  827MPD2    C512218   2.849   0.564  10.548  0.0693 -0.6150 -0.0849
  827MPD2     H12219   2.949   0.215  10.647 -0.4101 -0.6014 -1.1840
  827MPD2    H112220   2.753   0.470  10.379 -1.7567 -1.8276  0.7397
  827MPD2    H212221   2.960   0.634  10.710  0.2827  1.4267 -2.3266
  827MPD2    H312222   2.840   0.664  10.507 -1.2568  0.3074  2.4421
  827MPD2     N12223   2.808   0.215  10.426  0.5553 -0.5052  0.1824
  827MPD2    H512224   2.835   0.121  10.452  2.1712 -0.2359 -0.5248
  827MPD2    N112225   3.041   0.406  10.805  0.1835 -0.5183  0.1960
  827MPD2    H712226   3.063   0.494  10.850  1.5438 -0.7278 -0.0395
  828MPD2     C12227   1.514   4.392  12.556  0.3601 -0.4863  0.0804
  828MPD2    C112228   1.455   4.334  12.445 -0.4652 -0.5765 -0.0114
  828MPD2    C212229   1.530   4.252  12.366  0.3184 -0.3387  0.5395
  828MPD2    C312230   1.668   4.233  12.388 -0.3948 -0.9031  0.2661
  828MPD2    C412231   1.727   4.298  12.491 -0.1280 -0.7946 -0.1086
  828MPD2    C512232   1.652   4.377  12.573  0.4829 -0.4979 -0.4970
  828MPD2     H12233   1.478   4.208  12.282  1.0732 -1.9160  0.8958
  828MPD2    H112234   1.834   4.285  12.507 -0.2632 -1.3831  0.3128
  828MPD2    H212235   1.461   4.445  12.635 -0.0281 -0.9158  0.1037
  828MPD2    H312236   1.694   4.434  12.655 -0.8162 -1.2107  0.6704
  828MPD2     N12237   1.754   4.156  12.306  0.6422 -0.2500  0.1123
  828MPD2    H512238   1.854   4.164  12.323  0.3347 -1.5730  2.5592
  828MPD2    N112239   1.319   4.349  12.422  0.7304 -0.7046  0.3179
  828MPD2    H712240   1.275   4.283  12.359 -0.0887 -2.1311  2.3500
  829MPD2     C12241   0.976   4.165  11.645  0.1811 -0.5018 -0.0771
  829MPD2    C112242   0.877   4.256  11.686 -0.5752  0.4809  0.2116
  829MPD2    C212243   0.901   4.331  11.797 -0.5397  0.6211  0.0457
  829MPD2    C312244   1.021   4.324  11.874  0.3209 -0.1979  0.4050
  829MPD2    C412245   1.114   4.235  11.829  0.2139  0.0895  0.6663
  829MPD2    C512246   1.088   4.153  11.720 -0.4561  0.9914  0.4188
  829MPD2     H12247   0.817   4.389  11.835  0.8579  2.3278  0.5359
  829MPD2    H112248   1.207   4.215  11.881  0.7750 -0.1221 -0.4097
  829MPD2    H212249   0.971   4.107  11.554 -1.4335  0.0500 -0.3384
  829MPD2    H312250   1.171   4.098  11.679 -2.5498 -0.9606 -1.1702
  829MPD2     N12251   1.043   4.377  12.009 -0.2834 -0.9924 -0.2001
  829MPD2    H512252   1.129   4.356  12.059 -0.2475 -0.5234 -0.0696
  829MPD2    N112253   0.747   4.247  11.636  0.0970 -0.2753  0.4402
  829MPD2    H712254   0.671   4.312  11.658  0.7377  1.1723 -1.6616
  830MPD2     C12255   2.136   2.656  15.588 -1.2415 -0.3278  0.4137
  830MPD2    C112256   2.002   2.668  15.550 -0.0406 -0.4891 -1.1061
  830MPD2    C212257   1.987   2.709  15.419 -0.4020  0.1790 -0.2310
  830MPD2    C312258   2.089   2.736  15.332 -0.7560  0.0129  0.3203
  830MPD2    C412259   2.219   2.720  15.375  0.0313  0.4913  0.9914
  830MPD2    C512260   2.245   2.675  15.503  0.1424 -0.4262  0.0809
  830MPD2     H12261   1.887   2.736  15.388  0.6642  1.3134 -2.7480
  830MPD2    H112262   2.299   2.756  15.312 -0.2767  2.1594  1.5468
  830MPD2    H212263   2.160   2.614  15.685  2.4667 -1.5392 -1.0367
  830MPD2    H312264   2.346   2.651  15.536  0.1642  0.4009  0.6315
  830MPD2     N12265   2.062   2.796  15.202 -0.2210 -0.0422  0.0922
  830MPD2    H512266   2.141   2.827  15.146 -1.0140  1.9821  0.0719
  830MPD2    N112267   1.896   2.662  15.641  0.0038  0.0348 -0.0596
  830MPD2    H712268   1.922   2.670  15.739  2.0021  3.3432 -0.8295
  831MPD2     C12269   1.864   4.441  16.317 -0.1106 -0.8662  0.4514
  831MPD2    C112270   1.800   4.529  16.223  0.4665  0.1334 -0.3995
  831MPD2    C212271   1.663   4.557  16.242 -0.2145  0.0034 -0.1574
  831MPD2    C312272   1.589   4.493  16.339 -0.4898  0.4086 -0.3182
  831MPD2    C412273   1.652   4.407  16.427  0.0702  0.5536 -0.6188
  831MPD2    C512274   1.788   4.382  16.410 -0.3446 -0.5513 -0.0697
  831MPD2     H12275   1.611   4.603  16.158  2.0296  1.3332 -0.8028
  831MPD2    H112276   1.594   4.343  16.492  3.2488 -1.7077  0.0075
  831MPD2    H212277   1.968   4.413  16.314  0.2562  0.4153  1.1469
  831MPD2    H312278   1.832   4.310  16.479  0.2845 -1.0138 -0.9613
  831MPD2     N12279   1.451   4.484  16.335 -0.4480  0.2585 -0.2356
  831MPD2    H512280   1.419   4.407  16.392  0.9366  0.1088  0.3576
  831MPD2    N112281   1.867   4.557  16.105 -0.4782  0.1994  0.1734
  831MPD2    H712282   1.956   4.510  16.094  0.1256  1.4396 -0.1999
  832MPD2     C12283   0.217   1.077  17.406  0.4622  0.6060  0.3692
  832MPD2    C112284   0.211   1.176  17.314 -0.3072 -0.5996 -0.5507
  832MPD2    C212285   0.106   1.198  17.236 -0.6682 -0.3098 -0.2263
  832MPD2    C312286   4.722   1.126  17.261  0.3197 -0.0215  0.4231
  832MPD2    C412287   4.729   1.022  17.350  0.7963 -0.3811 -0.0502
  832MPD2    C512288   0.107   0.997  17.418 -0.0118  0.8326  0.3627
  832MPD2     H12289   0.097   1.278  17.163 -0.0084  1.1746  1.3210
  832MPD2    H112290   4.645   0.956  17.369  2.5889 -2.7523 -0.4385
  832MPD2    H212291   0.312   1.058  17.454 -0.5705 -2.0075  1.3654
  832MPD2    H312292   0.113   0.906  17.476  2.9076  1.9550  1.8648
  832MPD2     N12293   4.604   1.145  17.194 -0.0180 -0.2475 -0.3789
  832MPD2    H512294   4.535   1.072  17.201 -0.1689 -0.2292 -1.6176
  832MPD2    N112295   0.335   1.244  17.304  0.3719  0.5288 -0.4775
  832MPD2    H712296   0.412   1.226  17.366 -2.4595 -1.7312  2.3765
  833MPD2     C12297   1.292   2.946  12.684  0.9526  0.4202 -0.1184
  833MPD2    C112298   1.239   3.001  12.564 -0.1895  0.0797 -0.2812
  833MPD2    C212299   1.305   2.983  12.446 -0.8698  0.5584 -0.1781
  833MPD2    C312300   1.436   2.941  12.444 -0.5572 -0.5344  0.3117
  833MPD2    C412301   1.496   2.899  12.566  0.1671  0.0250  0.1629
  833MPD2    C512302   1.421   2.900  12.677  0.2940  0.8254 -0.2521
  833MPD2     H12303   1.245   3.006  12.358 -1.3125  1.5227  0.3788
  833MPD2    H112304   1.597   2.862  12.571  0.5670  0.9465 -0.9058
  833MPD2    H212305   1.248   2.955  12.783  0.4870 -2.1319 -0.0968
  833MPD2    H312306   1.456   2.859  12.771 -0.5825  2.0830  0.6324
  833MPD2     N12307   1.523   2.954  12.335  0.1360  0.3557  0.2500
  833MPD2    H512308   1.619   2.919  12.338  0.2056  0.2879 -2.2525
  833MPD2    N112309   1.110   3.063  12.575  0.2467  0.4717 -0.3783
  833MPD2    H712310   1.076   3.053  12.670 -2.7008  0.6128 -1.4217
  834MPD2     C12311   1.943   2.213  12.119  0.4497 -0.1737 -0.6431
  834MPD2    C112312   1.890   2.221  11.993 -0.4498 -0.2814  0.0352
  834MPD2    C212313   1.824   2.336  11.948  0.1871  1.2060  0.0452
  834MPD2    C312314   1.809   2.436  12.038 -0.5671 -0.0989 -0.2519
  834MPD2    C412315   1.864   2.424  12.164  0.2641 -0.2286 -0.4223
  834MPD2    C512316   1.925   2.311  12.206  0.1221  0.0380  0.3884
  834MPD2     H12317   1.772   2.337  11.853  1.8073  0.7936 -0.8351
  834MPD2    H112318   1.864   2.501  12.241  0.3718  0.7164 -1.3672
  834MPD2    H212319   1.997   2.126  12.156  0.3821 -0.6700 -1.7089
  834MPD2    H312320   1.960   2.291  12.307 -0.5281 -1.7237  0.2647
  834MPD2     N12321   1.744   2.556  12.005  0.5592  0.6583  0.7846
  834MPD2    H512322   1.690   2.557  11.919  3.3412  1.6792 -0.9712
  834MPD2    N112323   1.909   2.108  11.914  0.8877  0.0123  0.2927
  834MPD2    H712324   1.946   2.022  11.953  0.4227 -0.7614 -0.9886
  835MPD2     C12325   2.434   0.516  11.432 -0.5921  0.2318  0.3503
  835MPD2    C112326   2.317   0.438  11.424  0.1488  0.2950  0.5880
  835MPD2    C212327   2.323   0.301  11.428 -0.2979 -0.0040 -0.3244
  835MPD2    C312328   2.451   0.248  11.438 -0.6670 -1.0236 -0.0990
  835MPD2    C412329   2.564   0.326  11.447 -0.1124 -0.1726  0.6380
  835MPD2    C512330   2.554   0.456  11.442 -0.0313  0.0607 -0.0556
  835MPD2     H12331   2.236   0.238  11.415  0.7130 -1.4336 -0.1885
  835MPD2    H112332   2.666   0.289  11.456 -0.1244 -0.0485  1.2853
  835MPD2    H212333   2.427   0.624  11.437 -0.4603  0.2554 -0.0063
  835MPD2    H312334   2.646   0.506  11.471  0.0088 -0.0421 -0.0034
  835MPD2     N12335   2.478   0.108  11.453 -0.4821  0.0216 -0.5239
  835MPD2    H512336   2.574   0.088  11.477 -0.8210  0.6023  1.3787
  835MPD2    N112337   2.187   0.492  11.418  0.4861 -0.0596 -0.1000
  835MPD2    H712338   2.108   0.433  11.395 -1.4908  2.5636 -0.0715
  836MPD2     C12339   1.983   4.173  11.535 -0.2438 -0.6892  0.0164
  836MPD2    C112340   2.001   4.297  11.601  0.0663 -0.0008 -0.4919
  836MPD2    C212341   1.888   4.361  11.658  0.6854 -0.4430  0.7054
  836MPD2    C312342   1.767   4.295  11.656  0.7280  0.0719  0.1011
  836MPD2    C412343   1.753   4.170  11.602 -0.8115  0.0425 -0.1929
  836MPD2    C512344   1.865   4.113  11.547 -0.1349  0.1674  0.3223
  836MPD2     H12345   1.895   4.459  11.703  2.3832 -0.5569  0.6926
  836MPD2    H112346   1.657   4.121  11.596 -1.2250  1.0297 -1.5960
  836MPD2    H212347   2.067   4.143  11.473  1.3070  2.7051  0.4803
  836MPD2    H312348   1.856   4.016  11.501  0.2091 -0.1051  0.8280
  836MPD2     N12349   1.649   4.345  11.710 -0.3264 -0.3741  0.5799
  836MPD2    H512350   1.570   4.281  11.709 -0.2193 -0.5335  2.1709
  836MPD2    N112351   2.135   4.348  11.597 -1.0248 -0.2371  0.5865
  836MPD2    H712352   2.199   4.311  11.528 -1.7654  0.1877 -0.3314
  837MPD2     C12353   0.119   4.281  10.372  0.0798 -0.2615  0.1664
  837MPD2    C112354   0.012   4.369  10.341 -0.3297  0.8850  0.2239
  837MPD2    C212355   0.029   4.504  10.358 -0.2044 -0.5059 -0.3377
  837MPD2    C312356   0.146   4.556  10.412  0.2731  0.9529 -0.1556
  837MPD2    C412357   0.257   4.470  10.432  0.3680 -0.2179  0.3366
  837MPD2    C512358   0.236   4.339  10.410  0.4315  0.8766 -0.2685
  837MPD2     H12359   4.679   4.568  10.352 -1.7653 -2.6961 -1.0669
  837MPD2    H112360   0.345   4.501  10.487 -1.5922  0.9739  2.7506
  837MPD2    H212361   0.108   4.174  10.359 -0.3615 -0.1534 -0.3356
  837MPD2    H312362   0.309   4.262  10.434 -1.5351 -1.1902 -0.8226
  837MPD2     N12363   0.146   4.693  10.433  0.4595  0.4269 -0.1131
  837MPD2    H512364   0.060   0.007  10.413  0.3150 -0.1873 -1.0101
  837MPD2    N112365   4.623   4.332  10.290  0.5851 -0.1201 -0.4278
  837MPD2    H712366   4.546   4.399  10.288 -0.6524 -1.5671 -1.0311
  838MPD2     C12367   2.755   2.400  11.256 -1.5815  0.3193  0.3823
  838MPD2    C112368   2.743   2.485  11.361 -0.6748  0.3551  0.0699
  838MPD2    C212369   2.636   2.450  11.438  0.3129  0.5903 -0.6018
  838MPD2    C312370   2.565   2.333  11.428  0.5660 -0.8289  0.3211
  838MPD2    C412371   2.586   2.247  11.325 -0.1604  0.1848  0.1798
  838MPD2    C512372   2.680   2.290  11.230  0.4466  0.3916  0.5432
  838MPD2     H12373   2.599   2.517  11.516  1.9279  1.7330 -0.8306
  838MPD2    H112374   2.536   2.151  11.327  0.7433 -0.3081 -1.0362
  838MPD2    H212375   2.840   2.410  11.190 -1.4715  1.0608  0.6452
  838MPD2    H312376   2.712   2.236  11.141  0.7964  0.1371  0.8213
  838MPD2     N12377   2.464   2.302  11.525  0.2765 -0.0647  0.3971
  838MPD2    H512378   2.443   2.369  11.599  0.4441  1.8935 -1.3298
  838MPD2    N112379   2.824   2.595  11.390 -0.2188  0.5596  0.0487
  838MPD2    H712380   2.793   2.658  11.463  1.7109  1.1550  0.3507
  839MPD2     C12381   2.663   2.487  11.821  0.1807  0.5243 -0.1391
  839MPD2    C112382   2.780   2.485  11.759  0.2643 -0.5091  0.5411
  839MPD2    C212383   2.851   2.608  11.756 -0.1274 -0.9056 -0.7880
  839MPD2    C312384   2.805   2.720  11.821 -0.5598  0.2173 -0.9871
  839MPD2    C412385   2.694   2.710  11.900 -0.2648 -0.0580  0.5549
  839MPD2    C512386   2.619   2.593  11.895 -0.3493  0.4863 -0.4431
  839MPD2     H12387   2.951   2.603  11.712  0.8163  2.3962  1.0380
  839MPD2    H112388   2.650   2.791  11.957 -0.6566 -0.0342  0.2139
  839MPD2    H212389   2.595   2.402  11.828  2.2440 -1.1325 -0.1756
  839MPD2    H312390   2.523   2.594  11.946 -0.2665  1.9712 -0.3182
  839MPD2     N12391   2.866   2.849  11.818  0.2262 -0.9104  0.0622
  839MPD2    H512392   2.834   2.919  11.884  0.7865  0.5066 -1.1841
  839MPD2    N112393   2.828   2.367  11.699  0.0738  0.1811  0.2910
  839MPD2    H712394   2.916   2.371  11.648  0.3039  1.7056  0.8012
  840MPD2     C12395   3.552   0.715  10.669 -0.0545 -0.2826  0.3344
  840MPD2    C112396   3.578   0.665  10.794  0.0842 -0.3728 -0.0756
  840MPD2    C212397   3.670   0.731  10.876  0.1492  0.3532  0.1810
  840MPD2    C312398   3.737   0.844  10.839  0.6031  0.6253  0.0651
  840MPD2    C412399   3.713   0.896  10.712  1.3400  0.1431  0.2814
  840MPD2    C512400   3.620   0.831  10.629 -0.1063  0.1319  0.3961
  840MPD2     H12401   3.679   0.693  10.978 -3.3202 -2.9981 -0.7744
  840MPD2    H112402   3.756   0.993  10.690 -0.4922  0.8237 -0.3025
  840MPD2    H212403   3.475   0.681  10.600  1.3265  1.1585 -1.9057
  840MPD2    H312404   3.591   0.886  10.541  0.9349 -0.4459 -0.3168
  840MPD2     N12405   3.817   0.913  10.926 -0.5944 -0.0011 -0.2186
  840MPD2    H512406   3.863   0.995  10.888 -0.0872 -0.9348 -1.6346
  840MPD2    N112407   3.497   0.570  10.845 -0.5595 -0.5319  0.4266
  840MPD2    H712408   3.420   0.544  10.785 -2.0980  1.0702  1.7214
  841MPD2     C12409   3.215   0.362  14.692  0.2078 -0.0429  0.0444
  841MPD2    C112410   3.239   0.248  14.769  0.1900  0.5950 -0.1069
  841MPD2    C212411   3.371   0.237  14.816  0.3496  0.1516 -0.1461
  841MPD2    C312412   3.465   0.333  14.785 -0.0285 -0.3791  0.2211
  841MPD2    C412413   3.438   0.443  14.706  0.0094 -0.3283 -0.2650
  841MPD2    C512414   3.308   0.463  14.665  1.0019  0.0388 -0.1491
  841MPD2     H12415   3.401   0.154  14.879 -1.1708 -2.6778 -3.1244
  841MPD2    H112416   3.502   0.530  14.697  0.7620 -0.7817  0.6867
  841MPD2    H212417   3.122   0.380  14.641 -0.0850 -0.6511  0.3656
  841MPD2    H312418   3.280   0.543  14.599 -1.1323  0.2799  1.0350
  841MPD2     N12419   3.590   0.313  14.843  0.5299  0.5052 -0.0658
  841MPD2    H512420   3.620   0.238  14.905 -1.2412 -0.0158  0.1665
  841MPD2    N112421   3.137   0.147  14.775 -0.5768 -0.6860 -0.3712
  841MPD2    H712422   3.045   0.166  14.735 -1.2560  1.8797  2.3506
  842MPD2     C12423   4.335   1.576  17.125 -0.1181 -0.4040  0.4208
  842MPD2    C112424   4.219   1.507  17.126 -0.5192 -0.2327 -0.7659
  842MPD2    C212425   4.162   1.463  17.245  0.7315 -0.4598 -0.0444
  842MPD2    C312426   4.223   1.493  17.365  0.5485 -0.1825  0.3750
  842MPD2    C412427   4.346   1.559  17.359 -0.4965  0.2091  0.3050
  842MPD2    C512428   4.402   1.596  17.240  0.4184  0.3510 -0.0561
  842MPD2     H12429   4.076   1.397  17.243  0.8950 -0.6641 -0.4233
  842MPD2    H112430   4.397   1.590  17.449 -0.1869  2.1057 -0.5283
  842MPD2    H212431   4.379   1.615  17.034  1.5543 -1.9849  0.5669
  842MPD2    H312432   4.494   1.653  17.241  0.3312  0.4865  0.9113
  842MPD2     N12433   4.166   1.484  17.497 -0.2682 -0.4856 -0.4169
  842MPD2    H512434   4.233   1.497  17.573 -0.3381  0.9413 -0.6098
  842MPD2    N112435   4.159   1.493  16.998 -0.1703 -0.5137 -0.1756
  842MPD2    H712436   4.193   1.551  16.923  0.7127 -1.7650 -0.7526
  843MPD2     C12437   1.426   1.527  17.584 -0.2187 -0.4777  0.4481
  843MPD2    C112438   1.412   1.480  17.715  0.6592  0.0373  0.3150
  843MPD2    C212439   1.397   1.565   0.074  0.7110  0.4127  0.0611
  843MPD2    C312440   1.392   1.699   0.052 -0.4510  0.3455 -0.0964
  843MPD2    C412441   1.411   1.747  17.665 -0.3474 -0.6689 -0.6832
  843MPD2    C512442   1.429   1.655  17.566 -0.5584 -0.6227 -0.3046
  843MPD2     H12443   1.381   1.523   0.173  4.3141 -1.4345 -0.1626
  843MPD2    H112444   1.399   1.853  17.646  0.9809 -0.2878  0.6148
  843MPD2    H212445   1.443   1.462  17.499 -2.1014 -0.6447  0.1997
  843MPD2    H312446   1.431   1.689  17.463 -0.0638  2.0102  0.5692
  843MPD2     N12447   1.376   1.800   0.151 -1.1954 -0.1288  0.1293
  843MPD2    H512448   1.381   1.895   0.115 -0.5708  0.3070  1.3354
  843MPD2    N112449   1.411   1.335  17.727  0.6493  0.0370 -0.2171
  843MPD2    H712450   1.385   1.280  17.646  2.4917  0.2790 -0.9838
  844MPD2     C12451   4.384   0.516  16.713  0.1461  1.0023  0.0762
  844MPD2    C112452   4.513   0.501  16.678  0.2276 -0.1169  0.4091
  844MPD2    C212453   4.609   0.582  16.725  0.0719 -0.8393  0.0281
  844MPD2    C312454   4.582   0.687  16.799 -0.1820 -0.2057  0.3100
  844MPD2    C412455   4.452   0.698  16.847 -0.1065  0.4603  0.1454
  844MPD2    C512456   4.355   0.615  16.800 -0.2189 -0.4988  0.8226
  844MPD2     H12457   4.713   0.569  16.696 -0.3716  0.2361 -2.0670
  844MPD2    H112458   4.424   0.782  16.909 -0.0745  1.4522 -1.1809
  844MPD2    H212459   4.297   0.454  16.695  1.0882 -0.5087  0.7262
  844MPD2    H312460   4.250   0.628  16.822 -0.6138 -0.6140 -0.9656
  844MPD2     N12461   4.677   0.789  16.826  0.8496 -0.0762 -0.0051
  844MPD2    H512462   0.040   0.769  16.814  0.5221 -2.2655  0.8829
  844MPD2    N112463   4.549   0.417  16.574 -0.0040 -0.7741  0.5703
  844MPD2    H712464   4.642   0.424  16.533 -1.0039  2.7514 -1.0462
  845MPD2     C12465   0.244   1.839  16.724  0.8503 -0.4589  0.0220
  845MPD2    C112466   0.284   1.795  16.850  0.7203  0.1765  1.1511
  845MPD2    C212467   0.269   1.664  16.890 -0.5337  0.1416 -0.7274
  845MPD2    C312468   0.190   1.581  16.817 -0.1729 -1.2412  0.1825
  845MPD2    C412469   0.155   1.625  16.691 -0.0234 -0.1698 -0.4320
  845MPD2    C512470   0.189   1.747  16.641 -0.0360 -0.0717  0.2566
  845MPD2     H12471   0.309   1.630  16.985 -1.0079  1.7124  0.0354
  845MPD2    H112472   0.112   1.559  16.617  0.3746  0.7308 -1.4780
  845MPD2    H212473   0.265   1.941  16.692  1.5741  0.1863  2.5240
  845MPD2    H312474   0.171   1.769  16.537 -1.3487 -4.7174 -0.4939
  845MPD2     N12475   0.184   1.446  16.858 -0.0126  0.1825  0.3704
  845MPD2    H512476   0.232   1.416  16.942 -1.4414 -2.2299  0.3448
  845MPD2    N112477   0.348   1.891  16.931  0.4794  0.3461 -0.6454
  845MPD2    H712478   0.351   1.983  16.887  1.5843  1.2405  1.3314
  846MPD2     C12479   1.514   2.072  13.823  0.3733 -0.3335  0.3283
  846MPD2    C112480   1.399   2.147  13.852 -0.3595 -0.6241 -0.0103
  846MPD2    C212481   1.370   2.171  13.983 -0.0576 -0.4022  0.5164
  846MPD2    C312482   1.457   2.124  14.081  0.0138 -0.3238 -0.1328
  846MPD2    C412483   1.570   2.053  14.049 -0.0050 -0.1295 -0.4774
  846MPD2    C512484   1.595   2.028  13.921  0.4688 -0.7726 -0.1702
  846MPD2     H12485   1.287   2.238  13.999 -0.8713 -1.4593  0.7489
  846MPD2    H112486   1.634   2.013  14.127  0.7107  1.4731 -0.2381
  846MPD2    H212487   1.545   2.067  13.719 -0.1878 -0.9669  0.1906
  846MPD2    H312488   1.680   1.969  13.887  2.7546  0.7963  2.7429
  846MPD2     N12489   1.416   2.146  14.215  0.3668  0.6901 -0.2088
  846MPD2    H512490   1.329   2.194  14.236 -1.3504 -1.8163 -1.6306
  846MPD2    N112491   1.312   2.199  13.757  0.0306  0.1195 -0.9403
  846MPD2    H712492   1.234   2.257  13.783  0.0181  0.4245 -1.6663
  847MPD2     C12493   2.044   2.682  14.086  0.3879  0.3366  0.4065
  847MPD2    C112494   2.125   2.735  14.191 -1.0249 -0.1182 -0.3013
  847MPD2    C212495   2.220   2.661  14.247 -0.4043  0.3407 -0.1234
  847MPD2    C312496   2.251   2.531  14.216 -0.6927  0.4447 -0.3885
  847MPD2    C412497   2.189   2.483  14.101  0.2561 -0.0696 -0.1321
  847MPD2    C512498   2.090   2.567  14.038  0.0006 -0.6595  0.3036
  847MPD2     H12499   2.277   2.703  14.329  0.3356 -0.4060 -0.2539
  847MPD2    H112500   2.220   2.384  14.069 -2.1788 -1.0595  0.5464
  847MPD2    H212501   1.964   2.734  14.034 -0.9600 -0.2110  1.9302
  847MPD2    H312502   2.030   2.524  13.959  0.5110 -0.4618 -0.1851
  847MPD2     N12503   2.358   2.458  14.266 -0.5477 -0.1544  0.5169
  847MPD2    H512504   2.406   2.379  14.222 -0.6833  1.2175 -2.0955
  847MPD2    N112505   2.114   2.873  14.230  0.5431  0.7250 -0.1967
  847MPD2    H712506   2.177   2.896  14.306 -0.1408  0.8425  0.3316
  848MPD2     C12507   4.329   1.346  16.433  0.5019  0.2794 -0.0755
  848MPD2    C112508   4.413   1.409  16.517  0.2508 -0.2669 -0.6506
  848MPD2    C212509   4.492   1.515  16.478  0.2841  0.2569  0.6219
  848MPD2    C312510   4.478   1.570  16.353  0.3361  0.2663 -0.4187
  848MPD2    C412511   4.390   1.502  16.268  0.0479 -0.6645  0.7241
  848MPD2    C512512   4.320   1.393  16.311  0.2944 -0.2090 -0.1507
  848MPD2     H12513   4.566   1.554  16.547  0.2091 -1.3134  1.5936
  848MPD2    H112514   4.378   1.525  16.163  0.9609  0.6771  0.9124
  848MPD2    H212515   4.270   1.257  16.453  2.9996 -0.9623  1.7178
  848MPD2    H312516   4.257   1.331  16.248 -0.6788  0.4641  0.1651
  848MPD2     N12517   4.543   1.675  16.283  0.1104 -0.1765  0.0438
  848MPD2    H512518   4.515   1.698  16.188 -0.0541  0.9678  0.3708
  848MPD2    N112519   4.419   1.367  16.652  0.3112 -0.8071  0.0205
  848MPD2    H712520   4.478   1.419  16.717 -0.0658  2.0965 -1.9589
  849MPD2     C12521   3.325   0.901  14.354  0.0161 -0.7078  0.6389
  849MPD2    C112522   3.447   0.959  14.314 -0.0539 -0.1761 -0.1130
  849MPD2    C212523   3.550   0.936  14.391  0.1593 -0.1646 -0.7798
  849MPD2    C312524   3.544   0.867  14.508  0.3972  0.2261  0.6434
  849MPD2    C412525   3.431   0.798  14.541 -0.4522 -0.4878 -0.2937
  849MPD2    C512526   3.316   0.824  14.469 -0.4664 -0.1829 -0.0220
  849MPD2     H12527   3.648   0.979  14.373 -0.1956  1.1009  0.3696
  849MPD2    H112528   3.434   0.740  14.633  0.1333 -0.7793 -0.4989
  849MPD2    H212529   3.234   0.924  14.299 -0.1367  0.3173  1.3201
  849MPD2    H312530   3.224   0.781  14.507 -1.1866  0.5522 -0.9401
  849MPD2     N12531   3.652   0.843  14.596  0.3502 -0.1476  0.3151
  849MPD2    H512532   3.643   0.762  14.656  0.4012  0.3673  1.0222
  849MPD2    N112533   3.449   1.035  14.197  0.6122  0.1250 -0.5858
  849MPD2    H712534   3.366   1.033  14.139 -0.1201  1.7167  0.4009
  850MPD2     C12535   1.740   3.725  14.947  0.7660 -0.5875  0.3813
  850MPD2    C112536   1.762   3.848  15.015 -0.0569 -0.6118  0.4167
  850MPD2    C212537   1.897   3.893  15.023 -0.0624  0.2907 -0.2714
  850MPD2    C312538   2.002   3.824  14.959  0.6885  0.1501  0.0427
  850MPD2    C412539   1.977   3.710  14.898  0.4298  0.5120  0.4967
  850MPD2    C512540   1.849   3.658  14.896  0.6642 -0.1401 -0.3563
  850MPD2     H12541   1.921   3.987  15.073  1.0456 -0.2617  0.2464
  850MPD2    H112542   2.060   3.655  14.855 -1.6600 -1.3511 -1.1499
  850MPD2    H212543   1.642   3.678  14.939  0.0419  0.9300  0.2770
  850MPD2    H312544   1.830   3.566  14.842  1.8863  0.0811 -1.1755
  850MPD2     N12545   2.140   3.868  14.969  0.5892 -0.0113  0.3758
  850MPD2    H512546   2.208   3.801  14.931  1.0223  0.9527 -0.5465
  850MPD2    N112547   1.666   3.934  15.076  0.6155 -0.4850 -0.2310
  850MPD2    H712548   1.699   4.020  15.118  0.0452 -0.3489 -0.0647
  851MPD2     C12549   2.104   3.716  15.327 -0.3936  0.0602 -0.3567
  851MPD2    C112550   1.970   3.683  15.319 -1.1692  0.2881 -0.3263
  851MPD2    C212551   1.939   3.570  15.236  0.9770  0.7814  0.2455
  851MPD2    C312552   2.039   3.496  15.183  0.9947 -0.0416  0.0530
  851MPD2    C412553   2.169   3.536  15.202  0.5893  0.4969  0.3640
  851MPD2    C512554   2.206   3.647  15.265  0.2428 -0.8312 -1.4737
  851MPD2     H12555   1.839   3.532  15.218  0.7048  1.2880  0.6986
  851MPD2    H112556   2.248   3.473  15.162 -0.1975 -0.5615  0.4834
  851MPD2    H212557   2.133   3.802  15.388  1.6571 -2.1977  1.8368
  851MPD2    H312558   2.307   3.687  15.270 -0.0676 -0.2078 -0.0894
  851MPD2     N12559   1.999   3.374  15.121  0.0120 -0.1279 -0.0189
  851MPD2    H512560   1.901   3.357  15.098 -0.0759 -1.9365  1.7332
  851MPD2    N112561   1.875   3.762  15.381 -0.5612 -0.6658 -0.5165
  851MPD2    H712562   1.913   3.846  15.422  0.0286 -2.1090  1.9049
  852MPD2     C12563   1.265   1.671  10.082 -0.0231  0.6047 -0.0471
  852MPD2    C112564   1.300   1.681  10.215 -0.1111  0.2389  0.0048
  852MPD2    C212565   1.363   1.795  10.254 -0.3173 -0.7661  0.2923
  852MPD2    C312566   1.404   1.893  10.165  0.1873  0.7467 -0.7312
  852MPD2    C412567   1.365   1.882  10.035 -0.4591  0.7256 -0.4494
  852MPD2    C512568   1.292   1.776   9.997 -0.1589  0.1712  0.1526
  852MPD2     H12569   1.411   1.793  10.351 -0.5545  0.5153  0.4410
  852MPD2    H112570   1.380   1.964   9.965 -1.7824 -0.1760 -1.7847
  852MPD2    H212571   1.210   1.583  10.052 -0.3389 -0.1948  2.8141
  852MPD2    H312572   1.262   1.765   9.894 -0.3603 -1.4986  0.3846
  852MPD2     N12573   1.491   1.996  10.215  0.6596 -0.3507 -0.2368
  852MPD2    H512574   1.519   1.990  10.312 -2.5051 -0.4235  0.6685
  852MPD2    N112575   1.288   1.576  10.310  0.7183  0.0622  0.1440
  852MPD2    H712576   1.310   1.584  10.409 -0.8832  0.0241  0.4945
  853MPD2     C12577   3.073   1.180  12.541 -0.2222  1.3281  0.3159
  853MPD2    C112578   2.978   1.265  12.483 -0.2317 -0.3943 -0.5568
  853MPD2    C212579   2.986   1.288  12.348 -0.3372  0.9682 -0.0270
  853MPD2    C312580   3.085   1.226  12.268 -0.6521 -0.5156  0.8577
  853MPD2    C412581   3.180   1.147  12.326 -0.3912  0.1754 -0.1079
  853MPD2    C512582   3.167   1.122  12.459 -0.3106  0.2876 -0.2222
  853MPD2     H12583   2.934   1.375  12.308 -2.2074  0.3667  1.1154
  853MPD2    H112584   3.261   1.096  12.274 -1.3117  1.6135 -2.9379
  853MPD2    H212585   3.071   1.152  12.646 -1.0247  1.0571  0.2282
  853MPD2    H312586   3.239   1.061  12.512  0.2564  0.6002 -0.6405
  853MPD2     N12587   3.108   1.257  12.130  0.4476  0.0968  0.5204
  853MPD2    H512588   3.194   1.221  12.089 -0.7982 -0.6825 -1.3797
  853MPD2    N112589   2.901   1.338  12.578  0.5736  0.1534  0.2538
  853MPD2    H712590   2.897   1.304  12.673  0.7038  1.0218  0.5660
  854MPD2     C12591   4.725   0.943  12.750  0.6242  0.3342  0.4394
  854MPD2    C112592   0.017   1.078  12.773  0.4041  0.5740  0.2010
  854MPD2    C212593   0.143   1.131  12.763  0.3153 -0.0041  0.1923
  854MPD2    C312594   0.238   1.039  12.714 -0.7770 -1.0672 -0.0527
  854MPD2    C412595   0.212   0.906  12.693  0.1642 -0.1727  0.3961
  854MPD2    C512596   0.088   0.858  12.713 -0.5262 -0.0527  0.3031
  854MPD2     H12597   0.176   1.232  12.781  1.4519 -0.8022  2.6017
  854MPD2    H112598   0.291   0.835  12.671  1.2068  1.3518 -0.7537
  854MPD2    H212599   4.625   0.899  12.752  0.8495 -0.1898 -0.0483
  854MPD2    H312600   0.066   0.753  12.698  1.1259 -0.4241  0.3972
  854MPD2     N12601   0.374   1.085  12.698 -0.1403  0.4948  0.4778
  854MPD2    H512602   0.408   1.165  12.752 -5.1142  3.5130 -0.9512
  854MPD2    N112603   4.644   1.164  12.809  0.5310  0.2987 -0.2818
  854MPD2    H712604   4.552   1.123  12.801  0.2545  0.8461  0.1285
  855MPD2     C12605   0.819   1.320  13.366 -0.3880  0.0225 -0.3487
  855MPD2    C112606   0.894   1.213  13.330 -0.9721  0.4184 -0.3884
  855MPD2    C212607   0.898   1.166  13.198 -0.7625  0.2734  0.4013
  855MPD2    C312608   0.827   1.234  13.099 -0.5476  0.2129 -0.0146
  855MPD2    C412609   0.753   1.337  13.137 -0.3334 -0.6828  0.0117
  855MPD2    C512610   0.746   1.384  13.263 -0.2022  0.4526 -0.2502
  855MPD2     H12611   0.947   1.072  13.178  3.2280  1.9562  2.2100
  855MPD2    H112612   0.684   1.386  13.070  3.2897 -0.1997 -3.3706
  855MPD2    H212613   0.813   1.356  13.468 -0.3177  0.0175 -0.3429
  855MPD2    H312614   0.688   1.475  13.274 -0.1637  0.6285 -1.5936
  855MPD2     N12615   0.803   1.188  12.967 -0.3266  0.1404 -0.4570
  855MPD2    H512616   0.744   1.248  12.910 -1.4214  0.0369  0.5641
  855MPD2    N112617   0.977   1.137  13.424  0.2326  0.1926 -0.1783
  855MPD2    H712618   1.026   1.058  13.384 -1.5731 -1.1346  0.2272
  856MPD2     C12619   2.910   1.939  14.064 -0.0983  0.2036 -0.4548
  856MPD2    C112620   2.954   2.067  14.023 -0.4444  0.6524 -0.1058
  856MPD2    C212621   2.867   2.150  13.957  0.3101  0.4209  0.2785
  856MPD2    C312622   2.738   2.107  13.933 -0.0838 -0.0310 -0.2785
  856MPD2    C412623   2.693   1.988  13.971  0.0870  0.7175 -0.1091
  856MPD2    C512624   2.777   1.902  14.035  1.2859 -0.2383 -0.7721
  856MPD2     H12625   2.892   2.242  13.907 -0.5867  0.0668 -0.8219
  856MPD2    H112626   2.590   1.960  13.955 -0.1256  0.9513  0.8281
  856MPD2    H212627   2.981   1.865  14.100 -2.9333 -2.0581  0.5300
  856MPD2    H312628   2.740   1.808  14.074 -0.3558  0.3071 -1.0212
  856MPD2     N12629   2.645   2.194  13.882  0.4298 -0.8345 -0.0948
  856MPD2    H512630   2.560   2.147  13.852  0.1837 -0.7030  0.3947
  856MPD2    N112631   3.087   2.105  14.047 -0.0223  0.3930  0.4149
  856MPD2    H712632   3.114   2.200  14.025  2.7757 -0.3294  0.7334
  857MPD2     C12633   4.255   4.235  12.722  0.1183  0.0467 -0.2604
  857MPD2    C112634   4.266   4.199  12.855  0.0615 -1.0709  0.2084
  857MPD2    C212635   4.245   4.297  12.949 -0.7887  0.2162 -0.7411
  857MPD2    C312636   4.232   4.430  12.915  0.8291 -0.1024  0.2379
  857MPD2    C412637   4.252   4.468  12.783  0.2503  0.3692  0.0696
  857MPD2    C512638   4.250   4.370  12.686  0.7303  1.5190  0.8417
  857MPD2     H12639   4.232   4.270  13.053 -1.2158  2.4684 -0.2004
  857MPD2    H112640   4.247   4.574  12.761  2.4463  0.4148 -0.1780
  857MPD2    H212641   4.251   4.162  12.642  2.7446 -1.1987  0.7762
  857MPD2    H312642   4.246   4.403  12.584 -0.1825  0.3338  0.4891
  857MPD2     N12643   4.225   4.523  13.024  0.2494 -0.4541 -0.0333
  857MPD2    H512644   4.221   4.483  13.117  0.3256  2.1242  1.0885
  857MPD2    N112645   4.281   4.060  12.888  0.0258  0.5216 -0.2847
  857MPD2    H712646   4.289   3.998  12.807 -1.6496 -0.3580  0.2260
  858MPD2     C12647   4.414   3.416  16.753 -0.0455 -0.0550 -0.2250
  858MPD2    C112648   4.551   3.424  16.714  0.1698  0.3168 -0.2827
  858MPD2    C212649   4.636   3.510  16.776 -0.3652 -0.0641 -0.1568
  858MPD2    C312650   4.589   3.603  16.868  0.0456 -0.2295  0.5902
  858MPD2    C412651   4.458   3.594  16.905 -0.4145  0.5913 -0.1172
  858MPD2    C512652   4.374   3.503  16.850  0.1101  0.6700  0.4787
  858MPD2     H12653   0.004   3.528  16.752 -0.5294  0.1810 -0.6777
  858MPD2    H112654   4.418   3.654  16.986 -0.1158  1.3427 -0.5242
  858MPD2    H212655   4.351   3.338  16.712  0.1203  0.0159 -0.6187
  858MPD2    H312656   4.273   3.495  16.889 -0.2010  0.9164 -0.2722
  858MPD2     N12657   4.668   3.692  16.948  0.1107 -0.6280  0.1712
  858MPD2    H512658   4.625   3.736  17.029 -1.2697 -0.7831 -0.4747
  858MPD2    N112659   4.602   3.340  16.607  0.1224  0.1093 -0.0818
  858MPD2    H712660   4.534   3.291  16.550  3.0679  0.1166 -3.6403
  859MPD2     C12661   3.747   1.028  15.962 -0.1637 -0.2821 -1.1551
  859MPD2    C112662   3.747   0.962  15.841 -0.4564  0.1082 -0.3707
  859MPD2    C212663   3.686   0.840  15.840  0.2940 -0.4332  0.1023
  859MPD2    C312664   3.632   0.782  15.955  0.2454 -0.4347 -0.7882
  859MPD2    C412665   3.650   0.844  16.073 -0.1415  0.1190  0.5008
  859MPD2    C512666   3.699   0.969  16.076  0.5934 -0.5296  0.0370
  859MPD2     H12667   3.675   0.792  15.743  0.2026  1.3760 -0.7736
  859MPD2    H112668   3.607   0.796  16.160 -2.0878 -1.0030 -1.0832
  859MPD2    H212669   3.777   1.132  15.972  2.6148 -1.2903  0.7370
  859MPD2    H312670   3.718   1.021  16.170 -2.5388  0.8544 -0.1073
  859MPD2     N12671   3.577   0.654  15.968  0.1954  0.3018 -0.0357
  859MPD2    H512672   3.572   0.619  16.063  2.8446  1.2153  0.4222
  859MPD2    N112673   3.806   1.017  15.725  0.0470  0.1400  0.0167
  859MPD2    H712674   3.806   0.973  15.634  4.0632 -0.2901  0.2287
  860MPD2     C12675   1.224   2.005  11.602  0.0190  0.6831  0.5350
  860MPD2    C112676   1.191   1.979  11.729 -0.2149 -0.0943  0.3340
  860MPD2    C212677   1.095   1.890  11.756 -0.1440 -0.2935 -0.1488
  860MPD2    C312678   1.046   1.801  11.656 -0.3489  0.1657 -0.5175
  860MPD2    C412679   1.086   1.825  11.524  0.0938 -0.4065  0.1588
  860MPD2    C512680   1.175   1.930  11.500  0.2484  0.2452 -0.1166
  860MPD2     H12681   1.056   1.880  11.857 -0.4057  0.0757 -0.2125
  860MPD2    H112682   1.044   1.770  11.441 -1.7028  0.8116  0.2572
  860MPD2    H212683   1.298   2.079  11.571  0.7319  0.5036  1.8036
  860MPD2    H312684   1.184   1.953  11.395 -0.4421 -1.5885 -0.5791
  860MPD2     N12685   0.950   1.703  11.691 -0.2019 -0.4870 -0.1215
  860MPD2    H512686   0.918   1.696  11.787  0.4538 -0.9504  0.0624
  860MPD2    N112687   1.264   2.026  11.837 -0.2349 -0.0165 -0.3497
  860MPD2    H712688   1.227   2.002  11.928  0.0124  1.0605  0.0337
  861MPD2     C12689   4.575   4.137  11.355  0.9029  0.7306  0.2144
  861MPD2    C112690   4.566   4.273  11.378 -0.3974  0.4235  0.4889
  861MPD2    C212691   4.491   4.356  11.297  0.0991 -0.8627  0.8240
  861MPD2    C312692   4.427   4.309  11.183  0.0053  0.0012 -0.6061
  861MPD2    C412693   4.460   4.180  11.146  0.0764 -0.3657 -0.6644
  861MPD2    C512694   4.531   4.094  11.227  0.0858  0.4512 -0.2295
  861MPD2     H12695   4.472   4.457  11.332  0.9434 -0.4609  0.1278
  861MPD2    H112696   4.414   4.142  11.055  0.6245  0.1226 -1.1422
  861MPD2    H212697   4.635   4.070  11.415  0.8124  1.6550  1.3338
  861MPD2    H312698   4.544   3.994  11.187 -0.9303 -0.0173  0.6246
  861MPD2     N12699   4.347   4.377  11.093 -0.2837 -0.1945  0.0037
  861MPD2    H512700   4.302   4.325  11.018 -2.2500  1.4959  0.0022
  861MPD2    N112701   4.599   4.327  11.506  0.4926 -0.4186 -0.3435
  861MPD2    H712702   4.602   4.427  11.519 -1.7425 -0.6736  2.1335
  862MPD2     C12703   3.649   4.257  10.859  0.1353 -0.1177 -0.2439
  862MPD2    C112704   3.756   4.247  10.947  0.4992  0.2751  0.8070
  862MPD2    C212705   3.753   4.155  11.046 -0.0240  0.6183 -0.2907
  862MPD2    C312706   3.635   4.088  11.082  0.8667  0.1100 -0.0333
  862MPD2    C412707   3.531   4.092  10.993 -0.4399  0.6859  0.0284
  862MPD2    C512708   3.540   4.178  10.884  0.2255  0.2189 -0.2666
  862MPD2     H12709   3.838   4.142  11.111 -1.3104 -3.0249  0.6547
  862MPD2    H112710   3.438   4.040  11.012 -0.7770  1.9674  1.8814
  862MPD2    H212711   3.647   4.328  10.778  1.4668  0.1769 -0.0076
  862MPD2    H312712   3.455   4.188  10.818  0.0024 -0.8618 -0.1494
  862MPD2     N12713   3.626   4.002  11.199 -0.0036 -0.4011 -0.7034
  862MPD2    H512714   3.539   3.949  11.199  1.3397 -2.5816  1.3751
  862MPD2    N112715   3.875   4.328  10.938 -0.2107  0.1186  1.0337
  862MPD2    H712716   3.948   4.307  11.005  1.4354 -0.3090 -0.9209
  863MPD2     C12717   3.566   2.550  16.416  1.0343  0.4159  0.2713
  863MPD2    C112718   3.461   2.491  16.481 -0.1237  0.7634 -0.2430
  863MPD2    C212719   3.472   2.477  16.619  0.1634 -0.9874 -0.0370
  863MPD2    C312720   3.592   2.505  16.682 -0.2888  0.3713  0.0664
  863MPD2    C412721   3.690   2.560  16.610 -0.4106 -0.1811  0.3050
  863MPD2    C512722   3.674   2.591  16.483  0.0493  0.1556  0.1554
  863MPD2     H12723   3.386   2.445  16.677  0.7692 -1.0610  0.8285
  863MPD2    H112724   3.787   2.566  16.660  0.0789 -0.2568 -0.6303
  863MPD2    H212725   3.558   2.569  16.309 -1.3704 -1.7495  0.0636
  863MPD2    H312726   3.761   2.627  16.429 -0.5156  1.4292  0.0852
  863MPD2     N12727   3.622   2.496  16.819  0.2124  0.0157 -0.1590
  863MPD2    H512728   3.713   2.528  16.852  1.2455 -2.0732 -0.9241
  863MPD2    N112729   3.346   2.448  16.401  0.5619 -0.4805 -0.0219
  863MPD2    H712730   3.345   2.464  16.301  1.4411 -3.5721 -0.5175
  864MPD2     C12731   3.652   3.628  17.167  0.0900  0.6811 -0.3853
  864MPD2    C112732   3.749   3.544  17.115  0.5599 -0.6935 -0.2292
  864MPD2    C212733   3.840   3.597  17.028 -0.1381 -0.5972 -0.1114
  864MPD2    C312734   3.845   3.729  16.995  0.0667 -0.0292 -0.4608
  864MPD2    C412735   3.748   3.808  17.044 -0.1345  0.2027 -0.6955
  864MPD2    C512736   3.652   3.761  17.132  0.8164  0.4245  0.0239
  864MPD2     H12737   3.918   3.538  16.980 -0.2773 -1.1020  0.2816
  864MPD2    H112738   3.728   3.906  17.002 -1.7302 -1.2011 -3.1939
  864MPD2    H212739   3.573   3.595  17.234 -0.1185 -2.2803 -2.0970
  864MPD2    H312740   3.588   3.838  17.174 -0.8535 -0.6986 -0.4465
  864MPD2     N12741   3.934   3.794  16.904 -0.2702 -0.5408 -1.0119
  864MPD2    H512742   3.905   3.891  16.891 -0.4739 -0.6962 -1.7234
  864MPD2    N112743   3.746   3.405  17.140  0.6096  0.0625  0.0589
  864MPD2    H712744   3.660   3.372  17.183 -0.5497  0.4735 -1.9127
  865MPD2     C12745   4.170   4.105  16.174  0.0703  0.0824  0.3155
  865MPD2    C112746   4.092   4.033  16.262  0.7637  0.2593 -0.0737
  865MPD2    C212747   4.079   4.072  16.391  1.1228  0.6683  0.7041
  865MPD2    C312748   4.132   4.192  16.428  0.0205 -0.6724 -0.7517
  865MPD2    C412749   4.202   4.266  16.338  0.7728 -0.1959  0.3637
  865MPD2    C512750   4.221   4.225  16.210  1.0119 -0.3431  0.5165
  865MPD2     H12751   4.017   4.017  16.461  1.1259  0.2853  0.4025
  865MPD2    H112752   4.244   4.361  16.371  2.1041 -1.0380  1.1065
  865MPD2    H212753   4.183   4.070  16.073  0.4151  1.0552  0.0263
  865MPD2    H312754   4.278   4.278  16.135  0.9974  1.0409  1.4875
  865MPD2     N12755   4.128   4.251  16.563  0.4194  0.1141 -0.1956
  865MPD2    H512756   4.146   4.351  16.571 -1.3904  0.3597  0.8825
  865MPD2    N112757   4.063   3.902  16.219 -0.4791  0.4209  0.1419
  865MPD2    H712758   4.076   3.873  16.122  1.4330 -0.3287  0.6299
  866MPD2     C12759   0.396   4.175  11.135  0.2987 -0.7960 -0.3607
  866MPD2    C112760   0.469   4.295  11.140 -0.7485 -0.6116  0.2237
  866MPD2    C212761   0.399   4.413  11.151 -0.2102  0.0138  0.2419
  866MPD2    C312762   0.259   4.419  11.166  0.3065 -0.4178 -0.6395
  866MPD2    C412763   0.189   4.299  11.161  0.0973  0.0179  0.3338
  866MPD2    C512764   0.264   4.187  11.136  0.5531  0.4345  0.4398
  866MPD2     H12765   0.452   4.507  11.167  0.1930 -0.8808  4.0720
  866MPD2    H112766   0.081   4.295  11.162  0.1624 -1.2257  1.5182
  866MPD2    H212767   0.443   4.079  11.114 -1.0655 -1.7458  1.0016
  866MPD2    H312768   0.200   4.100  11.128 -1.4113  2.0307 -1.1972
  866MPD2     N12769   0.185   4.531  11.192  0.0254  0.6745 -0.4437
  866MPD2    H512770   0.084   4.515  11.195  0.3848 -1.4933  0.2297
  866MPD2    N112771   0.607   4.279  11.125  0.3208  0.2072  0.4004
  866MPD2    H712772   0.640   4.188  11.094 -1.0696  0.2732 -1.2905
  867MPD2     C12773   2.609   3.881  16.557  0.2856  0.4256 -0.0020
  867MPD2    C112774   2.623   3.900  16.696 -0.0684 -0.5379  0.6268
  867MPD2    C212775   2.572   4.019  16.757  0.3303  1.2445  0.0171
  867MPD2    C312776   2.482   4.097  16.692 -0.5128  0.3083 -0.4172
  867MPD2    C412777   2.458   4.068  16.558  0.5399  0.1937 -0.5622
  867MPD2    C512778   2.520   3.964  16.496  0.1648 -0.1735  0.1109
  867MPD2     H12779   2.611   4.050  16.854 -0.3749 -0.9016  0.9957
  867MPD2    H112780   2.390   4.125  16.496  2.5506  1.0302 -2.0065
  867MPD2    H212781   2.649   3.792  16.510  0.7129  0.7675 -0.2878
  867MPD2    H312782   2.506   3.948  16.390 -0.6312  0.4646  0.1249
  867MPD2     N12783   2.427   4.218  16.742  0.1789 -0.3012 -0.3621
  867MPD2    H512784   2.376   4.278  16.677  0.3922 -0.4618 -0.6774
  867MPD2    N112785   2.707   3.805  16.760  0.2674 -0.1823 -0.7870
  867MPD2    H712786   2.743   3.725  16.709 -1.4717 -1.2464 -0.3447
  868MPD2     C12787   4.379   3.262  13.741  0.4264  0.2118  0.5960
  868MPD2    C112788   4.407   3.133  13.718 -0.2378 -1.0793  0.1057
  868MPD2    C212789   4.306   3.041  13.727  0.0920 -0.0933  0.3991
  868MPD2    C312790   4.177   3.071  13.762  0.6152  0.2055  0.7227
  868MPD2    C412791   4.145   3.205  13.785  0.2273  0.8851 -0.1616
  868MPD2    C512792   4.247   3.299  13.771  0.0483 -0.7468  0.2033
  868MPD2     H12793   4.309   2.935  13.703 -1.3561 -0.1131  0.2870
  868MPD2    H112794   4.048   3.244  13.815 -0.2215 -0.7628  0.4930
  868MPD2    H212795   4.465   3.329  13.733  2.3213 -2.4059 -0.8890
  868MPD2    H312796   4.238   3.404  13.796  0.9311 -1.0830  1.9218
  868MPD2     N12797   4.088   2.974  13.778 -0.4931 -0.0749 -0.0634
  868MPD2    H512798   4.117   2.877  13.776  0.5806  0.1918  2.0336
  868MPD2    N112799   4.534   3.109  13.671 -0.3237 -0.8693 -0.1098
  868MPD2    H712800   4.587   3.190  13.640 -2.3395  0.3025 -0.4801
  869MPD2     C12801   0.720   0.714   0.476  0.4359 -0.2137 -0.0864
  869MPD2    C112802   0.665   0.804   0.567  0.2285 -0.3996 -0.0812
  869MPD2    C212803   0.601   0.755   0.678  0.1597 -0.2546 -0.5754
  869MPD2    C312804   0.611   0.623   0.702 -0.5076  0.1310  0.4945
  869MPD2    C412805   0.656   0.531   0.612 -0.7339 -0.2593 -0.4775
  869MPD2    C512806   0.711   0.577   0.492 -0.2780  0.6388 -0.4487
  869MPD2     H12807   0.576   0.825   0.756  1.5399  0.8780 -1.1577
  869MPD2    H112808   0.670   0.425   0.627  1.1795 -0.3384 -2.8301
  869MPD2    H212809   0.768   0.762   0.392  0.5739  2.1834  1.3822
  869MPD2    H312810   0.755   0.504   0.425  2.0596  0.7517  0.9464
  869MPD2     N12811   0.581   0.572   0.826  0.9792 -0.3354  0.8670
  869MPD2    H512812   0.544   0.477   0.820 -2.2915  0.9913 -0.2982
  869MPD2    N112813   0.692   0.945   0.546 -1.0082 -0.4059 -0.2096
  869MPD2    H712814   0.763   0.978   0.481  0.2627 -2.6839  0.0161
  870MPD2     C12815   0.277   4.697   1.816 -0.1004 -1.2709  0.4988
  870MPD2    C112816   0.338   4.630   1.712 -0.0844  0.1677 -0.2341
  870MPD2    C212817   0.312   4.677   1.581  0.0853 -0.8084 -0.5104
  870MPD2    C312818   0.222   0.042   1.561 -0.2581  0.2023  0.7079
  870MPD2    C412819   0.156   0.100   1.671 -0.3707  0.5655  0.2253
  870MPD2    C512820   0.176   0.058   1.799 -0.0175  0.4495 -0.2604
  870MPD2     H12821   0.372   4.641   1.498  1.7274  1.4117 -0.2697
  870MPD2    H112822   0.083   0.179   1.659  0.2524  0.6757 -2.8557
  870MPD2    H212823   0.298   4.672   1.919  1.3510  4.2207  1.5166
  870MPD2    H312824   0.130   0.103   1.886 -0.3766 -1.7701  0.6929
  870MPD2     N12825   0.203   0.069   1.422 -0.2893 -0.5679 -0.2410
  870MPD2    H512826   0.260   0.018   1.356 -1.6047 -0.3751 -1.5382
  870MPD2    N112827   0.430   4.522   1.743 -0.0491  0.0425  0.4665
  870MPD2    H712828   0.459   4.502   1.838  1.0567  2.0355  0.5554
  871MPD2     C12829   1.195   3.973  16.171  0.3392  0.0556  0.7462
  871MPD2    C112830   1.249   3.877  16.255 -1.0104  0.2492 -0.6967
  871MPD2    C212831   1.318   3.765  16.202  0.3418 -0.2926 -0.0202
  871MPD2    C312832   1.354   3.764  16.069 -1.0110 -0.3696  0.2816
  871MPD2    C412833   1.317   3.871  15.987 -0.4139  0.6591  0.0546
  871MPD2    C512834   1.235   3.970  16.041  0.4864 -0.2663  0.0516
  871MPD2     H12835   1.352   3.686  16.269  2.1687 -0.3638 -1.0259
  871MPD2    H112836   1.351   3.891  15.886 -1.3271  1.2998 -0.1254
  871MPD2    H212837   1.141   4.062  16.200 -1.9716 -1.1477  0.1524
  871MPD2    H312838   1.221   4.062  15.986 -1.3643 -0.0311  0.9155
  871MPD2     N12839   1.442   3.660  16.018  0.0237 -0.1771 -0.8047
  871MPD2    H512840   1.479   3.676  15.925 -0.8173 -1.8131 -1.4232
  871MPD2    N112841   1.225   3.895  16.389  0.4319 -0.0249  0.3603
  871MPD2    H712842   1.173   3.979  16.413  1.0662  0.7464 -0.9935
  872MPD2     C12843   2.593   1.446  14.569 -0.5919  0.1239  0.2108
  872MPD2    C112844   2.538   1.508  14.452  0.2827  0.2441  0.4725
  872MPD2    C212845   2.417   1.576  14.474  0.2517  0.0610  0.0348
  872MPD2    C312846   2.354   1.589  14.597  0.2067 -0.5183  0.0872
  872MPD2    C412847   2.412   1.534  14.705 -0.5068 -0.5539 -0.0459
  872MPD2    C512848   2.529   1.473  14.688 -0.6372 -0.2538  0.2926
  872MPD2     H12849   2.382   1.631  14.388  0.6293 -2.9892 -2.0678
  872MPD2    H112850   2.376   1.532  14.807 -0.8649  1.9711 -0.1225
  872MPD2    H212851   2.686   1.391  14.560 -1.4891 -1.1006 -1.5022
  872MPD2    H312852   2.577   1.426  14.773 -0.0570 -0.3269 -0.0729
  872MPD2     N12853   2.245   1.671  14.619 -0.2570 -0.3953  0.3546
  872MPD2    H512854   2.228   1.691  14.717 -0.2744  1.9294 -0.1324
  872MPD2    N112855   2.603   1.491  14.323  0.6018  0.2480  0.2401
  872MPD2    H712856   2.557   1.556  14.260  0.5987 -0.6996 -0.7323
  873MPD2     C12857   4.592   1.696   0.867  0.3967  0.3545  0.2837
  873MPD2    C112858   4.480   1.747   0.927 -0.0119  0.5752  0.4288
  873MPD2    C212859   4.375   1.664   0.949 -0.3377  0.2737  0.7492
  873MPD2    C312860   4.386   1.527   0.921  0.5944  0.8126  0.5118
  873MPD2    C412861   4.498   1.476   0.861  0.2957  0.0439 -0.4153
  873MPD2    C512862   4.589   1.568   0.817 -0.1518  0.3220 -0.1792
  873MPD2     H12863   4.286   1.701   0.999 -0.7658 -2.2061  1.8083
  873MPD2    H112864   4.511   1.379   0.815 -0.3913 -0.9566  1.4767
  873MPD2    H212865   4.663   1.767   0.826 -2.7380  2.8619 -0.7551
  873MPD2    H312866   4.671   1.517   0.767  0.7083 -0.4825  2.0859
  873MPD2     N12867   4.285   1.435   0.963  0.3059  0.0912  0.0787
  873MPD2    H512868   4.274   1.351   0.908  0.8909 -1.8532  2.9693
  873MPD2    N112869   4.480   1.888   0.953  0.2202  0.2086 -0.9430
  873MPD2    H712870   4.561   1.943   0.925 -1.2792  2.3610 -0.9688
  874MPD2     C12871   3.988   1.647  16.145  0.1836 -0.3121  0.3545
  874MPD2    C112872   4.049   1.667  16.266  0.4681  0.2782 -0.4576
  874MPD2    C212873   4.164   1.753  16.259 -0.6583 -0.5706 -0.7558
  874MPD2    C312874   4.213   1.812  16.145 -0.2658  0.2439  0.3252
  874MPD2    C412875   4.147   1.789  16.025  0.5144 -0.1171 -0.8020
  874MPD2    C512876   4.036   1.711  16.031 -0.5593 -0.1158 -0.4536
  874MPD2     H12877   4.218   1.765  16.353 -0.2097  1.5833 -1.3034
  874MPD2    H112878   4.184   1.820  15.928  1.2451  0.3964 -0.3505
  874MPD2    H212879   3.896   1.594  16.126  0.5904 -0.9102  0.0569
  874MPD2    H312880   3.980   1.696  15.939 -1.7727  0.9555  0.0979
  874MPD2     N12881   4.325   1.890  16.160  0.0101  0.1225 -0.9734
  874MPD2    H512882   4.368   1.885  16.252  1.2692 -1.1915 -1.6366
  874MPD2    N112883   4.005   1.583  16.376  0.2264  0.8801 -0.4415
  874MPD2    H712884   3.924   1.523  16.362 -0.4571  1.8428 -0.5750
  875MPD2     C12885   0.231   0.020  14.406  0.3233  0.2920 -0.2762
  875MPD2    C112886   0.107   0.049  14.460 -0.4089  0.3743  0.0272
  875MPD2    C212887   0.102   0.111  14.589  0.5611 -0.9588  1.1718
  875MPD2    C312888   0.223   0.131  14.662 -0.3206 -0.5107 -0.2141
  875MPD2    C412889   0.342   0.105  14.602  0.0865 -0.9587 -0.0253
  875MPD2    C512890   0.346   0.050  14.481  0.4057 -0.0619 -0.1304
  875MPD2     H12891   0.005   0.136  14.630  0.3025  1.4288 -0.9083
  875MPD2    H112892   0.434   0.107  14.659 -0.5224 -1.0863  0.9736
  875MPD2    H212893   0.248   4.716  14.307  2.3378 -1.6517  0.8495
  875MPD2    H312894   0.439   0.011  14.441  0.8613 -2.8643  3.5755
  875MPD2     N12895   0.224   0.183  14.800 -0.0491 -0.2192 -0.6408
  875MPD2    H512896   0.311   0.219  14.839 -1.0137 -0.7543  1.9835
  875MPD2    N112897   4.723   0.023  14.393  0.7550  0.0954 -0.5294
  875MPD2    H712898   4.635   0.041  14.440  0.3444 -0.8604 -0.9162
  876MPD2     C12899   3.879   1.302  16.168 -0.2805 -0.4033  0.3299
  876MPD2    C112900   4.008   1.266  16.142 -0.0709 -0.5900  0.2866
  876MPD2    C212901   4.061   1.160  16.217  0.3959  0.5451  0.9053
  876MPD2    C312902   3.983   1.090  16.302 -0.2572  0.3653 -0.4108
  876MPD2    C412903   3.859   1.137  16.345  0.3470 -0.4717 -0.0086
  876MPD2    C512904   3.814   1.247  16.275  0.4547  0.2682  0.4873
  876MPD2     H12905   4.163   1.127  16.199  0.2434  2.0241 -2.5729
  876MPD2    H112906   3.785   1.093  16.411  1.0193  0.9278  1.6922
  876MPD2    H212907   3.844   1.392  16.118  1.4394  0.5561  0.8318
  876MPD2    H312908   3.721   1.293  16.307  0.0797 -0.3456  0.2726
  876MPD2     N12909   4.032   0.965  16.349  0.0733  0.2400  0.2637
  876MPD2    H512910   4.122   0.935  16.313 -0.5113 -3.8025  2.1713
  876MPD2    N112911   4.067   1.338  16.033 -0.2390 -0.3668  0.0383
  876MPD2    H712912   4.010   1.411  15.993  0.2608 -0.2104 -0.3886
  877MPD2     C12913   3.951   1.622  15.337  0.1608 -0.4340 -0.5026
  877MPD2    C112914   4.091   1.617  15.355  0.2241  0.7693 -0.6743
  877MPD2    C212915   4.170   1.616  15.244 -0.4024 -0.0605  0.4920
  877MPD2    C312916   4.108   1.630  15.116  0.6093  0.4057 -0.5453
  877MPD2    C412917   3.974   1.620  15.100 -0.1708 -0.7910  0.3967
  877MPD2    C512918   3.893   1.620  15.211  0.3319 -0.8058  0.4285
  877MPD2     H12919   4.278   1.620  15.258 -0.1131  0.3472 -1.8057
  877MPD2    H112920   3.930   1.630  15.001  1.3207 -0.1194 -0.1988
  877MPD2    H212921   3.884   1.626  15.422  2.0750  1.1898  0.9409
  877MPD2    H312922   3.785   1.631  15.212  0.2698 -1.2770 -0.6404
  877MPD2     N12923   4.183   1.632  14.995  0.4207 -0.0935 -0.0517
  877MPD2    H512924   4.132   1.623  14.907 -0.7225 -0.0756  0.6005
  877MPD2    N112925   4.144   1.608  15.482  0.7041  0.4949 -0.2476
  877MPD2    H712926   4.245   1.605  15.492  0.7663  0.7708 -0.8015
  878MPD2     C12927   3.241   1.187  13.253  0.0564  0.0231 -0.2847
  878MPD2    C112928   3.370   1.152  13.253  0.3004 -0.6668  0.0898
  878MPD2    C212929   3.423   1.115  13.378  0.6515 -0.1207 -0.0808
  878MPD2    C312930   3.341   1.104  13.490  0.4099  0.3831  0.3720
  878MPD2    C412931   3.207   1.139  13.484  0.1720 -0.1077 -0.4584
  878MPD2    C512932   3.164   1.182  13.364  0.1789  0.3751 -0.7001
  878MPD2     H12933   3.528   1.092  13.393  0.3424  0.5324  3.0574
  878MPD2    H112934   3.151   1.151  13.577  0.8448 -2.3008  0.2514
  878MPD2    H212935   3.195   1.228  13.163 -0.5904  0.4868  0.2590
  878MPD2    H312936   3.061   1.212  13.349 -0.3000 -0.7673  0.2226
  878MPD2     N12937   3.398   1.067  13.611 -0.1490 -0.3718  0.1468
  878MPD2    H512938   3.490   1.027  13.599  0.5627  1.5523 -0.8591
  878MPD2    N112939   3.444   1.163  13.135  0.5143  0.8723  0.0446
  878MPD2    H712940   3.399   1.208  13.056 -1.6504 -0.7683  0.3367
  879MPD2     C12941   4.269   2.663  16.890  0.0322 -0.2656  0.3095
  879MPD2    C112942   4.262   2.535  16.944  0.2042 -0.2627 -0.3136
  879MPD2    C212943   4.195   2.431  16.876 -0.2392 -0.3684  0.3381
  879MPD2    C312944   4.142   2.452  16.752 -0.2999  0.1655  0.2176
  879MPD2    C412945   4.141   2.582  16.695  0.3894  0.2574  0.8169
  879MPD2    C512946   4.211   2.678  16.767  0.1979  0.3303 -0.4346
  879MPD2     H12947   4.209   2.330  16.911  0.9832 -0.4431 -0.3525
  879MPD2    H112948   4.095   2.602  16.599  2.9523  1.6116 -0.1178
  879MPD2    H212949   4.333   2.741  16.929 -1.7663  1.4209 -0.1431
  879MPD2    H312950   4.204   2.773  16.715  1.9270  0.3600 -0.6225
  879MPD2     N12951   4.092   2.341  16.668 -0.3702  0.0563  0.5656
  879MPD2    H512952   4.071   2.371  16.573  1.2809 -0.5782  0.0019
  879MPD2    N112953   4.344   2.512  17.057  0.3131 -0.5923 -0.0084
  879MPD2    H712954   4.397   2.593  17.089  0.6383 -0.7757 -0.0798
  880MPD2     C12955   0.807   4.006  17.699  0.6118 -0.2860  0.5577
  880MPD2    C112956   0.811   4.048   0.085 -0.2193 -0.3806 -0.2640
  880MPD2    C212957   0.876   3.968   0.178  0.3358  0.5203 -0.3250
  880MPD2    C312958   0.940   3.847   0.141 -0.1357 -1.2348 -0.3761
  880MPD2    C412959   0.935   3.808   0.009 -0.4100 -0.5141 -0.6214
  880MPD2    C512960   0.864   3.887  17.663 -0.6734  0.5034 -0.2455
  880MPD2     H12961   0.875   4.004   0.280 -0.0280 -3.1463  0.9525
  880MPD2    H112962   0.986   3.720  17.716  1.2994 -0.2803  1.2425
  880MPD2    H212963   0.758   4.061  17.619  3.4590 -0.2346 -1.1631
  880MPD2    H312964   0.864   3.856  17.559  0.4255 -2.2317  0.5698
  880MPD2     N12965   1.009   3.781   0.243  0.1813 -0.0179 -0.4251
  880MPD2    H512966   1.005   3.815   0.338 -2.5994  2.1227 -1.2935
  880MPD2    N112967   0.745   4.166   0.117 -0.4669 -0.0539  0.2550
  880MPD2    H712968   0.700   4.215   0.040 -1.3967 -2.6879 -0.8658
  881MPD2     C12969   0.460   0.275  17.472  0.0231 -0.2293  0.3912
  881MPD2    C112970   0.517   0.154  17.433 -0.1292  0.3163 -0.4867
  881MPD2    C212971   0.541   0.066  17.541 -0.3518 -0.6093 -0.4552
  881MPD2    C312972   0.520   0.092  17.678 -0.5958  0.0260 -0.2213
  881MPD2    C412973   0.461   0.212  17.714 -0.2685 -0.3128 -0.0946
  881MPD2    C512974   0.440   0.298  17.607  0.2880  0.5164  0.5095
  881MPD2     H12975   0.580   4.704  17.517 -1.5566 -1.8586  2.7276
  881MPD2    H112976   0.433   0.240   0.072  0.4331 -1.1144  0.3184
  881MPD2    H212977   0.415   0.353  17.412  0.6139 -0.8429 -0.8458
  881MPD2    H312978   0.398   0.393  17.639 -0.8982  0.1103  0.1548
  881MPD2     N12979   0.533   4.732   0.036 -0.7506  0.5782 -0.0823
  881MPD2    H512980   0.523   0.034   0.129 -0.7338 -0.5054  0.3730
  881MPD2    N112981   0.493   0.110  17.306  0.5673  0.4035 -0.6764
  881MPD2    H712982   0.454   0.177  17.240  2.2946  3.7268  1.6604
  882MPD2     C12983   4.195   1.386  14.287 -0.4391  1.0087 -0.1362
  882MPD2    C112984   4.154   1.462  14.396 -0.8183  0.6485  0.4296
  882MPD2    C212985   4.024   1.452  14.436  0.4182  0.0536 -0.2398
  882MPD2    C312986   3.938   1.366  14.375  0.3819  0.4762 -0.1048
  882MPD2    C412987   3.984   1.292  14.266  0.4350  0.0857 -0.4413
  882MPD2    C512988   4.114   1.294  14.225  0.2558  0.1273 -0.2423
  882MPD2     H12989   3.995   1.522  14.514  1.5749 -0.2165  0.4260
  882MPD2    H112990   3.918   1.227  14.211  0.5137 -0.5981  0.2758
  882MPD2    H212991   4.299   1.394  14.260 -1.0630  1.7647 -2.2545
  882MPD2    H312992   4.145   1.232  14.141  0.3810  0.9799 -0.8297
  882MPD2     N12993   3.807   1.346  14.424  0.4498 -0.5881 -0.4031
  882MPD2    H512994   3.752   1.278  14.373 -0.9280 -0.7979  1.4192
  882MPD2    N112995   4.247   1.548  14.453 -0.0920  0.2410  0.3668
  882MPD2    H712996   4.343   1.542  14.421  0.5423  2.8420  1.7832
  883MPD2     C12997   1.220   1.426  16.578 -0.6061 -0.0277  0.2898
  883MPD2    C112998   1.277   1.421  16.452  0.2660 -0.3859 -0.2520
  883MPD2    C212999   1.409   1.450  16.444  0.4359  0.0632 -0.1616
  883MPD2    C313000   1.492   1.466  16.553 -0.4559 -0.2396 -0.0355
  883MPD2    C413001   1.432   1.465  16.681  1.0192  0.4508 -0.5165
  883MPD2    C513002   1.296   1.454  16.690  0.5532 -0.6881 -0.0207
  883MPD2     H13003   1.449   1.452  16.343 -0.3691 -1.2477 -0.5123
  883MPD2    H113004   1.483   1.476  16.776  0.7131 -3.4835  0.0965
  883MPD2    H213005   1.118   1.397  16.600 -0.7573  1.0128  0.9382
  883MPD2    H313006   1.245   1.446  16.785 -0.2175  0.8652 -0.3031
  883MPD2     N13007   1.634   1.499  16.538  0.1556 -0.1650 -0.1687
  883MPD2    H513008   1.666   1.493  16.442 -0.2092 -1.3274 -0.2087
  883MPD2    N113009   1.203   1.406  16.334  0.3506  0.1735 -0.2673
  883MPD2    H713010   1.250   1.438  16.249  0.8756 -0.4844 -0.2281
  884MPD2     C13011   3.509   2.274  14.995  0.2692 -0.1312 -0.5474
  884MPD2    C113012   3.393   2.211  14.956 -0.6966 -0.9564 -0.5015
  884MPD2    C213013   3.275   2.253  15.010 -0.0589 -0.7790 -0.0291
  884MPD2    C313014   3.271   2.362  15.101 -0.2855  0.2806  0.1286
  884MPD2    C413015   3.390   2.420  15.149  0.2885 -0.9710 -0.6117
  884MPD2    C513016   3.505   2.377  15.086  0.4674 -0.0914  0.3316
  884MPD2     H13017   3.181   2.208  14.980 -0.8612  0.5318  0.5172
  884MPD2    H113018   3.404   2.498  15.223 -1.3297 -0.4723 -0.8235
  884MPD2    H213019   3.606   2.258  14.949  1.3015  0.0932  1.5367
  884MPD2    H313020   3.598   2.431  15.102  0.1321 -0.0499  2.1715
  884MPD2     N13021   3.146   2.418  15.132  0.4486 -0.2981  0.4642
  884MPD2    H513022   3.075   2.405  15.060  0.6185 -0.9787  0.4155
  884MPD2    N113023   3.392   2.103  14.868  0.4896 -0.4820  0.2444
  884MPD2    H713024   3.305   2.071  14.826 -1.9381  2.8355  2.7429
  885MPD2     C13025   1.525   2.912   0.308 -0.4229  0.2581 -0.4755
  885MPD2    C113026   1.654   2.880   0.277  0.1355 -0.1082  0.1779
  885MPD2    C213027   1.706   2.907   0.145  0.8717 -0.4112  0.2430
  885MPD2    C313028   1.622   2.951   0.046 -0.3374  0.8827  0.1040
  885MPD2    C413029   1.497   2.996   0.090  0.0473  0.4232  0.4818
  885MPD2    C513030   1.443   2.969   0.213 -0.4578 -0.2745  0.1607
  885MPD2     H13031   1.810   2.883   0.126  1.0948 -0.1880  1.2091
  885MPD2    H113032   1.441   3.063   0.025  1.5582  1.0975 -0.1172
  885MPD2    H213033   1.472   2.884   0.399 -1.6697 -0.7203 -1.5051
  885MPD2    H313034   1.339   2.994   0.229 -0.1073  1.6062 -0.4353
  885MPD2     N13035   1.669   2.952  17.660 -0.6818 -0.0740 -0.8115
  885MPD2    H513036   1.767   2.926  17.651 -0.6630 -0.2209 -0.1615
  885MPD2    N113037   1.725   2.815   0.375 -0.6429  0.0762  0.6374
  885MPD2    H713038   1.679   2.773   0.455  0.2913 -1.4065  0.4064
  886MPD2     C13039   2.528   1.055  15.259  0.6040  0.3102  0.3004
  886MPD2    C113040   2.653   1.075  15.301 -0.0638 -1.0297 -0.1039
  886MPD2    C213041   2.709   1.201  15.296 -0.2050 -0.9366  0.1091
  886MPD2    C313042   2.637   1.312  15.257 -0.4405 -0.6350 -0.0568
  886MPD2    C413043   2.516   1.282  15.199  0.0422 -0.1474 -0.3884
  886MPD2    C513044   2.460   1.158  15.207 -0.1990 -0.5626 -0.2974
  886MPD2     H13045   2.812   1.210  15.325  0.3204 -1.2465 -1.6261
  886MPD2    H113046   2.457   1.355  15.144  0.3215  0.4028  0.0371
  886MPD2    H213047   2.471   0.963  15.260  1.1134  0.0053  0.8067
  886MPD2    H313048   2.360   1.151  15.165 -0.5308 -0.2113  0.4441
  886MPD2     N13049   2.692   1.445  15.250 -0.2924  0.2137 -1.0511
  886MPD2    H513050   2.653   1.501  15.174 -2.5027  1.8212  1.2881
  886MPD2    N113051   2.726   0.972  15.360  0.0734 -0.1969 -0.0519
  886MPD2    H713052   2.818   0.998  15.394  0.1838  1.2880 -1.4812
  887MPD2     C13053   3.372   0.948  15.632  0.1078  0.1324 -0.7938
  887MPD2    C113054   3.249   1.017  15.620  0.5975 -0.2857 -0.7561
  887MPD2    C213055   3.251   1.151  15.581 -0.2621  1.3935  0.7337
  887MPD2    C313056   3.373   1.219  15.550 -0.1934  0.4256  0.2189
  887MPD2    C413057   3.486   1.152  15.572  1.1312 -0.0539 -0.3998
  887MPD2    C513058   3.484   1.026  15.619 -0.5517  0.6650  0.3089
  887MPD2     H13059   3.155   1.200  15.570  0.7364  3.0619 -0.5433
  887MPD2    H113060   3.582   1.204  15.579  1.6744 -1.0725 -0.3551
  887MPD2    H213061   3.371   0.842  15.654 -0.6863  0.2779 -0.1178
  887MPD2    H313062   3.579   0.974  15.627 -0.7190  0.2551 -0.3683
  887MPD2     N13063   3.366   1.360  15.526 -0.6747 -0.0976  0.4446
  887MPD2    H513064   3.281   1.413  15.510  0.7174  2.5383  1.7811
  887MPD2    N113065   3.120   0.958  15.623 -0.0974 -1.0532 -0.0237
  887MPD2    H713066   3.040   1.011  15.589  1.7432  0.8447 -1.4052
  888MPD2     C13067   0.243   0.869  14.873 -0.0855 -0.9602 -0.0171
  888MPD2    C113068   0.183   0.926  14.986 -0.6094 -0.1772 -0.3680
  888MPD2    C213069   0.230   1.047  15.030  0.3613  0.0047  0.3793
  888MPD2    C313070   0.315   1.126  14.951  0.8833 -0.6773 -1.0264
  888MPD2    C413071   0.346   1.078  14.831  0.0815  0.3833  0.1741
  888MPD2    C513072   0.316   0.949  14.792  0.3321 -0.0703 -0.1672
  888MPD2     H13073   0.188   1.084  15.123 -0.6442  0.1521 -0.1266
  888MPD2    H113074   0.411   1.133  14.763  0.8614  0.4716  0.9836
  888MPD2    H213075   0.223   0.773  14.827  0.0221 -0.1463 -1.7757
  888MPD2    H313076   0.368   0.907  14.706  0.3468  1.9940 -1.1469
  888MPD2     N13077   0.347   1.251  15.000 -0.1284 -0.8835 -0.0541
  888MPD2    H513078   0.327   1.271  15.098 -0.2821 -1.8651  0.1081
  888MPD2    N113079   0.104   0.846  15.078  0.3207  0.0794  0.5179
  888MPD2    H713080   0.104   0.878  15.175 -0.4952 -0.4340  0.6859
  889MPD2     C13081   3.922   0.392  13.564  0.6807 -0.7867 -0.7776
  889MPD2    C113082   3.974   0.411  13.437 -0.3476 -0.0151 -0.2540
  889MPD2    C213083   3.962   0.538  13.387  0.2698  0.2897  0.7633
  889MPD2    C313084   3.891   0.635  13.449  0.9002 -0.4964  0.8255
  889MPD2    C413085   3.818   0.594  13.561 -0.5673  0.9576  0.1922
  889MPD2    C513086   3.839   0.475  13.620 -0.0714  0.1120 -0.5492
  889MPD2     H13087   4.036   0.564  13.312 -1.0219  2.6784  0.3296
  889MPD2    H113088   3.758   0.662  13.620  1.5879  2.7667  0.3234
  889MPD2    H213089   3.942   0.296  13.610 -0.1602  0.4430  2.1504
  889MPD2    H313090   3.782   0.460  13.711 -1.4148 -1.5017 -1.6524
  889MPD2     N13091   3.914   0.768  13.417  0.1443  0.2122 -0.8099
  889MPD2    H513092   3.978   0.780  13.339  0.8849 -1.5725 -0.4881
  889MPD2    N113093   4.066   0.310  13.391 -0.4911  0.1447  0.4063
  889MPD2    H713094   4.110   0.246  13.457  1.4868 -0.8803 -1.9186
  890MPD2     C13095   4.282   2.217  14.508  0.0972 -0.4275 -0.5706
  890MPD2    C113096   4.380   2.286  14.579 -0.3223  0.1128  0.2024
  890MPD2    C213097   4.411   2.237  14.705  0.0320  0.4283  0.2258
  890MPD2    C313098   4.355   2.122  14.755  0.8666  0.1488  0.5409
  890MPD2    C413099   4.265   2.048  14.677 -0.4527 -0.5359 -0.1699
  890MPD2    C513100   4.235   2.098  14.559  0.6634  0.1237 -0.2205
  890MPD2     H13101   4.469   2.293  14.778 -0.1309 -1.7987  2.0996
  890MPD2    H113102   4.212   1.960  14.711 -3.4023  0.8516 -1.2097
  890MPD2    H213103   4.245   2.248  14.411 -1.5275 -1.1845 -0.1933
  890MPD2    H313104   4.167   2.038  14.499 -0.1187  2.3213 -1.4937
  890MPD2     N13105   4.403   2.091  14.885  0.1552 -0.5052 -0.6265
  890MPD2    H513106   4.482   2.147  14.918 -1.1543  0.9418  0.0661
  890MPD2    N113107   4.429   2.406  14.526 -0.2356  0.0941 -0.3704
  890MPD2    H713108   4.396   2.427  14.432 -4.7727  0.4161  1.2603
  891MPD2     C13109   2.182   0.906  16.747  0.7269 -0.0153 -0.7539
  891MPD2    C113110   2.084   0.879  16.835 -0.9557  0.1348  0.2529
  891MPD2    C213111   2.111   0.810  16.952 -0.5279  0.5661 -0.1835
  891MPD2    C313112   2.240   0.778  16.987  0.1004  0.0593 -0.2026
  891MPD2    C413113   2.338   0.795  16.897 -0.0112  0.1371 -0.1447
  891MPD2    C513114   2.307   0.853  16.776  0.1920 -0.4192 -0.4946
  891MPD2     H13115   2.043   0.785  17.032 -0.2590 -0.8497 -0.3889
  891MPD2    H113116   2.441   0.761  16.903 -0.4776 -1.1354  0.5170
  891MPD2    H213117   2.167   0.955  16.652 -0.6015  1.5540  0.2621
  891MPD2    H313118   2.389   0.864  16.706 -1.3601  2.0450 -1.9224
  891MPD2     N13119   2.257   0.713  17.112 -0.2986 -0.4877 -0.4380
  891MPD2    H513120   2.174   0.693  17.167 -0.3933  0.5525 -0.2149
  891MPD2    N113121   1.957   0.914  16.789 -0.1449 -0.0532  0.1587
  891MPD2    H713122   1.952   0.975  16.708  0.5417 -0.2492 -0.0285
  892MPD2     C13123   3.279   1.845  15.163  0.1066  0.6232 -0.0827
  892MPD2    C113124   3.209   1.856  15.042 -0.4156  0.2019  0.7194
  892MPD2    C213125   3.255   1.792  14.927  0.6249  0.3345 -0.2531
  892MPD2    C313126   3.367   1.709  14.941  0.4990  1.0704  0.2803
  892MPD2    C413127   3.438   1.704  15.055 -0.3067  0.4790  0.1631
  892MPD2    C513128   3.393   1.773  15.165 -0.1010 -0.3385  0.3075
  892MPD2     H13129   3.201   1.799  14.834  1.0786  1.0105 -0.4661
  892MPD2    H113130   3.533   1.652  15.061 -0.8449 -0.3304  1.9012
  892MPD2    H213131   3.261   1.898  15.256 -1.7244 -1.2938  0.6638
  892MPD2    H313132   3.454   1.761  15.254 -0.2582 -1.8517  0.2262
  892MPD2     N13133   3.418   1.630  14.838 -0.2663 -0.7903  0.5433
  892MPD2    H513134   3.515   1.602  14.849  0.1122  0.1802 -0.3222
  892MPD2    N113135   3.081   1.926  15.031  0.4430  0.5113 -0.9975
  892MPD2    H713136   3.036   1.929  14.940  0.3387  1.5654 -0.9119
  893MPD2     C13137   4.126   0.874   1.010  0.2502  0.2905 -1.4110
  893MPD2    C113138   4.163   0.972   1.094 -0.9891 -0.0547  0.1271
  893MPD2    C213139   4.069   1.030   1.176 -0.0529 -0.3923  0.0736
  893MPD2    C313140   3.936   0.988   1.176 -0.2285  0.7224  0.8050
  893MPD2    C413141   3.902   0.890   1.083  0.0417 -0.3798 -0.3284
  893MPD2    C513142   4.000   0.847   0.997 -0.0340  0.6640 -0.5457
  893MPD2     H13143   4.099   1.109   1.243 -0.3343  0.7716 -1.1847
  893MPD2    H113144   3.801   0.856   1.067 -0.1867 -0.5932  1.5549
  893MPD2    H213145   4.192   0.813   0.949  0.2894 -0.3035 -0.7716
  893MPD2    H313146   3.977   0.773   0.921 -2.4628  0.6643  0.1972
  893MPD2     N13147   3.837   1.032   1.264  0.0588 -0.0128 -0.0174
  893MPD2    H513148   3.748   0.986   1.250  1.4953 -2.8030  0.0388
  893MPD2    N113149   4.304   1.006   1.083  0.2380 -0.4801  0.5575
  893MPD2    H713150   4.360   0.943   1.027 -0.1276 -2.1484  2.0505
  894MPD2     C13151   3.069   2.841   1.193 -0.5649 -0.0193 -0.1702
  894MPD2    C113152   2.935   2.875   1.182 -0.5784 -0.3274  0.3911
  894MPD2    C213153   2.908   2.996   1.109  0.0211 -0.0678 -0.6002
  894MPD2    C313154   3.005   3.085   1.059 -1.1411  0.4449  0.3423
  894MPD2    C413155   3.138   3.040   1.081 -0.6439  0.1747 -0.0574
  894MPD2    C513156   3.168   2.923   1.142 -0.1326 -0.5921  0.1895
  894MPD2     H13157   2.805   3.024   1.088  0.8849  4.6650  1.3237
  894MPD2    H113158   3.227   3.098   1.058  0.6472 -1.5128  0.7366
  894MPD2    H213159   3.096   2.752   1.248  2.0805  1.4746  0.9276
  894MPD2    H313160   3.270   2.887   1.153 -0.3982 -1.3402  0.1902
  894MPD2     N13161   2.973   3.204   0.998  0.5975  0.1773 -0.0037
  894MPD2    H513162   2.876   3.228   0.978  0.0294  0.3037  2.8694
  894MPD2    N113163   2.833   2.789   1.217  0.7836  0.0251  0.0561
  894MPD2    H713164   2.743   2.834   1.209  0.8628 -0.1247 -1.6491
  895MPD2     C13165   2.138   0.678  13.813 -0.5657  0.2788  0.5069
  895MPD2    C113166   2.105   0.685  13.679 -0.2495  0.1135  0.6722
  895MPD2    C213167   2.136   0.567  13.604  0.0504 -0.6499  0.6982
  895MPD2    C313168   2.220   0.460  13.646  0.5142 -0.5557 -0.1409
  895MPD2    C413169   2.249   0.455  13.783  0.0729 -0.2650  0.3545
  895MPD2    C513170   2.207   0.566  13.863 -0.0103 -0.5640  0.6315
  895MPD2     H13171   2.111   0.578  13.499  1.2494 -0.4692  0.4313
  895MPD2    H113172   2.305   0.373  13.827  3.2795  1.7525  0.0535
  895MPD2    H213173   2.121   0.754  13.888  0.4288  0.2997  0.7141
  895MPD2    H313174   2.223   0.566  13.971  0.2947  0.5247  0.5871
  895MPD2     N13175   2.278   0.357  13.563  0.2456 -0.3283 -0.0228
  895MPD2    H513176   2.285   0.265  13.605  0.5467  0.2858  1.2710
  895MPD2    N113177   2.039   0.793  13.621 -0.2896 -0.0320 -0.1539
  895MPD2    H713178   2.049   0.809  13.522 -2.5167 -0.2329 -0.4018
  896MPD2     C13179   4.735   4.598   0.918 -0.3597 -0.1339 -0.3629
  896MPD2    C113180   4.714   4.506   0.810 -0.4293 -0.2948  0.2015
  896MPD2    C213181   4.590   4.466   0.789  0.2112  0.0515  0.0974
  896MPD2    C313182   4.483   4.530   0.857 -0.6016  0.2957  0.1864
  896MPD2    C413183   4.509   4.619   0.956  0.3511 -0.3118  0.6019
  896MPD2    C513184   4.636   4.649   0.992 -0.1460 -0.0846 -0.5072
  896MPD2     H13185   4.567   4.389   0.717  0.6870 -0.7448  0.8115
  896MPD2    H113186   4.435   4.686   1.000  1.1221  1.4093 -0.7244
  896MPD2    H213187   0.103   4.611   0.941 -0.2938 -1.2075 -0.0519
  896MPD2    H313188   4.650   4.719   1.074  0.5613 -2.8710  1.7388
  896MPD2     N13189   4.352   4.499   0.805  0.2479 -0.0325  0.6844
  896MPD2    H513190   4.345   4.426   0.735  1.6414  1.3074 -0.8467
  896MPD2    N113191   0.093   4.465   0.748  0.6503  0.9009 -0.1355
  896MPD2    H713192   0.179   4.496   0.793  0.6554 -1.3613  1.4114
  897MPD2     C13193   0.650   0.365  10.535  0.9289  0.1564 -0.5206
  897MPD2    C113194   0.582   0.487  10.539 -0.2969  0.2980 -0.4146
  897MPD2    C213195   0.481   0.507  10.627  0.2808  0.1611 -0.2250
  897MPD2    C313196   0.447   0.411  10.714  0.0161  0.5469 -0.3931
  897MPD2    C413197   0.504   0.285  10.705  0.7555 -0.6550 -0.2774
  897MPD2    C513198   0.610   0.263  10.620  0.1654  1.2457 -0.5971
  897MPD2     H13199   0.449   0.609  10.647 -0.1585 -0.3200  1.4531
  897MPD2    H113200   0.472   0.211  10.778  0.5310 -0.0573  0.2368
  897MPD2    H213201   0.733   0.341  10.470  1.8308  1.3412  0.2001
  897MPD2    H313202   0.658   0.166  10.613 -0.2513  0.8201  2.7070
  897MPD2     N13203   0.343   0.439  10.805  0.0397  0.0128 -0.7651
  897MPD2    H513204   0.334   0.539  10.819 -2.4499 -0.4782  1.0248
  897MPD2    N113205   0.623   0.581  10.443 -0.0438  0.3283 -0.0123
  897MPD2    H713206   0.709   0.566  10.391  0.9969 -0.5720  1.9556
  898MPD2     C13207   3.447   1.990  16.573 -0.0782  0.5407 -0.5260
  898MPD2    C113208   3.422   1.993  16.707  0.5261  0.5741 -0.4723
  898MPD2    C213209   3.294   1.959  16.756  0.2178  0.2568  0.2489
  898MPD2    C313210   3.197   1.918  16.669  0.4877  0.2668  1.2867
  898MPD2    C413211   3.227   1.923  16.530 -0.1146  0.7423 -0.4967
  898MPD2    C513212   3.355   1.941  16.489 -0.1155 -0.2040 -0.4746
  898MPD2     H13213   3.274   1.961  16.862  0.2409  1.5786  0.2270
  898MPD2    H113214   3.156   1.893  16.455 -0.8785  0.9866  0.1335
  898MPD2    H213215   3.546   2.018  16.537 -0.6243  0.4823 -2.0698
  898MPD2    H313216   3.393   1.929  16.388 -0.4603 -0.2588 -0.5968
  898MPD2     N13217   3.072   1.888  16.723 -0.1738  0.5466  0.3789
  898MPD2    H513218   3.055   1.898  16.823  0.4043 -2.7263  0.7962
  898MPD2    N113219   3.518   2.027  16.808 -0.4228 -0.5913  0.0304
  898MPD2    H713220   3.487   2.022  16.904 -0.0591 -1.6213  0.0924
  899MPD2     C13221   3.299   2.043  17.406  0.6961  0.1248 -0.5410
  899MPD2    C113222   3.372   2.153  17.445  0.0813 -0.3685 -0.3450
  899MPD2    C213223   3.363   2.190  17.584 -0.1917  0.2698 -0.1809
  899MPD2    C313224   3.291   2.112  17.676 -0.8450  0.3459 -0.2623
  899MPD2    C413225   3.227   2.000  17.632  0.4470  0.0227 -0.1457
  899MPD2    C513226   3.220   1.967  17.494 -0.3064  0.6929  0.0037
  899MPD2     H13227   3.424   2.276  17.611 -0.7197  0.5957 -0.0351
  899MPD2    H113228   3.176   1.938  17.705 -0.8442 -0.7725 -1.7431
  899MPD2    H213229   3.299   2.019  17.301 -0.4850  0.3645 -0.5887
  899MPD2    H313230   3.164   1.882  17.457  0.6620 -0.5339  1.3549
  899MPD2     N13231   3.280   2.143   0.072 -0.4523  0.2371  0.7850
  899MPD2    H513232   3.215   2.091   0.130 -0.4534 -0.0593  0.5168
  899MPD2    N113233   3.448   2.224  17.351 -0.4237  0.1557  0.2407
  899MPD2    H713234   3.444   2.190  17.255  0.9055 -2.9778  1.3165
  900MPD2     C13235   2.988   3.805  12.656  0.1920 -0.0528  0.1137
  900MPD2    C113236   2.891   3.705  12.645  0.2798 -0.4197 -0.7652
  900MPD2    C213237   2.757   3.746  12.631 -0.0889  0.0830 -0.0654
  900MPD2    C313238   2.724   3.874  12.601  0.1656  0.3518 -0.6175
  900MPD2    C413239   2.824   3.973  12.604  0.4734  0.1773 -0.8302
  900MPD2    C513240   2.955   3.937  12.630 -0.1403  0.4004  0.0053
  900MPD2     H13241   2.683   3.667  12.637  1.1584 -1.1154 -0.5940
  900MPD2    H113242   2.797   4.077  12.600  5.1265  1.4872  1.2743
  900MPD2    H213243   3.091   3.782  12.681 -0.0347  1.0337  2.0017
  900MPD2    H313244   3.023   4.020  12.645  0.6640 -0.3950  0.7597
  900MPD2     N13245   2.587   3.902  12.581  0.4146 -0.4515 -0.2060
  900MPD2    H513246   2.520   3.827  12.594  0.6807 -0.8106 -0.9348
  900MPD2    N113247   2.929   3.565  12.633  0.3924  0.2294  0.6667
  900MPD2    H713248   3.028   3.546  12.647  0.4682  0.8884  1.0261
  901MPD2     C13249   2.707   2.521  12.324 -0.0481  0.0835 -0.1671
  901MPD2    C113250   2.782   2.522  12.443  0.3579  0.6402  0.0081
  901MPD2    C213251   2.812   2.641  12.500  0.5286  0.3502  0.2332
  901MPD2    C313252   2.777   2.760  12.438 -0.0331  0.0028  0.1489
  901MPD2    C413253   2.708   2.762  12.321  0.1465 -0.6843  0.1495
  901MPD2    C513254   2.682   2.640  12.265 -0.9350  0.4714  0.2351
  901MPD2     H13255   2.876   2.648  12.587  0.3392  2.0627  0.2332
  901MPD2    H113256   2.689   2.854  12.267  0.0172  0.3799  2.0101
  901MPD2    H213257   2.692   2.428  12.270 -4.7116  0.3561  0.6816
  901MPD2    H313258   2.618   2.629  12.178 -2.0398 -0.9953  1.2296
  901MPD2     N13259   2.818   2.875  12.506 -0.5858 -0.2352 -0.2931
  901MPD2    H513260   2.850   2.850  12.599  0.5083  0.1722 -0.5655
  901MPD2    N113261   2.832   2.394  12.496 -0.2029  0.6534 -0.2705
  901MPD2    H713262   2.803   2.310  12.447  1.2055  0.3486 -0.5829
  902MPD2     C13263   1.311   1.697  13.090 -0.6258 -0.1842 -0.4346
  902MPD2    C113264   1.363   1.708  12.962  0.4324  0.0656 -0.2744
  902MPD2    C213265   1.469   1.631  12.919 -0.0261  0.3573  0.2049
  902MPD2    C313266   1.532   1.551  13.007 -0.3317  0.5341 -0.8148
  902MPD2    C413267   1.482   1.538  13.139 -0.6436 -0.0648  0.9056
  902MPD2    C513268   1.371   1.604  13.174  0.6407  0.5402  0.2593
  902MPD2     H13269   1.515   1.634  12.821 -0.2506  0.6222  0.1071
  902MPD2    H113270   1.529   1.467  13.205 -0.6950 -1.8703 -1.0012
  902MPD2    H213271   1.230   1.763  13.120  0.0653  0.4344  0.0984
  902MPD2    H313272   1.335   1.592  13.276 -2.5084  0.4200 -0.8593
  902MPD2     N13273   1.653   1.486  12.962 -0.7819  0.3460 -0.4395
  902MPD2    H513274   1.677   1.500  12.864  0.6817  0.6615 -0.0277
  902MPD2    N113275   1.305   1.806  12.881  0.6033  0.2342 -0.1145
  902MPD2    H713276   1.225   1.855  12.920  1.4912 -0.2406  2.2779
  903MPD2     C13277   2.058   1.509  12.299 -0.4013  0.2299  0.2051
  903MPD2    C113278   1.962   1.553  12.392 -0.0588  0.7119  0.2554
  903MPD2    C213279   1.857   1.639  12.346  0.2430  0.6288  0.0660
  903MPD2    C313280   1.849   1.676  12.218 -0.5432 -0.0266 -0.5649
  903MPD2    C413281   1.946   1.637  12.133 -0.5833  0.1558  0.3539
  903MPD2    C513282   2.047   1.549  12.168 -0.1018 -0.5933 -0.2618
  903MPD2     H13283   1.776   1.665  12.414 -0.1176  0.2382 -0.2164
  903MPD2    H113284   1.946   1.670  12.030  1.1088 -1.1819 -0.0547
  903MPD2    H213285   2.139   1.446  12.334 -0.2223  2.6430  4.2244
  903MPD2    H313286   2.128   1.524  12.101 -0.4460 -1.4117 -0.3836
  903MPD2     N13287   1.734   1.747  12.184  0.1695 -0.4819  0.4739
  903MPD2    H513288   1.663   1.760  12.256 -0.7025  0.9082 -0.6290
  903MPD2    N113289   1.992   1.516  12.522  0.3883  0.3177  0.4806
  903MPD2    H713290   2.079   1.467  12.537  0.3892  0.0727 -0.3424
  904MPD2     C13291   2.298   0.077  13.907  0.1069  0.5534 -0.0444
  904MPD2    C113292   2.229   0.152  14.002 -0.0613  0.5664 -0.0784
  904MPD2    C213293   2.298   0.230  14.090  0.8148  0.4291  0.4891
  904MPD2    C313294   2.437   0.229  14.084  0.6836  0.1429  0.3710
  904MPD2    C413295   2.503   0.140  13.999 -0.8179  0.3082 -0.1224
  904MPD2    C513296   2.433   0.066  13.906  0.6335 -0.4227  0.4488
  904MPD2     H13297   2.247   0.290  14.164  1.3941  1.5830 -0.0495
  904MPD2    H113298   2.610   0.124  13.995 -0.7078  1.3160 -1.5772
  904MPD2    H213299   2.241   0.022  13.833  2.3724 -2.6176  0.5714
  904MPD2    H313300   2.481   0.005  13.830 -1.2665 -0.3855 -0.7952
  904MPD2     N13301   2.506   0.303  14.180  0.2296 -0.4441 -0.6116
  904MPD2    H513302   2.457   0.326  14.266  1.4928 -1.8990  0.4920
  904MPD2    N113303   2.093   0.168  13.975  0.6154 -0.3508 -0.1345
  904MPD2    H713304   2.047   0.102  13.913 -0.7661  2.3238 -1.9413
  905MPD2     C13305   1.807   0.568  13.336 -0.1266  0.1874 -0.6498
  905MPD2    C113306   1.852   0.454  13.399 -0.3023 -0.4139 -0.2102
  905MPD2    C213307   1.900   0.348  13.320 -0.3128  0.6386  0.0635
  905MPD2    C313308   1.906   0.362  13.180  0.2696  0.2230 -0.1068
  905MPD2    C413309   1.867   0.481  13.128 -0.1122  0.3852 -0.0551
  905MPD2    C513310   1.820   0.584  13.199  0.1907  0.3446 -0.3962
  905MPD2     H13311   1.920   0.249  13.359 -1.3784  0.4674  0.1807
  905MPD2    H113312   1.867   0.489  13.020  2.1655  0.5576 -0.0433
  905MPD2    H213313   1.764   0.648  13.397 -1.0512  1.2610 -2.7117
  905MPD2    H313314   1.792   0.676  13.151  0.8259  0.0446 -1.3598
  905MPD2     N13315   1.941   0.256  13.096  0.4001  0.2305  0.8834
  905MPD2    H513316   1.919   0.257  12.997  2.1412 -0.6728  0.4892
  905MPD2    N113317   1.844   0.446  13.537  0.4689 -0.4994  0.0413
  905MPD2    H713318   1.813   0.527  13.589 -0.5360 -0.9640  0.1729
  906MPD2     C13319   4.038   0.931  11.761 -0.9194  0.3195  0.2573
  906MPD2    C113320   4.096   0.865  11.658  0.3630  0.8208 -0.0570
  906MPD2    C213321   4.135   0.734  11.674  0.1132  0.3088 -0.1332
  906MPD2    C313322   4.125   0.665  11.791  0.0808 -0.6245 -0.5560
  906MPD2    C413323   4.062   0.731  11.895  0.0474 -0.4942  0.4046
  906MPD2    C513324   4.022   0.868  11.883 -0.8034 -0.9039  0.8924
  906MPD2     H13325   4.145   0.673  11.585 -0.4303 -1.9181  1.3253
  906MPD2    H113326   4.052   0.683  11.991  0.4733 -0.3732  0.5079
  906MPD2    H213327   4.003   1.033  11.766 -1.6808  0.0534  0.3209
  906MPD2    H313328   3.981   0.930  11.961 -0.9148 -0.9434  0.8654
  906MPD2     N13329   4.138   0.522  11.809  0.2255  0.1987 -0.2826
  906MPD2    H513330   4.098   0.486  11.896 -1.9924 -0.6436 -1.6405
  906MPD2    N113331   4.092   0.916  11.530 -0.1870 -0.8049  0.9690
  906MPD2    H713332   4.148   0.869  11.459 -1.2001  2.1246 -1.8053
  907MPD2     C13333   2.737   0.012  16.159  0.0623 -0.1191  0.4087
  907MPD2    C113334   2.788   4.631  16.112  0.4995  0.2940 -0.3788
  907MPD2    C213335   2.874   4.563  16.194  0.4602 -0.6424  0.3627
  907MPD2    C313336   2.893   4.591  16.326  0.3554 -0.7874  0.6296
  907MPD2    C413337   2.835   4.698  16.372  0.0349 -0.2127 -0.0168
  907MPD2    C513338   2.759   0.042  16.293  0.7605 -0.3202  0.0312
  907MPD2     H13339   2.918   4.473  16.153  2.2153 -0.4005  1.7108
  907MPD2    H113340   2.851   0.000  16.472 -1.9965  1.4982 -0.3668
  907MPD2    H213341   2.683   0.085  16.099  0.1270 -2.2101 -2.1799
  907MPD2    H313342   2.710   0.131  16.331  0.1097  0.0302 -1.6762
  907MPD2     N13343   2.967   4.502  16.403  0.3093 -0.8966 -0.0882
  907MPD2    H513344   2.996   4.417  16.356 -1.3621 -1.3180 -0.3705
  907MPD2    N113345   2.751   4.577  15.985  0.2364 -0.4067 -0.4998
  907MPD2    H713346   2.797   4.489  15.964 -0.2439 -0.9501  0.7800
  908MPD2     C13347   1.112   0.416   9.763  0.3337 -0.6018  0.8295
  908MPD2    C113348   1.007   0.363   9.827  0.2518  1.1441  0.3759
  908MPD2    C213349   0.958   0.426   9.935 -0.1898  0.7759 -0.7201
  908MPD2    C313350   0.993   0.553   9.966 -0.0857  0.6038 -0.0233
  908MPD2    C413351   1.090   0.612   9.902  0.1931 -0.4046  0.1126
  908MPD2    C513352   1.148   0.540   9.803  0.6218 -0.5222 -0.2132
  908MPD2     H13353   0.875   0.381   9.988  0.2537  1.8289  0.8320
  908MPD2    H113354   1.127   0.713   9.917  0.2859 -0.4503  0.1908
  908MPD2    H213355   1.159   0.370   9.677  0.7229  1.7760 -0.2241
  908MPD2    H313356   1.229   0.584   9.747  1.1062 -0.2617  0.6951
  908MPD2     N13357   0.925   0.618  10.072  0.0475  0.1739 -0.6281
  908MPD2    H513358   0.849   0.564  10.114  0.1237 -0.3619 -1.1750
  908MPD2    N113359   0.961   0.238   9.776 -0.4014  0.6403 -0.5237
  908MPD2    H713360   1.025   0.188   9.714 -1.9791  0.3839 -1.9549
  909MPD2     C13361   0.671   3.210  11.798 -0.2120 -0.0553  0.1971
  909MPD2    C113362   0.727   3.336  11.813  0.2156 -0.6501 -0.8890
  909MPD2    C213363   0.701   3.411  11.927 -0.2179  0.6075 -0.5069
  909MPD2    C313364   0.616   3.365  12.021 -0.5395  0.0042 -0.5035
  909MPD2    C413365   0.568   3.236  12.005  0.3874  0.3602  0.8097
  909MPD2    C513366   0.589   3.162  11.895 -0.0125  0.3100  0.1995
  909MPD2     H13367   0.752   3.506  11.934 -0.1088  0.5400 -0.3768
  909MPD2    H113368   0.504   3.184  12.076 -1.6489  0.4409 -0.9912
  909MPD2    H213369   0.683   3.152  11.707 -0.3216 -0.7862  0.6599
  909MPD2    H313370   0.550   3.062  11.881  1.0013 -0.3756  2.2601
  909MPD2     N13371   0.575   3.445  12.129  0.6233 -0.6232 -0.3302
  909MPD2    H513372   0.609   3.540  12.126  1.9897 -1.0887  0.5293
  909MPD2    N113373   0.828   3.389  11.728 -0.5049  0.4730 -0.3463
  909MPD2    H713374   0.884   3.466  11.762 -1.2195  0.2547  1.3142
  910MPD2     C13375   2.157   0.132  16.119 -0.0011  0.3222  0.2489
  910MPD2    C113376   2.280   0.107  16.062  0.2778 -0.4673  0.5046
  910MPD2    C213377   2.308   0.153  15.935  0.4497 -0.2611  0.3849
  910MPD2    C313378   2.215   0.239  15.873 -0.0472  0.4273 -0.1710
  910MPD2    C413379   2.102   0.267  15.937  0.4792 -0.0994  0.7787
  910MPD2    C513380   2.069   0.216  16.055 -0.6563 -0.3155 -0.3750
  910MPD2     H13381   2.406   0.137  15.893  0.5940 -0.8219  0.9302
  910MPD2    H113382   2.027   0.339  15.905  0.1874 -0.6594  0.1932
  910MPD2    H213383   2.128   0.099  16.218 -1.1974  0.1598 -0.1598
  910MPD2    H313384   1.977   0.243  16.106  1.2112  1.0261  2.3030
  910MPD2     N13385   2.235   0.315  15.759  0.0601  0.3494 -0.9356
  910MPD2    H513386   2.157   0.377  15.740 -1.5299 -0.9838  1.3258
  910MPD2    N113387   2.374   0.016  16.117 -0.3292 -0.4692  0.1369
  910MPD2    H713388   2.452   4.721  16.060  0.7973  1.1803  0.7617
  911MPD2     C13389   0.198   0.634  16.529 -1.1222  0.5301  0.7418
  911MPD2    C113390   0.259   0.740  16.589 -0.1851  0.1248  0.4919
  911MPD2    C213391   0.209   0.867  16.575 -0.2070 -0.4822  0.4339
  911MPD2    C313392   0.095   0.880  16.493 -0.1388 -0.5267  0.7248
  911MPD2    C413393   0.027   0.773  16.440 -0.1383 -0.4054 -0.0798
  911MPD2    C513394   0.087   0.648  16.451 -0.3828  0.8020 -0.0683
  911MPD2     H13395   0.254   0.956  16.618 -1.8942  0.8743 -0.5646
  911MPD2    H113396   4.672   0.774  16.380  0.2942 -1.9954 -0.7710
  911MPD2    H213397   0.235   0.533  16.538  0.9296  1.1271 -0.9582
  911MPD2    H313398   0.038   0.558  16.415  1.1561  1.1516 -3.0413
  911MPD2     N13399   0.037   1.006  16.473  0.1395  0.6637 -0.4288
  911MPD2    H513400   4.689   1.006  16.417  0.7183 -1.4875 -1.3206
  911MPD2    N113401   0.379   0.702  16.654  0.0656 -0.3661 -0.2921
  911MPD2    H713402   0.404   0.604  16.647 -0.1716 -0.2214 -3.0397
  912MPD2     C13403   4.429   0.937  15.909  0.4932 -0.3800 -0.1732
  912MPD2    C113404   4.460   0.927  16.046 -0.1039  0.6214  0.5323
  912MPD2    C213405   4.494   0.804  16.097  1.0703 -0.1454  0.1651
  912MPD2    C313406   4.483   0.686  16.028  0.6920  0.4400  0.0104
  912MPD2    C413407   4.459   0.693  15.892 -0.0570 -0.0503  0.4681
  912MPD2    C513408   4.431   0.820  15.835 -0.3449 -0.1286  0.1864
  912MPD2     H13409   4.509   0.805  16.205  1.0200  0.3721  0.1673
  912MPD2    H113410   4.464   0.603  15.833 -1.4811 -1.3680  2.3802
  912MPD2    H213411   4.412   1.030  15.856  0.0602 -0.1914  0.3014
  912MPD2    H313412   4.409   0.817  15.729 -0.0098  0.7536  0.0901
  912MPD2     N13413   4.514   0.571  16.098 -0.0025 -0.5216  0.3347
  912MPD2    H513414   4.512   0.583  16.199 -1.1931  1.8055  0.0311
  912MPD2    N113415   4.467   1.044  16.122 -0.3975  0.1360  0.0843
  912MPD2    H713416   4.451   1.128  16.067 -1.0093  0.7371  1.1787
  913MPD2     C13417   0.403   1.723  10.471 -0.4934 -0.1883 -0.5591
  913MPD2    C113418   0.449   1.838  10.531 -0.2549  0.3046 -0.3247
  913MPD2    C213419   0.480   1.943  10.454 -0.2364 -1.4840  0.5676
  913MPD2    C313420   0.446   1.947  10.321 -0.8196 -0.2923  0.3307
  913MPD2    C413421   0.380   1.834  10.264  0.6890  0.7225 -0.1492
  913MPD2    C513422   0.370   1.718  10.335  0.4915 -0.1248  0.2989
  913MPD2     H13423   0.529   2.029  10.499 -1.1182  0.0079 -1.3495
  913MPD2    H113424   0.352   1.822  10.161  0.1421 -0.3835  0.1265
  913MPD2    H213425   0.386   1.636  10.534 -0.3265  0.5840  0.5640
  913MPD2    H313426   0.321   1.630  10.295 -3.1039  1.2469  1.7220
  913MPD2     N13427   0.469   2.058  10.233 -0.1091  0.2561 -0.0003
  913MPD2    H513428   0.459   2.047  10.132  0.3140 -0.4011  0.0322
  913MPD2    N113429   0.463   1.834  10.670  0.5786  0.6222  0.2823
  913MPD2    H713430   0.435   1.744  10.707 -2.3913  0.4556 -2.4148
  914MPD2     C13431   2.516   1.745  12.110  0.5527 -0.7429 -0.8430
  914MPD2    C113432   2.527   1.885  12.100 -0.1662  0.4014  0.2638
  914MPD2    C213433   2.608   1.949  12.193 -0.4222  0.2526 -0.4744
  914MPD2    C313434   2.661   1.876  12.306 -0.2607 -0.2459  0.6025
  914MPD2    C413435   2.646   1.738  12.315  0.1263 -0.3925  0.7334
  914MPD2    C513436   2.570   1.680  12.219 -0.1222  0.0146  0.5017
  914MPD2     H13437   2.636   2.054  12.186 -1.3097  0.6165  1.3159
  914MPD2    H113438   2.677   1.680  12.401 -0.2802 -1.4017  0.2021
  914MPD2    H213439   2.463   1.682  12.040  0.8973 -0.5220 -1.3069
  914MPD2    H313440   2.556   1.573  12.223  1.0983 -0.1173  1.2354
  914MPD2     N13441   2.748   1.954  12.386  0.0121  0.1821 -0.2682
  914MPD2    H513442   2.771   2.050  12.360  0.0554 -0.1065 -1.2782
  914MPD2    N113443   2.450   1.943  12.005 -0.5091 -0.1279 -0.0347
  914MPD2    H713444   2.395   1.884  11.943  3.7421 -1.8671 -2.1510
  915MPD2     C13445   1.563   2.368  15.932  0.1214  0.6781 -0.2210
  915MPD2    C113446   1.459   2.433  15.861  1.0693 -0.7691  0.3964
  915MPD2    C213447   1.356   2.500  15.931  0.5873 -0.1244 -0.4930
  915MPD2    C313448   1.346   2.506  16.069 -0.0033 -0.0780 -0.1639
  915MPD2    C413449   1.454   2.446  16.135  0.6461  0.3745  0.0876
  915MPD2    C513450   1.549   2.371  16.068  0.3233 -0.0140 -0.6269
  915MPD2     H13451   1.270   2.541  15.878  1.0243  0.0748 -1.0625
  915MPD2    H113452   1.462   2.458  16.242  1.1108 -1.1950  0.2413
  915MPD2    H213453   1.634   2.298  15.890 -0.7225 -1.3382  1.7049
  915MPD2    H313454   1.624   2.316  16.123  1.0014  0.3018 -1.2355
  915MPD2     N13455   1.240   2.577  16.144  0.2201 -0.3866  0.7901
  915MPD2    H513456   1.188   2.646  16.092  0.9256  0.0798  0.6983
  915MPD2    N113457   1.465   2.427  15.725  0.8093 -0.4586 -1.0496
  915MPD2    H713458   1.531   2.359  15.687  3.3612  1.9508 -0.8985
  916MPD2     C13459   3.964   0.571  15.883 -0.6796 -0.2221  0.1852
  916MPD2    C113460   4.070   0.535  15.961 -0.0330  0.7657 -0.0223
  916MPD2    C213461   4.187   0.487  15.894  0.2658  0.2340 -0.0910
  916MPD2    C313462   4.191   0.479  15.755 -0.1968  0.7333  0.5696
  916MPD2    C413463   4.083   0.519  15.683 -0.2413  0.0541 -0.2676
  916MPD2    C513464   3.966   0.555  15.749  0.3467  0.3636 -0.7855
  916MPD2     H13465   4.271   0.455  15.954  0.2210  2.4815  1.1551
  916MPD2    H113466   4.080   0.516  15.574 -1.6916  0.0803 -0.2334
  916MPD2    H213467   3.875   0.602  15.937 -0.5059 -0.4187  0.5901
  916MPD2    H313468   3.875   0.589  15.701  1.0903  0.7476 -1.9142
  916MPD2     N13469   4.315   0.430  15.703  0.2358 -0.2898 -0.0132
  916MPD2    H513470   4.392   0.395  15.759 -0.9724  0.7291  2.2893
  916MPD2    N113471   4.052   0.546  16.106  0.2807 -0.5534 -0.0550
  916MPD2    H713472   3.976   0.609  16.126  0.4312 -0.3379 -0.1555
  917MPD2     C13473   3.981   2.959  11.138  0.4028  0.2618 -0.1979
  917MPD2    C113474   4.057   2.964  11.256  0.4783  0.4333  0.2875
  917MPD2    C213475   4.183   3.021  11.249  0.3631  0.0645  0.1049
  917MPD2    C313476   4.233   3.070  11.129  0.4990 -0.1420 -0.4404
  917MPD2    C413477   4.148   3.070  11.015  0.3405 -0.0815 -0.0855
  917MPD2    C513478   4.035   3.000  11.018  0.0750 -0.2582  0.0502
  917MPD2     H13479   4.242   3.027  11.340 -2.4084  0.1432  1.9011
  917MPD2    H113480   4.179   3.108  10.919 -1.5944 -1.1942 -1.1672
  917MPD2    H213481   3.879   2.922  11.143  0.3414  0.3966 -0.4533
  917MPD2    H313482   3.985   2.984  10.923  1.3139 -0.6462 -0.5392
  917MPD2     N13483   4.354   3.137  11.119  0.1574  0.8697  0.7699
  917MPD2    H513484   4.364   3.194  11.035 -0.0737 -0.7670 -0.3696
  917MPD2    N113485   4.005   2.908  11.375 -0.0786  0.3212  0.3881
  917MPD2    H713486   3.918   2.856  11.376  1.6580 -2.6586 -2.1320
  918MPD2     C13487   4.166   2.863  12.392 -0.2732 -0.0820 -0.4402
  918MPD2    C113488   4.230   2.954  12.304  0.2995 -0.9784  0.0315
  918MPD2    C213489   4.173   2.962  12.178 -0.0343 -0.0507 -0.5850
  918MPD2    C313490   4.063   2.889  12.141  0.2052 -0.1487  0.8386
  918MPD2    C413491   4.022   2.787  12.220 -0.1915 -0.2266 -0.3498
  918MPD2    C513492   4.076   2.775  12.346  0.5468  1.1549 -0.5540
  918MPD2     H13493   4.211   3.040  12.113  1.5046 -0.4425 -0.1457
  918MPD2    H113494   3.941   2.724  12.185  0.1650 -0.6458 -0.4213
  918MPD2    H213495   4.189   2.850  12.497  0.1274 -0.0555 -0.5261
  918MPD2    H313496   4.038   2.703  12.418  1.1563  1.0366 -0.3484
  918MPD2     N13497   4.017   2.900  12.003 -0.0177 -0.1310 -0.2705
  918MPD2    H513498   4.060   2.974  11.949  2.7448 -0.3061  1.6939
  918MPD2    N113499   4.335   3.037  12.349  0.3906  0.3692 -0.4079
  918MPD2    H713500   4.368   3.105  12.281  0.9548  0.0210 -0.4817
  919MPD2     C13501   0.188   2.037  12.138  0.0994  0.6979  0.1658
  919MPD2    C113502   0.171   1.933  12.050  0.0392  0.5651  0.8279
  919MPD2    C213503   0.129   1.955  11.921 -0.1338 -0.0981  0.4001
  919MPD2    C313504   0.092   2.082  11.887 -0.5719 -0.2675 -0.4626
  919MPD2    C413505   0.083   2.181  11.982  0.3879  0.3591  0.6056
  919MPD2    C513506   0.129   2.158  12.106 -0.5918 -0.5141 -0.9786
  919MPD2     H13507   0.124   1.871  11.854 -0.9475 -0.2647  0.6697
  919MPD2    H113508   0.055   2.282  11.954  2.4708  1.1839  1.5164
  919MPD2    H213509   0.230   2.029  12.238  1.0957  0.8815 -0.2408
  919MPD2    H313510   0.129   2.239  12.178 -0.4235 -1.0260 -0.4115
  919MPD2     N13511   0.051   2.126  11.757  0.2068 -0.4502  0.6082
  919MPD2    H513512   0.020   2.222  11.746 -0.3590 -0.6266  0.6813
  919MPD2    N113513   0.200   1.798  12.084  0.7099  0.3151  0.4889
  919MPD2    H713514   0.181   1.731  12.010 -0.9500  1.8418 -0.4581
  920MPD2     C13515   4.171   2.159  11.045  0.9032 -0.3970 -0.3092
  920MPD2    C113516   4.261   2.253  10.992  0.9974 -0.3404  0.4509
  920MPD2    C213517   4.345   2.323  11.079  0.1691  0.1884  0.5096
  920MPD2    C313518   4.340   2.300  11.218 -0.1739 -0.5836 -0.7308
  920MPD2    C413519   4.245   2.214  11.270  0.1848  1.0484 -0.5404
  920MPD2    C513520   4.163   2.149  11.184 -0.2610  0.4244 -0.5790
  920MPD2     H13521   4.410   2.402  11.043 -0.4922  0.0044 -1.0808
  920MPD2    H113522   4.245   2.182  11.374  1.8818 -2.1427 -1.5017
  920MPD2    H213523   4.096   2.114  10.982 -0.2578 -0.6185  1.2460
  920MPD2    H313524   4.090   2.080  11.225  0.3195  1.0122  1.4930
  920MPD2     N13525   4.440   2.364  11.294 -0.1871  0.0647 -0.0043
  920MPD2    H513526   4.499   2.425  11.238 -0.4727 -0.3458 -0.7427
  920MPD2    N113527   4.274   2.279  10.857 -0.2012  0.3096 -0.1955
  920MPD2    H713528   4.325   2.359  10.823  1.1942 -0.1109  0.9484
  921MPD2     C13529   1.275   0.932  17.239  0.2834 -0.5517  0.4180
  921MPD2    C113530   1.257   0.943  17.103  0.8405 -1.1409  0.0207
  921MPD2    C213531   1.138   0.908  17.053  0.4093  0.1564  0.3443
  921MPD2    C313532   1.035   0.861  17.129 -0.1171 -0.0044  0.2044
  921MPD2    C413533   1.047   0.842  17.265  0.2407  0.7797  0.9860
  921MPD2    C513534   1.170   0.884  17.317  0.1043 -0.5062  0.2839
  921MPD2     H13535   1.131   0.912  16.945  2.0760 -0.0615  0.2223
  921MPD2    H113536   0.966   0.796  17.320 -0.1691  0.9965  0.5595
  921MPD2    H213537   1.361   0.969  17.294  1.1672 -1.4735 -0.3530
  921MPD2    H313538   1.186   0.870  17.423  1.6127  1.3244  0.2937
  921MPD2     N13539   0.911   0.815  17.073  0.3167  0.1128  0.4675
  921MPD2    H513540   0.849   0.759  17.131 -1.7125  0.8633 -0.9754
  921MPD2    N113541   1.372   0.992  17.032 -0.1898  0.1260 -0.6590
  921MPD2    H713542   1.454   0.987  17.091 -0.5714  0.0152 -0.1278
  922MPD2     C13543   2.142   3.909  16.577 -0.5284  0.5935 -0.1539
  922MPD2    C113544   2.082   3.883  16.694 -0.0244  0.0256 -0.5086
  922MPD2    C213545   2.094   3.755  16.728  0.2175  0.1582  0.0062
  922MPD2    C313546   2.139   3.649  16.653 -0.0123  0.3013 -0.0332
  922MPD2    C413547   2.179   3.676  16.525 -0.2096  0.4665 -0.2563
  922MPD2    C513548   2.188   3.810  16.492  0.2313  1.0383  0.0083
  922MPD2     H13549   2.067   3.725  16.828  0.1037  3.4142  0.9700
  922MPD2    H113550   2.220   3.607  16.452  1.2720  0.1452  0.8942
  922MPD2    H213551   2.131   4.007  16.531  0.5679  0.4466 -0.7223
  922MPD2    H313552   2.238   3.837  16.400 -1.0361  3.0044 -0.0912
  922MPD2     N13553   2.113   3.526  16.708  0.3676 -0.1257  0.4714
  922MPD2    H513554   2.071   3.524  16.800  0.3617  0.0217  0.4710
  922MPD2    N113555   2.020   3.974  16.783 -1.0181 -0.3451  0.1716
  922MPD2    H713556   1.978   3.941  16.870 -0.3716 -0.2942  0.5029
  923MPD2     C13557   2.715   1.489  10.439  0.1007  0.3856 -0.6445
  923MPD2    C113558   2.756   1.534  10.315  0.0100  0.2512  0.0303
  923MPD2    C213559   2.884   1.503  10.271  0.1844 -0.1977 -0.0113
  923MPD2    C313560   2.963   1.415  10.339  0.5443  0.3251 -0.4463
  923MPD2    C413561   2.925   1.369  10.462  0.1613 -0.0430  0.5357
  923MPD2    C513562   2.802   1.406  10.506  0.4130  0.4847 -0.1518
  923MPD2     H13563   2.927   1.535  10.177  2.5448 -0.0656  1.1190
  923MPD2    H113564   2.988   1.300  10.516  0.3912  1.2957  1.9773
  923MPD2    H213565   2.626   1.520  10.492  0.7013 -0.8543  1.1180
  923MPD2    H313566   2.760   1.365  10.598 -0.5986 -0.8243 -1.2077
  923MPD2     N13567   3.078   1.355  10.280  0.0924  0.8477 -0.3331
  923MPD2    H513568   3.126   1.288  10.338 -0.8082  0.0368 -0.5249
  923MPD2    N113569   2.668   1.620  10.246 -0.1627  0.3783  0.0779
  923MPD2    H713570   2.577   1.625  10.290  1.0723 -1.5984  2.9046
  924MPD2     C13571   3.374   3.945  16.106 -1.0054 -0.0225 -0.0972
  924MPD2    C113572   3.369   3.883  16.228 -0.0033 -0.2428  0.2724
  924MPD2    C213573   3.369   3.959  16.346 -1.3906 -0.0707 -0.2417
  924MPD2    C313574   3.387   4.097  16.332 -0.3823 -0.0045 -0.4824
  924MPD2    C413575   3.417   4.156  16.209  0.1523 -0.2801  0.6586
  924MPD2    C513576   3.416   4.079  16.099 -0.1271  0.5028 -0.3960
  924MPD2     H13577   3.354   3.915  16.444 -3.2499  2.5187  0.6319
  924MPD2    H113578   3.430   4.262  16.193 -0.5657 -0.2032  0.6126
  924MPD2    H213579   3.373   3.885  16.016  3.3844 -0.7410  0.3385
  924MPD2    H313580   3.447   4.122  16.004  0.5139 -1.3487 -1.0243
  924MPD2     N13581   3.343   4.191  16.433  0.3013 -0.6871  0.0672
  924MPD2    H513582   3.362   4.289  16.419  1.9324 -1.0375 -0.0927
  924MPD2    N113583   3.321   3.751  16.231  0.5703 -0.2238  0.1725
  924MPD2    H713584   3.288   3.707  16.145 -1.9420 -1.2752  1.6645
  925MPD2     C13585   2.070   2.031  15.192  0.2929 -0.7692  0.3577
  925MPD2    C113586   2.004   1.926  15.136 -0.5008 -0.0344 -0.3880
  925MPD2    C213587   1.937   1.829  15.214  1.1870 -0.0675 -0.2644
  925MPD2    C313588   1.945   1.836  15.350 -0.3035 -0.2381  0.3800
  925MPD2    C413589   2.013   1.940  15.407 -0.3260  0.2815  0.3436
  925MPD2    C513590   2.081   2.032  15.331  0.4300 -1.3221 -0.1031
  925MPD2     H13591   1.882   1.747  15.169 -0.2200 -0.4061  2.0297
  925MPD2    H113592   2.010   1.951  15.515  1.2903 -0.5166  0.4663
  925MPD2    H213593   2.120   2.106  15.131 -1.0122 -0.2370 -0.0570
  925MPD2    H313594   2.140   2.103  15.389  1.5407 -1.0165 -1.6028
  925MPD2     N13595   1.895   1.729  15.425 -0.2341 -0.7526 -0.5157
  925MPD2    H513596   1.847   1.658  15.371 -2.0587  0.9559 -1.1235
  925MPD2    N113597   1.979   1.915  14.996  0.1142  0.2000 -0.0240
  925MPD2    H713598   1.913   1.851  14.951  0.5674 -0.8618  0.8322
  926MPD2     C13599   0.522   4.668  13.816 -0.3675  0.5583 -0.3827
  926MPD2    C113600   0.517   0.053  13.757 -0.8169 -0.1265  0.2250
  926MPD2    C213601   0.610   0.075  13.653  0.4361 -0.3397  1.6391
  926MPD2    C313602   0.696   4.714  13.612 -0.0521  0.9467 -0.0142
  926MPD2    C413603   0.706   4.598  13.678 -1.0474 -0.1726 -0.2315
  926MPD2    C513604   0.611   4.572  13.770  0.2848 -1.1342 -0.0799
  926MPD2     H13605   0.600   0.171  13.604  1.9257 -0.3723  1.2595
  926MPD2    H113606   0.794   4.536  13.663 -0.3926  1.1335 -1.8578
  926MPD2    H213607   0.459   4.641  13.900 -2.7808  3.2421 -1.3116
  926MPD2    H313608   0.612   4.479  13.825  0.4910 -0.8592  0.3805
  926MPD2     N13609   0.794   0.012  13.515 -0.8968 -0.0389  0.1783
  926MPD2    H513610   0.854   4.673  13.482 -0.5541  1.1572 -1.8549
  926MPD2    N113611   0.419   0.156  13.785 -0.7824  0.1271  0.2819
  926MPD2    H713612   0.427   0.237  13.725 -1.7694  0.0497  0.0467
  927MPD2     C13613   1.389   2.121  17.529  0.1399 -0.6939 -0.7539
  927MPD2    C113614   1.269   2.175  17.492 -0.1064  0.1325  0.3746
  927MPD2    C213615   1.232   2.169  17.361 -0.5499 -0.5772  0.5386
  927MPD2    C313616   1.325   2.139  17.264  1.0597  0.1839 -0.0939
  927MPD2    C413617   1.451   2.092  17.302  0.3657 -0.3500 -0.0900
  927MPD2    C513618   1.485   2.090  17.436  0.2806 -0.9764 -0.0912
  927MPD2     H13619   1.132   2.185  17.323 -0.1951  0.5564  0.1046
  927MPD2    H113620   1.521   2.049  17.232  1.4820  0.8133  0.3134
  927MPD2    H213621   1.413   2.107  17.634 -0.2859  1.4644 -0.3623
  927MPD2    H313622   1.578   2.057  17.480  0.9549  0.7751 -0.1758
  927MPD2     N13623   1.286   2.131  17.123  0.7012  0.4965  0.1826
  927MPD2    H513624   1.188   2.137  17.102  0.7261  0.8109  0.1579
  927MPD2    N113625   1.189   2.230  17.589 -0.6118 -0.4643 -0.0332
  927MPD2    H713626   1.229   2.229  17.682 -2.2935  1.7603  0.7076
  928MPD2     C13627   2.731   1.270   0.999 -0.2448 -0.0458 -0.0020
  928MPD2    C113628   2.841   1.326   1.060 -0.9047  0.0414 -0.4327
  928MPD2    C213629   2.966   1.309   1.003 -0.4231  0.0474 -0.4266
  928MPD2    C313630   2.973   1.253   0.879 -0.4055 -0.0790 -0.5491
  928MPD2    C413631   2.860   1.198   0.819  0.4694  0.6829  0.0517
  928MPD2    C513632   2.738   1.209   0.881 -0.3982 -0.0683 -1.0961
  928MPD2     H13633   3.058   1.339   1.052  0.1867  1.2252 -2.3133
  928MPD2    H113634   2.869   1.155   0.720  0.8492 -1.3952  0.9769
  928MPD2    H213635   2.636   1.279   1.051 -0.4259 -1.5855 -0.0441
  928MPD2    H313636   2.644   1.179   0.835 -0.3893  1.1341 -1.8898
  928MPD2     N13637   3.094   1.228   0.808 -0.0244 -0.1057 -0.1746
  928MPD2    H513638   3.091   1.186   0.716 -1.3937  0.1249 -0.2240
  928MPD2    N113639   2.812   1.399   1.175 -0.0054  0.5231 -0.0674
  928MPD2    H713640   2.714   1.421   1.190 -0.7712 -1.3566 -2.3100
  929MPD2     C13641   2.573   0.963   9.951 -0.0438  0.6915 -0.9724
  929MPD2    C113642   2.590   0.857  10.036 -0.0568 -0.3291  0.3774
  929MPD2    C213643   2.577   0.724   9.986 -0.4264 -0.2607  0.2898
  929MPD2    C313644   2.518   0.699   9.864 -0.0036 -0.2662 -0.5327
  929MPD2    C413645   2.502   0.809   9.778  0.1930  0.7187  0.5733
  929MPD2    C513646   2.534   0.941   9.821  0.1023  0.5610 -0.5537
  929MPD2     H13647   2.585   0.641  10.055 -0.9924 -0.5462  0.0058
  929MPD2    H113648   2.466   0.793   9.677 -0.0458 -0.1283  0.7888
  929MPD2    H213649   2.575   1.064   9.992 -1.4154  0.1703  0.3745
  929MPD2    H313650   2.522   1.025   9.754 -0.6516 -0.3856 -1.6105
  929MPD2     N13651   2.465   0.577   9.816 -0.8569  0.3845  0.0580
  929MPD2    H513652   2.450   0.571   9.715 -0.5803  0.1713  0.0271
  929MPD2    N113653   2.604   0.884  10.173 -0.1472 -0.0114 -0.1728
  929MPD2    H713654   2.590   0.982  10.194 -0.5967  0.2299 -1.5661
  930MPD2     C13655   0.937   2.700  14.544  0.1699  0.2703  0.4064
  930MPD2    C113656   0.829   2.776  14.514  1.0597 -0.2397 -0.2776
  930MPD2    C213657   0.729   2.726  14.429 -0.1405 -0.0712  0.5166
  930MPD2    C313658   0.723   2.592  14.394 -0.4384  0.4271  0.0317
  930MPD2    C413659   0.836   2.513  14.428 -0.2224 -0.3601  0.2113
  930MPD2    C513660   0.942   2.567  14.501  0.3149 -0.4447 -0.5402
  930MPD2     H13661   0.656   2.799  14.396 -0.2510  0.0930  1.1185
  930MPD2    H113662   0.841   2.411  14.391 -0.2937 -0.7284  1.2185
  930MPD2    H213663   1.020   2.752  14.591  0.5066  0.2273 -0.1412
  930MPD2    H313664   1.024   2.499  14.519  1.1417  0.6329 -0.2605
  930MPD2     N13665   0.636   2.540  14.293  0.2535 -0.1930 -0.0802
  930MPD2    H513666   0.653   2.450  14.248 -0.1111  0.4302 -1.4773
  930MPD2    N113667   0.854   2.917  14.530 -0.3542 -0.0434  0.2882
  930MPD2    H713668   0.951   2.947  14.532 -0.2650 -0.1997 -1.4740
  931MPD2     C13669   0.978   1.834   0.245  0.5288 -0.2392  0.9323
  931MPD2    C113670   0.937   1.956   0.302 -0.1852  0.2872  0.2691
  931MPD2    C213671   0.909   1.960   0.436 -0.0260  0.1418  0.3852
  931MPD2    C313672   0.959   1.857   0.520  0.3596  0.0597 -0.2145
  931MPD2    C413673   1.005   1.745   0.471 -0.4651  0.8481 -0.9066
  931MPD2    C513674   1.006   1.735   0.332  0.0445  0.6611 -0.5229
  931MPD2     H13675   0.866   2.048   0.483  1.6026  1.9868 -1.6245
  931MPD2    H113676   1.031   1.652   0.519  0.0084  1.2089 -0.4608
  931MPD2    H213677   0.998   1.825   0.139  0.7882  1.4840  0.8375
  931MPD2    H313678   1.041   1.642   0.288  2.1586  0.6554  1.1662
  931MPD2     N13679   0.936   1.857   0.662  0.4009  0.0024  0.5293
  931MPD2    H513680   0.966   1.775   0.714 -0.9444  1.0816  3.0307
  931MPD2    N113681   0.938   2.074   0.224  0.2452  0.4890  0.5984
  931MPD2    H713682   0.971   2.060   0.129 -0.1158  0.2303  0.5116
  932MPD2     C13683   2.338   1.463  11.826 -0.3016 -0.2877 -0.1345
  932MPD2    C113684   2.201   1.440  11.842 -0.8065 -0.7923  0.0217
  932MPD2    C213685   2.149   1.313  11.841  0.1735  0.4975  0.1200
  932MPD2    C313686   2.238   1.203  11.851  0.2373 -0.0528 -0.1732
  932MPD2    C413687   2.376   1.230  11.836 -0.1748  0.1244 -0.5416
  932MPD2    C513688   2.427   1.358  11.826 -1.0063 -0.5804  0.2845
  932MPD2     H13689   2.040   1.306  11.841  0.2826 -1.0137 -1.5367
  932MPD2    H113690   2.446   1.147  11.842  0.2653  0.4014 -1.8498
  932MPD2    H213691   2.378   1.563  11.840  2.4857 -1.3003 -0.8913
  932MPD2    H313692   2.534   1.370  11.829 -1.0195  0.4414 -2.7228
  932MPD2     N13693   2.182   1.074  11.878  0.3683 -0.4860 -0.2543
  932MPD2    H513694   2.085   1.075  11.907 -0.0410 -0.2780 -1.6616
  932MPD2    N113695   2.108   1.552  11.839 -1.0434 -1.0200  0.1787
  932MPD2    H713696   2.009   1.532  11.832 -0.3168 -3.4624 -2.9799
  933MPD2     C13697   2.320   1.343   1.218  0.0432 -0.1547  0.0521
  933MPD2    C113698   2.405   1.448   1.204  0.6410 -0.3877  0.3908
  933MPD2    C213699   2.447   1.494   1.077  0.0860 -0.1648  0.0246
  933MPD2    C313700   2.414   1.416   0.963 -0.2501  0.2220  0.2255
  933MPD2    C413701   2.335   1.304   0.981  0.6052  0.1203  0.1005
  933MPD2    C513702   2.288   1.269   1.104 -0.6547 -0.4995  0.2081
  933MPD2     H13703   2.521   1.573   1.068 -2.5670  2.1218 -1.2754
  933MPD2    H113704   2.309   1.235   0.901  0.8016 -1.1051  1.0853
  933MPD2    H213705   2.295   1.310   1.318  1.9915  1.1623  0.9806
  933MPD2    H313706   2.223   1.182   1.107  0.3098 -1.0965  3.7426
  933MPD2     N13707   2.478   1.454   0.839 -0.6738  0.0217  0.1643
  933MPD2    H513708   2.542   1.533   0.845 -0.3954 -0.1285 -0.8386
  933MPD2    N113709   2.452   1.506   1.326  0.1431  0.5296 -0.2787
  933MPD2    H713710   2.435   1.459   1.414 -1.3575  0.2987 -0.6891
  934MPD2     C13711   4.332   4.331   1.077  0.8535  0.0484  0.4864
  934MPD2    C113712   4.417   4.236   1.016 -0.0708  0.0591  0.8886
  934MPD2    C213713   4.355   4.144   0.935 -0.1548  0.1975 -0.6727
  934MPD2    C313714   4.219   4.137   0.907 -0.0375  0.3879  0.4467
  934MPD2    C413715   4.144   4.233   0.964 -0.0248  0.0932  0.8130
  934MPD2    C513716   4.197   4.322   1.052  0.0464 -0.7705  0.0649
  934MPD2     H13717   4.422   4.067   0.899  0.4131  0.9705 -1.2664
  934MPD2    H113718   4.039   4.229   0.941 -0.0588 -1.7764  1.3009
  934MPD2    H213719   4.370   4.410   1.141  1.6709 -0.2817  0.4117
  934MPD2    H313720   4.135   4.397   1.100 -0.3616 -1.0102 -0.0828
  934MPD2     N13721   4.147   4.037   0.838 -0.4890 -0.4576 -0.8107
  934MPD2    H513722   4.047   4.052   0.843 -0.4949 -0.5604 -0.6096
  934MPD2    N113723   4.548   4.219   1.049 -0.4340 -0.3585 -0.3381
  934MPD2    H713724   4.592   4.140   1.003  1.8993 -0.0304  1.3408
  935MPD2     C13725   4.540   3.134   0.701  0.4093  0.8618 -0.2741
  935MPD2    C113726   4.407   3.113   0.673  0.1901  0.0488  0.1400
  935MPD2    C213727   4.321   3.227   0.659  0.2108 -0.2430 -0.7640
  935MPD2    C313728   4.362   3.351   0.713 -0.3578 -0.5963 -0.2858
  935MPD2    C413729   4.492   3.359   0.749  0.2308  0.6989  0.3384
  935MPD2    C513730   4.577   3.258   0.740  0.4692 -0.4221 -0.2240
  935MPD2     H13731   4.216   3.208   0.642  0.3671 -0.1640 -1.8112
  935MPD2    H113732   4.531   3.456   0.779  0.3077  0.9005 -0.4203
  935MPD2    H213733   4.615   3.055   0.699 -2.1297 -1.6066  1.3882
  935MPD2    H313734   4.681   3.275   0.768  0.6313  1.6190 -2.0502
  935MPD2     N13735   4.286   3.475   0.712  0.5670 -0.2093  0.1080
  935MPD2    H513736   4.335   3.552   0.757 -3.2866  2.8343 -0.8000
  935MPD2    N113737   4.352   2.989   0.638 -0.1146 -0.4928  0.4563
  935MPD2    H713738   4.255   2.986   0.609  0.4730  1.4306 -1.7501
  936MPD2     C13739   2.414   0.015  12.179  0.5488 -0.4921 -0.3748
  936MPD2    C113740   2.464   4.693  12.298  0.8436  0.2401 -1.1631
  936MPD2    C213741   2.601   4.675  12.301 -0.5376 -0.8784 -0.6166
  936MPD2    C313742   2.684   4.715  12.199  0.3560  0.3157 -0.4045
  936MPD2    C413743   2.628   0.044  12.096 -0.5894 -0.3496 -0.6334
  936MPD2    C513744   2.501   0.059  12.084 -0.4343 -0.2080 -0.2101
  936MPD2     H13745   2.638   4.635  12.395 -0.5446  0.3823 -0.0676
  936MPD2    H113746   2.686   0.095  12.020  1.7135 -2.6001 -0.3670
  936MPD2    H213747   2.306   0.025  12.170  0.4128 -1.4452  0.1826
  936MPD2    H313748   2.459   0.109  11.998  1.7380 -0.9709 -1.6964
  936MPD2     N13749   2.821   4.691  12.213  0.0826  0.2940 -0.3880
  936MPD2    H513750   2.875   0.010  12.148  3.5957 -3.0898 -0.3210
  936MPD2    N113751   2.385   4.640  12.401  0.1221 -0.0922  0.4333
  936MPD2    H713752   2.434   4.621  12.487 -0.6787  1.5966  1.2566
  937MPD2     C13753   0.309   1.139  11.792  0.0969  0.3717  0.1047
  937MPD2    C113754   0.310   1.279  11.793  0.3291  0.1833  0.5394
  937MPD2    C213755   0.382   1.345  11.695  0.9628 -0.1596  0.3236
  937MPD2    C313756   0.431   1.277  11.590  0.6276  0.0050  0.8562
  937MPD2    C413757   0.417   1.134  11.590 -0.7139 -0.6838  0.9009
  937MPD2    C513758   0.361   1.066  11.689  0.8129 -0.1000 -0.5607
  937MPD2     H13759   0.386   1.453  11.705  0.8475 -0.0132 -1.2349
  937MPD2    H113760   0.452   1.073  11.507 -2.4480  1.1690 -1.1917
  937MPD2    H213761   0.275   1.077  11.874 -1.8867  0.4352 -0.6605
  937MPD2    H313762   0.361   0.958  11.696  2.3928 -0.0256  0.6375
  937MPD2     N13763   0.500   1.348  11.486 -0.7373 -0.2343  1.2693
  937MPD2    H513764   0.511   1.449  11.488 -0.4492 -0.2692  1.4003
  937MPD2    N113765   0.286   1.354  11.911 -0.3048  0.3579 -0.2137
  937MPD2    H713766   0.283   1.455  11.904 -0.7349  0.2902 -1.0440
  938MPD2     C13767   2.879   3.485   0.415 -0.0858 -0.0098 -0.0578
  938MPD2    C113768   2.999   3.507   0.477  0.4080 -0.2541  0.9437
  938MPD2    C213769   3.077   3.404   0.505  0.4222  0.3026  0.1936
  938MPD2    C313770   3.023   3.271   0.510 -0.6778 -0.4373  0.0348
  938MPD2    C413771   2.896   3.248   0.467 -0.9156 -0.0510 -0.1895
  938MPD2    C513772   2.818   3.358   0.430  0.5987  0.4706 -0.6800
  938MPD2     H13773   3.174   3.423   0.549  0.7992 -0.4655 -0.3105
  938MPD2    H113774   2.844   3.154   0.476 -1.8439  0.4862  0.0530
  938MPD2    H213775   2.822   3.561   0.363  0.6089  0.0254 -0.7557
  938MPD2    H313776   2.713   3.350   0.406 -0.0932 -1.3560  2.9348
  938MPD2     N13777   3.092   3.163   0.568 -0.3561 -0.5565  0.1953
  938MPD2    H513778   3.037   3.078   0.582 -2.3146  0.7154  0.1457
  938MPD2    N113779   3.049   3.637   0.482  0.5533  0.0229  0.0346
  938MPD2    H713780   3.151   3.643   0.488  0.4984  0.1302  0.8628
  939MPD2     C13781   4.262   3.960   0.386 -0.0238  0.0537 -0.0285
  939MPD2    C113782   4.384   3.966   0.334 -1.1306 -0.1563 -0.0569
  939MPD2    C213783   4.451   3.842   0.305 -0.4891  0.7074 -0.3249
  939MPD2    C313784   4.386   3.719   0.326 -0.0761  0.3552  0.2029
  939MPD2    C413785   4.254   3.724   0.368 -0.3114 -0.3941 -0.6674
  939MPD2    C513786   4.193   3.840   0.387 -0.4411  0.4106 -0.3822
  939MPD2     H13787   4.547   3.842   0.253  0.3496  0.8986  1.2185
  939MPD2    H113788   4.197   3.634   0.388 -0.4771  0.0338  0.7875
  939MPD2    H213789   4.204   4.047   0.415 -2.0469 -2.1848  2.6847
  939MPD2    H313790   4.092   3.829   0.424 -0.6772  1.8566 -0.6065
  939MPD2     N13791   4.449   3.592   0.305  0.7668 -0.2135 -0.3549
  939MPD2    H513792   4.543   3.593   0.268  0.5162  0.7380 -0.9704
  939MPD2    N113793   4.440   4.097   0.330  0.1082  0.4201 -0.4279
  939MPD2    H713794   4.395   4.181   0.365 -0.7528  0.5291 -1.8177
  940MPD2     C13795   3.432   4.677  13.210 -0.8854 -0.2220  1.2618
  940MPD2    C113796   3.390   4.565  13.268 -0.3014  0.1330  0.2529
  940MPD2    C213797   3.427   4.440  13.215 -0.1089  0.4161  0.1678
  940MPD2    C313798   3.503   4.434  13.097  0.7422  0.2409  0.6605
  940MPD2    C413799   3.552   4.553  13.045  0.6922 -0.2281 -0.5544
  940MPD2    C513800   3.518   4.671  13.099 -0.0870 -0.2657  0.3359
  940MPD2     H13801   3.385   4.348  13.253  0.9012 -0.1244 -0.0280
  940MPD2    H113802   3.627   4.561  12.966 -0.0162  2.9593 -0.8916
  940MPD2    H213803   3.394   0.036  13.244 -1.3455  0.2476 -0.5536
  940MPD2    H313804   3.547   0.025  13.045 -1.3163  0.2121  0.4652
  940MPD2     N13805   3.544   4.311  13.036  0.0586 -0.2111  0.2530
  940MPD2    H513806   3.610   4.313  12.959  0.6696  1.2961  0.7992
  940MPD2    N113807   3.340   4.553  13.401 -0.1128  0.2259 -0.2940
  940MPD2    H713808   3.313   4.458  13.424  1.3920 -0.1390 -0.0054
  941MPD2     C13809   2.468   3.851   9.817  0.8040 -0.1888 -0.1369
  941MPD2    C113810   2.519   3.786   9.924 -0.3075 -0.5262  0.1127
  941MPD2    C213811   2.508   3.648   9.931  0.1019 -0.3881  0.3577
  941MPD2    C313812   2.451   3.575   9.833 -0.0282 -0.2162 -0.2080
  941MPD2    C413813   2.398   3.639   9.721 -0.2287  0.4859 -0.9950
  941MPD2    C513814   2.402   3.775   9.726  0.1040  0.0560  0.4019
  941MPD2     H13815   2.546   3.599  10.020 -2.0835  1.1096  2.1457
  941MPD2    H113816   2.340   3.594   9.641 -2.3723 -1.4851  1.6634
  941MPD2    H213817   2.459   3.959   9.812  0.4976 -0.3833 -3.4721
  941MPD2    H313818   2.342   3.828   9.653  1.3700 -0.1480 -0.7807
  941MPD2     N13819   2.427   3.437   9.839 -0.0627  1.1368  0.0887
  941MPD2    H513820   2.392   3.396   9.753  0.4290  1.1138 -0.0978
  941MPD2    N113821   2.582   3.858  10.024  0.1545 -0.2188 -0.5228
  941MPD2    H713822   2.620   3.798  10.097 -0.9998 -0.5263 -0.1778
  942MPD2     C13823   2.276   1.630   9.488 -0.6017 -0.9907 -0.0652
  942MPD2    C113824   2.260   1.580   9.612 -0.0180 -0.8817 -0.0296
  942MPD2    C213825   2.366   1.523   9.682 -0.1593  0.3854  0.3659
  942MPD2    C313826   2.489   1.503   9.625  0.1943 -0.2596  0.5636
  942MPD2    C413827   2.500   1.549   9.495 -0.1501 -0.5702  0.1072
  942MPD2    C513828   2.402   1.614   9.428 -0.2675  0.0972 -0.6409
  942MPD2     H13829   2.349   1.470   9.776 -2.1838 -0.4336 -0.4587
  942MPD2    H113830   2.594   1.549   9.441  0.1888 -0.0620  0.7115
  942MPD2    H213831   2.209   1.692   9.430 -0.2616 -1.1886 -0.6681
  942MPD2    H313832   2.415   1.649   9.326  0.2080  3.0025  0.4186
  942MPD2     N13833   2.608   1.456   9.690  0.9908  0.0866 -0.1573
  942MPD2    H513834   2.691   1.438   9.634 -1.7596 -1.6804 -3.6664
  942MPD2    N113835   2.132   1.582   9.679 -0.0001 -1.1577  0.0756
  942MPD2    H713836   2.129   1.545   9.773  0.4056 -3.0940 -0.6704
  943MPD2     C13837   1.226   3.775  10.388  0.0380  0.2406 -0.1808
  943MPD2    C113838   1.131   3.684  10.418 -0.6450  0.9269 -0.1949
  943MPD2    C213839   1.083   3.674  10.543 -0.5307 -0.0651  0.8576
  943MPD2    C313840   1.127   3.768  10.641  0.4721  0.1147 -0.8611
  943MPD2    C413841   1.218   3.864  10.612 -0.3719 -0.3729 -0.7029
  943MPD2    C513842   1.267   3.870  10.482  0.2364 -1.1946  0.0993
  943MPD2     H13843   1.014   3.593  10.561 -0.4840 -0.6220 -1.5275
  943MPD2    H113844   1.229   3.931  10.696  0.9757  0.0180 -1.1930
  943MPD2    H213845   1.267   3.787  10.288  0.8202  0.0094  0.1148
  943MPD2    H313846   1.332   3.951  10.451  0.3450 -1.0803  0.6116
  943MPD2     N13847   1.080   3.762  10.773  0.1523  0.1845 -0.0021
  943MPD2    H513848   1.127   3.831  10.831  1.0669  1.3594 -2.1857
  943MPD2    N113849   1.112   3.592  10.311  0.0859 -0.3353  0.0783
  943MPD2    H713850   1.175   3.604  10.233 -1.0610  0.2991 -0.7358
  944MPD2     C13851   0.678   2.802  11.211  0.1017  0.0763 -0.0203
  944MPD2    C113852   0.774   2.904  11.236  0.1847  0.3706 -0.8137
  944MPD2    C213853   0.735   3.012  11.317 -0.7580 -0.0195 -0.2594
  944MPD2    C313854   0.615   3.018  11.371 -0.1025  0.7320 -0.4446
  944MPD2    C413855   0.520   2.912  11.349 -0.4602 -0.0271 -0.1430
  944MPD2    C513856   0.555   2.808  11.275  0.4210  0.1742 -0.3764
  944MPD2     H13857   0.806   3.089  11.344  0.2920 -0.3566 -2.0701
  944MPD2    H113858   0.423   2.912  11.398 -0.7378  0.2984 -0.6947
  944MPD2    H213859   0.697   2.714  11.151  2.0693 -0.3922  1.2819
  944MPD2    H313860   0.485   2.727  11.261  0.9718 -1.1655  4.6951
  944MPD2     N13861   0.580   3.138  11.440 -0.1580 -0.2157  0.4180
  944MPD2    H513862   0.655   3.205  11.456 -1.3873  1.0470  0.8229
  944MPD2    N113863   0.906   2.906  11.196 -0.5416  0.4207  0.0560
  944MPD2    H713864   0.960   2.991  11.210 -0.0295  0.1735 -0.3713
    1TMC1    C113865   4.187   3.409  14.477  0.3407 -0.4283 -0.7979
    1TMC1    C213866   4.067   3.455  14.434  0.2612  0.1793  0.5808
    1TMC1    C313867   3.960   3.373  14.470 -0.2130 -0.1953  0.4761
    1TMC1    C413868   4.206   3.286  14.539 -0.0626  0.6087  0.6362
    1TMC1    C513869   4.095   3.211  14.558 -0.3232  0.0599 -0.0925
    1TMC1    C613870   3.970   3.248  14.522 -0.0618 -0.5174 -0.8124
    1TMC1     C13871   4.305   3.482  14.451 -0.1272 -0.4724 -0.1441
    1TMC1     O13872   4.413   3.435  14.491  0.0124  0.3920  0.1253
    1TMC1     H13873   4.042   3.546  14.381  0.9792 -0.3753 -0.7043
    1TMC1    H113874   4.306   3.251  14.564 -1.4344 -2.3375  1.9687
    1TMC1    H213875   3.879   3.197  14.553 -0.1454 -1.2232 -2.2141
    1TMC1    C713876   4.128   3.080  14.609 -0.4137 -0.0061 -0.1434
    1TMC1    C813877   3.824   3.408  14.432  0.1890 -0.0286  0.6869
    1TMC1    O113878   4.232   3.064  14.670 -0.2951  0.0857  0.4626
    1TMC1    O213879   3.737   3.329  14.397  0.1475  0.2558  0.3091
    1TMC1    O313880   4.010   3.031  14.635  0.4296  0.6301  0.5654
    1TMC1    H313881   3.959   3.011  14.554  1.3938 -2.2954  0.6668
    1TMC1    O513882   3.804   3.541  14.416 -0.5104 -0.5222 -0.1305
    1TMC1    H513883   3.869   3.603  14.455  1.7314 -2.4561 -0.8372
    2MPD2     C13884   4.490   3.955  14.411  0.0465 -0.0922  0.6198
    2MPD2    C113885   4.367   3.949  14.350 -0.5838  0.1220  0.1401
    2MPD2    C213886   4.306   3.824  14.344 -0.0807  0.8348 -0.1569
    2MPD2    C313887   4.361   3.718  14.407  0.3456  0.4674  0.7504
    2MPD2    C413888   4.480   3.719  14.472 -0.0211 -0.5263  0.5518
    2MPD2    C513889   4.539   3.837  14.466  0.6806 -0.5147  0.0535
    2MPD2     H13890   4.206   3.816  14.301 -0.8393 -0.5546  1.9069
    2MPD2    H113891   4.525   3.641  14.532 -0.6213 -0.2091  1.4264
    2MPD2    H213892   4.547   4.047  14.410 -1.0259  0.5683 -0.3873
    2MPD2    H313893   4.638   3.847  14.509  0.9884  1.0283 -1.0050
    2MPD2     N13894   4.284   3.600  14.386  0.4236 -0.1326  0.7535
    2MPD2    H513895   4.190   3.610  14.349  1.5314  0.2875 -1.9026
    2MPD2    N113896   4.311   4.060  14.281  0.0375  0.6486 -0.2890
    2MPD2    H713897   4.369   4.143  14.272  1.0714 -0.3052 -2.4723
    3TMC2    C113898   4.165   4.191  14.151 -0.6602  0.3302  0.0664
    3TMC2    C213899   4.157   4.304  14.228 -0.2582  0.2862  0.3419
    3TMC2    C313900   4.071   4.405  14.182  0.4855 -0.3129 -0.0338
    3TMC2    C413901   4.086   4.169  14.048 -0.7021  0.0826 -0.0329
    3TMC2    C513902   4.005   4.270  14.007  0.5109  0.4167 -0.5314
    3TMC2    C613903   4.001   4.389  14.072  0.0167  0.1751  0.0213
    3TMC2     C13904   4.185   4.069  14.222 -0.5417 -0.8551  0.2662
    3TMC2     O13905   4.087   3.998  14.235 -0.4544 -0.9987  0.2949
    3TMC2     H13906   4.225   4.321  14.310  0.2926 -0.0171 -0.0490
    3TMC2    H113907   4.100   4.081  13.987  2.6013 -0.7372  1.9199
    3TMC2    H213908   3.923   4.462  14.051 -0.5450 -0.4507 -0.0689
    3TMC2    C713909   3.930   4.243  13.881 -0.0254 -0.4791 -0.1015
    3TMC2    C813910   4.075   4.512  14.275 -0.1197  0.8370  1.0753
    3TMC2    O113911   3.913   4.123  13.847  0.8038 -0.3244  0.4198
    3TMC2    O213912   4.128   4.508  14.387  0.2406  0.2522 -0.4742
    3TMC2    O513913   4.025   4.620  14.217 -0.4178 -0.5063  0.2967
    3TMC2    H513914   4.006   4.609  14.122 -0.8100 -1.7494  0.5075
    4TMC2    C113915   3.547   0.323  13.522 -0.3836 -0.2674 -0.1858
    4TMC2    C213916   3.517   0.341  13.385  0.5089 -0.6824 -0.4990
    4TMC2    C313917   3.610   0.277  13.313 -0.3298 -0.1223  0.2373
    4TMC2    C413918   3.630   0.230  13.575 -0.2681 -0.6171 -0.0690
    4TMC2    C513919   3.686   0.148  13.481  0.7020  0.0880  0.7595
    4TMC2    C613920   3.676   0.164  13.347  0.5180 -0.4114 -0.5186
    4TMC2     C13921   3.465   0.392  13.623  0.1627  0.4545 -0.6090
    4TMC2     O13922   3.510   0.399  13.735  0.0565  0.3771 -0.2149
    4TMC2     H13923   3.471   0.435  13.358 -1.4722 -1.5913 -0.3093
    4TMC2    H113924   3.633   0.213  13.682  3.5934  0.3194 -0.0272
    4TMC2    H213925   3.717   0.087  13.282  0.4488 -0.3694 -0.6114
    4TMC2    C713926   3.740   0.031  13.541  0.9365  0.0117 -0.5221
    4TMC2    C813927   3.596   0.270  13.165 -0.5002 -0.4728 -0.7318
    4TMC2    O113928   3.788   0.037  13.653  0.3561 -0.1025 -0.4432
    4TMC2    O213929   3.672   0.218  13.085 -0.0884  0.4387  0.3848
    4TMC2    O513930   3.467   0.287  13.137  0.4641 -0.2285  0.5222
    4TMC2    H513931   3.417   0.328  13.211 -0.9015 -2.6352  0.9539
    5MPD2     C13932   2.987   0.478  13.798 -0.6487  0.2528  0.4636
    5MPD2    C113933   2.985   0.486  13.659 -0.0379 -0.8193  0.2628
    5MPD2    C213934   3.102   0.469  13.588 -0.1925 -0.1443  0.3315
    5MPD2    C313935   3.223   0.434  13.654  1.0854  0.3106  0.3643
    5MPD2    C413936   3.219   0.434  13.792  0.3926 -0.3541 -0.3323
    5MPD2    C513937   3.101   0.443  13.863  0.2205 -0.1060  0.0550
    5MPD2     H13938   3.097   0.493  13.482 -0.9652  1.8160  0.8246
    5MPD2    H113939   3.304   0.409  13.853  0.9403 -0.9970 -1.3520
    5MPD2    H213940   2.900   0.497  13.860 -1.1303  0.7382 -0.3706
    5MPD2    H313941   3.105   0.435  13.971  2.9544  0.5996  0.0243
    5MPD2     N13942   3.341   0.411  13.572 -0.5120  0.1929 -0.5878
    5MPD2    H513943   3.329   0.398  13.472 -0.2197  0.2987 -0.6357
    5MPD2    N113944   2.858   0.531  13.611 -0.0710  0.2392 -0.1862
    5MPD2    H713945   2.780   0.511  13.674  0.1382 -3.0433 -0.9588
    6MPD1     C13946   2.067   2.196  12.886  0.3668 -0.6593 -0.3265
    6MPD1    C113947   1.967   2.119  12.937  0.2570 -0.2651  0.1920
    6MPD1    C213948   1.999   1.991  12.970 -0.2424 -0.0407  0.2700
    6MPD1    C313949   2.126   1.941  12.965  0.2058 -0.8913  0.4556
    6MPD1    C413950   2.224   2.016  12.901  0.1727 -0.1490  0.6760
    6MPD1    C513951   2.188   2.142  12.862 -0.9817 -0.3362  0.0604
    6MPD1     H13952   1.923   1.929  13.016 -1.6725 -0.6365 -2.8823
    6MPD1    H113953   2.322   1.975  12.878  0.9912  2.6074 -0.6446
    6MPD1    H213954   2.050   2.299  12.859  2.0860 -0.2753  0.0690
    6MPD1    H313955   2.259   2.212  12.819 -0.6253 -1.4862 -1.2100
    6MPD1     N13956   2.155   1.805  12.981 -1.0960 -0.2439  0.6449
    6MPD1    H513957   2.248   1.778  12.952 -1.5602 -0.4915 -0.6305
    6MPD1    N113958   1.832   2.160  12.945 -0.0450 -0.3606 -0.0259
    6MPD1    H613959   1.826   2.260  12.964 -1.7433 -0.3998 -0.3002
    6MPD1    H713960   1.778   2.116  13.019 -1.6858  0.9225 -0.4608
    7MPD2     C13961   2.201   1.253  13.627 -0.1364 -0.2878  0.6379
    7MPD2    C113962   2.211   1.193  13.503 -0.6827 -0.4679 -0.6046
    7MPD2    C213963   2.275   1.079  13.487 -0.4425 -0.4204 -0.5523
    7MPD2    C313964   2.329   1.009  13.590 -0.0482  0.4012  0.1115
    7MPD2    C413965   2.302   1.052  13.720  0.4956  0.8163  0.1886
    7MPD2    C513966   2.225   1.166  13.727 -0.0703 -0.3611  0.2873
    7MPD2     H13967   2.284   1.035  13.388  0.1345 -0.6580 -0.3927
    7MPD2    H113968   2.332   1.002  13.812  1.8851  1.7627  0.2539
    7MPD2    H213969   2.156   1.350  13.644  1.1918  0.1299  1.7363
    7MPD2    H313970   2.202   1.203  13.827 -0.0480  4.4280 -1.4693
    7MPD2     N13971   2.391   0.895  13.554  0.1306 -0.1750 -0.0643
    7MPD2    H513972   2.394   0.874  13.455  0.3942  1.2504 -0.3589
    7MPD2    N113973   2.168   1.249  13.384 -0.7550 -0.4130  0.2085
    7MPD2    H713974   2.162   1.184  13.306  1.3229  1.0440 -1.1712
    8TMC3    C113975   2.498   0.688  13.560 -0.4745 -0.2282 -0.8349
    8TMC3    C213976   2.632   0.660  13.579 -0.2987 -0.7387 -0.0387
    8TMC3    C313977   2.704   0.625  13.467  0.4304  0.0432  0.8561
    8TMC3    C413978   2.441   0.680  13.433 -0.0476  0.5808  0.3007
    8TMC3    C513979   2.524   0.670  13.328 -0.1285  0.4658  0.3802
    8TMC3    C613980   2.654   0.632  13.341 -0.6521  0.3825  0.4081
    8TMC3     C13981   2.446   0.800  13.636  0.3479  0.2927 -0.3769
    8TMC3     O13982   2.489   0.810  13.751  0.2408 -0.3248  0.5651
    8TMC3     H13983   2.676   0.664  13.678  1.7611  0.3039 -0.9846
    8TMC3    H113984   2.337   0.702  13.414  0.4632  2.7934  0.0444
    8TMC3    H213985   2.716   0.631  13.251 -0.6513 -2.6167  0.4443
    8TMC3    C713986   2.498   0.787  13.244 -0.2334  0.0731 -0.0529
    8TMC3    C813987   2.834   0.569  13.480  0.1936 -0.5859 -0.3115
    8TMC3    O113988   2.404   0.855  13.280  0.1323  0.3105 -0.5666
    8TMC3    O213989   2.906   0.572  13.382 -0.0848  0.2420 -0.2008
    9TMC3    C113990   2.140   1.591  13.072 -0.6003  0.3682  0.3552
    9TMC3    C213991   2.240   1.532  12.996 -0.0792  0.2958 -0.1866
    9TMC3    C313992   2.283   1.408  13.036 -0.5857  0.5112  0.3439
    9TMC3    C413993   2.092   1.529  13.189  0.0114 -0.2105 -0.2577
    9TMC3    C513994   2.148   1.412  13.221  0.4679 -0.9818 -0.5142
    9TMC3    C613995   2.239   1.346  13.151  0.4291  0.4125 -0.6524
    9TMC3     C13996   2.076   1.717  13.050  0.0868 -0.3935 -0.0108
    9TMC3     O13997   1.976   1.750  13.113 -0.2943  0.3899 -0.3832
    9TMC3     H13998   2.274   1.580  12.905 -1.2353  1.0485 -0.2199
    9TMC3    H113999   2.024   1.574  13.260 -0.6735 -1.1314 -0.3266
    9TMC3    H214000   2.276   1.251  13.186  2.7588  1.7189  0.4471
    9TMC3    C714001   2.121   1.373  13.355 -0.2875  1.3595  0.2058
    9TMC3    C814002   2.376   1.335  12.950 -0.6558  0.1168  0.2764
    9TMC3    O114003   2.087   1.455  13.439 -0.2806  0.6338  0.0796
    9TMC3    O214004   2.385   1.372  12.833 -0.2631  0.0679 -0.3465
   10MPD2     C14005   2.573   0.872  12.888 -0.1450 -0.1568 -0.3405
   10MPD2    C114006   2.540   0.887  13.024 -0.0253  0.4560 -0.7791
   10MPD2    C214007   2.490   1.011  13.060 -0.4361 -0.5703  0.2067
   10MPD2    C314008   2.476   1.109  12.958  0.5230 -0.0214  1.1820
   10MPD2    C414009   2.505   1.092  12.824 -0.5980  0.3857  0.2218
   10MPD2    C514010   2.555   0.970  12.790 -0.0006 -0.1831 -0.2321
   10MPD2     H14011   2.460   1.038  13.161  1.0271 -0.3723  0.5846
   10MPD2    H114012   2.492   1.175  12.756  1.6012 -0.6431 -1.4718
   10MPD2    H214013   2.612   0.780  12.844  1.2688  0.2095  0.1399
   10MPD2    H314014   2.576   0.939  12.688 -1.3324 -2.9707  0.3419
   10MPD2     N14015   2.431   1.231  13.015 -0.3752 -0.0537 -0.0206
   10MPD2    H514016   2.422   1.232  13.116 -0.2974 -1.0853 -0.0037
   10MPD2    N114017   2.560   0.782  13.123 -0.5442 -0.4298  0.7136
   10MPD2    H714018   2.603   0.696  13.090 -1.6097 -0.9600  0.6821
   11MPD2     C14019   3.766   4.269  13.630 -0.5595  0.2654 -0.0712
   11MPD2    C114020   3.828   4.375  13.694  0.2811 -0.4548  0.2390
   11MPD2    C214021   3.813   4.499  13.639 -0.0333 -0.6694  0.2629
   11MPD2    C314022   3.725   4.530  13.533  0.3867  0.1911  0.3827
   11MPD2    C414023   3.662   4.421  13.478 -0.2948  0.5039 -0.4262
   11MPD2    C514024   3.685   4.289  13.522  0.1743  0.1295 -0.1678
   11MPD2     H14025   3.871   4.577  13.689 -0.1786  0.1775 -0.8943
   11MPD2    H114026   3.601   4.437  13.390  0.3968 -0.6708 -1.1192
   11MPD2    H214027   3.770   4.165  13.661  1.6680  0.1714 -0.6646
   11MPD2    H314028   3.633   4.203  13.482  2.4122 -1.4572  0.3512
   11MPD2     N14029   3.710   4.657  13.471  0.3613 -0.2259  0.2907
   11MPD2    H514030   3.663   4.663  13.381  1.4408  2.3046 -0.1135
   11MPD2    N114031   3.906   4.361  13.812  0.6636 -0.1737 -0.3758
   11MPD2    H714032   3.944   4.448  13.849  0.9445 -0.7278  0.6563
    1MPD1     C14033   1.273   1.692  17.182 -0.6763  0.1071 -0.9925
    1MPD1    C114034   1.265   1.573  17.251  0.1881 -1.0814  0.0731
    1MPD1    C214035   1.376   1.497  17.254  0.1269 -0.3546 -0.5286
    1MPD1    C314036   1.495   1.537  17.184  0.1635  0.0924  0.0749
    1MPD1    C414037   1.498   1.657  17.121  0.6969 -0.5033  0.2860
    1MPD1    C514038   1.389   1.741  17.125  0.0743  0.3253  0.1366
    1MPD1     H14039   1.368   1.395  17.289 -1.0582  0.3360  1.2131
    1MPD1    H114040   1.588   1.689  17.070  2.0854 -1.5042  2.1193
    1MPD1    H214041   1.181   1.745  17.159 -1.2727  0.0750  1.3096
    1MPD1    H314042   1.390   1.834  17.069  0.6382 -0.3176 -0.9097
    1MPD1     N14043   1.596   1.448  17.162  0.0744  0.2406  0.3197
    1MPD1    H514044   1.672   1.474  17.098  0.0507  1.5824  0.8361
    1MPD1    N114045   1.141   1.523  17.286 -0.2426 -0.1622  0.1129
    1MPD1    H614046   1.151   1.473  17.375  0.5854 -1.0803 -0.4905
    1MPD1    H714047   1.078   1.602  17.298 -0.6471 -0.3445 -0.8815
    2MPD1     C14048   2.390   0.851  17.565  0.2883 -0.5156  0.2300
    2MPD1    C114049   2.443   0.920  17.455  0.7013  0.0540  0.4565
    2MPD1    C214050   2.360   1.000  17.380 -0.9355 -0.7826  0.0551
    2MPD1    C314051   2.219   0.984  17.399 -0.1173 -0.2580 -0.2233
    2MPD1    C414052   2.174   0.902  17.493 -0.6040  0.3170 -0.1867
    2MPD1    C514053   2.257   0.840  17.577  0.1128  0.2811  0.3191
    2MPD1     H14054   2.403   1.065  17.304 -2.0965  0.9351  0.8621
    2MPD1    H114055   2.067   0.886  17.502 -0.2168 -1.4999  0.9160
    2MPD1    H214056   2.450   0.796  17.637 -0.2811  0.1927  1.2315
    2MPD1    H314057   2.221   0.778  17.659 -0.0990 -1.6465 -1.2378
    2MPD1     N14058   2.135   1.067  17.316  0.0286  0.2173 -0.0429
    2MPD1    H514059   2.170   1.133  17.247  0.1100 -1.8836 -2.0106
    2MPD1    N114060   2.581   0.929  17.445  0.1650  0.3828  0.4794
    2MPD1    H614061   2.602   0.941  17.346 -0.7675  1.1203  0.3725
    2MPD1    H714062   2.616   0.833  17.443 -1.8820 -0.3441 -0.2707
    3TMC3    C114063   1.942   1.156  17.234 -0.1354 -0.0013 -0.9606
    3TMC3    C214064   1.986   1.166  17.100 -0.2870 -0.0973 -0.0268
    3TMC3    C314065   1.906   1.231  17.015  0.9005 -0.3738  0.7716
    3TMC3    C414066   1.817   1.201  17.268  0.2332  0.6827  0.1752
    3TMC3    C514067   1.736   1.261  17.176  0.0235 -0.0691 -0.7062
    3TMC3    C614068   1.786   1.284  17.048 -0.0263  0.3313 -0.7934
    3TMC3     C14069   1.998   1.068  17.325 -0.5810 -0.5395  0.0386
    3TMC3     O14070   1.918   1.008  17.399  0.2284 -0.4196  0.3244
    3TMC3     H14071   2.076   1.116  17.066 -0.4099 -0.9150  0.8594
    3TMC3    H114072   1.792   1.199  17.374  2.1251 -1.0834  0.5800
    3TMC3    H214073   1.733   1.338  16.971  0.0912  0.1200 -1.0208
    3TMC3    C714074   1.617   1.327  17.228  0.9034  0.6738 -0.3891
    3TMC3    C814075   1.944   1.251  16.872  0.1700 -0.8614 -0.0144
    3TMC3    O114076   1.564   1.276  17.326  0.4082 -0.2497  0.0473
    3TMC3    O214077   1.852   1.261  16.789  0.2389 -0.1397 -0.0267
    4MPD1     C14078   2.281   1.291  16.488  0.1952 -0.1274  0.0102
    4MPD1    C114079   2.347   1.302  16.607 -0.0023 -0.2794 -0.3408
    4MPD1    C214080   2.279   1.285  16.719  0.0443  0.0230 -0.4677
    4MPD1    C314081   2.143   1.260  16.720 -0.1214  0.7148 -0.6941
    4MPD1    C414082   2.075   1.249  16.609 -0.0623 -0.3602  1.0779
    4MPD1    C514083   2.144   1.283  16.495 -0.3471  0.7588  0.4774
    4MPD1     H14084   2.338   1.292  16.810 -4.4763  2.8434  2.2602
    4MPD1    H114085   1.968   1.251  16.593  0.1637 -2.6901 -0.6786
    4MPD1    H214086   2.325   1.307  16.390  0.4979 -0.8061  0.0362
    4MPD1    H314087   2.088   1.294  16.403 -0.6958 -2.3435  0.3281
    4MPD1     N14088   2.081   1.242  16.851 -0.0591 -0.5992  0.2181
    4MPD1    H514089   2.139   1.231  16.933 -1.3509 -3.3132  0.7599
    4MPD1    N114090   2.487   1.291  16.606 -0.0241 -0.3796  0.3277
    4MPD1    H614091   2.529   1.337  16.526 -0.3458  0.0575  0.4103
    4MPD1    H714092   2.528   1.324  16.693  0.6029  0.6641 -0.3685
    1TCq1    O114093   2.307   0.306  12.583 -0.0169 -0.6966  0.6040
    1TCq1    C114094   2.412   0.355  12.509  0.8858 -0.3464 -0.3402
    1TCq1    O214095   2.397   0.418  12.403  0.7986 -0.0566  0.4106
    1TCq1    C214096   2.525   0.269  12.539 -0.2677  0.8240  0.1597
    1TCq1    C314097   2.558   0.257  12.669 -0.6969  0.4152 -0.4173
    1TCq1    C414098   2.685   0.216  12.699 -0.1611 -0.2440  0.4705
    1TCq1    C514099   2.778   0.227  12.598 -0.7691 -0.4371 -0.0174
    1TCq1    C614100   2.747   0.255  12.466  0.8161 -0.5437 -0.0997
    1TCq1    C714101   2.614   0.260  12.435  0.0517  0.5187  0.4467
    1TCq1    C814102   2.846   0.297  12.370  0.0903 -0.0817 -0.3130
    1TCq1    O414103   2.807   0.317  12.254 -0.0051 -0.3163 -0.0499
    1TCq1    C914104   2.740   0.224  12.833  0.5496  0.6576 -0.0597
    1TCq1    O514105   2.652   0.246  12.923 -0.0637  0.6394  0.5409
    1TCq1    O614106   2.864   0.212  12.853  0.1203 -0.2328  0.6376
    1TCq1    H114107   2.344   0.236  12.640  1.5144 -0.9476 -0.7114
    1TCq1    H214108   2.499   0.302  12.748 -1.1653  1.6103 -1.4500
    1TCq1    H314109   2.881   0.238  12.630 -0.7249 -0.4016 -0.1751
    1TCq1    H414110   2.584   0.273  12.331  0.6743 -1.4806  0.0056
    2MPD1     C14111   3.291   0.530  12.297  0.2182 -0.0958  0.3810
    2MPD1    C114112   3.282   0.484  12.429  0.1551 -0.3573  0.4465
    2MPD1    C214113   3.178   0.410  12.463 -0.3904  0.5409  0.5296
    2MPD1    C314114   3.080   0.377  12.375  0.8580 -0.7753  0.3107
    2MPD1    C414115   3.092   0.420  12.248  0.2265 -0.9886 -0.3018
    2MPD1    C514116   3.202   0.493  12.206  0.3033  0.3492  0.4062
    2MPD1     H14117   3.165   0.379  12.566 -0.8881 -0.2762  0.2213
    2MPD1    H114118   3.007   0.405  12.183 -0.1680 -0.4121  0.0793
    2MPD1    H214119   3.371   0.594  12.263  0.6347 -0.8382 -0.0430
    2MPD1    H314120   3.216   0.528  12.104  1.8016 -2.2137 -0.2500
    2MPD1     N14121   2.965   0.311  12.428  0.6858 -0.2661 -0.2493
    2MPD1    H514122   2.971   0.287  12.527  3.6509  0.4415 -0.2485
    2MPD1    N114123   3.373   0.523  12.532 -0.0181  0.2607 -0.3958
    2MPD1    H614124   3.470   0.544  12.507 -0.0872  0.2908 -0.6350
    2MPD1    H714125   3.377   0.447  12.600 -0.9152 -0.2319 -0.8847
    1TMC1    C114126   0.415   0.877   1.529 -0.0529 -0.4717  0.4341
    1TMC1    C214127   0.389   0.794   1.631 -0.8116 -0.5137  0.2127
    1TMC1    C314128   0.308   0.833   1.726  0.7029 -0.3185  0.8140
    1TMC1    C414129   0.352   0.998   1.515  0.4660 -1.5684 -0.3876
    1TMC1    C514130   0.260   1.035   1.618 -0.2126 -0.0057  0.0257
    1TMC1    C614131   0.238   0.950   1.725 -0.4082  0.7942 -0.1365
    1TMC1     C14132   0.522   0.846   1.434  0.4716 -0.1290 -0.5769
    1TMC1     O14133   0.530   0.907   1.324 -0.2450  0.3278 -0.3137
    1TMC1     H14134   0.421   0.690   1.628 -1.3116 -0.6483 -0.3315
    1TMC1    H114135   0.352   1.053   1.421  2.4585 -1.7598 -0.4888
    1TMC1    H214136   0.168   0.973   1.804  1.7758  3.1729  1.0905
    1TMC1    C714137   0.162   1.139   1.584  0.3086  0.5127 -0.2562
    1TMC1    C814138   0.304   0.753   1.847 -0.4062  0.0304 -0.7660
    1TMC1    O114139   0.194   1.224   1.496  0.2739  0.8609  0.2888
    1TMC1    O214140   0.345   0.638   1.860 -0.1656 -0.0520 -0.6536
    1TMC1    O314141   0.035   1.105   1.617  0.3863  0.8212 -0.1759
    1TMC1    H314142   0.020   1.044   1.692  1.5011 -0.1614 -0.7535
    1TMC1    O514143   0.313   0.844   1.946  0.3667 -0.3791 -0.0029
    1TMC1    H514144   0.309   0.940   1.925 -2.2371 -0.5707 -0.4295
    2MPD1     C14145   0.934   0.570   1.302  0.1658 -0.7087  0.2851
    2MPD1    C114146   0.886   0.519   1.422 -0.7430  0.2188 -0.3992
    2MPD1    C214147   0.770   0.573   1.472 -0.4976  0.2866 -0.0807
    2MPD1    C314148   0.705   0.683   1.413  1.0603  0.7115 -0.4583
    2MPD1    C414149   0.767   0.749   1.316  0.2354  0.0702  0.2122
    2MPD1    C514150   0.870   0.679   1.251 -0.0533  0.3964 -0.0371
    2MPD1     H14151   0.727   0.534   1.564 -1.7631  2.0510  0.0810
    2MPD1    H114152   0.728   0.842   1.278  0.3038  1.5434  3.7585
    2MPD1    H214153   1.023   0.526   1.259 -1.6287 -2.9055 -1.1759
    2MPD1    H314154   0.914   0.729   1.166 -1.8295  1.6438 -0.2142
    2MPD1     N14155   0.597   0.742   1.483  0.4030 -0.0211 -0.3229
    2MPD1    H514156   0.578   0.705   1.576 -1.3616  2.7260  0.4208
    2MPD1    N114157   0.938   0.401   1.472  0.4556 -0.4325  0.3512
    2MPD1    H614158   1.039   0.388   1.465  0.2583 -1.1548 -1.2180
    2MPD1    H714159   0.921   0.389   1.572 -0.4023  1.4719  0.4214
    1MPD1     C14160   3.925   1.437  11.739 -0.4779  0.0249 -1.0950
    1MPD1    C114161   3.948   1.573  11.740 -0.0800 -0.3669 -0.0030
    1MPD1    C214162   4.033   1.618  11.843  0.1751 -0.6906  0.2612
    1MPD1    C314163   4.066   1.530  11.946  0.1219 -0.7575 -0.3074
    1MPD1    C414164   4.024   1.398  11.946 -0.7069 -0.2870  0.0746
    1MPD1    C514165   3.950   1.355  11.844 -0.0722  0.4655  1.0317
    1MPD1     H14166   4.077   1.718  11.845  0.6060 -0.9193  2.0944
    1MPD1    H114167   4.038   1.322  12.023  0.6670 -0.7006 -0.5816
    1MPD1    H214168   3.868   1.394  11.657 -3.0506  2.7737 -0.7568
    1MPD1    H314169   3.907   1.257  11.853  0.7900 -0.1846 -1.9828
    1MPD1     N14170   4.158   1.578  12.043 -0.3871 -0.1503  0.4981
    1MPD1    H514171   4.203   1.665  12.013  1.5456 -0.2553  3.0600
    1MPD1    N114172   3.913   1.641  11.625 -0.2473 -0.3056  0.8846
    1MPD1    H614173   3.900   1.739  11.649 -2.5132  0.2514 -2.6796
    1MPD1    H714174   3.827   1.603  11.586 -0.5089  2.0216 -0.7759
    2MPD1     C14175   3.257   2.019  10.732 -0.7682 -0.4591  0.7762
    2MPD1    C114176   3.278   1.913  10.811  0.1201 -0.3080  0.1206
    2MPD1    C214177   3.380   1.824  10.791 -0.9111  0.4643  0.2147
    2MPD1    C314178   3.481   1.857  10.707 -0.2024 -1.1300  0.1321
    2MPD1    C414179   3.469   1.974  10.635  0.5301  0.1213 -0.6758
    2MPD1    C514180   3.353   2.049  10.643 -0.1119  0.1400  0.5099
    2MPD1     H14181   3.368   1.725  10.836 -1.8804 -0.0067 -1.0879
    2MPD1    H114182   3.556   2.011  10.583  0.0303  2.6138  0.2557
    2MPD1    H214183   3.175   2.090  10.737 -0.5036 -0.2730  2.4054
    2MPD1    H314184   3.354   2.142  10.588 -1.5976  0.5721  1.2177
    2MPD1     N14185   3.602   1.787  10.693 -0.2954  0.5361  0.0325
    2MPD1    H514186   3.669   1.808  10.621  0.3957 -2.3281 -0.1386
    2MPD1    N114187   3.163   1.873  10.895  0.3270 -0.1961  0.3103
    2MPD1    H614188   3.101   1.950  10.917  0.8321 -0.3193  2.1282
    2MPD1    H714189   3.190   1.834  10.985  0.0105 -0.3619  0.3329
    3MPD1     C14190   4.073   1.829  10.025  0.1160 -0.1600 -0.3670
    3MPD1    C114191   3.979   1.908  10.087  0.4092 -0.3958  0.1058
    3MPD1    C214192   3.928   1.852  10.201  0.6695  0.0654 -0.3075
    3MPD1    C314193   3.969   1.726  10.257 -0.3076 -0.7172  0.2105
    3MPD1    C414194   4.055   1.651  10.182 -0.2542  0.2997 -0.8233
    3MPD1    C514195   4.117   1.708  10.073 -0.1250  0.5429  0.5841
    3MPD1     H14196   3.847   1.903  10.252  0.6754  0.1824 -0.4143
    3MPD1    H114197   4.092   1.551  10.202 -1.0588  0.5434  1.8982
    3MPD1    H214198   4.108   1.855   9.926 -1.5213  1.2636 -0.5619
    3MPD1    H314199   4.175   1.640  10.013 -0.9870  1.9340 -1.8285
    3MPD1     N14200   3.917   1.680  10.382  0.0708  0.2471 -0.5272
    3MPD1    H514201   3.881   1.751  10.446  1.7994 -0.1834  0.9216
    3MPD1    N114202   3.924   2.026  10.033  0.0303  0.9093 -0.1993
    3MPD1    H614203   4.001   2.077   9.993 -0.4306  1.4429 -0.4088
    3MPD1    H714204   3.887   2.072  10.116 -0.7797  0.6628 -0.4175
    4MPD2     C14205   4.432   1.939  11.731  0.0752  0.2228  0.4009
    4MPD2    C114206   4.499   1.838  11.799 -0.1359  0.5220 -1.0485
    4MPD2    C214207   4.583   1.753  11.727  1.4471 -0.3111 -0.1748
    4MPD2    C314208   4.605   1.781  11.592  0.5660  1.0925  0.3605
    4MPD2    C414209   4.542   1.884  11.534 -0.2253 -0.0908 -0.3024
    4MPD2    C514210   4.463   1.964  11.605 -0.1677 -0.3019  0.3520
    4MPD2     H14211   4.635   1.662  11.757 -0.3787 -1.1593  0.3815
    4MPD2    H114212   4.559   1.911  11.430  0.8699 -1.3600 -0.4595
    4MPD2    H214213   4.380   2.010  11.794 -0.1822  0.2211  0.1902
    4MPD2    H314214   4.412   2.046  11.556  0.7153  0.4527  0.7028
    4MPD2     N14215   4.700   1.700  11.520 -0.5089  0.0355  0.8039
    4MPD2    H514216   0.002   1.625  11.576 -1.4251 -0.2213  1.0832
    4MPD2    N114217   4.490   1.821  11.942  0.3515  0.2641  0.5147
    4MPD2    H714218   4.548   1.743  11.972  0.1596 -0.2872 -0.5846
    5TMC3    C114219   4.416   1.785  12.143  0.2029  0.0866  0.4341
    5TMC3    C214220   4.299   1.726  12.177 -0.6492  0.1962  0.0335
    5TMC3    C314221   4.291   1.597  12.227  0.0163  0.1227 -0.2124
    5TMC3    C414222   4.532   1.713  12.157  0.5758  0.0552  0.1684
    5TMC3    C514223   4.527   1.585  12.199  0.3100  0.1335  0.5795
    5TMC3    C614224   4.409   1.531  12.241 -0.1784 -0.2653 -0.5983
    5TMC3     C14225   4.397   1.866  12.030 -0.1072 -0.9922 -0.6541
    5TMC3     O14226   4.295   1.933  12.011 -0.1897  0.1635  0.2123
    5TMC3     H14227   4.207   1.780  12.193 -1.2207 -0.5095 -0.8832
    5TMC3    H114228   4.630   1.758  12.148  0.2455  0.9907  1.3545
    5TMC3    H214229   4.391   1.431  12.279 -0.5835  0.6511  1.6545
    5TMC3    C714230   4.595   1.511  12.095 -0.0141 -0.3062 -0.5774
    5TMC3    C814231   4.190   1.518  12.160  0.3983  0.4086 -0.3710
    5TMC3    O114232   4.644   1.574  12.002 -0.1766 -0.4727 -0.1673
    5TMC3    O214233   4.151   1.416  12.214 -0.4216 -0.4602 -0.1980
    6TMC3    C114234   3.768   1.640  10.745  0.0097  0.2530  0.4717
    6TMC3    C214235   3.805   1.620  10.614  0.1075 -0.5068 -0.2090
    6TMC3    C314236   3.916   1.549  10.578  0.2906 -0.4516  0.4886
    6TMC3    C414237   3.848   1.580  10.840  0.5655 -0.2751  0.7911
    6TMC3    C514238   3.967   1.524  10.808  0.2204  0.1050  0.2818
    6TMC3    C614239   4.001   1.500  10.677 -1.0885  1.0007  0.5606
    6TMC3     C14240   3.649   1.696  10.785  0.5512 -0.7388 -0.8020
    6TMC3     O14241   3.588   1.674  10.890  0.3609 -1.0166 -0.5298
    6TMC3     H14242   3.742   1.668  10.540  0.3002  2.4922  1.5653
    6TMC3    H114243   3.822   1.615  10.939 -1.1674 -1.4931  0.7569
    6TMC3    H214244   4.098   1.460  10.648 -1.4156  0.1230  0.6738
    6TMC3    C714245   4.059   1.479  10.914 -0.6465  0.6304 -0.0925
    6TMC3    C814246   3.965   1.563  10.443  0.0416 -0.3121 -0.6291
    6TMC3    O114247   4.170   1.446  10.871 -0.2546  0.0945 -0.6151
    6TMC3    O214248   4.057   1.490  10.409 -0.1108  0.0381  0.3471
    7MPD2     C14249   4.698   1.081  11.847 -0.4141  0.2101  0.1495
    7MPD2    C114250   4.691   1.211  11.807  0.7263  0.4012 -0.5565
    7MPD2    C214251   4.659   1.313  11.894  0.4722 -0.1380  0.4416
    7MPD2    C314252   4.628   1.277  12.026  0.2434  0.7027  0.3397
    7MPD2    C414253   4.637   1.146  12.066  0.6565  0.4531  0.1733
    7MPD2    C514254   4.673   1.051  11.971 -0.4192  0.2191 -0.0227
    7MPD2     H14255   4.674   1.414  11.855 -0.9452  0.4517  1.4189
    7MPD2    H114256   4.623   1.108  12.167  0.9717 -2.1896 -0.7869
    7MPD2    H214257   4.721   1.003  11.776  0.3660  0.3429  0.2496
    7MPD2    H314258   4.680   0.949  12.007 -0.8717  0.0597 -0.3844
    7MPD2     N14259   4.604   1.377  12.121 -0.4854  0.4907 -0.4763
    7MPD2    H514260   4.583   1.342  12.214  0.0396 -0.9807 -0.9133
    7MPD2    N114261   4.731   1.241  11.671  0.1875  0.4002 -0.2215
    7MPD2    H714262   0.012   1.169  11.602  2.5407 -2.4704  3.4026
    8TMC3    C114263   0.010   1.380  11.475  0.3479  0.2559  0.0069
    8TMC3    C214264   4.640   1.318  11.410  0.3167  0.5213  0.3433
    8TMC3    C314265   4.600   1.388  11.295  0.3190  0.0069 -0.2639
    8TMC3    C414266   0.069   1.496  11.435 -0.5569 -0.6884  0.2863
    8TMC3    C514267   0.007   1.567  11.329 -0.6117  0.5696  0.5901
    8TMC3    C614268   4.648   1.512  11.257  0.4019 -0.5679 -0.1814
    8TMC3     C14269   0.006   1.372  11.619 -0.8214 -0.6491  0.0636
    8TMC3     O14270   0.022   1.482  11.671 -0.1599 -0.1129  0.9083
    8TMC3     H14271   4.603   1.225  11.452  1.0512 -0.4341 -1.1452
    8TMC3    H114272   0.149   1.547  11.487 -0.0437 -0.2999 -0.9032
    8TMC3    H214273   4.600   1.570  11.179  0.9546  0.2134  0.0654
    8TMC3    C714274   4.704   1.704  11.382  0.8331 -0.0527  0.2431
    8TMC3    C814275   4.477   1.355  11.230 -0.2239 -0.2130  0.3502
    8TMC3    O114276   4.653   1.778  11.301  0.6903 -0.2444 -0.5548
    8TMC3    O214277   4.469   1.408  11.123  0.3629 -0.0925 -0.5394
    9MPD2     C14278   4.158   1.352  11.412 -0.2072  0.5910  0.7529
    9MPD2    C114279   4.244   1.350  11.304  0.7615  0.2708  0.0539
    9MPD2    C214280   4.191   1.386  11.177 -0.2317 -0.0662 -0.7023
    9MPD2    C314281   4.058   1.417  11.157 -0.7274 -0.1712  0.4176
    9MPD2    C414282   3.981   1.412  11.264 -0.1790  0.1991 -0.1155
    9MPD2    C514283   4.031   1.379  11.391 -0.7172  0.2215  0.1622
    9MPD2     H14284   4.243   1.382  11.082  1.1260 -1.5814  0.1257
    9MPD2    H114285   3.880   1.450  11.259 -1.3471 -2.7874  1.1736
    9MPD2    H214286   4.188   1.338  11.515  1.5947  3.2370  0.5915
    9MPD2    H314287   3.958   1.394  11.470 -1.4888  0.5086 -0.5979
    9MPD2     N14288   3.995   1.462  11.034 -0.6284 -0.0207 -0.0077
    9MPD2    H514289   3.896   1.481  11.046 -0.4387  0.1369  1.3431
    9MPD2    N114290   4.381   1.325  11.323  0.3329 -0.0443 -0.0213
    9MPD2    H714291   4.416   1.295  11.413 -0.4896 -0.8486  0.0344
    1MPD1     C14292   0.220   0.565  17.004  0.1595 -0.3114 -0.6539
    1MPD1    C114293   0.256   0.449  16.936  0.7811  0.3189 -0.0711
    1MPD1    C214294   0.151   0.364  16.907  0.1194 -0.2988  0.0027
    1MPD1    C314295   0.020   0.391  16.948 -0.2360  0.0624  0.2314
    1MPD1    C414296   4.732   0.498  17.028 -0.0673 -0.0198  0.3257
    1MPD1    C514297   0.094   0.585  17.052 -0.2947 -0.6428 -0.1047
    1MPD1     H14298   0.174   0.280  16.842  0.6503  0.6491 -1.0408
    1MPD1    H114299   4.630   0.526  17.051 -0.4882 -2.1965  1.1234
    1MPD1    H214300   0.295   0.641  17.024  0.9143 -0.6433 -2.2115
    1MPD1    H314301   0.071   0.666  17.121  0.1648  0.2651 -1.0157
    1MPD1     N14302   4.647   0.307  16.928  0.6796  0.2957  0.2786
    1MPD1    H514303   4.571   0.333  16.990  0.4078  0.6900 -0.2188
    1MPD1    N114304   0.387   0.414  16.912 -0.1420 -0.2327  0.3260
    1MPD1    H614305   0.401   0.379  16.817  0.5354 -1.5109  0.9098
    1MPD1    H714306   0.440   0.501  16.908  0.5957 -0.6423  1.2552
    2TMC2    C114307   4.370   4.718  16.770  0.6846  0.2947  0.0946
    2TMC2    C214308   4.364   4.647  16.888 -0.4609  0.1184  0.1262
    2TMC2    C314309   4.438   4.687  17.000  0.1892  0.1345  0.4585
    2TMC2    C414310   4.464   0.079  16.764 -0.2802  0.6646 -0.2552
    2TMC2    C514311   4.535   0.115  16.873  0.2065 -0.2153 -0.3495
    2TMC2    C614312   4.522   0.051  16.997 -0.1334  0.4929  0.3984
    2TMC2     C14313   4.273   4.685  16.668 -0.3644  0.5240 -0.7055
    2TMC2     O14314   4.194   4.598  16.701 -0.0135 -0.3911  0.8961
    2TMC2     H14315   4.321   4.548  16.889  0.8112 -0.4916 -3.5318
    2TMC2    H114316   4.501   0.100  16.664 -1.5820  0.0185 -0.8715
    2TMC2    H214317   4.579   0.081  17.085  1.1472 -1.4540  0.2230
    2TMC2    C714318   4.646   0.201  16.843 -0.0843 -0.4032 -0.2235
    2TMC2    C814319   4.426   4.617  17.119  0.4735  0.2221 -0.8910
    2TMC2    O114320   4.704   0.186  16.736  0.1769  0.5394 -0.3731
    2TMC2    O214321   4.515   4.545  17.155 -0.1947  0.0113 -0.4674
    2TMC2    O514322   4.299   4.596  17.140 -0.5196 -0.3514  0.2872
    2TMC2    H514323   4.243   4.670  17.110 -1.3483 -1.4258 -0.7985
    3MPD1     C14324   4.022   4.698  16.205 -0.4758 -1.0062  0.3961
    3MPD1    C114325   4.091   0.081  16.220 -0.5969 -0.3013 -0.6710
    3MPD1    C214326   4.180   0.096  16.331 -0.8939  0.1845 -0.4319
    3MPD1    C314327   4.200   4.736  16.432  0.5452 -0.3724 -0.2027
    3MPD1    C414328   4.125   4.613  16.410  0.0038  0.4212 -0.0731
    3MPD1    C514329   4.039   4.601  16.304 -0.2563 -0.3954  0.8241
    3MPD1     H14330   4.229   0.192  16.339  1.6965 -1.2577  1.2902
    3MPD1    H114331   4.120   4.540  16.491  1.0919 -0.9012 -1.2034
    3MPD1    H214332   3.954   4.677  16.123  1.2021  0.4163 -1.3802
    3MPD1    H314333   3.987   4.506  16.294 -0.3738 -0.5149  2.5816
    3MPD1     N14334   4.280   0.023  16.550 -0.2467 -0.0401  0.0655
    3MPD1    H514335   4.323   0.114  16.563 -0.4668 -0.1153  1.2713
    3MPD1    N114336   4.041   0.191  16.157  0.6449 -0.7106  0.2084
    3MPD1    H614337   4.108   0.267  16.140 -1.4235  0.9786 -0.4727
    3MPD1    H714338   3.996   0.180  16.066 -1.0096 -0.4325  0.9979
    1TMC1    C114339   2.379   3.935  13.221 -0.4000  0.4802 -0.9028
    1TMC1    C214340   2.331   3.805  13.238 -1.0735 -0.0783 -0.1500
    1TMC1    C314341   2.209   3.775  13.188 -0.6759  0.5408  0.7079
    1TMC1    C414342   2.300   4.026  13.147 -1.4083  1.0264  0.4761
    1TMC1    C514343   2.180   3.980  13.102 -0.5448 -0.4553 -0.4441
    1TMC1    C614344   2.128   3.853  13.123  0.5981  0.6607  0.0226
    1TMC1     C14345   2.479   3.981  13.314 -1.1733  0.8202  0.0440
    1TMC1     O14346   2.483   4.103  13.326  0.5149 -0.2327 -0.4972
    1TMC1     H14347   2.392   3.743  13.303 -0.4347  1.5047  0.7466
    1TMC1    H114348   2.334   4.128  13.135 -2.8454  1.4792  0.3645
    1TMC1    H214349   2.030   3.819  13.089  1.2449 -0.4225 -0.7703
    1TMC1    C714350   2.071   4.073  13.077  0.7007  0.3848 -0.3487
    1TMC1    C814351   2.154   3.645  13.226  0.4440 -0.2566  0.3251
    1TMC1    O114352   1.952   4.044  13.084  0.0432  1.0817 -0.0196
    1TMC1    O214353   2.070   3.592  13.157  0.3637 -0.2241  0.0987
    1TMC1    O314354   2.124   4.190  13.039 -0.4879 -0.1028 -0.0287
    1TMC1    H314355   2.220   4.186  13.018 -0.0511  2.9400  1.3584
    1TMC1    O514356   2.150   3.642  13.358  0.0590  0.4999 -0.1345
    1TMC1    H514357   2.208   3.708  13.402 -0.4443  0.6063  0.3658
    2MPD2     C14358   2.661   4.017  13.549 -0.1181 -0.0489 -0.3042
    2MPD2    C114359   2.671   3.911  13.455  0.1332  0.2776  0.5324
    2MPD2    C214360   2.778   3.821  13.468 -0.1066 -0.3043  0.2551
    2MPD2    C314361   2.880   3.831  13.567  0.0534  0.2544  0.7340
    2MPD2    C414362   2.864   3.944  13.654  0.3032  0.0806 -0.0501
    2MPD2    C514363   2.758   4.032  13.642  0.2690  0.9267 -0.0714
    2MPD2     H14364   2.782   3.739  13.397 -0.4931  0.9123 -1.1715
    2MPD2    H114365   2.917   3.947  13.749 -1.8215  0.9530  1.1162
    2MPD2    H214366   2.577   4.085  13.554  0.0915  0.2993 -1.4925
    2MPD2    H314367   2.741   4.110  13.716 -2.6149  1.9339 -1.7575
    2MPD2     N14368   2.997   3.748  13.550 -0.3607 -0.5958  0.6283
    2MPD2    H514369   2.993   3.673  13.483  2.0856  1.5205 -1.8806
    2MPD2    N114370   2.575   3.891  13.352 -0.2739 -0.2757 -0.1758
    2MPD2    H714371   2.573   3.794  13.323 -0.5224 -0.4417  0.3927
    3TCq1    O114372   3.450   3.680  13.900 -0.2599 -0.4690  0.1869
    3TCq1    C114373   3.496   3.583  13.821  0.0599 -0.4684  0.2303
    3TCq1    O214374   3.586   3.500  13.849  0.3206 -0.0911 -0.3518
    3TCq1    C214375   3.402   3.562  13.715  0.0680 -1.0614 -0.1572
    3TCq1    C314376   3.355   3.438  13.682 -0.6114  0.3607 -0.8563
    3TCq1    C414377   3.231   3.418  13.621  0.1212  0.1577 -0.3046
    3TCq1    C514378   3.150   3.521  13.591  0.2256 -0.3360 -0.1070
    3TCq1    C614379   3.196   3.647  13.627 -0.4200 -0.0033 -0.1307
    3TCq1    C714380   3.321   3.668  13.690 -0.3359 -0.2014 -0.2729
    3TCq1    C814381   3.108   3.760  13.628  0.3754 -0.4461 -0.5645
    3TCq1    O414382   3.141   3.847  13.707  0.1596 -0.5554  0.6587
    3TCq1    C914383   3.196   3.284  13.601 -0.2440 -0.1461 -0.2872
    3TCq1    O514384   3.254   3.197  13.674 -0.0721 -0.4155  0.2189
    3TCq1    O614385   3.095   3.261  13.528 -0.0094  0.5227 -0.5422
    3TCq1    H114386   3.378   3.733  13.862 -0.9787 -1.6420 -0.0976
    3TCq1    H214387   3.414   3.351  13.708 -2.3565  0.6136  3.9992
    3TCq1    H314388   3.053   3.490  13.556  1.4513 -0.4543 -3.3473
    3TCq1    H414389   3.353   3.771  13.703 -2.0627 -0.0762  2.8224
    1MPD2     C14390   1.947   0.647  15.163 -0.1151  0.2819  0.3258
    1MPD2    C114391   1.852   0.553  15.140 -0.0431 -0.1974  0.3092
    1MPD2    C214392   1.894   0.419  15.139 -0.5504  0.3496 -0.0255
    1MPD2    C314393   2.024   0.371  15.152  0.2642  0.0764  0.0806
    1MPD2    C414394   2.119   0.471  15.156 -0.1651  0.5460 -0.1537
    1MPD2    C514395   2.079   0.599  15.163  0.2117  0.5267 -0.3182
    1MPD2     H14396   1.816   0.347  15.119  0.5611 -1.2619  1.4244
    1MPD2    H114397   2.225   0.446  15.160 -0.3818 -0.2916  0.2251
    1MPD2    H214398   1.928   0.754  15.167  1.0989  0.5455 -0.8957
    1MPD2    H314399   2.148   0.682  15.171  0.1114  0.6797 -1.0754
    1MPD2     N14400   2.054   0.233  15.141  0.9122 -0.0808  0.2738
    1MPD2    H514401   2.145   0.199  15.169  0.5204 -0.4605  1.1234
    1MPD2    N114402   1.712   0.599  15.125 -0.8775  0.3705  0.5245
    1MPD2    H714403   1.697   0.696  15.149 -1.1177  0.1024  1.4324
    2TMC3    C114404   1.496   0.585  15.043  0.2125 -0.4869 -0.0301
    2TMC3    C214405   1.408   0.493  15.001 -0.3917 -0.0903 -0.0993
    2TMC3    C314406   1.360   0.497  14.871 -0.5764 -0.5066 -0.2246
    2TMC3    C414407   1.529   0.691  14.960 -0.0365  0.4957  0.8349
    2TMC3    C514408   1.485   0.691  14.825  0.0777  0.9445  0.1269
    2TMC3    C614409   1.404   0.590  14.779  0.4593  0.6094  0.5377
    2TMC3     C14410   1.609   0.517  15.097  0.0553  0.1743 -0.0758
    2TMC3     O14411   1.612   0.396  15.074 -0.3338  0.0045 -0.1951
    2TMC3     H14412   1.374   0.407  15.058 -2.6747  1.4536  0.8721
    2TMC3    H114413   1.583   0.774  15.003 -2.1277  2.4840 -0.3812
    2TMC3    H214414   1.371   0.582  14.676 -0.9450  2.9741  0.7922
    2TMC3    C714415   1.488   0.817  14.752 -0.4921 -0.7839 -0.4080
    2TMC3    C814416   1.349   0.365  14.818  0.5086 -0.2008 -0.7642
    2TMC3    O114417   1.422   0.827  14.652 -0.5933  0.0962  0.4032
    2TMC3    O214418   1.290   0.342  14.715  0.2079 -0.1143  0.9473
    3TCq1    O114419   2.173   1.390  15.393 -0.5134 -0.3394 -0.1142
    3TCq1    C114420   2.070   1.349  15.311  0.5585 -0.3834 -0.6377
    3TCq1    O214421   2.023   1.237  15.307  0.4627 -0.3645  0.5762
    3TCq1    C214422   2.068   1.433  15.186  0.4346 -0.9195  0.0419
    3TCq1    C314423   2.162   1.531  15.167  0.1624  0.6993  0.3054
    3TCq1    C414424   2.150   1.600  15.051 -0.4366  0.4876 -0.2589
    3TCq1    C514425   2.047   1.578  14.962  0.0435  0.2124 -0.1520
    3TCq1    C614426   1.961   1.473  14.985 -0.2877 -0.5552  0.2508
    3TCq1    C714427   1.969   1.406  15.101 -0.3679  0.3669  0.3840
    3TCq1    C814428   1.874   1.439  14.879  0.6080  0.3034 -0.3212
    3TCq1    O414429   1.862   1.515  14.783 -0.9471 -0.9816 -0.2937
    3TCq1    C914430   2.257   1.694  15.013 -0.6300  0.4061  0.6093
    3TCq1    O514431   2.346   1.723  15.100 -0.4262 -0.1863  0.6858
    3TCq1    O614432   2.254   1.733  14.891 -0.1552  0.1288  0.3667
    3TCq1    H114433   2.206   1.482  15.384 -0.4401 -0.2987  0.5964
    3TCq1    H214434   2.254   1.547  15.223  1.2718 -0.8295 -1.0651
    3TCq1    H314435   2.044   1.631  14.867  0.4538 -0.0374 -0.3075
    3TCq1    H414436   1.890   1.339  15.129  0.3247  0.1366  1.8162
    4MPD2     C14437   1.662   1.307  14.704 -0.8963 -0.7545  0.9594
    4MPD2    C114438   1.732   1.247  14.803 -0.0809  0.5995  0.7579
    4MPD2    C214439   1.692   1.114  14.835  0.4306  0.1597 -0.4618
    4MPD2    C314440   1.604   1.040  14.764  0.2588  0.3325  0.6399
    4MPD2    C414441   1.553   1.102  14.653 -0.2950 -0.3171  0.7641
    4MPD2    C514442   1.574   1.232  14.629 -0.7281 -0.3026 -0.0996
    4MPD2     H14443   1.745   1.064  14.916 -0.7177 -1.7221 -0.8640
    4MPD2    H114444   1.482   1.044  14.594 -1.3877  0.4242  1.3452
    4MPD2    H214445   1.682   1.408  14.671 -0.4088 -1.1053  0.2053
    4MPD2    H314446   1.524   1.281  14.546 -1.8552  1.9324  1.9122
    4MPD2     N14447   1.578   0.907  14.802  0.2775 -0.2374 -0.4027
    4MPD2    H514448   1.641   0.880  14.878 -1.1407  1.1605  1.2518
    4MPD2    N114449   1.828   1.306  14.887  0.2378 -0.9314  0.0850
    4MPD2    H714450   1.869   1.249  14.960 -2.0284 -0.5918  1.6187
    5TMC2    C114451   1.928   4.543  14.993 -0.3802 -0.0342 -0.1485
    5TMC2    C214452   1.963   4.481  15.111  0.0564  0.4010  0.1688
    5TMC2    C314453   2.040   4.548  15.197  0.2651 -0.7033  0.3231
    5TMC2    C414454   1.971   4.671  14.971  0.8910 -0.2103  0.2992
    5TMC2    C514455   2.038   0.006  15.068  0.1754  0.0382 -0.1272
    5TMC2    C614456   2.079   4.680  15.182 -0.2918 -0.1821  1.2276
    5TMC2     C14457   1.793   4.524  14.960 -0.0257 -0.2361  0.3070
    5TMC2     O14458   1.745   4.415  14.941  0.6013 -0.0879 -0.5500
    5TMC2     H14459   1.902   4.397  15.143 -0.2838  1.1181  1.3796
    5TMC2    H114460   1.959   4.709  14.870  0.3466 -4.0604 -1.0815
    5TMC2    H214461   2.135   4.729  15.260  3.1414  0.3605 -1.5590
    5TMC2    C714462   1.975   0.139  15.079  0.4745 -0.4371 -0.5306
    5TMC2    C814463   2.096   4.481  15.308 -0.2021  0.0013 -0.5345
    5TMC2    O114464   1.881   0.147  15.006  0.2070 -0.1483 -0.0911
    5TMC2    O214465   2.131   4.545  15.406 -0.4726 -0.1614 -0.4056
    5TMC2    O514466   2.140   4.365  15.257 -0.3860  0.1846  0.2670
    5TMC2    H514467   2.138   4.366  15.159 -1.4021  0.6455  0.2847
    6MPD2     C14468   1.406   0.074  14.751 -0.3188  0.4384  0.3988
    6MPD2    C114469   1.479   0.148  14.843  0.3711  1.2379  0.2142
    6MPD2    C214470   1.582   0.084  14.913 -0.9381 -0.4241  0.0330
    6MPD2    C314471   1.622   4.689  14.895 -1.0910 -0.4190  0.9127
    6MPD2    C414472   1.548   4.614  14.804 -0.4045 -0.0724 -0.7685
    6MPD2    C514473   1.435   4.668  14.746  0.5707  0.7682 -0.5120
    6MPD2     H14474   1.639   0.136  14.989  1.2215 -0.7286 -1.3584
    6MPD2    H114475   1.569   4.508  14.787  0.8831  0.2282 -1.0967
    6MPD2    H214476   1.318   0.118  14.704 -1.5163 -2.3159  0.0261
    6MPD2    H314477   1.384   4.606  14.674  1.0960 -2.1535  1.6047
    6MPD2     N14478   1.735   4.647  14.963 -0.2480  0.3312 -0.1731
    6MPD2    H514479   1.789   4.724  15.002 -1.6741  0.8446  0.7909
    6MPD2    N114480   1.448   0.285  14.873  0.1090 -0.2761 -0.6744
    6MPD2    H714481   1.512   0.317  14.945 -1.0855  0.4804  0.0486
  945NH3     N114482   4.488   3.912   7.512  0.2781  1.0719  0.6346
  945NH3     H214483   4.490   3.960   7.601  0.3736  2.7444 -0.2789
  945NH3     H314484   4.448   3.821   7.535  1.9536 -0.0126 -0.6455
  945NH3     H414485   4.584   3.886   7.493  0.0491 -0.2710  1.3004
  946SOD     NA14486   3.056   3.673  14.373 -0.1359  0.1563  0.4487
  947SOD     NA14487   1.588   4.731  12.279  0.0962 -0.1204 -0.4434
  948SOD     NA14488   1.585   3.625   9.941  0.2479 -0.2177  0.6967
  949SOD     NA14489   2.276   4.205   6.743 -0.0131 -0.1449  0.2631
  950SOD     NA14490   2.160   0.029   4.180 -0.1676  0.0297 -0.1101
  951SOD     NA14491   3.220   3.983   7.733  0.4181 -0.1563 -0.0237
  952SOD     NA14492   4.507   3.836  15.953  0.0441 -0.2202  0.2553
  953SOD     NA14493   0.482   2.561  16.174  0.1232 -0.0884 -0.0711
  954SOL     OW14494   0.267   2.820  12.005  0.0285 -0.3683 -1.1711
  954SOL    HW114495   0.204   2.839  12.075 -0.0753  1.6861 -1.8334
  954SOL    HW214496   0.282   2.909  11.975  0.4131  0.1558  0.5629
  955SOL     OW14497   1.504   0.306   8.213 -0.1854 -0.2274 -0.3574
  955SOL    HW114498   1.448   0.338   8.283  1.6628  0.4977  0.7639
  955SOL    HW214499   1.591   0.309   8.253 -1.1875  0.3201  1.7324
  956SOL     OW14500   1.715   4.180   0.272  0.1078  0.1886 -0.2251
  956SOL    HW114501   1.679   4.238   0.340 -0.4620 -0.6292  0.1735
  956SOL    HW214502   1.679   4.094   0.294  1.1123  0.1169  1.1326
  957SOL     OW14503   0.217   3.340  10.509 -0.1969 -0.1324 -0.2471
  957SOL    HW114504   0.138   3.386  10.539 -1.0356 -1.4892 -0.3424
  957SOL    HW214505   0.293   3.386  10.546 -0.3744 -0.4784  0.5498
  958SOL     OW14506   2.462   1.847  14.787  0.0867  0.1933  0.4117
  958SOL    HW114507   2.460   1.895  14.870  1.5015  0.5933  0.2245
  958SOL    HW214508   2.394   1.782  14.798 -1.2035  1.3736 -0.5622
  959SOL     OW14509   0.451   2.131  14.313  0.3489 -0.0245 -0.2429
  959SOL    HW114510   0.533   2.145  14.265 -0.0798  2.4036 -0.3000
  959SOL    HW214511   0.387   2.130  14.241  0.8615 -1.7050 -0.6710
  960SOL     OW14512   2.398   1.711   7.050  0.2281 -0.8318 -0.2868
  960SOL    HW114513   2.308   1.712   7.083 -0.8952 -1.2062 -3.4302
  960SOL    HW214514   2.383   1.688   6.959 -1.6228  0.1205 -0.2145
  961SOL     OW14515   3.418   2.995  15.500 -0.0519 -0.0251 -0.0779
  961SOL    HW114516   3.489   3.057  15.509 -0.6860  0.7002 -0.0888
  961SOL    HW214517   3.447   2.928  15.562 -0.7500 -0.8538 -0.6271
  962SOL     OW14518   2.535   4.547   2.496  0.3672  0.1140 -0.2262
  962SOL    HW114519   2.442   4.564   2.507  0.4887  0.0789  0.8739
  962SOL    HW214520   2.537   4.538   2.401  1.3937  1.0265 -0.2937
  963SOL     OW14521   2.633   1.696   5.894  0.4050 -0.3102 -0.1035
  963SOL    HW114522   2.665   1.630   5.955  1.7276  0.5474  0.1349
  963SOL    HW214523   2.573   1.646   5.840  1.2133  0.3296 -1.5994
  964SOL     OW14524   2.868   2.091   3.635 -0.1081  0.0545 -0.2002
  964SOL    HW114525   2.775   2.110   3.625 -0.2657 -0.6638 -0.0999
  964SOL    HW214526   2.857   2.028   3.707 -1.2997 -0.9022 -1.2224
  965SOL     OW14527   2.736   1.166   0.440 -0.2005 -0.5208 -0.1201
  965SOL    HW114528   2.826   1.195   0.459 -0.6905  1.5736 -0.9863
  965SOL    HW214529   2.760   1.098   0.377  0.2480 -0.9177  0.4829
  966SOL     OW14530   4.577   2.309   6.750  0.4577 -0.1958  0.3909
  966SOL    HW114531   4.548   2.259   6.826 -0.6541 -2.6112 -1.6342
  966SOL    HW214532   4.625   2.374   6.802  1.8228  0.3126 -1.5003
  967SOL     OW14533   4.087   3.227   2.475 -0.4736  0.2309  0.1055
  967SOL    HW114534   4.093   3.132   2.481 -0.4025  0.1928 -0.5739
  967SOL    HW214535   4.043   3.258   2.554 -1.2807 -1.4370  0.2947
  968SOL     OW14536   3.863   0.595   1.412  0.4473  0.4538 -0.0043
  968SOL    HW114537   3.851   0.649   1.489 -1.3902 -0.9845  0.7191
  968SOL    HW214538   3.945   0.629   1.374 -0.0488 -2.1659 -3.4247
  969SOL     OW14539   2.332   2.714   3.685 -0.6224  0.4305 -0.5321
  969SOL    HW114540   2.297   2.788   3.636  0.8842  0.4863 -1.5192
  969SOL    HW214541   2.268   2.709   3.756  0.1839  0.6463  0.2261
  970SOL     OW14542   3.812   4.396   1.804  0.1949 -0.3891 -0.4623
  970SOL    HW114543   3.896   4.407   1.758  1.2436 -1.9815  1.0833
  970SOL    HW214544   3.844   4.378   1.892 -0.4042 -1.7661 -0.5369
  971SOL     OW14545   0.785   3.156   6.047  0.6156  0.3122 -0.0993
  971SOL    HW114546   0.704   3.172   5.999  0.2226 -0.3412  0.3389
  971SOL    HW214547   0.790   3.061   6.037  0.2900  0.1673  1.2102
  972SOL     OW14548   2.199   0.756   8.437 -0.0624 -0.1932 -0.1789
  972SOL    HW114549   2.233   0.819   8.500  0.9789  0.0112 -0.9489
  972SOL    HW214550   2.176   0.812   8.363  1.2261  1.7611  0.9137
  973SOL     OW14551   1.326   1.583   5.508  0.5278 -0.5690  0.4962
  973SOL    HW114552   1.411   1.558   5.471  1.1936 -0.2534  1.8285
  973SOL    HW214553   1.333   1.540   5.593  1.7736  1.3508  1.3538
  974SOL     OW14554   4.007   0.114   9.666  0.7480 -0.0917  0.2000
  974SOL    HW114555   4.020   0.128   9.760  0.1477  1.5227  0.0288
  974SOL    HW214556   3.935   0.164   9.630 -0.3760 -2.2948 -0.6440
  975SOL     OW14557   0.750   2.325   4.620  0.4900 -0.2325 -0.0293
  975SOL    HW114558   0.660   2.295   4.611  0.2139  0.6264 -0.1232
  975SOL    HW214559   0.749   2.363   4.708  0.5386  0.4986 -0.3500
  976SOL     OW14560   3.924   3.280   3.936  0.4884 -0.5115  0.4768
  976SOL    HW114561   3.988   3.341   3.900 -0.1837  1.1005  2.0242
  976SOL    HW214562   3.878   3.346   3.988  0.3744 -0.9129  0.8909
  977SOL     OW14563   4.724   1.908   5.144 -1.0352 -0.1702 -0.3339
  977SOL    HW114564   4.669   1.985   5.130 -1.3761 -0.5654 -1.1310
  977SOL    HW214565   0.068   1.937   5.100 -0.9965  2.9693  1.8033
  978SOL     OW14566   3.744   0.248   3.779 -0.1328  0.3214  0.0022
  978SOL    HW114567   3.817   0.232   3.718 -0.2098  1.7781 -0.4679
  978SOL    HW214568   3.783   0.299   3.850  0.7951  0.2298 -0.4349
  979SOL     OW14569   0.891   1.163   2.891 -0.0690  0.5641  0.0771
  979SOL    HW114570   0.894   1.085   2.835  0.5714  0.2559  0.5329
  979SOL    HW214571   0.823   1.133   2.952  1.1385 -1.9071  0.2141
  980SOL     OW14572   2.150   0.941   0.816 -0.1372  0.2870  0.0255
  980SOL    HW114573   2.229   0.970   0.771  1.2732 -1.0867  1.6275
  980SOL    HW214574   2.097   1.021   0.812  0.2130  0.4269 -1.7460
  981SOL     OW14575   2.674   3.976   4.829 -0.2313  0.0388 -0.1079
  981SOL    HW114576   2.741   4.040   4.851 -0.2203 -0.8914  2.6022
  981SOL    HW214577   2.726   3.902   4.799  0.0668  0.3633 -0.3785
  982SOL     OW14578   0.453   0.424  16.612 -0.0440  0.2034 -0.3497
  982SOL    HW114579   0.498   0.341  16.625  0.3268  0.2929 -1.0735
  982SOL    HW214580   0.463   0.436  16.518 -1.6377 -0.3419 -0.5881
  983SOL     OW14581   0.435   3.462  13.443  0.1247  0.2856  0.2107
  983SOL    HW114582   0.520   3.505  13.448  1.6724 -2.8353  0.9453
  983SOL    HW214583   0.395   3.481  13.358 -0.0506 -1.1810 -0.0321
  984SOL     OW14584   2.612   4.624   7.849  0.2217  0.0718 -0.1263
  984SOL    HW114585   2.627   4.531   7.867 -2.8647 -0.3317  0.3898
  984SOL    HW214586   2.524   4.630   7.885  2.0112 -0.2755  4.3116
  985SOL     OW14587   2.977   2.904   3.378 -0.0337  0.3703 -0.2005
  985SOL    HW114588   2.899   2.874   3.424 -0.2140 -0.8189 -1.2719
  985SOL    HW214589   3.016   2.971   3.433 -0.9498 -0.4532  1.4549
  986SOL     OW14590   0.972   3.933   7.916  0.0417  0.1992  0.7708
  986SOL    HW114591   0.904   3.952   7.981  0.3807 -1.3442  1.5819
  986SOL    HW214592   1.000   4.023   7.900 -0.3763  0.0528 -0.7833
  987SOL     OW14593   3.133   0.462  17.219 -0.3196  0.4725 -0.3484
  987SOL    HW114594   3.042   0.489  17.226 -1.3026 -2.6084 -1.2236
  987SOL    HW214595   3.179   0.540  17.252  0.9093 -0.7999  0.9529
  988SOL     OW14596   2.419   3.852   8.995 -0.2518  0.4421 -0.0240
  988SOL    HW114597   2.355   3.921   8.979 -1.2059 -0.9156 -2.0398
  988SOL    HW214598   2.368   3.773   9.008 -0.5776  0.6799  0.1436
  989SOL     OW14599   1.844   4.387   3.276  0.3220  0.9295 -0.2006
  989SOL    HW114600   1.790   4.347   3.345 -0.0045  0.8081 -0.5278
  989SOL    HW214601   1.912   4.435   3.323  1.2736  0.2950 -0.9366
  990SOL     OW14602   2.898   1.836  12.931  0.3137 -0.6598  0.0975
  990SOL    HW114603   2.956   1.770  12.971  0.8992 -0.0959  0.1703
  990SOL    HW214604   2.932   1.917  12.969  0.1690 -0.9549  0.8603
  991SOL     OW14605   0.629   1.389   5.810  0.1236  0.0861 -0.0463
  991SOL    HW114606   0.579   1.462   5.774  1.6622  1.8521  1.3822
  991SOL    HW214607   0.599   1.390   5.901 -1.7131 -1.7918 -0.6289
  992SOL     OW14608   3.033   4.243   5.994 -0.1452  0.1017  0.1385
  992SOL    HW114609   2.956   4.300   5.990 -0.0328  0.1771 -0.8126
  992SOL    HW214610   3.098   4.294   6.042  0.1594  0.6327 -0.8638
  993SOL     OW14611   3.761   4.533   6.261 -0.3971 -0.3941 -0.1516
  993SOL    HW114612   3.761   4.614   6.312  0.9219 -0.8207  0.5348
  993SOL    HW214613   3.764   4.470   6.333 -1.3419  0.7414  0.8592
  994SOL     OW14614   4.388   3.287   9.742 -0.1666  0.2966  0.6093
  994SOL    HW114615   4.304   3.250   9.768 -0.4105  0.9182  0.7080
  994SOL    HW214616   4.426   3.310   9.826  2.9321 -1.0279 -0.4211
  995SOL     OW14617   2.559   3.474   1.681 -0.3890  0.4353 -0.1306
  995SOL    HW114618   2.648   3.494   1.709 -0.3073 -0.4448  0.2276
  995SOL    HW214619   2.545   3.539   1.611 -1.0665 -1.6871 -1.9810
  996SOL     OW14620   4.144   0.579   1.640 -0.0590 -0.1944  0.0918
  996SOL    HW114621   4.054   0.572   1.607 -0.3519 -0.8393  1.0152
  996SOL    HW214622   4.195   0.573   1.559 -0.1440 -0.2021  0.0383
  997SOL     OW14623   3.578   2.539  11.993  0.0210 -0.0897 -0.0879
  997SOL    HW114624   3.640   2.531  12.065  0.8030 -2.3430 -1.0103
  997SOL    HW214625   3.631   2.552  11.914 -0.6474  1.0438 -0.3634
  998SOL     OW14626   4.567   0.068   5.959  0.3920 -0.1673 -0.1419
  998SOL    HW114627   4.525   0.046   5.876 -0.2374 -0.2575  0.1955
  998SOL    HW214628   4.580   0.161   5.939  1.0520 -0.0396  0.8993
  999SOL     OW14629   1.460   0.115  14.399 -0.4332  0.0395  0.5754
  999SOL    HW114630   1.497   0.162  14.473 -2.0580  0.8909  0.8541
  999SOL    HW214631   1.369   0.117  14.429 -0.4150 -2.1097  0.7656
 1000SOL     OW14632   0.510   2.371   5.013 -0.4238 -0.4069  0.2151
 1000SOL    HW114633   0.588   2.369   4.958 -0.7893 -0.6402 -0.2911
 1000SOL    HW214634   0.558   2.395   5.093  0.2370  0.6768 -0.4976
 1001SOL     OW14635   0.894   4.256   2.282 -0.7307  0.7721 -0.2970
 1001SOL    HW114636   0.820   4.197   2.293 -0.9983  1.2413  0.3989
 1001SOL    HW214637   0.966   4.198   2.308 -1.7673 -0.0940  0.6475
 1002SOL     OW14638   4.478   0.685   2.351  0.1256  0.6046  0.4442
 1002SOL    HW114639   4.514   0.668   2.438  1.2754 -1.1682 -0.3566
 1002SOL    HW214640   4.406   0.621   2.347  0.1718  0.4786  1.9692
 1003SOL     OW14641   1.782   2.598   4.882 -0.1767  0.8220 -0.4353
 1003SOL    HW114642   1.693   2.608   4.849  0.2493  2.6759 -0.9951
 1003SOL    HW214643   1.833   2.656   4.825 -1.1224  1.8417 -0.2239
 1004SOL     OW14644   0.255   0.279   5.604 -0.1260  0.1832 -0.2713
 1004SOL    HW114645   0.337   0.230   5.593 -1.3300 -1.3262 -2.4345
 1004SOL    HW214646   0.205   0.234   5.537 -1.9692  1.6898  0.1082
 1005SOL     OW14647   1.242   1.019   2.581 -0.3079 -0.2192  0.3962
 1005SOL    HW114648   1.336   1.006   2.594 -0.5303 -1.3932  0.8580
 1005SOL    HW214649   1.217   1.016   2.674  0.8908 -2.1784  0.6642
 1006SOL     OW14650   1.926   4.207   6.049 -0.2686  0.0207  0.5412
 1006SOL    HW114651   1.964   4.146   5.985  0.1055  0.0090  0.7756
 1006SOL    HW214652   1.834   4.189   6.031 -0.4667  1.5597  0.0428
 1007SOL     OW14653   2.640   1.367  12.132  0.0429  0.0029 -0.2598
 1007SOL    HW114654   2.728   1.338  12.110 -0.3965 -2.1632  0.8740
 1007SOL    HW214655   2.591   1.285  12.132 -0.1079  0.0932 -0.2981
 1008SOL     OW14656   3.431   4.593   0.085  0.3255 -0.6928  0.0711
 1008SOL    HW114657   3.486   4.670   0.069  1.7465 -1.5299  0.9701
 1008SOL    HW214658   3.503   4.531   0.089  0.0512 -1.1475 -1.7236
 1009SOL     OW14659   4.014   4.118   6.302 -0.3587 -0.0159  0.9911
 1009SOL    HW114660   4.004   4.133   6.208  0.0334  0.9032  1.0915
 1009SOL    HW214661   4.010   4.023   6.293  0.8604  0.1211 -1.1461
 1010SOL     OW14662   1.163   1.502   1.419  0.1751  0.1166  0.3429
 1010SOL    HW114663   1.168   1.570   1.485  1.4423  0.6509 -0.2899
 1010SOL    HW214664   1.236   1.528   1.362 -0.2435 -0.0819 -0.2847
 1011SOL     OW14665   2.742   2.765   2.339 -0.3125 -0.0526 -0.0535
 1011SOL    HW114666   2.830   2.753   2.375  1.0263  1.7620 -2.7073
 1011SOL    HW214667   2.719   2.855   2.359  0.9392  0.3139 -0.2823
 1012SOL     OW14668   3.471   4.708   5.858  0.0453  0.4411 -0.2251
 1012SOL    HW114669   3.430   0.037   5.802 -2.3359 -0.0308  0.9282
 1012SOL    HW214670   3.526   4.659   5.798 -0.3682 -0.6717  0.2791
 1013SOL     OW14671   1.069   2.518   3.600  0.5999 -0.1363 -0.0297
 1013SOL    HW114672   0.978   2.514   3.569  0.7054 -1.2711 -0.2000
 1013SOL    HW214673   1.060   2.605   3.639 -1.8178  0.4136 -1.7568
 1014SOL     OW14674   2.137   0.998  13.983  0.3572  0.4745  0.3990
 1014SOL    HW114675   2.066   1.009  13.920  2.7384  2.2770 -1.9612
 1014SOL    HW214676   2.110   0.916  14.025 -0.8564  0.5100 -0.3350
 1015SOL     OW14677   1.959   2.524   8.970  0.3599  0.0788 -0.3766
 1015SOL    HW114678   2.049   2.535   9.002  0.7800  0.7607 -1.8054
 1015SOL    HW214679   1.923   2.521   9.059 -0.2398 -1.2660 -0.6649
 1016SOL     OW14680   0.863   3.844   1.652 -0.0932 -0.9997 -0.3442
 1016SOL    HW114681   0.888   3.901   1.725 -1.1097  0.2760 -0.9847
 1016SOL    HW214682   0.906   3.886   1.578  1.6971 -2.0552  0.1111
 1017SOL     OW14683   4.486   3.678   8.382  0.5178  0.1105  0.0907
 1017SOL    HW114684   4.552   3.651   8.446 -1.4983 -3.1003  0.8204
 1017SOL    HW214685   4.443   3.748   8.431  2.2468  1.3868 -0.2437
 1018SOL     OW14686   3.451   0.072   2.135 -0.1254 -0.0534  0.5609
 1018SOL    HW114687   3.454   0.035   2.047  0.8151 -1.0954  1.0388
 1018SOL    HW214688   3.539   0.054   2.168  0.4495  0.6295 -0.6020
 1019SOL     OW14689   1.515   2.499  12.226 -0.5121 -0.1321  0.1303
 1019SOL    HW114690   1.588   2.530  12.279  1.1390 -0.7045 -1.8056
 1019SOL    HW214691   1.459   2.575  12.242  0.3449  0.9250 -1.8350
 1020SOL     OW14692   3.721   0.324   8.288 -0.1623  0.0510  0.8946
 1020SOL    HW114693   3.655   0.258   8.308  0.5456 -1.6776 -2.4163
 1020SOL    HW214694   3.799   0.269   8.283  0.9051  1.6457  0.0011
 1021SOL     OW14695   0.495   4.444  15.112 -0.0840  0.3670 -0.1795
 1021SOL    HW114696   0.549   4.495  15.173 -1.1056  1.4359 -0.1805
 1021SOL    HW214697   0.550   4.453  15.035  1.9049 -1.4407  1.0269
 1022SOL     OW14698   3.888   2.984   9.232  0.1678  0.2494  0.2225
 1022SOL    HW114699   3.863   2.953   9.145 -2.6663  0.3143  1.0058
 1022SOL    HW214700   3.952   3.053   9.219  0.3345 -0.1904 -1.2388
 1023SOL     OW14701   1.100   3.043   8.279 -0.4590 -0.1603  0.2346
 1023SOL    HW114702   1.155   3.037   8.357 -0.4680  0.2212  0.2693
 1023SOL    HW214703   1.115   2.958   8.237  1.8806 -0.7448  2.2520
 1024SOL     OW14704   1.390   1.689   4.942  0.5071  0.2460 -0.4219
 1024SOL    HW114705   1.360   1.779   4.952 -2.4779 -0.5298 -2.2563
 1024SOL    HW214706   1.460   1.689   5.007 -1.0040  0.7482  1.1810
 1025SOL     OW14707   1.229   3.150   4.120  0.5199  0.1989  0.0534
 1025SOL    HW114708   1.133   3.152   4.125  0.5566 -2.1873  2.0283
 1025SOL    HW214709   1.242   3.065   4.078 -2.1326  0.5688 -1.5660
 1026SOL     OW14710   0.796   1.026  11.431 -0.1388 -0.0910  0.1112
 1026SOL    HW114711   0.716   1.010  11.381 -0.5701 -0.9020  1.0665
 1026SOL    HW214712   0.804   1.118  11.409 -1.3166 -0.3690 -1.4235
 1027SOL     OW14713   0.093   2.248   9.157  0.1198  0.0081  0.0295
 1027SOL    HW114714   0.162   2.200   9.202  1.8673  0.4121 -2.2217
 1027SOL    HW214715   0.148   2.324   9.138 -1.6318  1.1531 -0.5005
 1028SOL     OW14716   2.692   0.935  16.768  0.2957  0.3740 -0.4765
 1028SOL    HW114717   2.715   0.948  16.676  0.3273  0.0325 -0.5168
 1028SOL    HW214718   2.678   0.841  16.780 -1.0931  0.6281 -0.1158
 1029SOL     OW14719   3.500   3.942   6.590  0.3388 -0.4326 -0.2603
 1029SOL    HW114720   3.468   3.960   6.502 -0.0326 -0.0470 -0.0431
 1029SOL    HW214721   3.532   3.853   6.573 -0.6185 -0.8184 -0.0395
 1030SOL     OW14722   0.264   2.229   1.884 -0.2887  0.5794  0.2389
 1030SOL    HW114723   0.282   2.322   1.899 -1.2195  0.9023 -0.7055
 1030SOL    HW214724   0.307   2.190   1.960  1.2009  1.9465  0.1010
 1031SOL     OW14725   0.255   1.279   4.863 -0.2870 -0.2631 -0.2094
 1031SOL    HW114726   0.240   1.184   4.866  1.4745 -0.5540 -0.4117
 1031SOL    HW214727   0.351   1.286   4.861 -0.2775 -0.3182  0.1684
 1032SOL     OW14728   2.273   2.933   8.060  0.2482  0.4741  0.1607
 1032SOL    HW114729   2.282   2.920   7.966  3.9949 -0.5123  0.6216
 1032SOL    HW214730   2.361   2.935   8.098  0.3173 -1.0706  0.0864
 1033SOL     OW14731   1.345   0.135   6.559  0.6065  0.3272 -0.2780
 1033SOL    HW114732   1.389   0.056   6.591  2.4032  1.1815 -0.6492
 1033SOL    HW214733   1.255   0.102   6.565  1.6353 -2.6961 -1.5280
 1034SOL     OW14734   3.471   1.565   4.780 -0.1779 -0.0491  0.7690
 1034SOL    HW114735   3.391   1.518   4.757 -0.3298  0.2902  0.6026
 1034SOL    HW214736   3.519   1.574   4.698  0.7820 -0.0609  1.3244
 1035SOL     OW14737   1.489   0.975   4.195  0.6389  0.2407 -0.0227
 1035SOL    HW114738   1.466   1.068   4.188  1.8620  0.5511  0.1416
 1035SOL    HW214739   1.575   0.972   4.153  1.1406  0.8097  0.9346
 1036SOL     OW14740   3.039   1.786   6.433 -0.2082 -0.2554 -0.5803
 1036SOL    HW114741   3.121   1.817   6.471 -0.1046 -2.8589  1.3246
 1036SOL    HW214742   2.971   1.848   6.459  1.2504  0.7057  1.0126
 1037SOL     OW14743   4.083   0.738   4.505  0.6053 -0.0100  0.3199
 1037SOL    HW114744   4.051   0.663   4.455  0.9461 -1.0783  1.6982
 1037SOL    HW214745   4.158   0.765   4.452 -1.0525  1.6198 -1.2057
 1038SOL     OW14746   1.689   0.062   9.278  0.3372  0.0062 -0.2156
 1038SOL    HW114747   1.664   0.155   9.280 -1.6214 -0.5120 -0.1911
 1038SOL    HW214748   1.601   0.030   9.259 -1.1499  3.0727  1.4483
 1039SOL     OW14749   3.093   4.115  15.401  0.0700 -0.0157  0.5839
 1039SOL    HW114750   3.025   4.118  15.467 -0.7328  1.4979 -0.3153
 1039SOL    HW214751   3.052   4.085  15.320  0.6085  0.9473 -0.0398
 1040SOL     OW14752   0.429   4.618   8.474 -0.7640  0.7195  0.2542
 1040SOL    HW114753   0.493   4.597   8.406 -0.1596 -2.0889  1.6923
 1040SOL    HW214754   0.403   4.705   8.443 -0.0720  0.7812 -0.1482
 1041SOL     OW14755   2.123   4.137   6.902  0.3041 -0.6005 -0.1052
 1041SOL    HW114756   2.169   4.090   6.971  1.6539  0.3304 -0.3733
 1041SOL    HW214757   2.045   4.163   6.951  0.0887 -1.0526 -0.2023
 1042SOL     OW14758   0.507   1.214  15.548  0.4168  0.0357  0.1858
 1042SOL    HW114759   0.575   1.214  15.481 -0.3038 -1.4546 -0.5537
 1042SOL    HW214760   0.496   1.303  15.582  1.0327 -0.1919  0.9715
 1043SOL     OW14761   0.738   2.914   3.936 -0.3301  0.7534 -0.1537
 1043SOL    HW114762   0.755   2.879   4.023  1.8286  1.3560 -0.3216
 1043SOL    HW214763   0.759   2.843   3.875 -1.6960 -0.1702  0.4661
 1044SOL     OW14764   2.252   4.643   5.107 -0.8820  0.3551  0.1595
 1044SOL    HW114765   2.166   4.602   5.117 -1.7098  1.5258 -1.9359
 1044SOL    HW214766   2.258   4.680   5.195  0.5230  0.4556  0.0229
 1045SOL     OW14767   1.968   1.733   5.282  0.1600 -0.3509 -0.4853
 1045SOL    HW114768   1.947   1.695   5.196  1.1884  1.1634 -1.4029
 1045SOL    HW214769   1.926   1.666   5.336  0.6941  0.7896  1.3289
 1046SOL     OW14770   2.678   0.693   2.113  0.0203 -0.4958  0.2783
 1046SOL    HW114771   2.740   0.621   2.109 -2.7318 -2.8335  0.3591
 1046SOL    HW214772   2.602   0.652   2.073  2.7090 -3.8689 -1.3001
 1047SOL     OW14773   2.625   4.567   6.789 -0.4756 -0.0719  0.1560
 1047SOL    HW114774   2.627   4.627   6.863 -0.2155  2.9852 -2.3022
 1047SOL    HW214775   2.687   4.499   6.815  1.5660  1.2857 -1.1562
 1048SOL     OW14776   2.384   3.709   1.085 -0.2257  0.4473  0.2196
 1048SOL    HW114777   2.429   3.630   1.114 -0.9060  0.4377  1.2818
 1048SOL    HW214778   2.400   3.724   0.992  0.7931  0.9767  0.4833
 1049SOL     OW14779   3.234   4.689  14.075  0.3615  0.1336 -0.6166
 1049SOL    HW114780   3.218   0.042  14.044  1.5420  1.3039  2.1882
 1049SOL    HW214781   3.255   4.695  14.168  1.0054  0.8203 -0.8009
 1050SOL     OW14782   3.614   1.918   6.398 -0.2700  0.6048  0.5086
 1050SOL    HW114783   3.698   1.923   6.444  1.5048 -0.0063 -2.7126
 1050SOL    HW214784   3.570   2.001   6.415 -0.2638  0.6909  0.1046
 1051SOL     OW14785   2.090   3.877  10.039  0.4979 -0.0934  0.2548
 1051SOL    HW114786   2.096   3.883   9.944  0.9196 -2.2852  0.1434
 1051SOL    HW214787   2.154   3.808  10.054  1.7762  1.0808  0.2170
 1052SOL     OW14788   4.341   1.347   3.509 -0.1622  0.1643 -0.2023
 1052SOL    HW114789   4.314   1.437   3.491 -1.6015 -0.1344  0.3944
 1052SOL    HW214790   4.272   1.297   3.466 -0.3977  0.5841 -0.3191
 1053SOL     OW14791   0.406   3.911   5.310 -0.2474 -0.2527  0.7304
 1053SOL    HW114792   0.389   3.945   5.222 -0.7140 -0.0145  0.9113
 1053SOL    HW214793   0.337   3.845   5.320 -1.1847  0.4210 -1.2215
 1054SOL     OW14794   1.434   2.886   8.264  0.2163 -0.0912  0.3019
 1054SOL    HW114795   1.353   2.841   8.289  1.2472 -1.1347  1.7807
 1054SOL    HW214796   1.409   2.977   8.283 -0.4072 -0.3882  0.8878
 1055SOL     OW14797   1.929   0.018  17.687 -0.0968 -0.8784  0.0361
 1055SOL    HW114798   2.002   4.726  17.632  0.2949 -0.9396  0.5850
 1055SOL    HW214799   1.866   0.058  17.627 -0.1352 -0.8497  0.0953
 1056SOL     OW14800   1.657   1.372   5.162 -0.2237 -0.3374 -0.1299
 1056SOL    HW114801   1.575   1.335   5.127 -1.1047  0.3540  1.1873
 1056SOL    HW214802   1.713   1.305   5.123 -1.0877 -1.3069  0.2873
 1057SOL     OW14803   1.871   0.967   2.683  0.2085  0.1865  0.1556
 1057SOL    HW114804   1.859   1.046   2.630  2.6403  1.5381  1.6420
 1057SOL    HW214805   1.795   0.912   2.663 -0.1168  0.1678  1.4769
 1058SOL     OW14806   1.191   1.980   6.865 -0.3248  0.0169  0.0703
 1058SOL    HW114807   1.191   2.065   6.821 -1.6963 -0.0743 -0.0959
 1058SOL    HW214808   1.198   2.009   6.955  0.4426 -0.7387  0.2487
 1059SOL     OW14809   4.383   3.706   3.143 -0.2490  0.5012 -0.2858
 1059SOL    HW114810   4.425   3.778   3.189 -0.0097  0.0964  0.1253
 1059SOL    HW214811   4.458   3.658   3.108  0.0643 -0.3588  1.5734
 1060SOL     OW14812   0.631   1.078   5.346 -0.0300 -0.4409  0.1957
 1060SOL    HW114813   0.673   1.081   5.431  1.3670  1.0255 -0.5346
 1060SOL    HW214814   0.539   1.085   5.372  0.2034 -1.0876  1.1970
 1061SOL     OW14815   0.444   2.748  10.706  0.5311 -0.1151 -0.0016
 1061SOL    HW114816   0.399   2.692  10.642  2.1047  0.1121 -1.2966
 1061SOL    HW214817   0.512   2.689  10.740 -2.6922 -1.2890  4.3296
 1062SOL     OW14818   2.577   2.683   4.940  0.3404 -0.4506  0.5816
 1062SOL    HW114819   2.608   2.703   4.852 -0.8288 -1.9332 -0.1549
 1062SOL    HW214820   2.541   2.595   4.940  0.8080 -0.6438  1.7775
 1063SOL     OW14821   4.576   2.718  17.032 -0.3800  0.0314  0.4883
 1063SOL    HW114822   4.582   2.742  16.940 -0.2342 -1.1675  0.1849
 1063SOL    HW214823   4.669   2.699  17.046 -0.2528  1.3096  1.3732
 1064SOL     OW14824   0.561   0.534   3.612  0.3366 -0.7422 -0.0069
 1064SOL    HW114825   0.605   0.489   3.684 -0.9033 -1.1250  0.5163
 1064SOL    HW214826   0.516   0.598   3.666  2.5304  0.3779  0.4883
 1065SOL     OW14827   3.096   0.410   1.620 -0.1071  0.1546 -0.0735
 1065SOL    HW114828   3.099   0.324   1.578 -1.0752 -0.1838  0.5524
 1065SOL    HW214829   3.176   0.444   1.580  0.6145 -1.8374 -0.3005
 1066SOL     OW14830   0.744   0.534  13.983 -0.0033 -0.1462 -0.2189
 1066SOL    HW114831   0.752   0.564  13.893 -2.4018  0.5621 -0.1822
 1066SOL    HW214832   0.819   0.578  14.023 -0.2394 -1.7448  1.9858
 1067SOL     OW14833   1.082   3.498   2.428 -0.2051  0.4209  0.0499
 1067SOL    HW114834   1.080   3.532   2.518  1.5030  0.9833 -0.1190
 1067SOL    HW214835   0.991   3.469   2.426 -0.6791  1.9398 -0.6115
 1068SOL     OW14836   4.079   2.166   8.040  0.6351 -0.5318 -0.1410
 1068SOL    HW114837   4.009   2.110   8.007 -1.4168  1.2957  1.1178
 1068SOL    HW214838   4.096   2.113   8.119  2.7780  0.4375  0.0617
 1069SOL     OW14839   1.475   2.137   2.439 -0.0036  0.0194 -0.3911
 1069SOL    HW114840   1.542   2.091   2.490  2.0437  3.0358 -0.3199
 1069SOL    HW214841   1.527   2.164   2.363  0.5194 -0.0240 -0.0484
 1070SOL     OW14842   3.312   1.891   6.013 -0.3386 -0.2557 -0.3592
 1070SOL    HW114843   3.332   1.901   5.920 -0.7937  0.4654 -0.3849
 1070SOL    HW214844   3.399   1.898   6.052  0.5831 -1.2802 -2.2745
 1071SOL     OW14845   0.424   0.161   6.933 -0.1696  0.9322 -0.6111
 1071SOL    HW114846   0.382   0.210   6.862  0.4357  1.9763 -0.2583
 1071SOL    HW214847   0.354   0.119   6.983  2.3630 -1.7520  0.6552
 1072SOL     OW14848   2.179   3.779   5.227  0.2117 -0.1948  0.5869
 1072SOL    HW114849   2.267   3.802   5.256  0.2630  2.6975 -1.8204
 1072SOL    HW214850   2.172   3.694   5.269  0.8542 -0.2385  0.6044
 1073SOL     OW14851   4.332   2.523  12.461  0.3145  0.1250  0.2313
 1073SOL    HW114852   4.350   2.433  12.488 -1.2384  0.0427  1.0337
 1073SOL    HW214853   4.239   2.513  12.442  0.8319 -3.7297 -0.2905
 1074SOL     OW14854   3.739   4.293   3.696 -0.2103  0.1410  0.1550
 1074SOL    HW114855   3.717   4.267   3.607 -3.9321 -2.5515  1.8238
 1074SOL    HW214856   3.784   4.377   3.682 -2.3077  0.8952 -2.1945
 1075SOL     OW14857   0.144   3.905   8.725  0.2758 -0.2468 -0.7750
 1075SOL    HW114858   0.138   3.993   8.688 -1.8329  0.1871  0.5630
 1075SOL    HW214859   0.062   3.903   8.774  1.3433 -2.9169  0.9149
 1076SOL     OW14860   1.122   0.643   1.655  0.0552  0.4631  0.0584
 1076SOL    HW114861   1.189   0.575   1.660 -0.0891  0.0656 -3.4439
 1076SOL    HW214862   1.077   0.601   1.582 -0.9808  0.9935  0.3723
 1077SOL     OW14863   1.535   0.430   6.440  0.6256 -0.5555 -0.3775
 1077SOL    HW114864   1.550   0.346   6.483 -1.8663 -0.1056  1.3844
 1077SOL    HW214865   1.607   0.432   6.377 -0.6569  2.2714 -1.7454
 1078SOL     OW14866   3.022   0.368  17.479  0.2330  0.0317 -0.8666
 1078SOL    HW114867   3.036   0.349  17.386  0.5193 -1.3672 -0.5331
 1078SOL    HW214868   3.082   0.305  17.517 -1.0944 -1.5151 -1.3498
 1079SOL     OW14869   4.205   4.104   9.872 -0.3475 -0.7293  0.0313
 1079SOL    HW114870   4.165   4.087   9.787  0.1828 -3.8230  0.4019
 1079SOL    HW214871   4.123   4.079   9.916  0.0138 -0.7579  0.6912
 1080SOL     OW14872   1.996   3.055   5.975 -0.5762 -0.1540  0.2553
 1080SOL    HW114873   1.930   2.986   5.969 -0.9905  0.2141  0.5484
 1080SOL    HW214874   1.962   3.102   6.051  0.8098 -0.0813  0.8282
 1081SOL     OW14875   1.177   0.386   7.097  0.0235 -0.3251  1.0263
 1081SOL    HW114876   1.191   0.310   7.040 -2.3926 -0.4246  0.5502
 1081SOL    HW214877   1.115   0.356   7.163 -0.8229 -0.7679  0.0351
 1082SOL     OW14878   1.889   0.133   9.462  0.6994  0.1589 -0.2382
 1082SOL    HW114879   1.832   0.166   9.532  1.0812  0.5861 -0.1253
 1082SOL    HW214880   1.817   0.105   9.406 -0.5583  0.7061  1.0848
 1083SOL     OW14881   2.030   2.645   6.897  0.2550  0.6525 -0.6294
 1083SOL    HW114882   2.118   2.619   6.871  0.7439 -0.7957  2.5125
 1083SOL    HW214883   1.993   2.647   6.809 -0.8652  1.3046 -0.1487
 1084SOL     OW14884   4.612   4.289   5.648 -0.1912  0.0863  0.2479
 1084SOL    HW114885   4.646   4.376   5.625  3.4838 -1.5871 -0.7107
 1084SOL    HW214886   4.541   4.281   5.584  0.6390 -0.0531 -0.6637
 1085SOL     OW14887   1.907   3.549   9.141  0.4210  0.0445 -0.0892
 1085SOL    HW114888   1.935   3.625   9.193 -2.6487  0.0420  1.5941
 1085SOL    HW214889   1.963   3.561   9.065 -0.8041  2.2154 -0.6442
 1086SOL     OW14890   2.923   2.362  13.219 -0.8351 -0.2509 -0.3123
 1086SOL    HW114891   2.930   2.362  13.123  0.9551  1.0195 -0.1691
 1086SOL    HW214892   2.952   2.451  13.237 -0.7591  0.6368 -4.6816
 1087SOL     OW14893   3.885   3.660   8.818 -0.1095  0.0222  0.3261
 1087SOL    HW114894   3.841   3.612   8.748 -0.3023  2.0389 -0.9348
 1087SOL    HW214895   3.866   3.594   8.884  1.1061  0.3492  1.0016
 1088SOL     OW14896   0.259   4.457  16.639  0.4175 -0.0245 -0.9000
 1088SOL    HW114897   0.344   4.459  16.596  0.6066  0.8272 -0.4976
 1088SOL    HW214898   0.229   4.374  16.603 -0.9767 -1.3270  3.2141
 1089SOL     OW14899   1.320   1.225  17.472 -0.4478  0.5644 -0.0113
 1089SOL    HW114900   1.258   1.212  17.400  0.7227 -2.5242 -0.4260
 1089SOL    HW214901   1.397   1.246  17.418  0.6369 -0.3449  1.2012
 1090SOL     OW14902   1.718   3.988   8.905  0.2717  0.6043  0.0252
 1090SOL    HW114903   1.653   3.983   8.835 -0.2357 -0.0788  0.5553
 1090SOL    HW214904   1.802   3.962   8.868  0.3054 -0.5132  0.9081
 1091SOL     OW14905   3.595   0.669  12.428  0.2806  0.3598  0.3582
 1091SOL    HW114906   3.565   0.716  12.505 -0.1925  1.8573 -0.7318
 1091SOL    HW214907   3.615   0.738  12.364 -1.3852 -0.5191 -1.1387
 1092SOL     OW14908   3.686   1.069   6.508 -0.0984  0.4023 -0.4110
 1092SOL    HW114909   3.646   1.095   6.591 -2.2452 -1.9653 -0.6939
 1092SOL    HW214910   3.767   1.118   6.518 -0.0866  0.3031  0.0040
 1093SOL     OW14911   3.553   0.739   5.110 -0.3823 -0.0822 -0.2325
 1093SOL    HW114912   3.542   0.828   5.144 -0.6179  0.0381 -0.6268
 1093SOL    HW214913   3.648   0.727   5.102 -0.5991 -0.9042 -1.6339
 1094SOL     OW14914   3.728   2.384   2.648  0.8238  0.2072  0.3399
 1094SOL    HW114915   3.777   2.441   2.589  1.0865  0.9847  1.3095
 1094SOL    HW214916   3.712   2.432   2.730 -1.7798  0.9886 -0.6348
 1095SOL     OW14917   0.575   3.290   3.716  0.0607 -0.3180  0.5279
 1095SOL    HW114918   0.624   3.366   3.749 -0.0422 -0.3734  0.8077
 1095SOL    HW214919   0.546   3.239   3.792 -1.6986  1.2529  0.9431
 1096SOL     OW14920   2.947   2.331   7.297 -0.2450 -0.6157  0.1656
 1096SOL    HW114921   2.884   2.395   7.262 -0.1134 -1.5400 -1.7696
 1096SOL    HW214922   3.033   2.364   7.271  0.6586 -2.8884  0.2988
 1097SOL     OW14923   4.177   3.643   6.106  0.0936 -0.1910  0.5325
 1097SOL    HW114924   4.247   3.592   6.145  0.3860 -0.2206 -0.0305
 1097SOL    HW214925   4.112   3.573   6.104 -1.1574  0.9545  0.2692
 1098SOL     OW14926   4.421   0.698   3.902  0.2277 -0.1116 -0.6505
 1098SOL    HW114927   4.451   0.786   3.878 -1.6289  0.8834  0.6878
 1098SOL    HW214928   4.399   0.668   3.814 -1.0206  0.1156 -0.4150
 1099SOL     OW14929   1.793   4.487  17.503  0.4278  0.0865 -0.5260
 1099SOL    HW114930   1.876   4.458  17.541  0.9556  0.2163 -1.5811
 1099SOL    HW214931   1.745   4.509  17.583  1.6623 -1.4225  0.6126
 1100SOL     OW14932   1.394   1.433   9.342 -0.0584 -0.2316  0.4131
 1100SOL    HW114933   1.401   1.524   9.312 -0.1504  0.2023  1.6858
 1100SOL    HW214934   1.484   1.420   9.373  0.2538 -0.2431 -0.5123
 1101SOL     OW14935   4.475   3.344  10.500 -0.0143 -0.0071 -0.2375
 1101SOL    HW114936   4.520   3.370  10.420 -0.2207  2.2565  0.3589
 1101SOL    HW214937   4.511   3.256  10.505  1.1839  0.5193  0.2658
 1102SOL     OW14938   1.775   0.521  16.960  0.0271  0.6116 -0.3582
 1102SOL    HW114939   1.830   0.594  16.931  0.1260  1.3352  1.6393
 1102SOL    HW214940   1.708   0.526  16.891  1.2527 -0.0053 -1.6076
 1103SOL     OW14941   2.226   0.711   0.661 -0.0789 -0.2388  0.0429
 1103SOL    HW114942   2.244   0.761   0.582  0.2437 -0.2743  0.0915
 1103SOL    HW214943   2.179   0.775   0.715 -0.8139 -1.6931  1.1239
 1104SOL     OW14944   0.136   4.276   8.095 -0.0247  0.2076  0.2591
 1104SOL    HW114945   0.041   4.274   8.081  0.0278  0.1629 -0.0832
 1104SOL    HW214946   0.137   4.217   8.171  1.6208 -1.6357 -1.1954
 1105SOL     OW14947   1.847   0.254   1.836 -0.1156  0.5547  0.2446
 1105SOL    HW114948   1.786   0.184   1.859  0.1019  0.4693  0.5626
 1105SOL    HW214949   1.878   0.227   1.750 -0.2149  2.1494 -0.2846
 1106SOL     OW14950   0.070   0.442   5.783 -0.1973 -0.1276  0.4209
 1106SOL    HW114951   0.104   0.385   5.714  1.4367 -1.0722  2.0122
 1106SOL    HW214952   0.058   0.522   5.732 -0.1848 -1.5820 -1.8346
 1107SOL     OW14953   1.172   1.778   1.895  0.0608  0.1709 -0.3296
 1107SOL    HW114954   1.086   1.765   1.934  0.9276 -2.1635  0.8286
 1107SOL    HW214955   1.147   1.796   1.804  0.3346  1.8058 -0.0783
 1108SOL     OW14956   3.020   1.527   7.628  0.6461 -0.0851 -0.1545
 1108SOL    HW114957   2.924   1.528   7.626  0.6472  1.3438  0.4072
 1108SOL    HW214958   3.040   1.560   7.541 -2.6042 -0.7269 -1.1633
 1109SOL     OW14959   2.504   2.613   9.410  0.6283  0.1492  0.7282
 1109SOL    HW114960   2.552   2.633   9.491 -0.2959  0.3494  1.2364
 1109SOL    HW214961   2.476   2.522   9.416 -1.8263  0.7664 -1.6920
 1110SOL     OW14962   3.951   4.580   3.140  0.0598 -0.2569  0.1703
 1110SOL    HW114963   3.878   4.594   3.080  1.9142  2.2202 -1.4997
 1110SOL    HW214964   3.979   4.667   3.169 -0.8605  0.3238 -0.6971
 1111SOL     OW14965   2.694   3.830   2.373 -1.0224 -0.3052  0.5058
 1111SOL    HW114966   2.700   3.846   2.279  1.4149  0.8767  0.8658
 1111SOL    HW214967   2.779   3.833   2.417  0.2444 -0.1465 -1.9731
 1112SOL     OW14968   2.600   3.609  13.267  0.1787 -0.5207  0.1672
 1112SOL    HW114969   2.680   3.580  13.223  0.0128 -0.5266 -0.1223
 1112SOL    HW214970   2.546   3.538  13.234 -0.0508 -1.4083  2.4564
 1113SOL     OW14971   2.755   0.710   4.273 -0.4328 -0.1039 -0.0583
 1113SOL    HW114972   2.808   0.705   4.193  1.0184 -2.5934  1.0680
 1113SOL    HW214973   2.792   0.785   4.318 -0.5851  0.6697 -1.2058
 1114SOL     OW14974   3.449   3.774   6.177  0.2078 -0.1558 -0.0551
 1114SOL    HW114975   3.461   3.867   6.197  0.0347 -0.2272  0.3756
 1114SOL    HW214976   3.368   3.740   6.216 -0.4786  0.2185 -1.1611
 1115SOL     OW14977   2.640   3.611   4.340  0.5880  0.4917 -0.1994
 1115SOL    HW114978   2.658   3.521   4.312  0.7518  0.8375 -1.2009
 1115SOL    HW214979   2.603   3.596   4.427 -1.4472 -0.2977 -1.1793
 1116SOL     OW14980   1.230   4.115   1.038  0.1214  0.2490  0.3943
 1116SOL    HW114981   1.168   4.113   0.965  0.0881 -0.3087  0.4435
 1116SOL    HW214982   1.312   4.156   1.011  0.1155 -0.2997 -0.4548
 1117SOL     OW14983   3.930   3.218   5.798  0.2617 -0.1372 -0.3596
 1117SOL    HW114984   3.880   3.141   5.771 -0.8041  1.1964 -2.1046
 1117SOL    HW214985   3.959   3.204   5.889  0.4198 -0.8443 -0.5176
 1118SOL     OW14986   4.561   3.082   2.371  0.8425  0.4805 -0.4084
 1118SOL    HW114987   4.638   3.042   2.330 -0.7824 -0.4812 -2.4932
 1118SOL    HW214988   4.577   3.162   2.420 -1.0341  1.7689 -1.9025
 1119SOL     OW14989   4.590   0.538   2.548  0.1665 -0.9901  0.6880
 1119SOL    HW114990   4.549   0.494   2.622  0.7132 -0.9977  0.9887
 1119SOL    HW214991   4.657   0.592   2.590 -0.1230 -0.4753  0.4842
 1120SOL     OW14992   0.866   2.501   1.638  0.0541  0.8912 -0.0599
 1120SOL    HW114993   0.942   2.512   1.696  0.2466  0.0882 -0.1558
 1120SOL    HW214994   0.830   2.586   1.616 -0.1193  0.6662 -0.6404
 1121SOL     OW14995   0.706   0.457   8.760  0.5495 -0.6150  0.9271
 1121SOL    HW114996   0.667   0.544   8.760  1.8701 -0.0189 -0.1652
 1121SOL    HW214997   0.652   0.415   8.827 -0.9320  0.0115  0.1264
 1122SOL     OW14998   0.175   2.014   9.937 -0.2643  0.5945 -0.1013
 1122SOL    HW114999   0.207   1.935   9.980  0.0398  0.4162 -0.6622
 1122SOL    HW215000   0.082   2.020   9.960 -0.3594  1.0441 -0.6090
 1123SOL     OW15001   0.365   0.340   7.923 -0.3839  0.3057 -0.1422
 1123SOL    HW115002   0.390   0.334   8.015  0.2182  0.9857 -0.2570
 1123SOL    HW215003   0.406   0.257   7.898 -1.3752  0.0060 -0.7685
 1124SOL     OW15004   1.051   3.154   5.101  0.4675  0.0705 -0.0019
 1124SOL    HW115005   1.097   3.111   5.173  1.5235  1.6936  0.3083
 1124SOL    HW215006   0.968   3.107   5.092  1.1698 -1.5550  2.0925
 1125SOL     OW15007   2.975   0.788  12.363  0.0005 -0.4037 -0.6581
 1125SOL    HW115008   2.993   0.786  12.269 -2.8373  1.3223 -1.2535
 1125SOL    HW215009   3.064   0.783  12.395 -0.2091 -2.3436 -0.4141
 1126SOL     OW15010   2.497   2.184   9.628  0.2562  0.1242  0.0092
 1126SOL    HW115011   2.518   2.225   9.712 -1.7032  1.0704  0.0171
 1126SOL    HW215012   2.551   2.104   9.633  1.2657  0.6608 -2.5617
 1127SOL     OW15013   3.411   0.946  14.969 -0.3696  0.4319  0.7612
 1127SOL    HW115014   3.453   1.032  14.966 -1.8031  1.0424 -1.4180
 1127SOL    HW215015   3.407   0.928  15.063 -0.2125 -1.7960  0.3428
 1128SOL     OW15016   1.125   4.583   6.683 -0.1322  0.1273  0.1277
 1128SOL    HW115017   1.110   4.625   6.767 -0.2531  1.1778 -0.4178
 1128SOL    HW215018   1.163   4.503   6.719 -0.8458  0.2158  1.0703
 1129SOL     OW15019   2.144   0.911   8.231 -0.7093 -0.5331 -0.1431
 1129SOL    HW115020   2.153   0.913   8.136 -1.0381 -1.2336 -0.1891
 1129SOL    HW215021   2.049   0.924   8.224 -0.5586  1.7429  2.1655
 1130SOL     OW15022   2.375   0.541   1.425  0.1778  0.9786  0.7480
 1130SOL    HW115023   2.307   0.580   1.480  1.1548  1.5568  1.5451
 1130SOL    HW215024   2.381   0.453   1.462 -0.3904  0.1891 -1.0192
 1131SOL     OW15025   4.278   1.422   1.979 -0.2078 -0.0954  0.2107
 1131SOL    HW115026   4.240   1.483   1.916 -0.3996  0.4622  0.8777
 1131SOL    HW215027   4.198   1.378   2.008 -0.3803  2.2461  3.2590
 1132SOL     OW15028   1.540   3.837   2.115  0.9145  0.6598  0.2058
 1132SOL    HW115029   1.502   3.758   2.154  2.5883 -0.7230 -0.9647
 1132SOL    HW215030   1.461   3.878   2.081 -0.2632 -1.5674  0.2572
 1133SOL     OW15031   3.265   4.202   7.816  0.2273 -0.1975  0.0210
 1133SOL    HW115032   3.242   4.287   7.855  1.0311  0.2048 -0.3849
 1133SOL    HW215033   3.356   4.223   7.799  0.3460  1.1734  2.2938
 1134SOL     OW15034   3.991   3.197   2.192 -0.2602  0.0245 -0.5792
 1134SOL    HW115035   4.057   3.231   2.252  0.2485 -2.5267  0.3166
 1134SOL    HW215036   3.921   3.187   2.258  1.1024 -0.2339  0.8286
 1135SOL     OW15037   3.732   4.686   1.383 -0.2078 -0.3303  0.3036
 1135SOL    HW115038   3.797   4.628   1.345 -0.8610 -0.7816 -0.1300
 1135SOL    HW215039   3.776   4.719   1.461  0.2888 -2.3514  0.8660
 1136SOL     OW15040   2.293   3.418   8.453  0.4564 -0.6809 -0.0042
 1136SOL    HW115041   2.357   3.427   8.523  0.8930 -0.2754 -0.4543
 1136SOL    HW215042   2.240   3.347   8.488 -2.9236  1.4327 -0.7652
 1137SOL     OW15043   3.029   1.592   4.505  0.0883  0.1385  0.0003
 1137SOL    HW115044   2.939   1.618   4.486 -0.2337 -0.4790  0.6675
 1137SOL    HW215045   3.005   1.515   4.557 -1.1762  2.0911  2.3051
 1138SOL     OW15046   4.233   1.368   3.818  0.4012  0.2778 -0.0594
 1138SOL    HW115047   4.284   1.400   3.744  0.9462 -1.6746 -0.5428
 1138SOL    HW215048   4.226   1.446   3.872 -1.1270  0.4347 -0.4827
 1139SOL     OW15049   0.535   3.282   3.423  0.2031  0.4906 -0.7495
 1139SOL    HW115050   0.478   3.355   3.448 -0.6163 -0.0115 -1.1615
 1139SOL    HW215051   0.572   3.267   3.510  0.9798 -0.9572 -1.3231
 1140SOL     OW15052   0.715   1.792   5.567  0.0437  0.6327 -0.0995
 1140SOL    HW115053   0.775   1.728   5.603  2.4085  2.2281 -1.2126
 1140SOL    HW215054   0.685   1.835   5.647 -0.2522 -0.3301  0.2979
 1141SOL     OW15055   0.228   3.987  10.548  0.1230  0.2546 -0.0192
 1141SOL    HW115056   0.313   4.016  10.514  0.9198 -1.9036  0.1541
 1141SOL    HW215057   0.212   4.031  10.631  0.2026  1.0702 -0.4411
 1142SOL     OW15058   0.914   4.482  13.440  0.1944  0.7230 -0.5909
 1142SOL    HW115059   1.009   4.493  13.451 -0.2135  1.5316  1.9885
 1142SOL    HW215060   0.912   4.411  13.375 -0.2881  0.1369  0.0563
 1143SOL     OW15061   0.100   3.372  15.620  0.3033 -0.2940  0.0778
 1143SOL    HW115062   0.072   3.443  15.562 -0.2872 -1.8267 -1.5187
 1143SOL    HW215063   0.190   3.353  15.593  0.4751  0.9375 -0.2094
 1144SOL     OW15064   4.644   4.110   0.636  0.0279  0.2737  0.3354
 1144SOL    HW115065   4.663   4.195   0.596  3.2653 -0.1366  1.0178
 1144SOL    HW215066   4.725   4.088   0.683 -0.0794 -1.1332 -0.1401
 1145SOL     OW15067   4.236   3.525   4.438 -0.3335  0.3110  0.1995
 1145SOL    HW115068   4.241   3.619   4.421  0.8121  0.1362 -0.4818
 1145SOL    HW215069   4.216   3.493   4.350 -1.0891  1.2216  0.0463
 1146SOL     OW15070   0.104   1.613  16.157 -0.2633 -0.3350  0.1261
 1146SOL    HW115071   0.079   1.649  16.072  0.4235  0.6799  0.3636
 1146SOL    HW215072   0.157   1.537  16.133 -0.8349  0.2577 -2.9689
 1147SOL     OW15073   3.411   2.145   5.788 -0.4127 -0.4910  0.4100
 1147SOL    HW115074   3.504   2.165   5.777 -0.2195 -0.8800  1.4252
 1147SOL    HW215075   3.414   2.053   5.762 -3.8771 -0.7237  0.9088
 1148SOL     OW15076   1.633   2.718   6.837 -0.6834 -0.4245  0.0031
 1148SOL    HW115077   1.540   2.709   6.817 -0.6245 -0.3825 -0.2810
 1148SOL    HW215078   1.654   2.625   6.848 -1.8736 -0.7244 -0.3441
 1149SOL     OW15079   0.873   1.447   6.351 -0.5594 -0.0920 -0.1252
 1149SOL    HW115080   0.906   1.436   6.262 -1.7302  2.0539 -0.8257
 1149SOL    HW215081   0.785   1.477   6.328  0.8005  2.8888 -1.4196
 1150SOL     OW15082   3.167   3.476   5.700 -0.4403 -0.3678  0.0195
 1150SOL    HW115083   3.231   3.546   5.695 -0.0877 -0.7487 -0.7738
 1150SOL    HW215084   3.218   3.399   5.724 -2.2436 -0.9322  2.0941
 1151SOL     OW15085   1.863   1.173   0.916  0.0217  0.3945  0.7842
 1151SOL    HW115086   1.866   1.121   0.836  0.3942  0.5989  0.6619
 1151SOL    HW215087   1.929   1.241   0.904 -0.2316  0.6641  0.9220
 1152SOL     OW15088   2.128   4.098   5.888  0.1796 -0.0096 -0.1666
 1152SOL    HW115089   2.182   4.021   5.872 -0.0887 -0.5797  1.6619
 1152SOL    HW215090   2.117   4.153   5.811  1.5791 -1.1041 -1.1441
 1153SOL     OW15091   1.355   0.535   1.643  0.5431  0.2945 -0.4206
 1153SOL    HW115092   1.398   0.617   1.619  1.1993  0.0108 -0.1959
 1153SOL    HW215093   1.428   0.474   1.634 -0.0323 -0.8433  2.7236
 1154SOL     OW15094   3.963   3.814   5.200 -0.1333  0.6674  0.1103
 1154SOL    HW115095   3.872   3.840   5.207 -0.1386  0.4093  1.1082
 1154SOL    HW215096   3.975   3.807   5.295  1.2675 -1.7147 -0.2454
 1155SOL     OW15097   0.667   2.748   2.377 -0.1139  0.0023 -0.2579
 1155SOL    HW115098   0.710   2.765   2.294  1.0681 -1.7780 -0.0240
 1155SOL    HW215099   0.635   2.837   2.393 -0.8982 -0.5190  1.0899
 1156SOL     OW15100   1.056   4.588   3.213  0.0275  0.2958 -0.0358
 1156SOL    HW115101   1.136   4.538   3.200 -1.7493 -2.0295 -1.9933
 1156SOL    HW215102   1.020   4.567   3.300  1.0666 -1.7706 -0.1205
 1157SOL     OW15103   0.395   4.186   8.731  0.0543  0.1572  0.3384
 1157SOL    HW115104   0.386   4.281   8.725  0.8584  0.2123 -0.0248
 1157SOL    HW215105   0.473   4.175   8.676  0.4626 -0.8026  1.1015
 1158SOL     OW15106   2.554   3.140   3.041  0.3640 -0.1243  0.0050
 1158SOL    HW115107   2.521   3.229   3.031 -2.4142 -1.2158 -0.4488
 1158SOL    HW215108   2.477   3.096   3.005  0.4203  0.7649 -1.1926
 1159SOL     OW15109   0.049   0.244   6.340 -0.0170 -0.2650  0.0478
 1159SOL    HW115110   0.110   0.302   6.295 -1.6225  0.3041 -1.3971
 1159SOL    HW215111   0.071   0.251   6.433  0.0115 -1.9332  0.1722
 1160SOL     OW15112   0.444   0.628   2.347 -0.3995  0.2780  0.2292
 1160SOL    HW115113   0.398   0.595   2.425  1.9885 -2.3562  0.5093
 1160SOL    HW215114   0.389   0.706   2.335  1.0139  1.3080  0.5335
 1161SOL     OW15115   1.292   0.910   6.432  0.0470  0.3522 -0.5375
 1161SOL    HW115116   1.211   0.951   6.401 -0.9182  0.1222  1.6872
 1161SOL    HW215117   1.298   0.842   6.364  0.5176 -0.5545  0.4054
 1162SOL     OW15118   4.052   0.785   9.591 -0.0927 -0.3292  0.1746
 1162SOL    HW115119   3.964   0.762   9.621  0.6040  1.0613  3.2780
 1162SOL    HW215120   4.082   0.850   9.654  1.7253 -0.8364 -0.1520
 1163SOL     OW15121   0.120   0.769   9.307 -0.1527  0.2082 -0.3666
 1163SOL    HW115122   0.092   0.849   9.351 -1.6373 -0.6903  0.3173
 1163SOL    HW215123   0.039   0.722   9.325 -0.2849  0.9012  0.8381
 1164SOL     OW15124   1.584   2.299   6.461 -0.0504 -0.6114  0.3861
 1164SOL    HW115125   1.497   2.310   6.422 -0.2146  0.1422  0.9655
 1164SOL    HW215126   1.634   2.283   6.381 -0.7614  1.4818 -0.5028
 1165SOL     OW15127   3.904   3.532   5.388  0.0654 -0.1176 -0.3624
 1165SOL    HW115128   3.938   3.488   5.466 -0.5144  0.6419  0.3159
 1165SOL    HW215129   3.858   3.607   5.425  3.4783  1.4333  0.7694
 1166SOL     OW15130   3.160   2.094  13.627  0.1492 -0.2795  0.6416
 1166SOL    HW115131   3.098   2.123  13.560 -0.9469 -0.6943  1.4723
 1166SOL    HW215132   3.110   2.027  13.674 -0.8367  0.0329  0.0191
 1167SOL     OW15133   2.298   2.854   7.795 -0.4433 -0.5673 -0.1533
 1167SOL    HW115134   2.282   2.765   7.765 -0.8147 -1.9980  4.2978
 1167SOL    HW215135   2.367   2.893   7.741 -0.7361 -1.2130 -0.9899
 1168SOL     OW15136   0.104   2.221   2.301 -0.3385 -0.5784 -0.1948
 1168SOL    HW115137   0.093   2.129   2.275  2.1250 -1.0682  0.5895
 1168SOL    HW215138   0.018   2.257   2.322  0.2180  1.3298 -1.2859
 1169SOL     OW15139   0.321   1.771   6.645  0.3541  0.2358 -0.3865
 1169SOL    HW115140   0.371   1.852   6.655  0.8658  0.0109 -1.1254
 1169SOL    HW215141   0.375   1.716   6.588 -0.4188  0.1011 -0.9913
 1170SOL     OW15142   0.001   4.172   4.532  0.4380 -0.6730  0.1556
 1170SOL    HW115143   4.712   4.169   4.624 -0.8503  1.7799 -0.1067
 1170SOL    HW215144   0.091   4.204   4.540  0.2854  0.2517 -1.6317
 1171SOL     OW15145   0.035   0.738   4.234  0.4149 -0.4218  0.3766
 1171SOL    HW115146   0.089   0.779   4.301 -0.2971  2.8902 -1.0377
 1171SOL    HW215147   0.094   0.674   4.195  1.4501  0.7312  0.0438
 1172SOL     OW15148   4.527   3.348   9.101  0.8904 -0.2855  0.6256
 1172SOL    HW115149   4.434   3.347   9.077  0.2818 -0.2852  2.9829
 1172SOL    HW215150   4.542   3.443   9.099 -1.0582  0.0929  4.0223
 1173SOL     OW15151   3.197   0.513  11.838  0.0571  0.4321 -0.3468
 1173SOL    HW115152   3.208   0.518  11.743 -0.0677  3.0292 -0.2418
 1173SOL    HW215153   3.133   0.579  11.865  0.8168  0.0229  2.4314
 1174SOL     OW15154   1.213   3.588   8.740 -0.4393 -0.0447  0.2964
 1174SOL    HW115155   1.181   3.499   8.757  0.7890 -0.3453  1.1063
 1174SOL    HW215156   1.308   3.580   8.749 -0.1365  2.1023 -1.2962
 1175SOL     OW15157   3.630   0.163   9.804 -0.1189 -0.1116  0.1384
 1175SOL    HW115158   3.577   0.086   9.827 -2.5388  0.9775 -1.7423
 1175SOL    HW215159   3.583   0.240   9.835 -1.4817 -1.0563  0.4169
 1176SOL     OW15160   1.495   3.774   2.713 -0.1771 -0.0258  0.0434
 1176SOL    HW115161   1.542   3.783   2.796  0.0004  0.1327 -0.0731
 1176SOL    HW215162   1.428   3.714   2.746  0.7894 -1.1273 -0.0032
 1177SOL     OW15163   2.412   2.513   2.258 -0.2654  0.0047  0.3281
 1177SOL    HW115164   2.507   2.523   2.270 -0.2698  0.3253  0.0986
 1177SOL    HW215165   2.381   2.596   2.294  0.4070  0.4881 -0.2156
 1178SOL     OW15166   0.173   3.160  14.312 -0.3551 -0.3530 -0.7165
 1178SOL    HW115167   0.204   3.074  14.284  1.4876  0.0545  0.1055
 1178SOL    HW215168   0.251   3.210  14.337 -0.9839  1.1409 -1.7346
 1179SOL     OW15169   0.040   1.673   7.064 -0.4307 -0.4619 -0.1715
 1179SOL    HW115170   0.132   1.670   7.041 -0.1181  0.5528  0.9497
 1179SOL    HW215171   0.043   1.734   7.138 -1.7544 -3.5032  2.3646
 1180SOL     OW15172   3.459   4.640   3.976  0.0934  0.0167  0.5484
 1180SOL    HW115173   3.502   4.569   3.930 -0.9478 -0.7293  0.7195
 1180SOL    HW215174   3.382   4.651   3.919  0.9667 -1.8016 -0.9847
 1181SOL     OW15175   4.376   0.117   6.756  0.2808  0.2361  0.4301
 1181SOL    HW115176   4.391   0.180   6.685 -1.0504  0.6044  0.4592
 1181SOL    HW215177   4.284   0.141   6.772 -0.1531  0.5984 -2.5498
 1182SOL     OW15178   3.274   1.504   1.985  0.0649  0.7487  0.5484
 1182SOL    HW115179   3.268   1.563   1.909 -0.5062  1.1253  0.8886
 1182SOL    HW215180   3.258   1.576   2.046  0.8000  0.5049  1.0206
 1183SOL     OW15181   1.419   4.131  11.685 -0.1226  0.1944 -0.0378
 1183SOL    HW115182   1.424   4.136  11.781  2.2861  1.8378 -0.2701
 1183SOL    HW215183   1.417   4.038  11.663  0.0937  0.2200 -0.1616
 1184SOL     OW15184   0.297   3.475   7.913 -0.1004 -0.2993 -0.4280
 1184SOL    HW115185   0.284   3.394   7.864  1.3068 -0.5613 -0.3541
 1184SOL    HW215186   0.379   3.466   7.960 -0.2792 -0.9748 -0.2459
 1185SOL     OW15187   1.277   2.464   8.168 -0.4299  0.1221 -0.0021
 1185SOL    HW115188   1.362   2.501   8.145  0.5461 -2.1839 -0.1124
 1185SOL    HW215189   1.256   2.509   8.250 -1.7203  1.2357 -0.9325
 1186SOL     OW15190   3.930   1.013   5.275  0.1342 -0.4872 -0.5724
 1186SOL    HW115191   3.844   1.026   5.316  0.8404 -1.5423  1.2573
 1186SOL    HW215192   3.989   1.036   5.347  0.7661  1.0466 -1.5612
 1187SOL     OW15193   1.624   4.556   7.048 -0.3799 -0.4258  0.0813
 1187SOL    HW115194   1.536   4.594   7.056 -0.3415 -0.1596 -0.6960
 1187SOL    HW215195   1.681   4.630   7.068  1.3541 -1.6035 -0.5103
 1188SOL     OW15196   2.899   4.668   0.984 -0.0277  0.1329  0.0928
 1188SOL    HW115197   2.918   4.722   1.061  2.3963 -0.6222  0.0244
 1188SOL    HW215198   2.863   4.726   0.918 -0.9587 -0.5875 -0.0240
 1189SOL     OW15199   1.474   0.038   9.736  0.2068  0.3480  0.0405
 1189SOL    HW115200   1.459   0.117   9.786 -2.6591 -0.1351 -0.0585
 1189SOL    HW215201   1.467   4.711   9.808 -1.5152  0.8814  0.3287
 1190SOL     OW15202   3.179   3.123   9.548 -0.0210  0.1074 -0.2030
 1190SOL    HW115203   3.260   3.152   9.589  1.1683 -0.2811 -2.3034
 1190SOL    HW215204   3.190   3.177   9.470 -2.2454  1.2770  0.2824
 1191SOL     OW15205   3.373   0.313  11.556  0.1453 -0.2782 -0.0784
 1191SOL    HW115206   3.310   0.383  11.568 -0.0441 -0.4716  0.0560
 1191SOL    HW215207   3.379   0.314  11.461  1.0288 -0.3559 -0.0286
 1192SOL     OW15208   2.313   1.587   1.648 -0.2415 -0.0354  0.7202
 1192SOL    HW115209   2.408   1.591   1.658  0.0959 -0.9264 -2.2165
 1192SOL    HW215210   2.280   1.676   1.658  0.4743  0.6373 -3.0038
 1193SOL     OW15211   2.736   1.136   8.024  0.4365 -0.4688  0.4056
 1193SOL    HW115212   2.701   1.196   8.090 -1.6627 -2.6801  1.3076
 1193SOL    HW215213   2.791   1.198   7.976  0.0545 -0.7493 -0.4071
 1194SOL     OW15214   3.429   2.284   7.618 -0.1113 -0.1528 -0.5803
 1194SOL    HW115215   3.522   2.277   7.594  0.2748  1.4215  0.4892
 1194SOL    HW215216   3.394   2.321   7.537  0.3900 -2.4697 -1.8426
 1195SOL     OW15217   1.253   2.271   4.940  0.7710 -0.3522 -0.0551
 1195SOL    HW115218   1.330   2.325   4.923  1.5106 -1.3648  0.0793
 1195SOL    HW215219   1.246   2.263   5.035  2.3741  2.5491  0.2988
 1196SOL     OW15220   0.733   3.481   1.404  0.5190  0.6797 -0.0573
 1196SOL    HW115221   0.720   3.393   1.368 -3.1622  0.9438  0.6450
 1196SOL    HW215222   0.828   3.475   1.409  0.6033  0.5518 -1.6135
 1197SOL     OW15223   4.185   0.125  11.299 -0.2401  0.3734  0.5231
 1197SOL    HW115224   4.102   0.126  11.347  0.3558  0.8523  1.5460
 1197SOL    HW215225   4.242   0.181  11.352  0.8140 -0.5610  0.3810
 1198SOL     OW15226   3.623   1.103   7.678 -0.2344  0.0384 -0.0484
 1198SOL    HW115227   3.542   1.053   7.692 -1.6016  2.6390  1.1746
 1198SOL    HW215228   3.687   1.032   7.667  0.7164  0.6282  1.7432
 1199SOL     OW15229   2.117   0.877   7.708  0.1962  0.1288 -0.2725
 1199SOL    HW115230   2.183   0.853   7.644  2.1166  0.1987  1.6963
 1199SOL    HW215231   2.044   0.922   7.663  0.5366  0.7156 -0.2358
 1200SOL     OW15232   1.160   3.847   9.724  0.5237 -0.1743  0.3135
 1200SOL    HW115233   1.106   3.918   9.759 -0.7719  0.1854 -2.4375
 1200SOL    HW215234   1.104   3.786   9.676  0.4067  1.0073 -1.0747
 1201SOL     OW15235   4.283   0.328   8.576  0.6234 -0.4964 -0.0535
 1201SOL    HW115236   4.193   0.346   8.604  1.1632 -0.6086  1.7550
 1201SOL    HW215237   4.274   0.298   8.485  0.1194  0.5513 -0.3461
 1202SOL     OW15238   0.492   1.388   8.284  0.4556  0.1719  0.1116
 1202SOL    HW115239   0.561   1.353   8.340  0.3180  0.2586  0.3367
 1202SOL    HW215240   0.419   1.333   8.315  2.1344 -1.9023  0.3767
 1203SOL     OW15241   4.211   0.856   4.714  0.6659  0.4376  0.3657
 1203SOL    HW115242   4.235   0.765   4.731  2.3899  1.1977  2.0295
 1203SOL    HW215243   4.131   0.840   4.664  0.0669  1.9267  0.8560
 1204SOL     OW15244   4.250   1.257   6.957  0.2501 -0.0056  0.7582
 1204SOL    HW115245   4.284   1.302   7.034 -0.8626 -0.2482  1.3915
 1204SOL    HW215246   4.200   1.331   6.921  0.9393 -0.0145 -0.2447
 1205SOL     OW15247   0.652   1.807   9.601  0.2368 -1.1208  0.0466
 1205SOL    HW115248   0.654   1.760   9.518  0.6457 -1.9440  0.5179
 1205SOL    HW215249   0.611   1.889   9.575  0.1035 -0.9309  0.8685
 1206SOL     OW15250   1.500   0.439   4.644 -0.0395 -0.4035 -0.5500
 1206SOL    HW115251   1.545   0.362   4.611 -2.4601 -1.6099 -0.9582
 1206SOL    HW215252   1.518   0.489   4.565  0.4190  0.0265 -0.1820
 1207SOL     OW15253   3.820   0.016   9.029  0.0160 -0.7700  0.3161
 1207SOL    HW115254   3.835   0.083   9.095 -0.4682 -1.6810  1.3619
 1207SOL    HW215255   3.753   4.699   9.073 -0.7505  0.8967  1.1704
 1208SOL     OW15256   1.643   2.736   0.613 -0.4473  0.3496 -0.1248
 1208SOL    HW115257   1.625   2.649   0.648 -2.5640  0.6632 -0.4571
 1208SOL    HW215258   1.571   2.784   0.653 -1.5023 -1.5576  0.2505
 1209SOL     OW15259   1.050   4.196   7.896  0.0265  0.2782 -0.3064
 1209SOL    HW115260   1.017   4.240   7.818 -0.9609  1.0134  0.5153
 1209SOL    HW215261   1.141   4.225   7.892  0.2661 -0.4301  0.0358
 1210SOL     OW15262   2.402   3.666   0.814  0.1853  0.2701 -0.0700
 1210SOL    HW115263   2.455   3.680   0.735 -1.0637  1.0413 -0.7674
 1210SOL    HW215264   2.371   3.578   0.797 -2.4863  2.0266 -4.3439
 1211SOL     OW15265   2.467   1.756  13.139 -0.4952  0.2497  0.3035
 1211SOL    HW115266   2.533   1.815  13.104 -0.3692 -0.0378  0.0527
 1211SOL    HW215267   2.425   1.821  13.195  0.6827 -0.5026  2.0664
 1212SOL     OW15268   0.606   0.156   8.966 -0.4671 -0.1614 -0.1419
 1212SOL    HW115269   0.587   0.067   8.994 -0.9376  0.0267  0.1226
 1212SOL    HW215270   0.702   0.147   8.964 -0.3613  1.0413 -1.0586
 1213SOL     OW15271   2.921   2.913   2.867 -0.3494 -0.6338  0.0923
 1213SOL    HW115272   3.006   2.938   2.831 -0.3770 -0.4203  0.1759
 1213SOL    HW215273   2.921   2.970   2.944  0.2188 -0.4500 -0.0426
 1214SOL     OW15274   2.104   1.235   0.733  0.3710  0.0725 -0.7796
 1214SOL    HW115275   2.058   1.305   0.686  0.0748  1.4520  1.5352
 1214SOL    HW215276   2.192   1.267   0.715 -0.4211  2.0173 -1.2350
 1215SOL     OW15277   3.686   0.630   4.323  0.3491 -0.9365  0.0672
 1215SOL    HW115278   3.765   0.623   4.268 -0.0739  1.5237 -0.8362
 1215SOL    HW215279   3.616   0.605   4.262  0.4497 -1.3593  0.1211
 1216SOL     OW15280   2.397   3.314   4.709  0.2863 -0.3430  0.0181
 1216SOL    HW115281   2.397   3.219   4.694  0.7708 -0.3906  0.3298
 1216SOL    HW215282   2.487   3.333   4.736 -0.2792 -0.2762  1.8587
 1217SOL     OW15283   3.418   2.325   3.247  0.2239  0.6951 -0.1449
 1217SOL    HW115284   3.427   2.230   3.255  0.2821  0.6410 -0.8460
 1217SOL    HW215285   3.327   2.347   3.266  0.3655  0.1332  1.2042
 1218SOL     OW15286   3.858   2.946   5.026  0.2751 -0.2437 -0.5076
 1218SOL    HW115287   3.802   3.022   5.042 -0.8532 -1.3920  0.9377
 1218SOL    HW215288   3.797   2.882   4.990  0.1226 -0.1863 -0.3521
 1219SOL     OW15289   2.623   0.059   0.605 -0.4599 -0.3328  0.4775
 1219SOL    HW115290   2.636   0.003   0.529 -0.4523  0.5138 -0.1428
 1219SOL    HW215291   2.593   0.141   0.566 -0.6494 -1.5221 -1.8590
 1220SOL     OW15292   3.088   3.283   9.122 -0.1623  0.4149 -0.4263
 1220SOL    HW115293   3.181   3.259   9.115  0.0094  0.3556  1.8400
 1220SOL    HW215294   3.096   3.363   9.072  1.6630  0.2244 -0.4467
 1221SOL     OW15295   2.470   2.044   8.702 -0.7169 -0.3018 -0.0657
 1221SOL    HW115296   2.414   2.012   8.773 -0.3324 -0.2283  0.2707
 1221SOL    HW215297   2.550   1.991   8.710 -1.0054 -0.7312  0.0086
 1222SOL     OW15298   4.285   3.619  10.307 -0.0627  0.0107 -0.4088
 1222SOL    HW115299   4.232   3.635  10.385 -1.4814  0.0628 -1.3809
 1222SOL    HW215300   4.283   3.523  10.308 -1.2633  0.0205 -1.5215
 1223SOL     OW15301   2.112   3.564   1.680 -0.0293  0.2411 -0.7159
 1223SOL    HW115302   2.181   3.627   1.698 -0.6864  0.6906  0.2280
 1223SOL    HW215303   2.092   3.533   1.769  0.1814  0.0823 -0.7235
 1224SOL     OW15304   0.333   4.655   9.271  0.1957  0.4705 -0.0149
 1224SOL    HW115305   0.350   4.614   9.356 -1.6467  1.4903  0.8353
 1224SOL    HW215306   0.238   4.653   9.265  0.1103  0.7076  1.2329
 1225SOL     OW15307   3.982   1.174   3.976  0.1437 -0.1433 -0.0799
 1225SOL    HW115308   4.064   1.152   3.932 -0.4016 -1.2820 -0.5115
 1225SOL    HW215309   3.961   1.256   3.932  2.1875  0.3781 -0.0723
 1226SOL     OW15310   2.261   4.006   6.596 -0.4373 -0.1815  0.6092
 1226SOL    HW115311   2.212   4.034   6.519 -0.5840  3.0807  1.9209
 1226SOL    HW215312   2.244   3.913   6.610 -0.7368 -0.1627  0.3472
 1227SOL     OW15313   4.101   2.327   8.704  0.2209  0.1804 -0.0273
 1227SOL    HW115314   4.116   2.267   8.632 -0.8600  1.7577 -1.5773
 1227SOL    HW215315   4.044   2.270   8.755  0.6188 -0.6496 -0.5203
 1228SOL     OW15316   0.758   2.744   9.357  0.2030 -0.1316 -0.2673
 1228SOL    HW115317   0.824   2.808   9.382 -0.5705  0.9893 -1.0963
 1228SOL    HW215318   0.677   2.793   9.375 -0.2794 -1.0824  0.1712
 1229SOL     OW15319   4.275   4.598   1.822 -0.1111  0.0374 -0.1373
 1229SOL    HW115320   4.340   4.664   1.846  0.8974 -1.1153  0.2797
 1229SOL    HW215321   4.291   4.584   1.728 -0.1458 -2.5242  0.2488
 1230SOL     OW15322   2.325   1.286   6.304  0.2707 -0.5548 -0.1511
 1230SOL    HW115323   2.256   1.282   6.238 -0.6851  0.3833  0.8000
 1230SOL    HW215324   2.298   1.346   6.374  1.2573  1.5554 -1.6021
 1231SOL     OW15325   3.898   4.318   4.581  0.0359  0.2101 -0.4922
 1231SOL    HW115326   3.813   4.347   4.613  1.0217  2.4598  0.1528
 1231SOL    HW215327   3.877   4.254   4.513  2.2534 -0.3688 -0.6426
 1232SOL     OW15328   0.231   3.422   4.720  0.3163 -0.2294 -0.0178
 1232SOL    HW115329   0.139   3.449   4.724  0.8342  1.5281  0.1811
 1232SOL    HW215330   0.268   3.510   4.733  3.8204 -1.9675  1.6874
 1233SOL     OW15331   2.840   2.985  12.091 -0.4567  0.1939 -0.0026
 1233SOL    HW115332   2.823   3.020  12.178  0.9391 -0.0106  0.3492
 1233SOL    HW215333   2.928   3.019  12.074 -1.2268  1.7036 -0.9631
 1234SOL     OW15334   1.119   1.835   8.377 -0.6803 -0.1851 -0.1877
 1234SOL    HW115335   1.126   1.818   8.283 -1.0773  0.6910 -0.3765
 1234SOL    HW215336   1.080   1.754   8.410  2.3929 -0.9685  1.5500
 1235SOL     OW15337   2.889   3.723   3.609  0.3426 -0.0596  0.2727
 1235SOL    HW115338   2.944   3.791   3.570 -1.1074  1.2341  0.4568
 1235SOL    HW215339   2.802   3.735   3.570  0.4458  1.6500  0.5906
 1236SOL     OW15340   0.770   0.748   5.745  0.1306 -0.0348 -0.3419
 1236SOL    HW115341   0.851   0.708   5.714  0.1329 -1.5484  1.5694
 1236SOL    HW215342   0.731   0.676   5.795 -0.6957 -0.6813 -1.9063
 1237SOL     OW15343   2.095   0.677   1.196  1.1301 -0.1964  0.0705
 1237SOL    HW115344   2.113   0.771   1.198  2.2209 -0.4541  2.6251
 1237SOL    HW215345   2.033   0.685   1.268  1.8434  0.1883  0.6374
 1238SOL     OW15346   2.704   0.181  15.776 -0.6451  0.7396  0.2653
 1238SOL    HW115347   2.629   0.226  15.736  0.7569 -0.2517 -3.4230
 1238SOL    HW215348   2.659   0.133  15.845  1.5411  0.5607  1.5670
 1239SOL     OW15349   1.002   2.671   3.010  0.2478 -0.2624 -0.4933
 1239SOL    HW115350   0.962   2.640   2.929 -2.0116 -0.4389  0.7024
 1239SOL    HW215351   0.970   2.615   3.081  0.0563 -0.4714 -0.7439
 1240SOL     OW15352   2.702   4.418   4.046  0.1339  0.4358  0.3734
 1240SOL    HW115353   2.669   4.412   3.957 -1.5121 -1.2777  1.1154
 1240SOL    HW215354   2.794   4.431   4.023 -0.0815 -0.8036 -1.1179
 1241SOL     OW15355   2.861   1.393   6.692 -0.4181 -0.0848 -0.7352
 1241SOL    HW115356   2.906   1.406   6.609 -0.8969  2.0643 -0.6659
 1241SOL    HW215357   2.922   1.444   6.745 -0.9057 -2.7635  2.3968
 1242SOL     OW15358   0.274   3.132   1.323  0.0807 -0.3888 -0.6359
 1242SOL    HW115359   0.190   3.118   1.278 -0.0647  2.3720 -1.2363
 1242SOL    HW215360   0.300   3.041   1.326 -0.0280 -0.4996 -3.0917
 1243SOL     OW15361   3.330   0.678   8.953 -0.0384  0.1550 -0.0434
 1243SOL    HW115362   3.283   0.655   8.873  0.1778 -0.5456  0.0310
 1243SOL    HW215363   3.415   0.634   8.950  0.5769  1.2608  1.3748
 1244SOL     OW15364   4.125   2.004   3.215  0.1610 -0.7830  0.2193
 1244SOL    HW115365   4.174   1.924   3.197  1.1711  0.0202 -0.5457
 1244SOL    HW215366   4.179   2.076   3.182  0.2205 -0.3221  1.3482
 1245SOL     OW15367   1.028   3.297   7.003  0.1488  0.0106 -0.5313
 1245SOL    HW115368   1.057   3.216   6.960  2.8271  0.3717  0.5727
 1245SOL    HW215369   1.014   3.343   6.921 -0.2049  0.8494  0.0012
 1246SOL     OW15370   2.521   2.396   5.357 -0.0128  0.4617  0.3298
 1246SOL    HW115371   2.588   2.402   5.425 -0.4720 -1.9334  0.9670
 1246SOL    HW215372   2.561   2.339   5.292  0.5703  1.7842 -0.4803
 1247SOL     OW15373   3.277   3.499   1.696  0.2125  0.2475 -0.1603
 1247SOL    HW115374   3.278   3.405   1.681 -0.6879  0.5080 -1.8300
 1247SOL    HW215375   3.253   3.503   1.788 -2.0266  0.4556 -0.7505
 1248SOL     OW15376   3.846   0.844   4.444 -0.4803 -0.0553  0.0179
 1248SOL    HW115377   3.920   0.813   4.496  0.6164 -0.9655 -2.0635
 1248SOL    HW215378   3.798   0.762   4.436  1.1353 -1.1225  1.2446
 1249SOL     OW15379   0.722   0.562   3.378  0.3560 -0.2253 -0.1236
 1249SOL    HW115380   0.811   0.533   3.396  0.6042  1.3962  1.3088
 1249SOL    HW215381   0.689   0.573   3.467 -0.9309  2.8361 -0.9885
 1250SOL     OW15382   1.075   3.846   4.337 -0.4141 -0.0274  0.1517
 1250SOL    HW115383   1.042   3.800   4.260  0.1900 -1.1683  0.5838
 1250SOL    HW215384   1.169   3.833   4.340 -0.1844  1.6584  0.8167
 1251SOL     OW15385   0.784   0.386  11.615 -0.2464 -0.3572 -0.6848
 1251SOL    HW115386   0.693   0.404  11.639 -0.3187 -0.0749 -1.1721
 1251SOL    HW215387   0.797   0.459  11.555 -1.0947 -0.1675 -0.6394
 1252SOL     OW15388   3.470   4.398   6.660 -0.5105 -0.1205 -0.3621
 1252SOL    HW115389   3.480   4.487   6.626 -3.3818  1.2398  2.3410
 1252SOL    HW215390   3.531   4.343   6.611 -0.3013  0.0909 -0.3437
 1253SOL     OW15391   3.634   4.339   4.612  0.1722  0.3487  0.3947
 1253SOL    HW115392   3.588   4.258   4.633 -1.1135  1.5835  2.2340
 1253SOL    HW215393   3.575   4.359   4.539 -2.6545 -1.6845  2.1617
 1254SOL     OW15394   1.781   1.920   2.401  0.7241  0.0032 -0.1291
 1254SOL    HW115395   1.866   1.952   2.432  1.4178 -0.0587 -1.9970
 1254SOL    HW215396   1.727   1.940   2.478 -0.4051  1.4932 -1.3325
 1255SOL     OW15397   0.652   0.057  16.431  0.4090 -0.2324  0.2671
 1255SOL    HW115398   0.623   0.083  16.518  0.7616  0.6804  0.1171
 1255SOL    HW215399   0.659   0.136  16.377  2.4039 -0.4617  0.2005
 1256SOL     OW15400   1.864   2.429   9.205 -0.2797  0.3672 -0.2224
 1256SOL    HW115401   1.788   2.376   9.230 -0.1101 -0.4446 -1.4674
 1256SOL    HW215402   1.857   2.498   9.271 -0.0608  0.0794  0.1016
 1257SOL     OW15403   3.915   2.696   7.774  0.3607 -0.0221 -0.5646
 1257SOL    HW115404   3.999   2.742   7.771 -0.1328  0.7827 -2.0157
 1257SOL    HW215405   3.917   2.648   7.857  0.5489 -1.2836 -1.3007
 1258SOL     OW15406   3.352   4.172   2.837 -0.7516  0.3797 -0.3395
 1258SOL    HW115407   3.350   4.183   2.741 -0.0900  0.7024 -0.3204
 1258SOL    HW215408   3.402   4.094   2.860  0.4336  0.8103 -1.4438
 1259SOL     OW15409   2.031   3.146   7.223 -0.0977 -0.2990 -0.1885
 1259SOL    HW115410   1.969   3.101   7.280  1.0859 -1.8456 -0.1327
 1259SOL    HW215411   2.108   3.145   7.280  0.0757 -0.3878 -0.4224
 1260SOL     OW15412   0.855   1.352  16.634 -0.5306  0.0209 -0.1461
 1260SOL    HW115413   0.907   1.345  16.554 -0.3657  0.8061 -0.1084
 1260SOL    HW215414   0.903   1.288  16.685 -1.1231 -0.0172  0.3580
 1261SOL     OW15415   0.623   1.759   6.067  0.3611 -0.0726 -0.2833
 1261SOL    HW115416   0.594   1.846   6.095 -2.8426 -1.3295  0.3062
 1261SOL    HW215417   0.598   1.771   5.975  0.0479 -4.6180 -0.8002
 1262SOL     OW15418   0.142   2.525   3.048  0.7112  0.1173  0.6939
 1262SOL    HW115419   0.107   2.541   2.961  0.3782 -0.0787  0.7931
 1262SOL    HW215420   0.068   2.518   3.108 -1.8954  2.6754 -2.3175
 1263SOL     OW15421   3.491   3.851   2.007  0.1146  0.9736  0.1539
 1263SOL    HW115422   3.443   3.824   2.086  0.9482  0.7328  0.5834
 1263SOL    HW215423   3.579   3.833   2.040  0.8837  2.1328 -1.2846
 1264SOL     OW15424   4.290   2.568   7.976  0.4027  0.1161 -0.4437
 1264SOL    HW115425   4.246   2.538   8.056 -1.0154 -1.6672 -1.8847
 1264SOL    HW215426   4.325   2.654   8.000  1.3191 -0.4665  0.3173
 1265SOL     OW15427   0.187   3.641  16.584 -0.2292 -0.3450  0.0401
 1265SOL    HW115428   0.149   3.678  16.664 -0.7484  1.0380 -0.8518
 1265SOL    HW215429   0.169   3.548  16.597  0.6977 -0.5040  0.1862
 1266SOL     OW15430   4.009   3.258   8.175 -0.1380  0.1484 -0.0193
 1266SOL    HW115431   4.094   3.296   8.196 -0.7025  0.9381  0.8150
 1266SOL    HW215432   4.031   3.263   8.082 -1.3319  1.9663 -0.2008
 1267SOL     OW15433   1.980   2.876  16.274  0.5946 -0.5124  0.3316
 1267SOL    HW115434   1.951   2.878  16.366 -0.0958  0.2614  0.0973
 1267SOL    HW215435   1.982   2.970  16.255  1.4717 -0.9261 -1.6446
 1268SOL     OW15436   4.150   0.945  14.184  0.0245 -0.0700  0.0108
 1268SOL    HW115437   4.152   0.952  14.089  3.2592  2.4591  0.2248
 1268SOL    HW215438   4.066   0.985  14.206 -0.5113 -1.4245  0.3610
 1269SOL     OW15439   3.116   3.547   7.978 -0.5580 -0.1057  0.1455
 1269SOL    HW115440   3.066   3.606   8.035  0.8092  1.5163 -0.3360
 1269SOL    HW215441   3.144   3.608   7.909  0.7562 -2.3753 -1.2999
 1270SOL     OW15442   1.653   0.467  14.327 -0.0447 -0.0253 -0.3434
 1270SOL    HW115443   1.610   0.406  14.387 -0.1940 -0.2722 -0.7100
 1270SOL    HW215444   1.647   0.544  14.383 -1.1905 -0.9244  0.7721
 1271SOL     OW15445   3.352   3.365   7.514 -0.4709  0.5646 -0.2025
 1271SOL    HW115446   3.316   3.278   7.496 -0.0953  0.3564  0.0434
 1271SOL    HW215447   3.447   3.352   7.509 -0.4377 -0.0475  1.9941
 1272SOL     OW15448   4.258   3.588   5.377 -0.0717  0.7625  0.4699
 1272SOL    HW115449   4.218   3.652   5.436 -0.3776  1.0401 -0.0364
 1272SOL    HW215450   4.195   3.586   5.305  0.9423 -0.3814 -0.3879
 1273SOL     OW15451   2.938   2.300   3.472 -0.0253 -0.1780  0.0664
 1273SOL    HW115452   2.949   2.210   3.501 -1.0855  0.1297  1.4298
 1273SOL    HW215453   2.893   2.329   3.551 -0.2286 -0.4062  0.0345
 1274SOL     OW15454   1.661   4.478   5.160  0.0371 -0.0157  0.0237
 1274SOL    HW115455   1.587   4.427   5.125  0.6019  0.0940 -1.3291
 1274SOL    HW215456   1.697   4.442   5.241 -1.2435  0.2908  0.7216
 1275SOL     OW15457   3.967   1.543   5.279 -0.3690 -0.1871 -0.1323
 1275SOL    HW115458   3.918   1.590   5.346 -0.9020  0.5343 -1.0212
 1275SOL    HW215459   4.035   1.494   5.325  0.2830 -0.8938 -1.8414
 1276SOL     OW15460   1.231   4.489   2.974  0.3914 -0.6426 -0.0465
 1276SOL    HW115461   1.273   4.574   2.987  0.5207 -0.5130 -1.4059
 1276SOL    HW215462   1.251   4.479   2.881 -2.1078 -1.1825 -0.5171
 1277SOL     OW15463   0.448   0.459  16.347 -0.2528  0.2582 -0.5847
 1277SOL    HW115464   0.441   0.547  16.312  0.9523 -0.2612 -2.1140
 1277SOL    HW215465   0.402   0.407  16.281 -0.0299  0.6077 -1.0143
 1278SOL     OW15466   3.649   3.791   3.357  0.4460  0.3854  0.1020
 1278SOL    HW115467   3.689   3.707   3.379 -1.9634 -1.6545 -3.1846
 1278SOL    HW215468   3.627   3.781   3.264  0.3846  4.0514 -0.3009
 1279SOL     OW15469   0.077   4.083   9.039  0.6298  0.2799  0.1191
 1279SOL    HW115470   0.035   4.049   8.960  2.8617  0.3083 -1.0952
 1279SOL    HW215471   0.099   4.002   9.085 -0.9632  0.2034  0.7165
 1280SOL     OW15472   1.068   2.514   0.685 -0.0091  0.3712 -0.4606
 1280SOL    HW115473   1.077   2.427   0.648 -1.3737 -0.5939  1.4731
 1280SOL    HW215474   0.990   2.551   0.642 -0.1146 -1.3599 -1.7357
 1281SOL     OW15475   4.101   2.033  12.216  0.1804  0.4501  0.1617
 1281SOL    HW115476   4.181   2.018  12.267  1.8216 -0.6996 -2.7763
 1281SOL    HW215477   4.133   2.045  12.127 -0.7473 -3.7437 -0.7278
 1282SOL     OW15478   4.092   3.818   5.517  0.3558  0.6859  0.4081
 1282SOL    HW115479   4.133   3.904   5.512 -2.7620  2.1667 -0.1818
 1282SOL    HW215480   4.002   3.850   5.530 -0.3691 -1.5293  0.9580
 1283SOL     OW15481   3.816   0.670  13.069 -0.2523 -0.0764 -0.3437
 1283SOL    HW115482   3.811   0.574  13.076  0.8626 -0.0983  0.1996
 1283SOL    HW215483   3.757   0.679  12.994 -2.7919 -0.5655  1.5969
 1284SOL     OW15484   3.580   0.094   4.942  0.7596  0.1807 -0.0288
 1284SOL    HW115485   3.546   0.141   5.018 -0.7441  0.0160 -0.6021
 1284SOL    HW215486   3.595   0.007   4.977  0.0357  0.7442  1.6901
 1285SOL     OW15487   0.010   4.064  14.723 -0.3005  0.5582 -0.6851
 1285SOL    HW115488   4.663   4.107  14.707 -0.6123  0.6320  1.1235
 1285SOL    HW215489   4.723   4.000  14.791  0.6969  0.6061 -0.2996
 1286SOL     OW15490   2.547   2.814   6.163 -0.2856 -0.0489 -0.2072
 1286SOL    HW115491   2.602   2.762   6.103 -2.5785 -0.2466 -2.1265
 1286SOL    HW215492   2.537   2.746   6.229 -0.4042 -0.3648 -0.5536
 1287SOL     OW15493   3.488   0.555   5.742 -0.2553 -0.3225  0.7026
 1287SOL    HW115494   3.514   0.627   5.685 -4.4306 -0.5069 -1.4559
 1287SOL    HW215495   3.394   0.570   5.752  0.1845  2.1965  1.0658
 1288SOL     OW15496   2.501   4.211   3.300 -0.0506 -0.1715  0.7868
 1288SOL    HW115497   2.420   4.258   3.319 -0.2436 -0.1627 -0.0737
 1288SOL    HW215498   2.566   4.281   3.289  0.4545 -0.9729 -1.2844
 1289SOL     OW15499   2.283   3.537   8.203 -0.0475 -0.0234  0.5282
 1289SOL    HW115500   2.221   3.466   8.186 -0.0302  0.3780 -1.1924
 1289SOL    HW215501   2.313   3.512   8.290  0.8942  1.9883  0.7871
 1290SOL     OW15502   4.696   0.336   1.792  0.1548  0.2562 -0.3007
 1290SOL    HW115503   0.041   0.306   1.753  1.6165  1.7751  1.5967
 1290SOL    HW215504   4.700   0.316   1.886 -0.6354 -2.7347 -0.9042
 1291SOL     OW15505   2.073   2.496   1.285 -0.1606  0.2315 -0.6951
 1291SOL    HW115506   2.144   2.541   1.332  1.7302 -2.0779 -1.3466
 1291SOL    HW215507   2.085   2.411   1.328  0.0346  0.4804 -0.2478
 1292SOL     OW15508   0.935   2.067   3.791 -0.1901 -0.3539 -0.0729
 1292SOL    HW115509   0.924   2.124   3.867  1.0931  0.0848 -0.2213
 1292SOL    HW215510   0.851   2.019   3.794  0.3979 -1.5854 -2.8140
 1293SOL     OW15511   1.334   2.864   2.029 -0.2417 -0.0834  0.4056
 1293SOL    HW115512   1.306   2.772   2.027  0.5569 -0.2982 -0.6161
 1293SOL    HW215513   1.254   2.909   2.056  0.7594  1.4889  0.7357
 1294SOL     OW15514   2.036   4.433   6.136 -0.1116 -0.1422  0.4326
 1294SOL    HW115515   2.123   4.406   6.107 -0.4367  0.1023 -0.7724
 1294SOL    HW215516   1.988   4.351   6.126  0.3416 -0.3456 -0.0319
 1295SOL     OW15517   3.983   2.620   7.389 -0.7270 -0.0519  0.0666
 1295SOL    HW115518   4.046   2.555   7.420  0.4647  1.0203 -0.0726
 1295SOL    HW215519   3.929   2.626   7.468 -1.0692  4.2765 -0.5004
 1296SOL     OW15520   3.009   0.670   8.866 -0.1072  0.8188  0.9010
 1296SOL    HW115521   2.918   0.670   8.838  0.0734 -0.3705  0.3376
 1296SOL    HW215522   3.062   0.669   8.786 -1.4733  3.2519 -0.0456
 1297SOL     OW15523   0.233   3.136   6.645 -0.3266  0.2013  0.4888
 1297SOL    HW115524   0.295   3.070   6.674 -1.8978 -0.7152  1.7792
 1297SOL    HW215525   0.286   3.215   6.637  0.7471 -0.6159 -0.3967
 1298SOL     OW15526   1.218   4.237   4.049 -0.2190  0.1069 -0.0257
 1298SOL    HW115527   1.304   4.213   4.014  0.8436  1.9051  1.3111
 1298SOL    HW215528   1.241   4.285   4.129 -1.0815 -1.4294  1.1344
 1299SOL     OW15529   3.069   0.158   9.655  0.2475  0.3487  0.0054
 1299SOL    HW115530   3.040   0.238   9.700  0.1347  0.6154 -0.5426
 1299SOL    HW215531   2.989   0.123   9.616 -0.1334  0.9950  0.2061
 1300SOL     OW15532   1.667   4.105   6.341  0.0282  0.4058  0.0153
 1300SOL    HW115533   1.641   4.118   6.250 -0.4620  2.1069  0.3984
 1300SOL    HW215534   1.756   4.074   6.325 -0.0719  0.2849 -0.2891
 1301SOL     OW15535   4.540   3.664   3.932 -0.1313 -0.2452  0.0425
 1301SOL    HW115536   4.584   3.585   3.900  3.2660  1.7564 -0.2964
 1301SOL    HW215537   4.614   3.708   3.974 -1.3429  1.7699  0.0643
 1302SOL     OW15538   3.521   0.504   3.307  0.6078 -0.0059 -0.4902
 1302SOL    HW115539   3.483   0.430   3.354 -1.7093 -0.4631 -3.1248
 1302SOL    HW215540   3.493   0.575   3.365 -0.2292  1.6707 -2.9510
 1303SOL     OW15541   3.746   4.330   3.973 -0.0925 -0.5117  0.2667
 1303SOL    HW115542   3.774   4.240   3.988 -2.0873 -1.1253  0.3298
 1303SOL    HW215543   3.745   4.341   3.878  1.4530 -1.4625  0.1396
 1304SOL     OW15544   0.129   4.113   8.295  0.0162 -0.3307 -0.1845
 1304SOL    HW115545   0.189   4.058   8.243  0.3525  1.1776 -1.3853
 1304SOL    HW215546   0.168   4.107   8.382 -2.7515 -3.0930  0.8661
 1305SOL     OW15547   2.848   4.710   0.415 -0.0411 -0.4638 -0.2272
 1305SOL    HW115548   2.824   4.733   0.325 -3.1186 -1.0763  0.4097
 1305SOL    HW215549   2.893   0.054   0.442 -3.1548  1.4940 -0.8407
 1306SOL     OW15550   3.628   1.130   6.237  0.1763  0.9077  0.1277
 1306SOL    HW115551   3.634   1.111   6.330  2.3733 -1.8138 -0.5859
 1306SOL    HW215552   3.571   1.060   6.205  0.5051  1.3972 -1.5624
 1307SOL     OW15553   0.673   2.451   1.842  0.0926 -0.1084 -0.5087
 1307SOL    HW115554   0.752   2.428   1.793 -0.3482 -1.0248 -0.7808
 1307SOL    HW215555   0.650   2.369   1.885  3.2306 -0.9611 -0.5217
 1308SOL     OW15556   3.573   1.352   8.942  0.5673  0.1897  0.5310
 1308SOL    HW115557   3.553   1.275   8.995 -0.6334  0.9981  1.2685
 1308SOL    HW215558   3.488   1.396   8.943  0.1640 -0.6293  1.6814
 1309SOL     OW15559   3.421   2.543   3.091 -0.5623 -0.1006 -0.1601
 1309SOL    HW115560   3.516   2.539   3.078 -0.6359 -1.3718 -0.3520
 1309SOL    HW215561   3.417   2.464   3.146  0.3394 -0.6241 -0.8556
 1310SOL     OW15562   0.160   4.684  16.752 -0.3620  0.6827  0.6390
 1310SOL    HW115563   0.204   4.606  16.719 -0.5005  0.7025  0.4019
 1310SOL    HW215564   0.071   4.651  16.765  0.2307 -0.9518  0.4630
 1311SOL     OW15565   4.558   1.587  16.820 -0.0950  0.3878 -0.3231
 1311SOL    HW115566   4.643   1.543  16.822 -0.2794  0.0807  0.6908
 1311SOL    HW215567   4.576   1.665  16.767 -0.0802  0.6435  0.0566
 1312SOL     OW15568   3.525   3.307   1.825  0.1406 -0.1663 -0.1987
 1312SOL    HW115569   3.582   3.372   1.865  0.1382 -0.1175 -0.2749
 1312SOL    HW215570   3.516   3.242   1.895 -0.1975  0.7927  0.6533
 1313SOL     OW15571   0.457   0.610   8.415  0.3899  0.4874 -0.1435
 1313SOL    HW115572   0.455   0.539   8.480  1.5157 -1.2895 -2.0535
 1313SOL    HW215573   0.418   0.561   8.342  0.1260 -1.4043  1.2447
 1314SOL     OW15574   0.167   2.848   5.943 -0.2703 -0.1985 -0.5548
 1314SOL    HW115575   0.102   2.867   5.876  2.7025 -0.0527 -3.4308
 1314SOL    HW215576   0.185   2.937   5.973  1.0792 -0.0804 -1.7285
 1315SOL     OW15577   2.532   0.955  12.421 -0.1789 -0.1220  0.4514
 1315SOL    HW115578   2.532   0.861  12.407 -2.9088  0.1784 -1.5697
 1315SOL    HW215579   2.622   0.970  12.450 -0.2404  1.3020 -0.1010
 1316SOL     OW15580   3.223   1.264   1.757 -0.1978  0.4149 -0.2059
 1316SOL    HW115581   3.282   1.231   1.825 -0.3297  1.4819  0.4422
 1316SOL    HW215582   3.181   1.183   1.729 -1.4409 -0.0102  2.8973
 1317SOL     OW15583   1.993   2.095   6.221 -0.2193  0.6329  0.4273
 1317SOL    HW115584   2.057   2.066   6.286 -0.7365  2.6343  1.8383
 1317SOL    HW215585   1.926   2.029   6.242  1.9593 -1.6936  0.0877
 1318SOL     OW15586   3.300   0.120   7.707  0.0733  0.1217  0.1271
 1318SOL    HW115587   3.282   0.128   7.614  0.9027  1.8873  0.1302
 1318SOL    HW215588   3.382   0.071   7.695 -1.3023 -2.2856  0.4975
 1319SOL     OW15589   3.746   2.940   7.487 -0.4086 -0.4573  0.1499
 1319SOL    HW115590   3.721   2.849   7.505  1.3697 -0.9370  0.1921
 1319SOL    HW215591   3.814   2.943   7.555 -0.0625 -0.1731 -0.2118
 1320SOL     OW15592   3.469   2.747   6.055 -0.1877 -0.4926  0.1806
 1320SOL    HW115593   3.443   2.690   5.983  2.4163  2.3487 -3.0294
 1320SOL    HW215594   3.403   2.713   6.115  0.3991 -0.5961  0.7647
 1321SOL     OW15595   1.064   0.869  11.256 -0.1488  0.0129  0.5785
 1321SOL    HW115596   1.109   0.934  11.202  3.7154 -2.6991  0.5831
 1321SOL    HW215597   1.135   0.859  11.319  0.4755 -0.2726 -0.1742
 1322SOL     OW15598   2.411   3.622   5.676 -0.5637 -0.5320  0.1603
 1322SOL    HW115599   2.488   3.587   5.629  0.5812  0.9482  0.9238
 1322SOL    HW215600   2.404   3.561   5.749  0.6775 -1.3031 -0.3647
 1323SOL     OW15601   3.560   3.151   1.580  0.1193 -0.6713  0.1857
 1323SOL    HW115602   3.546   3.200   1.661 -1.5904 -0.5537 -0.1742
 1323SOL    HW215603   3.653   3.140   1.596  0.0725  0.2601  1.0690
 1324SOL     OW15604   4.615   0.533   6.407  0.9616  0.3034 -0.0227
 1324SOL    HW115605   4.695   0.561   6.362  0.2356 -1.0489 -2.2035
 1324SOL    HW215606   4.571   0.475   6.344  1.1150 -0.1981  0.3265
 1325SOL     OW15607   3.140   0.740   7.593  0.3410  0.1206  0.4054
 1325SOL    HW115608   3.098   0.807   7.539 -0.6026  0.1195  1.1326
 1325SOL    HW215609   3.210   0.716   7.532 -0.4264 -0.4297 -0.2653
 1326SOL     OW15610   1.598   0.022   0.841 -0.2377 -0.1916  0.1501
 1326SOL    HW115611   1.671   0.058   0.790 -0.8966  0.5186 -0.2896
 1326SOL    HW215612   1.529   0.031   0.775 -0.3598  0.5707  0.3911
 1327SOL     OW15613   1.171   1.907   4.153 -0.1262  0.5675 -0.1078
 1327SOL    HW115614   1.227   1.981   4.128  0.7278 -0.4740 -1.2243
 1327SOL    HW215615   1.208   1.889   4.239 -0.7121 -1.1289 -0.2227
 1328SOL     OW15616   0.073   3.996   9.725  0.3062 -0.2601  0.1146
 1328SOL    HW115617   0.003   3.983   9.661  0.8222  3.1291 -1.1332
 1328SOL    HW215618   0.015   4.015   9.799  3.2944  1.4355  2.0702
 1329SOL     OW15619   3.453   4.522  14.423  0.2168  0.4476 -0.1979
 1329SOL    HW115620   3.412   4.599  14.384 -0.5099  0.9280  1.5218
 1329SOL    HW215621   3.541   4.560  14.418  0.2390  0.2965 -0.9570
 1330SOL     OW15622   2.975   4.205  16.303 -0.3675  0.3749 -0.1097
 1330SOL    HW115623   2.913   4.204  16.376 -0.2986  1.0708 -0.0480
 1330SOL    HW215624   3.015   4.119  16.319 -0.8079  0.6071  2.2797
 1331SOL     OW15625   2.460   2.212  14.134  0.6448 -0.2628 -0.5357
 1331SOL    HW115626   2.529   2.146  14.132  1.0132  0.1045 -0.0060
 1331SOL    HW215627   2.412   2.190  14.054 -0.9407  1.4260 -0.0539
 1332SOL     OW15628   1.116   2.877   0.703 -0.6027  0.8525 -0.0417
 1332SOL    HW115629   1.081   2.949   0.651 -0.2889  1.3907  0.4844
 1332SOL    HW215630   1.091   2.800   0.652 -2.4266  0.4709  1.4031
 1333SOL     OW15631   0.378   2.463   7.409 -0.0863 -0.0873  0.4041
 1333SOL    HW115632   0.300   2.410   7.397  0.6244 -0.2793 -3.2645
 1333SOL    HW215633   0.362   2.518   7.486  0.2109  1.6678 -0.7906
 1334SOL     OW15634   0.591   3.324   2.205  0.1084 -0.0010 -0.3131
 1334SOL    HW115635   0.583   3.382   2.130  1.0945  1.7413  0.9017
 1334SOL    HW215636   0.612   3.240   2.166  0.4290  0.4610 -1.1289
 1335SOL     OW15637   3.099   1.133   2.618 -0.0386 -0.4600 -0.6925
 1335SOL    HW115638   3.140   1.194   2.556  0.8153 -0.3763 -0.0441
 1335SOL    HW215639   3.111   1.051   2.571 -2.5790 -0.5642 -1.1672
 1336SOL     OW15640   1.835   3.576   3.512 -0.1294  0.4776 -0.6723
 1336SOL    HW115641   1.764   3.554   3.573  0.4406  0.6015  0.0353
 1336SOL    HW215642   1.843   3.671   3.517 -2.0565  0.4775  2.2556
 1337SOL     OW15643   0.044   0.762   2.089 -0.0912  0.4160  0.0381
 1337SOL    HW115644   4.733   0.732   2.010 -0.0031  3.4168 -1.1574
 1337SOL    HW215645   0.053   0.683   2.142 -1.9122  0.1540 -0.0310
 1338SOL     OW15646   2.196   1.613   3.873  0.1567 -0.3483 -0.6271
 1338SOL    HW115647   2.195   1.526   3.913 -1.9443 -0.0230  0.0217
 1338SOL    HW215648   2.287   1.618   3.844  0.5630 -0.9036  0.5610
 1339SOL     OW15649   4.631   4.243   7.255  0.1893  0.1740  0.0506
 1339SOL    HW115650   4.599   4.159   7.224 -0.7263  0.9017 -0.9699
 1339SOL    HW215651   4.726   4.236   7.247  0.1021 -0.7015 -0.1290
 1340SOL     OW15652   1.097   2.536  10.647  0.3005  0.1025  0.2080
 1340SOL    HW115653   1.036   2.540  10.720  0.8315 -1.5422  0.7447
 1340SOL    HW215654   1.146   2.615  10.668 -0.7448  0.4032  1.5083
 1341SOL     OW15655   3.342   2.375   8.411 -0.6755  0.0311  0.2173
 1341SOL    HW115656   3.301   2.349   8.329  0.6843 -1.8373  0.1336
 1341SOL    HW215657   3.298   2.308   8.465  1.9890 -0.8037  1.3388
 1342SOL     OW15658   4.671   2.250  13.538  0.2242  0.2818 -0.1601
 1342SOL    HW115659   4.625   2.165  13.541 -0.3097  0.5537 -0.5830
 1342SOL    HW215660   4.661   2.283  13.627 -2.3377 -0.0616 -0.3089
 1343SOL     OW15661   3.765   4.489   7.143 -0.6525 -0.2482  0.3998
 1343SOL    HW115662   3.830   4.434   7.187 -1.3027  0.1758  1.8872
 1343SOL    HW215663   3.781   4.478   7.049  0.3510  1.9319  0.3085
 1344SOL     OW15664   4.720   3.416   6.976 -0.2721  0.3605  0.2972
 1344SOL    HW115665   4.697   3.409   7.069  0.2213  0.9897  0.4714
 1344SOL    HW215666   0.067   3.371   6.964 -0.7676  0.6390 -3.9558
 1345SOL     OW15667   3.818   3.826   2.549  0.4735 -0.2746  0.1705
 1345SOL    HW115668   3.864   3.760   2.497  0.8743 -0.2844  0.5380
 1345SOL    HW215669   3.772   3.874   2.480  0.2334  0.2624  0.7105
 1346SOL     OW15670   1.912   1.382   2.918 -0.3751 -0.0030  0.0305
 1346SOL    HW115671   1.839   1.442   2.937 -0.1873  0.4222 -0.5695
 1346SOL    HW215672   1.986   1.440   2.931 -2.1668  2.4087 -0.3972
 1347SOL     OW15673   3.848   4.385  15.347 -0.0117  0.0701 -0.9042
 1347SOL    HW115674   3.755   4.361  15.350  0.4554 -1.6800 -0.0948
 1347SOL    HW215675   3.872   4.354  15.434 -1.7673  0.4096 -0.2864
 1348SOL     OW15676   1.231   3.076  17.339 -0.8172  0.1917 -0.3208
 1348SOL    HW115677   1.174   3.150  17.320 -2.2824 -0.7166  0.5509
 1348SOL    HW215678   1.227   3.070  17.434  0.2325  0.1741 -0.2738
 1349SOL     OW15679   2.345   3.993   7.436  0.1692 -0.4236 -0.2848
 1349SOL    HW115680   2.336   3.923   7.501 -0.8564  0.4036  0.4662
 1349SOL    HW215681   2.438   3.994   7.413 -0.1523  3.0160 -1.3371
 1350SOL     OW15682   0.290   0.980  10.969  1.0270  0.2524 -0.1089
 1350SOL    HW115683   0.218   1.042  10.972  1.9510  1.3373 -0.2339
 1350SOL    HW215684   0.283   0.928  11.050  1.3182  1.5455  0.7513
 1351SOL     OW15685   3.456   3.760   2.268  0.2729 -0.2852  0.1773
 1351SOL    HW115686   3.514   3.814   2.322  0.5462  1.1285 -1.5351
 1351SOL    HW215687   3.372   3.801   2.289  1.4255  1.8398  0.6401
 1352SOL     OW15688   3.059   1.080  15.304 -0.5221 -0.1043 -0.0698
 1352SOL    HW115689   3.074   1.040  15.218  2.4988  0.3605  0.2318
 1352SOL    HW215690   3.150   1.090  15.331 -1.1186  0.3077  1.7932
 1353SOL     OW15691   3.959   1.568   1.431  0.5838 -0.4229  0.0607
 1353SOL    HW115692   3.937   1.618   1.510 -1.5369  1.1255 -1.5328
 1353SOL    HW215693   4.036   1.519   1.462 -0.3917 -1.3623  0.9911
 1354SOL     OW15694   2.486   1.792   9.080 -0.2462 -0.0098  0.1063
 1354SOL    HW115695   2.503   1.868   9.136  0.3443 -1.4552  1.9085
 1354SOL    HW215696   2.423   1.834   9.023 -1.6356 -0.3421  1.3905
 1355SOL     OW15697   3.988   3.421   0.411 -0.2053  0.0103 -0.0127
 1355SOL    HW115698   4.077   3.427   0.375 -0.7735 -1.0395 -1.5924
 1355SOL    HW215699   4.011   3.397   0.501 -0.7393 -0.4256  0.0087
 1356SOL     OW15700   4.551   4.245   4.831 -0.3368  0.5281 -0.8535
 1356SOL    HW115701   4.500   4.167   4.811 -0.5879  0.3522  0.4601
 1356SOL    HW215702   4.635   4.200   4.834 -0.0673  1.0172 -1.0130
 1357SOL     OW15703   3.285   2.544   4.276  0.3586  0.2316 -0.5140
 1357SOL    HW115704   3.362   2.601   4.280 -0.0621  0.8061 -0.7794
 1357SOL    HW215705   3.301   2.487   4.351  0.2315  0.6010 -0.2064
 1358SOL     OW15706   4.285   2.225  11.708  0.4807 -0.4114 -0.0953
 1358SOL    HW115707   4.237   2.306  11.695 -0.1949 -0.6648  0.8210
 1358SOL    HW215708   4.348   2.240  11.638 -0.5538 -2.0518 -1.3625
 1359SOL     OW15709   3.866   0.353   7.857  0.0606 -0.4517  0.3918
 1359SOL    HW115710   3.853   0.403   7.938 -0.5466 -1.0435  0.6594
 1359SOL    HW215711   3.776   0.355   7.825 -0.1267 -1.2030  0.8622
 1360SOL     OW15712   1.501   0.357   6.950  0.1560  0.3102 -0.7045
 1360SOL    HW115713   1.409   0.332   6.942  0.3361 -0.3410 -0.7424
 1360SOL    HW215714   1.528   0.295   7.018  1.0921 -0.0595 -1.4007
 1361SOL     OW15715   1.434   3.461   2.092  0.1390 -0.0630  0.8022
 1361SOL    HW115716   1.358   3.462   2.034 -0.0851  1.6622  1.1173
 1361SOL    HW215717   1.398   3.488   2.176 -2.8155  1.3206 -0.9222
 1362SOL     OW15718   2.055   3.758   7.306  0.2332 -0.0274  0.1218
 1362SOL    HW115719   2.148   3.781   7.295  0.0308  0.0220 -1.4561
 1362SOL    HW215720   2.059   3.663   7.293 -0.2897 -0.0653  0.2588
 1363SOL     OW15721   4.591   3.961   9.575  0.3660  0.0017  0.5456
 1363SOL    HW115722   4.629   3.928   9.493 -1.1865  0.3005 -0.2975
 1363SOL    HW215723   4.536   4.033   9.543  1.0667  0.3942  0.2211
 1364SOL     OW15724   3.669   3.094   9.329 -0.1805 -0.6391 -0.4704
 1364SOL    HW115725   3.709   3.166   9.378 -0.5219 -0.0714 -1.0263
 1364SOL    HW215726   3.746   3.045   9.300  0.3714  0.5538 -1.0416
 1365SOL     OW15727   3.627   4.177   6.834  0.5835 -0.1164  0.1529
 1365SOL    HW115728   3.659   4.256   6.878 -0.4568 -0.2562  1.1617
 1365SOL    HW215729   3.667   4.120   6.899 -0.9167  0.4870  1.6130
 1366SOL     OW15730   1.371   0.641   7.587 -0.2459  0.3372 -0.4031
 1366SOL    HW115731   1.309   0.622   7.517 -0.0389 -0.3621 -0.3907
 1366SOL    HW215732   1.311   0.690   7.644  2.8364 -0.0503  3.2030
 1367SOL     OW15733   3.765   1.669   8.759  0.1407 -0.7256  0.2993
 1367SOL    HW115734   3.692   1.730   8.749  1.8371  1.2778  0.4180
 1367SOL    HW215735   3.785   1.639   8.670 -1.8116 -1.3090  0.0389
 1368SOL     OW15736   0.441   1.279  14.525 -0.5491 -0.0883 -0.2789
 1368SOL    HW115737   0.442   1.325  14.609  0.0830 -2.2400  0.9058
 1368SOL    HW215738   0.469   1.189  14.543  1.5263  0.7312  0.7299
 1369SOL     OW15739   3.164   3.293   2.500  0.1742  0.4281 -0.2362
 1369SOL    HW115740   3.216   3.365   2.537 -1.9417  1.2978  1.0784
 1369SOL    HW215741   3.129   3.259   2.583  0.8577 -0.5994 -0.3761
 1370SOL     OW15742   0.583   1.895   8.756 -0.0097  0.1153 -0.0100
 1370SOL    HW115743   0.610   1.878   8.846  0.9505 -1.0522 -0.5140
 1370SOL    HW215744   0.499   1.851   8.747  0.1655 -0.5728  1.7356
 1371SOL     OW15745   0.815   4.667   7.479 -0.3613 -0.6052 -0.0765
 1371SOL    HW115746   0.905   4.643   7.458  0.7428  2.2188  1.5468
 1371SOL    HW215747   0.798   0.022   7.455  1.9618 -0.5373 -1.4552
 1372SOL     OW15748   2.908   2.960   1.853  0.6914  0.3046 -0.2332
 1372SOL    HW115749   2.941   2.888   1.799 -2.1019 -0.5283 -0.8240
 1372SOL    HW215750   2.941   3.037   1.806  1.2180  0.2964  0.1310
 1373SOL     OW15751   3.975   1.555   5.772  0.1383 -0.3467  0.1972
 1373SOL    HW115752   3.890   1.552   5.816  0.1200 -0.2151  0.1727
 1373SOL    HW215753   4.040   1.506   5.821 -2.9101 -0.0384  4.5303
 1374SOL     OW15754   1.989   3.942   8.810  0.1364  0.1349  0.5697
 1374SOL    HW115755   2.074   3.947   8.855  0.1741 -6.1933  1.1515
 1374SOL    HW215756   1.992   4.022   8.758  0.4434 -0.4735 -0.3435
 1375SOL     OW15757   0.348   3.595  10.378 -0.1448 -0.3166  0.4225
 1375SOL    HW115758   0.331   3.641  10.461 -0.0036  0.1775  0.1802
 1375SOL    HW215759   0.261   3.590  10.339 -0.6879 -1.8843  1.8402
 1376SOL     OW15760   0.540   3.308   2.911 -0.0792 -0.0541  0.0742
 1376SOL    HW115761   0.480   3.234   2.915 -0.6777  0.4443  0.3405
 1376SOL    HW215762   0.490   3.362   2.850  1.9832  0.8133 -0.8534
 1377SOL     OW15763   2.141   0.254  10.206 -0.3253  0.4149  0.5844
 1377SOL    HW115764   2.124   0.260  10.301  1.5467 -0.5753  0.9725
 1377SOL    HW215765   2.095   0.329  10.168  3.2753  1.0266 -2.5066
 1378SOL     OW15766   1.405   1.038  13.714  0.1220  0.7924 -0.7575
 1378SOL    HW115767   1.425   1.131  13.716 -0.0051  0.8289 -1.1398
 1378SOL    HW215768   1.418   1.022  13.621  0.8116 -0.7481 -0.3985
 1379SOL     OW15769   2.545   4.559   4.260  0.1527 -0.2056 -0.0999
 1379SOL    HW115770   2.605   4.520   4.196 -0.0695 -0.4022 -0.1887
 1379SOL    HW215771   2.486   4.488   4.284 -0.6019  0.4080 -0.1730
 1380SOL     OW15772   4.160   3.493  16.532  0.0578 -0.5756 -0.2447
 1380SOL    HW115773   4.197   3.408  16.507  0.6197 -0.2069 -0.6708
 1380SOL    HW215774   4.078   3.474  16.577  1.1284 -0.5841  1.7090
 1381SOL     OW15775   0.854   4.293  13.231  0.3317 -0.5639 -0.2326
 1381SOL    HW115776   0.885   4.339  13.152  1.2088 -0.1608  0.3521
 1381SOL    HW215777   0.856   4.203  13.199  0.6545 -0.3240 -0.9046
 1382SOL     OW15778   0.204   1.610  11.835 -0.6015  0.2365  0.0171
 1382SOL    HW115779   0.151   1.554  11.778 -1.7648  0.8363  0.5009
 1382SOL    HW215780   0.248   1.673  11.778  0.8499 -1.1105 -0.3386
 1383SOL     OW15781   3.080   0.624  12.707  0.0610 -0.0991  0.3867
 1383SOL    HW115782   3.146   0.580  12.653 -0.7270 -0.4418 -0.2985
 1383SOL    HW215783   3.064   0.558  12.775  0.0377 -0.0256  0.4525
 1384SOL     OW15784   3.598   3.794   5.812  0.4596 -0.0068  0.2044
 1384SOL    HW115785   3.664   3.764   5.749 -2.0945 -0.1507 -2.4232
 1384SOL    HW215786   3.617   3.745   5.892 -1.0014  0.7166  0.9843
 1385SOL     OW15787   2.372   4.233   3.609  0.6510 -0.1258 -0.0677
 1385SOL    HW115788   2.327   4.317   3.620 -0.2533 -0.8358  1.6122
 1385SOL    HW215789   2.465   4.252   3.616  0.6793 -0.1796 -0.2798
 1386SOL     OW15790   2.013   3.040   9.087  0.3109  0.5640 -0.0077
 1386SOL    HW115791   1.983   3.130   9.076 -3.0732 -0.7226 -1.3937
 1386SOL    HW215792   2.033   3.039   9.181 -0.1164 -1.3957  0.0739
 1387SOL     OW15793   2.148   4.524  12.080 -0.4046 -0.5223 -0.3427
 1387SOL    HW115794   2.215   4.551  12.143  1.2810  0.8423 -2.7342
 1387SOL    HW215795   2.150   4.429  12.069 -1.6167 -0.5573 -0.3148
 1388SOL     OW15796   4.223   2.427  10.080  0.5613  0.2676 -0.6549
 1388SOL    HW115797   4.280   2.422  10.157  3.1831  0.8404 -2.5653
 1388SOL    HW215798   4.173   2.508  10.091  2.3135  1.3809 -0.9040
 1389SOL     OW15799   0.473   1.871   3.650 -0.6556 -0.1120 -1.2581
 1389SOL    HW115800   0.431   1.786   3.655 -2.1527  0.6122 -1.4357
 1389SOL    HW215801   0.398   1.922   3.681  0.1370 -0.0635  0.5754
 1390SOL     OW15802   2.445   1.257   7.777 -0.4876 -0.5704  0.2571
 1390SOL    HW115803   2.399   1.319   7.834 -0.7797  0.2970 -0.9160
 1390SOL    HW215804   2.431   1.171   7.817  1.8406 -1.5785 -1.0906
 1391SOL     OW15805   0.076   3.398  15.900  0.5963  0.9257 -0.1430
 1391SOL    HW115806   0.070   3.378  15.806  0.3085  0.6315 -0.0601
 1391SOL    HW215807   0.112   3.318  15.937  1.6561  1.5519  0.1789
 1392SOL     OW15808   1.168   2.404   0.357 -0.0620 -0.5635  0.0743
 1392SOL    HW115809   1.163   2.343   0.430  4.4537 -1.0467 -0.0641
 1392SOL    HW215810   1.237   2.460   0.392 -0.5763 -0.8205  1.5140
 1393SOL     OW15811   4.468   0.382  12.436  0.6239 -0.1464  0.0230
 1393SOL    HW115812   4.396   0.392  12.498  1.3067  1.3587  0.5906
 1393SOL    HW215813   4.414   0.342  12.368 -0.3969 -1.1456  1.4354
 1394SOL     OW15814   3.301   1.745  13.524 -0.0223  0.0620 -0.3164
 1394SOL    HW115815   3.363   1.817  13.539 -1.5414  1.0446  1.1967
 1394SOL    HW215816   3.267   1.737  13.613  0.5459 -1.4691 -0.2411
 1395SOL     OW15817   3.685   2.501   7.744 -0.0117 -0.3932  0.5536
 1395SOL    HW115818   3.751   2.432   7.732  2.4053  1.7155  1.6049
 1395SOL    HW215819   3.601   2.457   7.728 -0.5205  1.1106 -0.8204
 1396SOL     OW15820   1.663   0.197   6.501 -0.5756  0.5785  0.5528
 1396SOL    HW115821   1.711   0.196   6.584  0.3390 -0.6830  0.0108
 1396SOL    HW215822   1.611   0.117   6.504  0.9389 -0.4645 -0.7384
 1397SOL     OW15823   2.261   2.824  16.808  0.2393  0.9530 -0.3436
 1397SOL    HW115824   2.187   2.788  16.857  1.1247 -1.0918 -0.4872
 1397SOL    HW215825   2.216   2.826  16.724  1.7257  2.8128 -1.1011
 1398SOL     OW15826   1.747   3.008   5.047  0.0334 -0.3453  0.5299
 1398SOL    HW115827   1.718   2.946   4.979 -1.0323  1.6031 -0.7984
 1398SOL    HW215828   1.840   2.985   5.044 -0.2193 -1.0825 -1.7548
 1399SOL     OW15829   0.881   3.714   4.502  0.4431 -0.5456  0.5115
 1399SOL    HW115830   0.909   3.688   4.590 -0.7302  1.1961  1.4152
 1399SOL    HW215831   0.963   3.750   4.467  2.1554 -0.7822  4.2272
 1400SOL     OW15832   2.400   2.401  10.636  0.4155  0.2965 -0.1353
 1400SOL    HW115833   2.428   2.312  10.658 -1.7432 -0.0937  1.0603
 1400SOL    HW215834   2.337   2.415  10.707  0.4037 -0.4101 -0.0063
 1401SOL     OW15835   1.306   0.799   3.381 -0.4425  0.1638 -0.0093
 1401SOL    HW115836   1.235   0.848   3.423  0.9929 -0.7747  3.5820
 1401SOL    HW215837   1.260   0.765   3.304 -0.1845  0.8675 -0.4704
 1402SOL     OW15838   0.406   2.450   8.229  0.2377  0.2065 -0.3015
 1402SOL    HW115839   0.465   2.376   8.244 -0.6368 -0.1837  1.2509
 1402SOL    HW215840   0.452   2.514   8.283  0.2178  0.1128 -0.1729
 1403SOL     OW15841   1.392   1.701   9.293 -0.0082  0.2345  0.3219
 1403SOL    HW115842   1.329   1.768   9.265  1.3055  1.2613 -0.2073
 1403SOL    HW215843   1.464   1.754   9.329  0.0250  0.1520  0.3759
 1404SOL     OW15844   3.376   2.605  16.142  0.4813 -0.0709  0.1495
 1404SOL    HW115845   3.447   2.654  16.183  1.5165 -0.5678 -1.0692
 1404SOL    HW215846   3.360   2.665  16.069  1.8582 -0.1568 -0.2195
 1405SOL     OW15847   0.886   0.201   4.355 -0.4472 -0.0609  0.0183
 1405SOL    HW115848   0.805   0.178   4.401 -0.2813 -3.9387 -1.6507
 1405SOL    HW215849   0.921   0.116   4.331  1.2889  0.2981  1.3090
 1406SOL     OW15850   3.205   0.844   9.909  0.2462 -0.2621  0.2654
 1406SOL    HW115851   3.111   0.862   9.905  0.2603 -0.6908 -2.0112
 1406SOL    HW215852   3.198   0.780   9.980  4.9831 -0.0864  0.8257
 1407SOL     OW15853   2.826   1.708   4.237  0.1974 -0.0212 -0.1941
 1407SOL    HW115854   2.785   1.794   4.239  0.6952  0.2295 -0.7114
 1407SOL    HW215855   2.816   1.682   4.328  1.5991  1.3916  0.3581
 1408SOL     OW15856   1.610   0.308   3.516  0.0055 -0.1814 -0.2565
 1408SOL    HW115857   1.530   0.346   3.480  0.3680 -0.4546 -1.3424
 1408SOL    HW215858   1.564   0.257   3.584  3.0126  0.3461  2.1605
 1409SOL     OW15859   2.822   4.533   7.175  0.5722 -0.2298 -0.0161
 1409SOL    HW115860   2.892   4.469   7.161  1.9650  1.1423  0.6715
 1409SOL    HW215861   2.768   4.494   7.243  0.0054 -0.6540 -0.7182
 1410SOL     OW15862   3.653   4.409   4.317  0.0116  0.6513  0.4462
 1410SOL    HW115863   3.727   4.349   4.315 -1.2699 -0.9258  0.0627
 1410SOL    HW215864   3.629   4.398   4.225  0.7398  0.1804  0.3099
 1411SOL     OW15865   0.720   1.407   8.576 -0.4714  0.0657 -0.4153
 1411SOL    HW115866   0.630   1.438   8.573 -0.2405  0.7658 -0.0636
 1411SOL    HW215867   0.709   1.327   8.627 -0.0977  0.7492  0.7288
 1412SOL     OW15868   2.246   4.138   8.221 -0.2058 -0.9304  0.4153
 1412SOL    HW115869   2.210   4.066   8.169 -2.3349 -2.1293  3.5416
 1412SOL    HW215870   2.237   4.221   8.174 -0.9902 -1.3817 -0.2529
 1413SOL     OW15871   0.025   3.417   7.253 -0.3056  0.4674  0.0165
 1413SOL    HW115872   0.097   3.460   7.299 -1.1082 -0.3391  2.0071
 1413SOL    HW215873   4.688   3.460   7.297 -0.2939  0.4022  0.0991
 1414SOL     OW15874   2.699   2.974   9.466  0.7214 -0.1392 -0.2086
 1414SOL    HW115875   2.672   2.985   9.557 -1.6742  0.2482 -0.9686
 1414SOL    HW215876   2.691   3.062   9.431 -0.0788  0.5575  1.7107
 1415SOL     OW15877   2.429   1.052   8.059 -0.7397  0.1859 -0.1372
 1415SOL    HW115878   2.525   1.044   8.057 -0.9626 -2.5199 -0.5081
 1415SOL    HW215879   2.416   1.116   8.129  2.1926 -1.0135  1.5078
 1416SOL     OW15880   4.694   0.875   8.734  0.8346 -0.3719  0.3994
 1416SOL    HW115881   0.045   0.912   8.746  1.0078 -1.7203  3.1216
 1416SOL    HW215882   4.647   0.906   8.812 -2.2292 -0.1326 -1.5271
 1417SOL     OW15883   0.075   0.678   5.620 -0.2740  0.5917  0.3893
 1417SOL    HW115884   0.008   0.708   5.559  0.9773  0.8873 -0.8355
 1417SOL    HW215885   0.151   0.685   5.562  0.8365  3.3882  2.1501
 1418SOL     OW15886   2.440   0.964   7.755 -0.2181 -0.1710  0.5021
 1418SOL    HW115887   2.527   0.932   7.732  0.1643  0.8469  0.5376
 1418SOL    HW215888   2.388   0.935   7.680  0.1114 -0.4749  0.3903
 1419SOL     OW15889   1.283   2.443   7.060 -0.3197 -0.2759 -0.0899
 1419SOL    HW115890   1.224   2.380   7.020 -0.2146 -0.7367  0.4784
 1419SOL    HW215891   1.239   2.447   7.146  0.2654  1.0259  0.1518
 1420SOL     OW15892   3.069   1.086   9.377 -0.1073 -0.4876  0.8874
 1420SOL    HW115893   3.101   1.164   9.333 -1.6707 -0.8420 -0.8690
 1420SOL    HW215894   3.133   1.077   9.447  0.2485  0.3647  0.6686
 1421SOL     OW15895   3.899   1.826   5.128 -0.6036 -0.1785  0.1271
 1421SOL    HW115896   3.987   1.795   5.152  0.6151  2.1285 -1.2955
 1421SOL    HW215897   3.901   1.901   5.187 -1.3781 -1.5141  1.8250
 1422SOL     OW15898   0.533   2.250   3.875  0.2587 -0.1918 -0.6582
 1422SOL    HW115899   0.443   2.221   3.858  0.3749  0.2716 -2.0461
 1422SOL    HW215900   0.538   2.315   3.806  2.1321 -1.3006 -1.5469
 1423SOL     OW15901   3.080   1.872   2.705 -0.0336 -0.4386 -0.3536
 1423SOL    HW115902   2.997   1.913   2.730 -2.1984 -3.7486 -2.0452
 1423SOL    HW215903   3.054   1.827   2.625 -0.6428  0.5270 -0.6965
 1424SOL     OW15904   2.123   4.069   4.018  0.1582  0.1550  0.3100
 1424SOL    HW115905   2.120   4.056   3.924 -0.4919 -1.2889  0.5401
 1424SOL    HW215906   2.124   3.979   4.051  0.1568  1.3595  3.6477
 1425SOL     OW15907   1.738   3.374   9.523 -0.4335 -0.3937  0.0610
 1425SOL    HW115908   1.701   3.462   9.535 -1.4133 -1.1718  2.6913
 1425SOL    HW215909   1.699   3.341   9.442 -1.8204  1.0455  0.1555
 1426SOL     OW15910   2.123   0.488   4.347 -0.1055 -0.4403  0.3032
 1426SOL    HW115911   2.089   0.411   4.301 -1.5408 -0.0342  0.6873
 1426SOL    HW215912   2.093   0.483   4.437 -0.9531 -0.0126  0.0462
 1427SOL     OW15913   2.980   1.503   0.037 -0.1765  0.3808  0.3515
 1427SOL    HW115914   2.921   1.444   0.084 -0.7615  1.7091  1.3154
 1427SOL    HW215915   2.947   1.593   0.044 -0.5780  0.1017  1.9331
 1428SOL     OW15916   2.158   4.405   7.934  0.1603 -0.3207 -0.1349
 1428SOL    HW115917   2.121   4.355   7.862  0.0295  1.4603 -1.3237
 1428SOL    HW215918   2.226   4.343   7.959  1.1676  2.1696  3.2875
 1429SOL     OW15919   3.250   3.110  15.742  0.1991  0.4858 -0.6200
 1429SOL    HW115920   3.247   3.028  15.693 -2.2280 -0.5423  1.3028
 1429SOL    HW215921   3.196   3.083  15.816  1.6683  2.8410  1.3137
 1430SOL     OW15922   2.479   1.199   9.514 -0.4214  0.5830 -0.1553
 1430SOL    HW115923   2.427   1.268   9.554 -1.0481 -0.2744  0.5178
 1430SOL    HW215924   2.411   1.169   9.454  0.9088 -0.7112 -1.0208
 1431SOL     OW15925   1.324   3.228   3.426  0.1842 -0.1084 -0.0678
 1431SOL    HW115926   1.231   3.209   3.438 -0.0089  1.2698  0.6676
 1431SOL    HW215927   1.361   3.282   3.497  1.7124 -2.6917  1.1233
 1432SOL     OW15928   2.202   1.346   3.990  0.2771 -0.1494 -0.5190
 1432SOL    HW115929   2.216   1.285   4.061  3.5966  0.0136 -1.0557
 1432SOL    HW215930   2.161   1.291   3.923  0.4765  0.7762 -1.4088
 1433SOL     OW15931   4.724   0.786  14.529 -0.3269  0.1673  0.3971
 1433SOL    HW115932   4.647   0.817  14.578 -0.2136 -1.8418  1.8361
 1433SOL    HW215933   4.730   0.702  14.574  1.5287 -0.0078 -0.2146
 1434SOL     OW15934   4.229   3.087   6.401  0.1548  0.3533  0.2044
 1434SOL    HW115935   4.322   3.082   6.425  1.1380 -0.3133 -3.8327
 1434SOL    HW215936   4.192   3.082   6.489 -2.1024 -1.3105 -0.8608
 1435SOL     OW15937   0.407   2.214   7.055 -0.6259  0.4877  0.3086
 1435SOL    HW115938   0.476   2.148   7.056 -0.1480  0.9994  0.8430
 1435SOL    HW215939   0.337   2.164   7.013  0.3600  0.8360 -1.7194
 1436SOL     OW15940   0.336   2.360   4.807 -0.1007 -0.2010  0.0189
 1436SOL    HW115941   0.395   2.345   4.733  0.6437  0.4372  0.4882
 1436SOL    HW215942   0.394   2.356   4.883  0.1605 -1.0903 -0.2216
 1437SOL     OW15943   4.515   4.732   2.269 -0.1542 -0.1763  0.2882
 1437SOL    HW115944   4.442   0.030   2.217  0.7423  0.5051 -0.5300
 1437SOL    HW215945   4.508   4.638   2.251  0.5210 -0.0027 -0.9434
 1438SOL     OW15946   0.967   2.106   3.188  0.6488  0.5593  0.5025
 1438SOL    HW115947   1.047   2.140   3.227  0.9653  1.1181 -0.6237
 1438SOL    HW215948   0.995   2.046   3.118 -1.0549  1.1312 -0.6935
 1439SOL     OW15949   4.010   1.061   8.099  0.2423 -0.8771 -0.3703
 1439SOL    HW115950   4.102   1.072   8.120  1.0615 -1.2976 -3.8451
 1439SOL    HW215951   4.018   0.968   8.079  0.8529 -0.3355 -2.6247
 1440SOL     OW15952   3.387   3.099   9.242 -0.4434  0.1239 -0.6128
 1440SOL    HW115953   3.340   3.176   9.274  0.9894  0.1413  1.4712
 1440SOL    HW215954   3.476   3.117   9.274 -0.7018  2.2567 -1.1393
 1441SOL     OW15955   0.323   1.906   3.193 -0.4105 -0.3514 -0.3194
 1441SOL    HW115956   0.349   1.991   3.157 -2.0825 -1.3825 -3.9112
 1441SOL    HW215957   0.276   1.923   3.275  1.0118  0.7085  0.2886
 1442SOL     OW15958   0.875   2.579   2.775 -0.1347  0.4898 -0.4445
 1442SOL    HW115959   0.792   2.607   2.737  0.4113 -0.4353 -2.2939
 1442SOL    HW215960   0.939   2.589   2.705 -1.2373 -0.2896 -1.5563
 1443SOL     OW15961   0.340   3.787   1.159  0.1113 -0.0435  0.0316
 1443SOL    HW115962   0.400   3.713   1.160  0.3433  0.1342 -0.6738
 1443SOL    HW215963   0.265   3.739   1.195 -0.1630  0.2192 -0.1881
 1444SOL     OW15964   4.579   0.640   2.982  1.0006  0.1596 -0.4183
 1444SOL    HW115965   4.579   0.547   3.004 -1.2387  0.3968  0.5722
 1444SOL    HW215966   4.666   0.648   2.944 -0.3461 -0.1012 -3.5956
 1445SOL     OW15967   0.761   0.183   5.417 -0.4165  0.2450 -0.3233
 1445SOL    HW115968   0.828   0.176   5.485 -0.0733 -2.1733 -0.9149
 1445SOL    HW215969   0.804   0.224   5.342  0.7586 -0.3781  0.0132
 1446SOL     OW15970   0.452   0.296   2.262 -0.7894 -0.3315  0.3570
 1446SOL    HW115971   0.495   0.381   2.256 -0.3598 -0.5038  0.9268
 1446SOL    HW215972   0.412   0.282   2.177  0.5650  0.0075 -0.3338
 1447SOL     OW15973   3.459   3.079   5.310  0.4113 -0.2437  0.1018
 1447SOL    HW115974   3.372   3.118   5.301  1.0724  1.4168  1.0431
 1447SOL    HW215975   3.467   3.034   5.226 -0.3604 -3.2365  1.6166
 1448SOL     OW15976   4.092   1.836  16.873 -0.0326  0.8147 -0.5667
 1448SOL    HW115977   4.182   1.828  16.843 -0.5382 -2.5897 -1.1907
 1448SOL    HW215978   4.101   1.890  16.952 -0.4142 -1.0730  0.7883
 1449SOL     OW15979   1.883   4.633   0.902  0.0719  0.3203  0.5272
 1449SOL    HW115980   1.943   4.623   0.827 -1.9364  0.8748 -1.1361
 1449SOL    HW215981   1.817   4.686   0.858 -0.3131 -1.3628 -0.9121
 1450SOL     OW15982   1.951   4.631   8.887  0.0116  0.2540 -0.1215
 1450SOL    HW115983   1.998   4.710   8.863  0.0270 -0.3832 -2.1975
 1450SOL    HW215984   1.943   4.648   8.981 -0.9890  0.5236 -0.2525
 1451SOL     OW15985   1.168   2.052   7.117 -0.1782  0.5512  0.1403
 1451SOL    HW115986   1.226   2.094   7.181 -0.3818  0.1996  0.5524
 1451SOL    HW215987   1.127   1.990   7.176 -0.9188  1.8793  1.0295
 1452SOL     OW15988   3.352   3.431  14.561  0.0761  0.4010 -0.2680
 1452SOL    HW115989   3.406   3.509  14.549  0.2593  0.2938 -0.1421
 1452SOL    HW215990   3.414   3.366  14.594 -2.6191 -1.8972  0.3124
 1453SOL     OW15991   4.318   1.231   0.681  0.2384  0.2486  0.1047
 1453SOL    HW115992   4.324   1.296   0.611 -1.0172 -0.6482 -0.8108
 1453SOL    HW215993   4.234   1.191   0.661  0.7343 -0.7865  0.0950
 1454SOL     OW15994   1.437   1.734   5.941  0.0242 -0.3136 -0.6616
 1454SOL    HW115995   1.356   1.683   5.932 -1.2896  1.7649 -0.5447
 1454SOL    HW215996   1.497   1.664   5.968  0.0761 -0.1450 -0.3498
 1455SOL     OW15997   1.764   1.922   5.142  0.8680  0.0513 -0.2508
 1455SOL    HW115998   1.738   2.000   5.093 -0.3309 -0.5342 -0.5407
 1455SOL    HW215999   1.845   1.902   5.094 -0.3258 -3.6401 -0.7533
 1456SOL     OW16000   3.464   4.376  10.050 -0.2226  0.7393 -0.1652
 1456SOL    HW116001   3.391   4.369  10.111 -0.3437 -0.0638 -0.3949
 1456SOL    HW216002   3.535   4.335  10.100 -0.9274 -0.2491  0.0339
 1457SOL     OW16003   4.660   2.900  11.387  0.0360  0.4345  0.1566
 1457SOL    HW116004   4.583   2.949  11.359  0.0629  0.2889 -0.1743
 1457SOL    HW216005   4.696   2.955  11.456 -1.3559  0.3264  0.9612
 1458SOL     OW16006   4.553   1.507   4.197 -0.3775 -0.1931 -0.0539
 1458SOL    HW116007   4.581   1.416   4.193 -1.5356 -0.5809  0.5470
 1458SOL    HW216008   4.496   1.512   4.274  0.1809  0.5865  0.3102
 1459SOL     OW16009   0.681   3.452  10.299  0.1709  0.0637 -0.0299
 1459SOL    HW116010   0.646   3.523  10.244  0.0541 -0.2191 -0.3191
 1459SOL    HW216011   0.693   3.497  10.382 -0.1211 -0.7493  0.4441
 1460SOL     OW16012   2.982   1.337   4.632 -0.0556 -0.4483 -0.0431
 1460SOL    HW116013   2.921   1.365   4.701 -0.4113  1.3596 -1.0860
 1460SOL    HW216014   2.962   1.244   4.620 -2.8510  0.5109 -2.6342
 1461SOL     OW16015   1.052   0.829   6.257 -0.8870  0.4265 -0.0921
 1461SOL    HW116016   0.988   0.760   6.243 -0.2853 -0.1516  0.0385
 1461SOL    HW216017   1.031   0.881   6.179  1.7110  1.2842 -0.2069
 1462SOL     OW16018   1.526   4.510  14.448  0.6292  0.1738  0.1948
 1462SOL    HW116019   1.519   4.605  14.439 -1.4409  0.3673  3.5084
 1462SOL    HW216020   1.436   4.486  14.470  0.8724  1.6286  2.7843
 1463SOL     OW16021   2.724   0.569   4.723 -0.0876  0.3549  0.2641
 1463SOL    HW116022   2.771   0.621   4.788  1.5680  1.2272 -1.6237
 1463SOL    HW216023   2.689   0.638   4.667 -0.9989  0.3602  0.8428
 1464SOL     OW16024   2.166   3.120   5.797 -0.3937  0.2106  0.3486
 1464SOL    HW116025   2.224   3.044   5.794 -2.4927 -1.3966  0.6681
 1464SOL    HW216026   2.103   3.092   5.863 -0.2190  0.6747  0.7157
 1465SOL     OW16027   1.119   4.117   3.517  0.3233 -0.2155 -0.3438
 1465SOL    HW116028   1.058   4.143   3.586  0.0042 -0.4577 -0.5305
 1465SOL    HW216029   1.063   4.135   3.441  0.9546  1.1974 -0.4715
 1466SOL     OW16030   3.771   3.095   2.343  0.2537  0.1361 -0.5980
 1466SOL    HW116031   3.736   3.123   2.427 -0.1040  0.7342 -0.9432
 1466SOL    HW216032   3.694   3.099   2.287  0.5733 -0.2325 -1.0723
 1467SOL     OW16033   4.556   0.660  12.590  0.7544  0.1141  0.2858
 1467SOL    HW116034   4.467   0.690  12.570  0.8805  1.4165  1.6230
 1467SOL    HW216035   4.601   0.726  12.537  0.2438  0.7559  0.6460
 1468SOL     OW16036   1.657   0.962  12.093 -0.1755 -0.5771  0.6023
 1468SOL    HW116037   1.605   0.991  12.168 -0.1847  0.3240  0.2568
 1468SOL    HW216038   1.604   0.995  12.020 -0.3662  1.1537  1.5321
 1469SOL     OW16039   1.096   4.484   5.808 -0.4880  0.0338  0.2732
 1469SOL    HW116040   1.027   4.523   5.756 -0.7600  1.0905  1.4291
 1469SOL    HW216041   1.057   4.405   5.847 -2.1670  1.0928  0.7288
 1470SOL     OW16042   3.318   0.454   8.550 -0.5163  0.0645 -0.6588
 1470SOL    HW116043   3.236   0.431   8.593  0.3447  0.3006  1.1089
 1470SOL    HW216044   3.277   0.484   8.469 -0.3579  2.0499 -0.0099
 1471SOL     OW16045   3.116   4.542  11.388  0.2480 -0.3504 -0.0159
 1471SOL    HW116046   3.138   4.448  11.385  0.2859 -0.2711 -2.1524
 1471SOL    HW216047   3.060   4.562  11.313  2.4673 -1.1398 -1.8673
 1472SOL     OW16048   0.210   4.352   5.806  0.3969  0.1791  0.5325
 1472SOL    HW116049   0.285   4.293   5.804  1.3166  1.4069 -0.9090
 1472SOL    HW216050   0.249   4.426   5.853  1.8498  1.0631 -2.0156
 1473SOL     OW16051   3.997   0.158   5.819 -0.5152 -0.4323 -0.0108
 1473SOL    HW116052   3.952   0.218   5.761  2.5265 -1.1607 -3.0806
 1473SOL    HW216053   3.947   0.078   5.802  1.8381 -2.0483  0.5687
 1474SOL     OW16054   3.718   1.154   4.872  0.5470  0.2387 -0.0789
 1474SOL    HW116055   3.692   1.212   4.801  1.3857  0.5106 -0.1646
 1474SOL    HW216056   3.631   1.123   4.898  0.0079 -0.1292 -2.3453
 1475SOL     OW16057   3.313   1.074   7.809 -0.3822 -0.5687 -0.0479
 1475SOL    HW116058   3.264   1.153   7.785  0.5510  0.0229  0.0248
 1475SOL    HW216059   3.368   1.093   7.884  0.8153  0.7130 -1.2434
 1476SOL     OW16060   4.109   0.129   4.978 -0.2464  0.2499 -0.8909
 1476SOL    HW116061   4.120   0.093   4.890 -1.0226 -2.4602  0.1006
 1476SOL    HW216062   4.194   0.107   5.016 -1.3333 -0.1958  1.2974
 1477SOL     OW16063   3.233   2.150   8.530  0.4833  0.1661 -0.1385
 1477SOL    HW116064   3.175   2.125   8.458 -0.7756 -0.2700  1.0394
 1477SOL    HW216065   3.265   2.062   8.551  0.8602 -0.4529 -3.2436
 1478SOL     OW16066   0.657   2.588  12.469  0.3158 -0.0110  0.3697
 1478SOL    HW116067   0.586   2.597  12.406  1.5462  1.6940 -0.7817
 1478SOL    HW216068   0.618   2.522  12.526 -1.1467  0.5826  0.0732
 1479SOL     OW16069   2.030   0.962   2.383  0.0848 -1.4337  0.2906
 1479SOL    HW116070   2.000   1.029   2.444  0.7099  2.2679 -3.5044
 1479SOL    HW216071   1.963   0.961   2.315  2.6320 -2.3814 -2.2099
 1480SOL     OW16072   2.631   3.981   4.242 -0.6315 -0.0011 -0.1762
 1480SOL    HW116073   2.541   4.012   4.230  0.0193  3.4059  3.7744
 1480SOL    HW216074   2.633   3.967   4.336  0.5379 -0.5431 -0.2777
 1481SOL     OW16075   2.082   4.653   7.705  0.1384 -0.2322  0.4970
 1481SOL    HW116076   2.048   4.733   7.664  0.6667 -0.3149 -0.1057
 1481SOL    HW216077   2.046   4.669   7.792  2.0914 -0.1706  1.2875
 1482SOL     OW16078   1.817   0.858  15.001 -0.8366  0.7570 -0.0458
 1482SOL    HW116079   1.891   0.808  14.967 -0.4062  1.4861 -0.1909
 1482SOL    HW216080   1.864   0.926  15.050  1.7861 -0.2490 -1.2090
 1483SOL     OW16081   4.049   4.086  15.269 -0.6509  0.2621  0.5873
 1483SOL    HW116082   4.074   4.025  15.201  2.7261  1.2128  0.9872
 1483SOL    HW216083   3.969   4.124  15.233 -1.2412 -0.4843  1.1172
 1484SOL     OW16084   1.306   0.444   6.611 -0.4801 -0.3027  0.0038
 1484SOL    HW116085   1.326   0.351   6.600  2.7935  0.4487 -0.5322
 1484SOL    HW216086   1.219   0.446   6.571 -0.6497 -0.4821  0.3664
 1485SOL     OW16087   0.650   3.204   6.996  0.3973  0.2661 -0.7600
 1485SOL    HW116088   0.688   3.216   7.083  2.7983 -1.2774 -1.5858
 1485SOL    HW216089   0.675   3.113   6.977  0.3366 -0.4974  2.7787
 1486SOL     OW16090   3.051   2.844   8.952 -1.3738 -1.1214 -0.9799
 1486SOL    HW116091   3.014   2.921   8.996 -2.0870 -1.0658 -1.6790
 1486SOL    HW216092   3.146   2.841   8.962 -1.4399 -2.5089 -0.8479
 1487SOL     OW16093   3.850   2.923   4.023  0.7099  0.5691 -0.8432
 1487SOL    HW116094   3.774   2.930   3.965  0.5151  3.3398 -0.2392
 1487SOL    HW216095   3.851   2.835   4.061 -2.2394  0.0796 -1.8593
 1488SOL     OW16096   2.080   0.963   2.846  0.1406 -0.1193 -0.7017
 1488SOL    HW116097   2.135   1.007   2.782  0.7956 -1.0699 -0.7963
 1488SOL    HW216098   1.997   0.964   2.799 -0.8915 -1.0873  1.0727
 1489SOL     OW16099   0.848   3.961   2.427  0.0829  0.2955  0.2523
 1489SOL    HW116100   0.844   3.885   2.486  1.6181 -1.4147 -1.8131
 1489SOL    HW216101   0.930   4.001   2.458 -1.2748  1.3941  2.4080
 1490SOL     OW16102   2.613   3.709  14.986  0.4680 -0.5457 -0.4778
 1490SOL    HW116103   2.573   3.699  15.073 -2.9288 -2.9514 -2.3396
 1490SOL    HW216104   2.544   3.675  14.929 -0.2763 -1.9549  1.2847
 1491SOL     OW16105   2.797   1.237  16.874 -0.0451  0.2133 -0.2218
 1491SOL    HW116106   2.888   1.265  16.862 -0.1311  1.3464  1.9624
 1491SOL    HW216107   2.802   1.143  16.857  2.0243  0.2604  0.1979
 1492SOL     OW16108   0.512   2.853   2.826  0.0718 -0.3304 -0.2903
 1492SOL    HW116109   0.435   2.857   2.882  0.3626 -0.7933  0.1438
 1492SOL    HW216110   0.583   2.839   2.888  0.5520 -0.8941 -0.9569
 1493SOL     OW16111   4.607   1.434   9.540  0.4342  0.5927 -0.1545
 1493SOL    HW116112   4.563   1.518   9.556  0.7254  1.4940 -4.0191
 1493SOL    HW216113   4.691   1.461   9.577 -0.3034  0.6824  1.4418
 1494SOL     OW16114   0.997   3.587   8.499  0.2925 -0.4866 -0.3286
 1494SOL    HW116115   1.017   3.679   8.481  0.0832 -0.3346  0.2115
 1494SOL    HW216116   1.082   3.558   8.530  0.4422  2.9874  2.4061
 1495SOL     OW16117   3.287   0.247  14.343 -0.8811 -0.1772 -0.0717
 1495SOL    HW116118   3.275   0.325  14.398  0.8626 -0.8145  1.2303
 1495SOL    HW216119   3.383   0.240  14.338 -0.7648  1.4933 -0.1714
 1496SOL     OW16120   0.881   0.619  11.501 -0.1357  0.0198  0.3731
 1496SOL    HW116121   0.901   0.657  11.416 -0.4546 -1.3271 -0.3073
 1496SOL    HW216122   0.957   0.639  11.557 -1.1106 -2.1244  2.5020
 1497SOL     OW16123   2.432   2.794   7.017 -0.2104 -0.1380  0.0615
 1497SOL    HW116124   2.524   2.805   6.991 -1.0004  0.7884 -2.3336
 1497SOL    HW216125   2.387   2.824   6.938  0.3208  1.1709  0.2455
 1498SOL     OW16126   0.272   1.098   5.699 -0.4384 -0.3591  0.0758
 1498SOL    HW116127   0.235   1.179   5.735  0.0518  0.4302 -1.2008
 1498SOL    HW216128   0.203   1.060   5.645  0.1838 -0.8821 -0.3585
 1499SOL     OW16129   2.967   1.079   4.724  0.2203 -0.2312  0.3955
 1499SOL    HW116130   2.902   1.014   4.698 -0.1626  0.6239 -0.8156
 1499SOL    HW216131   2.918   1.115   4.798  3.4492 -2.0323  3.3761
 1500SOL     OW16132   4.580   2.218   6.465  0.0254 -0.0095 -0.3169
 1500SOL    HW116133   4.573   2.219   6.560  1.6344 -0.6983 -0.1867
 1500SOL    HW216134   4.512   2.159   6.431 -0.9758 -0.0250  1.6995
 1501SOL     OW16135   4.190   3.015   4.752  0.3605  0.1644 -0.0852
 1501SOL    HW116136   4.210   2.923   4.770  1.8512  0.6602  0.7803
 1501SOL    HW216137   4.219   3.066   4.828  0.6911  0.6886 -0.5641
 1502SOL     OW16138   0.836   2.540   8.103 -0.4316 -0.5360  0.4796
 1502SOL    HW116139   0.742   2.522   8.098 -0.6354  1.0267 -1.2070
 1502SOL    HW216140   0.833   2.635   8.116  1.5719 -0.2583 -1.1393
 1503SOL     OW16141   3.802   3.987  15.593  0.7432  0.5488  1.0600
 1503SOL    HW116142   3.877   3.958  15.644  1.4460 -1.3265 -1.0537
 1503SOL    HW216143   3.799   3.934  15.513  0.2001  2.5209 -0.2302
 1504SOL     OW16144   1.424   3.360   3.659  0.7518 -0.1782  0.0170
 1504SOL    HW116145   1.512   3.361   3.698 -0.8529 -0.6968  3.6186
 1504SOL    HW216146   1.374   3.395   3.732  0.6059  1.1144 -0.6951
 1505SOL     OW16147   2.396   0.873   2.097  0.1524  0.5528 -0.4443
 1505SOL    HW116148   2.391   0.789   2.050 -2.1911 -0.5853  1.8878
 1505SOL    HW216149   2.480   0.909   2.067 -1.3229  3.5534 -0.8979
 1506SOL     OW16150   2.039   4.695   1.684 -0.5932 -0.3249 -0.1761
 1506SOL    HW116151   2.018   0.036   1.631  1.8918 -0.7139 -1.7397
 1506SOL    HW216152   2.082   4.642   1.616 -0.6807 -0.6248 -0.0006
 1507SOL     OW16153   2.630   1.628   2.477 -0.1038 -0.0614  0.1715
 1507SOL    HW116154   2.684   1.573   2.533  0.0317 -0.2199 -0.1131
 1507SOL    HW216155   2.641   1.583   2.393  0.8572 -0.6345  0.6113
 1508SOL     OW16156   4.163   2.600   8.237 -0.3398 -0.7159 -0.3844
 1508SOL    HW116157   4.192   2.637   8.320  0.1742 -1.7794 -0.0854
 1508SOL    HW216158   4.161   2.508   8.262  0.6640 -0.6154  0.0435
 1509SOL     OW16159   2.131   0.506  11.740  0.1685 -0.3264  0.3620
 1509SOL    HW116160   2.135   0.418  11.704  1.5681  0.0599 -0.4354
 1509SOL    HW216161   2.037   0.524  11.735 -0.2328 -2.8975 -1.1410
 1510SOL     OW16162   2.770   4.352   1.676  0.5002  0.5132 -0.2615
 1510SOL    HW116163   2.859   4.336   1.645  0.4516 -1.8444  0.8515
 1510SOL    HW216164   2.785   4.395   1.760  2.4326 -0.5372 -0.0633
 1511SOL     OW16165   3.521   0.698   4.525 -0.3600  0.4767  0.4984
 1511SOL    HW116166   3.573   0.682   4.446 -1.2804  1.6911 -0.3346
 1511SOL    HW216167   3.567   0.633   4.579  0.9991  0.0117 -1.2352
 1512SOL     OW16168   1.151   1.225  17.252  0.3663  0.2190 -0.0216
 1512SOL    HW116169   1.133   1.297  17.191  3.0064  0.6706 -0.2778
 1512SOL    HW216170   1.155   1.147  17.197 -3.2217  0.2617 -0.3920
 1513SOL     OW16171   3.284   1.234  17.273 -0.3918  0.3417  0.1619
 1513SOL    HW116172   3.325   1.149  17.292 -1.4480 -0.0016  0.9050
 1513SOL    HW216173   3.349   1.298  17.304 -1.3645  0.9124  1.0231
 1514SOL     OW16174   3.709   0.707  17.212 -0.2016  0.2712 -0.2299
 1514SOL    HW116175   3.700   0.779  17.149 -2.9900  1.3054  1.3727
 1514SOL    HW216176   3.709   0.638  17.145 -1.3148 -0.8257  0.9229
 1515SOL     OW16177   0.913   0.774   5.128 -0.3500 -0.4490  0.1624
 1515SOL    HW116178   0.941   0.856   5.087  0.4931 -1.2437 -0.8706
 1515SOL    HW216179   0.977   0.770   5.200 -1.7304 -1.1824  1.3388
 1516SOL     OW16180   3.508   3.185  15.791 -0.8073  0.4275 -0.0162
 1516SOL    HW116181   3.499   3.264  15.739 -0.8179  0.7155  0.4260
 1516SOL    HW216182   3.419   3.151  15.780 -0.8423  0.4916  0.0750
 1517SOL     OW16183   1.684   0.053   5.735  0.2328  0.1481 -0.0106
 1517SOL    HW116184   1.681   4.706   5.782  1.1055  0.1861  0.1037
 1517SOL    HW216185   1.637   0.027   5.656 -1.7108  1.7754  0.6044
 1518SOL     OW16186   3.096   1.929   0.179  0.1565 -0.1997  0.0894
 1518SOL    HW116187   3.121   1.844   0.143  0.6177 -0.0454  0.0473
 1518SOL    HW216188   3.081   1.903   0.270 -1.1069  0.4284  0.0619
 1519SOL     OW16189   0.576   1.640   4.455  0.8575 -0.3429  0.6339
 1519SOL    HW116190   0.498   1.684   4.421  1.8616  1.8015  1.1631
 1519SOL    HW216191   0.630   1.713   4.486 -1.2112  1.6627 -0.4905
 1520SOL     OW16192   0.048   1.174   2.117 -0.1787 -0.2027  0.0159
 1520SOL    HW116193   0.032   1.213   2.203 -2.0400 -2.3558  0.6204
 1520SOL    HW216194   4.720   1.103   2.116  0.5853 -0.9311  2.8236
 1521SOL     OW16195   0.980   2.237   4.937 -0.5139  0.0375  0.1893
 1521SOL    HW116196   0.957   2.179   5.009  0.8480 -0.8772 -0.1238
 1521SOL    HW216197   1.075   2.241   4.944 -0.3032 -1.7444 -1.7288
 1522SOL     OW16198   1.648   0.824   2.587 -0.7567  0.4580 -0.0679
 1522SOL    HW116199   1.561   0.786   2.601 -0.0200  0.1415  3.5493
 1522SOL    HW216200   1.635   0.883   2.513  1.4816 -0.2051 -0.9662
 1523SOL     OW16201   2.587   2.698   3.508  0.1735  0.0714  0.0107
 1523SOL    HW116202   2.645   2.629   3.475  0.6768  0.0915  0.8682
 1523SOL    HW216203   2.522   2.653   3.561 -2.0474 -0.1909 -2.9474
 1524SOL     OW16204   3.252   0.144   8.012  0.0185 -0.2303  0.0387
 1524SOL    HW116205   3.309   0.080   8.054 -0.8672 -0.5834  0.6945
 1524SOL    HW216206   3.288   0.138   7.923 -1.9085  0.3278 -0.7879
 1525SOL     OW16207   3.323   1.861   7.304  0.0150  0.9673 -0.3284
 1525SOL    HW116208   3.391   1.908   7.352  0.0591  0.1580  0.3961
 1525SOL    HW216209   3.345   1.768   7.306 -2.6808  0.3342  0.0771
 1526SOL     OW16210   1.667   0.812  16.093  0.2332 -0.1092 -0.1333
 1526SOL    HW116211   1.600   0.756  16.133  0.9113 -0.3531  0.6585
 1526SOL    HW216212   1.711   0.749  16.036 -0.3631 -0.3664 -0.3182
 1527SOL     OW16213   2.635   0.449   9.226 -0.0545 -0.2966  0.2902
 1527SOL    HW116214   2.680   0.407   9.299  1.3805  0.4429 -0.1727
 1527SOL    HW216215   2.692   0.526   9.221 -1.6810  0.9849  1.6009
 1528SOL     OW16216   0.553   2.286  17.461  0.1696  0.1196  0.0635
 1528SOL    HW116217   0.468   2.330  17.453  0.7678  1.4589  1.0285
 1528SOL    HW216218   0.584   2.279  17.370  0.7212 -0.8969  0.3349
 1529SOL     OW16219   1.712   2.271  11.526  0.1671 -0.1800 -0.2585
 1529SOL    HW116220   1.667   2.309  11.602  2.9901 -0.1412  1.3947
 1529SOL    HW216221   1.792   2.248  11.574 -0.1248 -1.8877 -0.6110
 1530SOL     OW16222   4.456   0.408  13.448  0.2919  0.1259 -0.3150
 1530SOL    HW116223   4.369   0.448  13.452 -0.6606 -1.9503 -0.6055
 1530SOL    HW216224   4.511   0.484  13.470  1.1836  0.2029 -2.8236
 1531SOL     OW16225   3.494   0.553   4.150 -0.3006 -0.5616  0.1327
 1531SOL    HW116226   3.425   0.611   4.117 -0.4443  0.3420  2.0042
 1531SOL    HW216227   3.467   0.468   4.117 -1.0790  0.0902 -0.9141
 1532SOL     OW16228   0.182   3.473  11.015 -0.4801  0.7431  0.1092
 1532SOL    HW116229   0.213   3.493  11.103 -1.2247 -0.2632  0.5877
 1532SOL    HW216230   0.267   3.457  10.973 -0.7620 -0.2773 -0.0556
 1533SOL     OW16231   3.903   0.829   4.765 -0.8115  0.0798 -0.7545
 1533SOL    HW116232   3.925   0.795   4.852  0.8066  1.7528 -0.4998
 1533SOL    HW216233   3.952   0.910   4.781 -4.4584  2.0596  0.3200
 1534SOL     OW16234   3.721   1.019   8.025 -0.2634  0.3819  0.7959
 1534SOL    HW116235   3.812   1.013   8.052 -0.3424  2.7982  1.6257
 1534SOL    HW216236   3.721   0.969   7.944  1.7428 -0.3478  1.2424
 1535SOL     OW16237   1.184   2.217   6.742 -0.4292  0.6201 -0.6456
 1535SOL    HW116238   1.114   2.282   6.738 -1.5615 -0.4876  1.2976
 1535SOL    HW216239   1.257   2.277   6.729 -0.4561  0.8591  0.3083
 1536SOL     OW16240   1.922   0.009  11.769  0.2365  1.0057  0.2400
 1536SOL    HW116241   1.848   4.684  11.773 -0.4722  1.9065  0.7410
 1536SOL    HW216242   1.951   0.005  11.678 -1.2299 -0.1527 -0.1802
 1537SOL     OW16243   4.305   1.229   8.887 -0.3896  0.3338 -0.2494
 1537SOL    HW116244   4.238   1.296   8.901 -1.7620 -1.2937  0.9656
 1537SOL    HW216245   4.342   1.216   8.974 -0.6196 -2.2580 -0.5362
 1538SOL     OW16246   4.518   1.169  10.459 -0.0760 -0.1331 -0.0681
 1538SOL    HW116247   4.500   1.236  10.394  1.0405 -0.9499 -1.2176
 1538SOL    HW216248   4.458   1.096  10.444 -0.4863 -0.2239  2.0088
 1539SOL     OW16249   0.459   4.241   7.500 -0.1363 -0.3189  0.3400
 1539SOL    HW116250   0.525   4.301   7.534 -0.9085  0.9320 -0.3156
 1539SOL    HW216251   0.422   4.286   7.423  1.1089 -1.1038 -0.7226
 1540SOL     OW16252   2.549   4.019  17.163  0.0011 -0.5568  0.4140
 1540SOL    HW116253   2.627   3.989  17.118  1.1494  0.1373  1.9201
 1540SOL    HW216254   2.542   4.105  17.122  0.7405 -0.7974 -0.2081
 1541SOL     OW16255   0.527   4.033   6.944  0.2977  0.4555 -0.1287
 1541SOL    HW116256   0.492   3.944   6.944 -1.0010  0.9558 -0.0953
 1541SOL    HW216257   0.496   4.058   6.857 -1.0291 -1.2042 -0.1346
 1542SOL     OW16258   1.208   3.308   0.346  0.2554 -0.1668  0.0519
 1542SOL    HW116259   1.274   3.315   0.277 -1.7680  2.4235 -1.6155
 1542SOL    HW216260   1.248   3.230   0.385  0.1612  0.1327  0.7522
 1543SOL     OW16261   0.195   0.795  11.533 -0.1784  0.0578  0.2220
 1543SOL    HW116262   0.272   0.784  11.476 -2.2377 -0.7992 -2.3724
 1543SOL    HW216263   0.164   0.705  11.542  1.1183 -0.4169 -0.0104
 1544SOL     OW16264   3.128   0.752   9.452  0.3503  0.0779  0.0503
 1544SOL    HW116265   3.172   0.796   9.525  0.9054  0.9219 -0.7883
 1544SOL    HW216266   3.065   0.807   9.404 -1.1073 -2.6288 -1.1365
 1545SOL     OW16267   0.568   1.683   4.805  0.3172 -0.1829  0.3860
 1545SOL    HW116268   0.612   1.598   4.813  1.2036  0.1481 -0.8557
 1545SOL    HW216269   0.625   1.731   4.745 -0.3926  0.0367 -0.1127
 1546SOL     OW16270   0.563   4.002   1.853 -0.4561  0.0612 -0.2628
 1546SOL    HW116271   0.539   3.925   1.801  0.6641 -0.5660  0.1542
 1546SOL    HW216272   0.645   3.961   1.879 -0.2485  0.9904  0.5366
 1547SOL     OW16273   0.939   1.555   9.916  0.2525 -0.0046  0.3422
 1547SOL    HW116274   0.998   1.488   9.880 -1.0348 -0.2096 -1.4061
 1547SOL    HW216275   0.897   1.502   9.983  0.8220  1.4785  1.8514
 1548SOL     OW16276   0.887   3.814   4.111  0.0056 -0.3570  0.4492
 1548SOL    HW116277   0.826   3.827   4.184 -0.8879  0.6966 -0.4782
 1548SOL    HW216278   0.940   3.894   4.108 -1.4179  0.6263  1.9940
 1549SOL     OW16279   2.794   2.664   6.288 -0.9449  0.3009 -0.0248
 1549SOL    HW116280   2.871   2.622   6.327  0.0093  0.6209 -1.5901
 1549SOL    HW216281   2.729   2.594   6.285 -0.7801  0.1866 -0.9683
 1550SOL     OW16282   1.579   3.025   4.123 -0.0868  0.2036 -0.3492
 1550SOL    HW116283   1.657   2.997   4.170  0.1014  0.4444 -0.5136
 1550SOL    HW216284   1.532   3.063   4.196 -1.2735 -0.1864 -0.9205
 1551SOL     OW16285   3.057   4.492  17.072 -0.8395  0.3447 -0.0105
 1551SOL    HW116286   3.059   4.547  16.994  0.0913 -0.6040 -0.6546
 1551SOL    HW216287   2.965   4.500  17.097 -1.0047 -2.2702  0.2378
 1552SOL     OW16288   2.309   3.140  15.642 -0.0916 -0.4090  0.9806
 1552SOL    HW116289   2.234   3.087  15.616 -0.9958  0.3961  1.9416
 1552SOL    HW216290   2.264   3.223  15.627 -1.1510 -1.3074 -0.8291
 1553SOL     OW16291   1.504   2.050   3.214  0.1193  0.0915  0.0551
 1553SOL    HW116292   1.432   2.110   3.233  0.1227  0.5312 -1.3135
 1553SOL    HW216293   1.573   2.089   3.267 -0.2793 -2.1094  2.1807
 1554SOL     OW16294   4.489   3.900   3.290  0.4394  1.0832  0.0106
 1554SOL    HW116295   4.481   3.989   3.255 -1.7261  1.8161  2.3892
 1554SOL    HW216296   4.585   3.893   3.292  0.5658  1.9745 -3.0397
 1555SOL     OW16297   2.482   4.099   3.905  1.3403 -0.0712 -0.1291
 1555SOL    HW116298   2.466   4.006   3.896  3.4154 -0.4214 -0.2330
 1555SOL    HW216299   2.552   4.113   3.841  1.7274 -0.2830  0.2447
 1556SOL     OW16300   3.546   3.513   2.295  0.3920 -0.6777 -0.2171
 1556SOL    HW116301   3.477   3.452   2.268  1.6920 -1.1805 -2.4382
 1556SOL    HW216302   3.509   3.590   2.251  0.3788 -0.4822  0.1398
 1557SOL     OW16303   2.818   0.963  12.507 -0.5762  0.3906  0.3491
 1557SOL    HW116304   2.869   0.968  12.588 -0.9899  1.7912  0.5301
 1557SOL    HW216305   2.849   0.882  12.466  1.0715  0.7443  0.8693
 1558SOL     OW16306   2.259   0.671   1.679  0.0078  0.7525  0.4511
 1558SOL    HW116307   2.341   0.648   1.723  0.2479  0.1932 -0.2955
 1558SOL    HW216308   2.203   0.686   1.756  0.5374  1.4467  0.7031
 1559SOL     OW16309   2.056   1.775  17.672 -0.1561 -0.0465 -0.2482
 1559SOL    HW116310   2.086   1.715  17.741 -0.8038 -0.8138 -0.6405
 1559SOL    HW216311   2.135   1.779  17.618 -0.2178 -0.0392 -0.3368
 1560SOL     OW16312   2.546   0.823  12.093 -0.0005  0.2140  0.4114
 1560SOL    HW116313   2.557   0.740  12.046  0.8171  0.2902  0.4674
 1560SOL    HW216314   2.591   0.801  12.174 -1.7545  3.0677  2.1415
 1561SOL     OW16315   1.718   1.028  17.556  0.0829 -0.2524 -0.3756
 1561SOL    HW116316   1.754   1.019  17.644  0.1345  1.6660 -0.1882
 1561SOL    HW216317   1.797   1.017  17.503  0.8682  0.2297  0.6955
 1562SOL     OW16318   3.922   0.583   5.774  0.1054  0.5355 -0.2820
 1562SOL    HW116319   3.972   0.649   5.725 -1.0380  1.4970 -0.1730
 1562SOL    HW216320   3.977   0.569   5.850 -2.3954 -0.8126  1.2708
 1563SOL     OW16321   4.227   4.434   2.866 -0.1994 -0.0414 -0.2331
 1563SOL    HW116322   4.274   4.468   2.942  0.1736 -0.5712 -0.2242
 1563SOL    HW216323   4.304   4.405   2.817 -0.4719  2.6961 -2.2651
 1564SOL     OW16324   0.755   3.339   9.038  0.2427 -0.6765  0.2832
 1564SOL    HW116325   0.788   3.255   9.006 -1.8798 -0.1304 -3.2662
 1564SOL    HW216326   0.663   3.326   9.015  0.5980  0.7739 -1.8555
 1565SOL     OW16327   1.699   3.123   2.903 -0.6549  0.5298  0.3232
 1565SOL    HW116328   1.667   3.176   2.976  1.2550 -0.2217  1.7055
 1565SOL    HW216329   1.679   3.187   2.834  0.8914  1.9007  1.1504
 1566SOL     OW16330   2.193   3.972   8.000  0.1898 -0.3033  0.0826
 1566SOL    HW116331   2.112   3.991   8.047 -2.8141 -0.6361 -5.0151
 1566SOL    HW216332   2.160   3.966   7.910  0.6849 -1.0983 -0.0520
 1567SOL     OW16333   2.638   2.201   3.585 -0.3752 -0.2592  0.0774
 1567SOL    HW116334   2.543   2.193   3.582 -0.3316 -0.9859  0.8506
 1567SOL    HW216335   2.654   2.290   3.616 -1.8094  1.1389 -3.1407
 1568SOL     OW16336   0.634   0.230  15.173 -0.9750 -0.4050 -0.4236
 1568SOL    HW116337   0.607   0.310  15.217  3.1815  1.7391 -1.7874
 1568SOL    HW216338   0.586   0.175  15.234  1.2612  0.3287  2.0025
 1569SOL     OW16339   1.981   2.527   9.753 -0.1095  0.4280 -0.1414
 1569SOL    HW116340   2.076   2.535   9.760  0.0720 -2.1748  0.2778
 1569SOL    HW216341   1.953   2.572   9.833  1.2814  1.2099 -0.1099
 1570SOL     OW16342   1.194   4.719   5.945 -0.1190 -0.2873 -0.5014
 1570SOL    HW116343   1.170   4.638   5.898  1.8038 -0.7040 -0.7562
 1570SOL    HW216344   1.114   4.720   5.998  0.3050  2.4042  0.0698
 1571SOL     OW16345   3.381   2.425   4.505  0.5270 -0.1630  0.0804
 1571SOL    HW116346   3.344   2.347   4.547  1.3203 -1.1580 -1.0991
 1571SOL    HW216347   3.475   2.411   4.501  0.6318  0.4071  0.5370
 1572SOL     OW16348   3.625   1.871   5.313 -0.9344  0.2310  0.0856
 1572SOL    HW116349   3.582   1.949   5.348  0.3477  0.2234  1.6867
 1572SOL    HW216350   3.556   1.825   5.266 -1.1084  1.2503 -0.6733
 1573SOL     OW16351   1.837   4.535   1.407  0.1952  0.1714  0.3316
 1573SOL    HW116352   1.771   4.487   1.356  0.2718  0.5019 -0.0792
 1573SOL    HW216353   1.808   4.515   1.496 -2.3632  2.2968 -0.0428
 1574SOL     OW16354   4.187   4.713  15.093 -0.0324  0.4452  0.1253
 1574SOL    HW116355   4.256   4.660  15.054  0.3974  0.2624  1.1587
 1574SOL    HW216356   4.160   4.647  15.156 -0.4223 -1.6645 -2.2388
 1575SOL     OW16357   3.677   3.346   5.302  0.3557 -0.2390 -0.3243
 1575SOL    HW116358   3.759   3.396   5.300  1.3556 -1.9123 -1.1125
 1575SOL    HW216359   3.666   3.350   5.397  0.8418  0.3595 -0.2886
 1576SOL     OW16360   4.000   3.658   9.448  0.1441  0.3518  0.3179
 1576SOL    HW116361   3.924   3.605   9.424  0.6123 -1.0108  1.8298
 1576SOL    HW216362   3.971   3.676   9.538 -1.8617 -0.5014 -0.1577
 1577SOL     OW16363   0.434   1.160   3.914 -0.0730 -0.1617 -0.1032
 1577SOL    HW116364   0.516   1.113   3.901 -0.4833 -0.8870 -0.1112
 1577SOL    HW216365   0.417   1.157   4.008  0.5469  0.8935  0.0354
 1578SOL     OW16366   3.213   0.523   1.195  0.1647  0.0194 -0.3964
 1578SOL    HW116367   3.138   0.482   1.237 -0.0155  2.7639  1.9701
 1578SOL    HW216368   3.228   0.459   1.126  1.2221 -1.6630  1.4070
 1579SOL     OW16369   3.588   4.340   5.160 -0.2225 -0.6039  0.7702
 1579SOL    HW116370   3.574   4.256   5.205  0.3431 -1.4568 -0.6294
 1579SOL    HW216371   3.606   4.395   5.236 -2.8078 -0.0900  0.9983
 1580SOL     OW16372   4.462   2.107   6.948  0.0995  0.8375 -0.2693
 1580SOL    HW116373   4.466   2.020   6.986 -1.4028  1.0262  0.2982
 1580SOL    HW216374   4.372   2.122   6.919  0.5602  0.3866 -1.9505
 1581SOL     OW16375   0.703   2.598   3.175 -0.6797 -0.4778  0.5477
 1581SOL    HW116376   0.756   2.520   3.187 -0.7988 -0.8434 -1.3031
 1581SOL    HW216377   0.626   2.547   3.148 -1.7990  0.4740  1.9639
 1582SOL     OW16378   3.635   3.268   6.898 -0.4828  0.3440 -0.0830
 1582SOL    HW116379   3.546   3.274   6.933 -0.6759 -0.2970 -0.4654
 1582SOL    HW216380   3.623   3.246   6.806  1.4475 -1.3282  0.0472
 1583SOL     OW16381   2.546   2.995   8.891  0.3473  0.0957  0.0223
 1583SOL    HW116382   2.588   2.919   8.930 -0.7633 -0.4378  0.1723
 1583SOL    HW216383   2.496   2.954   8.820  2.2593 -2.8578  0.4213
 1584SOL     OW16384   0.522   0.110   4.773 -0.0647  0.1845 -0.3999
 1584SOL    HW116385   0.429   0.118   4.753 -0.3096  2.4916  1.6089
 1584SOL    HW216386   0.532   0.175   4.842  0.5539  1.1525 -1.4035
 1585SOL     OW16387   2.467   0.751   9.380 -0.1571  0.7131  0.4907
 1585SOL    HW116388   2.547   0.804   9.385  0.4860 -0.3595  1.7460
 1585SOL    HW216389   2.485   0.667   9.423 -1.7616  0.3166  0.3745
 1586SOL     OW16390   3.852   1.025   9.112  0.3690  0.2688  0.4072
 1586SOL    HW116391   3.942   1.020   9.145 -0.5298  0.7471  2.9283
 1586SOL    HW216392   3.800   1.004   9.190 -0.0595  0.0289  0.0628
 1587SOL     OW16393   0.281   4.224   3.390 -0.4003 -0.2641 -0.3651
 1587SOL    HW116394   0.281   4.248   3.297  3.2113  4.0794  0.7528
 1587SOL    HW216395   0.309   4.133   3.390  0.4858  0.0193  2.5196
 1588SOL     OW16396   4.569   1.461   5.668 -0.0914 -0.9948  0.5395
 1588SOL    HW116397   4.592   1.480   5.759 -2.1004  2.5861  0.3298
 1588SOL    HW216398   4.653   1.464   5.623  1.0555 -1.0400  2.6963
 1589SOL     OW16399   1.823   0.302  11.832 -0.1697 -0.4153 -0.7009
 1589SOL    HW116400   1.810   0.240  11.904  0.1795 -0.7829 -0.9522
 1589SOL    HW216401   1.910   0.276  11.801  0.2458  0.7079 -0.4767
 1590SOL     OW16402   3.100   3.605   6.430 -0.0096 -0.4053  0.1548
 1590SOL    HW116403   3.108   3.592   6.524  0.1353 -0.3467  0.1520
 1590SOL    HW216404   3.021   3.552   6.419 -0.4023  0.3425 -0.6163
 1591SOL     OW16405   2.423   0.309   5.036  0.1382  0.3537  0.3476
 1591SOL    HW116406   2.340   0.313   4.988  0.4416 -0.4164 -0.2328
 1591SOL    HW216407   2.460   0.394   5.013  0.5780 -0.2515 -1.2074
 1592SOL     OW16408   2.521   3.847   4.998  0.3848 -0.3462 -0.3396
 1592SOL    HW116409   2.483   3.922   5.043  0.4261  0.2547 -1.3201
 1592SOL    HW216410   2.571   3.888   4.928  0.7429 -1.2275 -0.6082
 1593SOL     OW16411   2.762   4.600   2.614 -0.7259  0.2255  0.4583
 1593SOL    HW116412   2.679   4.586   2.570 -0.5407 -1.4244  0.6509
 1593SOL    HW216413   2.812   4.667   2.567 -0.3897 -0.3510 -0.0068
 1594SOL     OW16414   1.827   1.172   2.528 -0.5737  0.2812  0.0727
 1594SOL    HW116415   1.737   1.199   2.509  0.6937  4.2037 -0.3138
 1594SOL    HW216416   1.870   1.229   2.465 -2.1971 -1.2575 -2.4085
 1595SOL     OW16417   0.307   2.341  10.877 -0.0027 -0.3568 -0.4016
 1595SOL    HW116418   0.339   2.299  10.957  1.6021 -2.2380 -2.0325
 1595SOL    HW216419   0.387   2.366  10.832 -0.9085 -2.6998 -3.2731
 1596SOL     OW16420   3.856   1.888  17.577 -0.1550 -0.0453 -0.0317
 1596SOL    HW116421   3.807   1.811  17.605  1.8622 -1.2317  0.2313
 1596SOL    HW216422   3.824   1.896  17.488  0.2050  1.1959 -0.0450
 1597SOL     OW16423   1.789   3.371   1.698  0.1193  0.4998  0.4686
 1597SOL    HW116424   1.695   3.358   1.691  0.1029 -0.4418  2.3614
 1597SOL    HW216425   1.800   3.352   1.791  0.7534 -2.7003 -0.2329
 1598SOL     OW16426   2.730   3.927   4.493  0.5781 -0.3090  0.3134
 1598SOL    HW116427   2.789   3.891   4.559  1.9446  3.4644  1.1754
 1598SOL    HW216428   2.793   3.951   4.424 -0.2351  0.7426 -0.0731
 1599SOL     OW16429   3.111   3.019  13.159  0.1682 -0.4635  0.2226
 1599SOL    HW116430   3.039   2.963  13.190 -0.1747 -1.0474 -1.5973
 1599SOL    HW216431   3.143   2.969  13.084 -0.2115 -0.2488 -0.0795
 1600SOL     OW16432   0.256   0.092   2.187 -0.8658  0.6574  0.4334
 1600SOL    HW116433   0.273   0.005   2.224  0.3113  2.2499  3.5690
 1600SOL    HW216434   0.295   0.140   2.260 -0.3121 -1.1769  1.3605
 1601SOL     OW16435   2.890   4.176   5.048 -0.3155 -0.0168  0.8279
 1601SOL    HW116436   2.920   4.085   5.036  0.3156  0.1216  1.3692
 1601SOL    HW216437   2.897   4.216   4.961 -1.4263 -0.0298  0.7410
 1602SOL     OW16438   0.641   1.541   9.828 -0.1754  0.1333  0.1040
 1602SOL    HW116439   0.694   1.470   9.863  1.6394  0.7592 -1.3321
 1602SOL    HW216440   0.669   1.532   9.736  0.3261  0.3430  0.2318
 1603SOL     OW16441   4.179   0.683   4.053  0.0197  0.1720  0.7988
 1603SOL    HW116442   4.256   0.644   4.012 -1.1094 -1.2141  0.0027
 1603SOL    HW216443   4.134   0.600   4.069  1.1703 -0.6414 -0.2702
 1604SOL     OW16444   2.233   4.293   1.498  0.4449 -0.2135  0.7413
 1604SOL    HW116445   2.194   4.296   1.585 -0.6476  2.0512  0.1568
 1604SOL    HW216446   2.271   4.380   1.496 -0.1182 -0.0094 -1.2517
 1605SOL     OW16447   1.278   4.376  14.773  0.5971  0.5389 -0.2259
 1605SOL    HW116448   1.256   4.397  14.864 -0.0314 -1.4565  0.0787
 1605SOL    HW216449   1.368   4.346  14.786  0.3369 -0.9933 -2.0720
 1606SOL     OW16450   0.440   3.497   9.844  0.1957  0.9689  0.3624
 1606SOL    HW116451   0.490   3.578   9.853  1.4396  0.2373  0.0734
 1606SOL    HW216452   0.459   3.448   9.924  1.3812 -0.1530 -0.6009
 1607SOL     OW16453   2.769   0.181   5.528 -0.2610  0.2028  0.0892
 1607SOL    HW116454   2.685   0.225   5.521 -0.9455 -1.3461 -1.3833
 1607SOL    HW216455   2.812   0.230   5.458  0.7198  1.2160  1.3744
 1608SOL     OW16456   3.521   0.505   9.173 -1.2983 -0.1607 -0.1081
 1608SOL    HW116457   3.525   0.441   9.245  0.7097  0.3548  0.2454
 1608SOL    HW216458   3.451   0.560   9.208 -1.1249 -1.0987  1.7327
 1609SOL     OW16459   1.536   3.648  14.161 -0.3762 -0.1746 -0.3152
 1609SOL    HW116460   1.626   3.673  14.180 -1.4022  1.7772  1.8420
 1609SOL    HW216461   1.483   3.701  14.220  1.1199 -0.7798  1.5509
 1610SOL     OW16462   2.641   2.185   4.610 -0.1990  0.2180 -0.4552
 1610SOL    HW116463   2.589   2.106   4.596  3.1963 -2.1462  0.3844
 1610SOL    HW216464   2.696   2.181   4.532  0.6022 -1.2883  0.1878
 1611SOL     OW16465   0.808   0.638   6.241  0.6106  0.2599  0.4784
 1611SOL    HW116466   0.848   0.561   6.201  0.3636  0.5470 -0.3389
 1611SOL    HW216467   0.797   0.595   6.325 -0.3884  0.2661  0.3497
 1612SOL     OW16468   1.424   4.343   1.076  0.1091 -0.0965 -0.1919
 1612SOL    HW116469   1.346   4.397   1.066  0.3155  0.3441  0.5379
 1612SOL    HW216470   1.475   4.360   0.996  0.5255  0.3645  0.1694
 1613SOL     OW16471   1.540   0.823  13.810  0.1581 -0.2946 -0.0395
 1613SOL    HW116472   1.497   0.901  13.777  0.1259  0.0406  0.8235
 1613SOL    HW216473   1.600   0.858  13.875  0.2194  0.3243 -0.4329
 1614SOL     OW16474   0.255   4.570   5.577 -0.1264 -0.1896  0.3421
 1614SOL    HW116475   0.283   4.543   5.490 -1.8642  0.8015 -0.5328
 1614SOL    HW216476   0.338   4.561   5.623 -0.1250 -1.8359  0.0071
 1615SOL     OW16477   2.810   2.048  13.233  0.1883 -0.2344 -0.5934
 1615SOL    HW116478   2.857   2.002  13.303 -3.0818 -1.6795  0.6661
 1615SOL    HW216479   2.877   2.060  13.166 -0.9751  0.6601 -1.5972
 1616SOL     OW16480   1.674   2.000   7.062  0.4132  0.3196 -0.9963
 1616SOL    HW116481   1.603   2.010   6.999  0.2748 -0.1401 -0.9153
 1616SOL    HW216482   1.740   1.970   7.000  1.6786  0.7603  0.1318
 1617SOL     OW16483   0.903   2.097   5.134 -0.5453 -0.2528 -0.1220
 1617SOL    HW116484   0.923   2.139   5.218 -0.5207  0.9249 -0.7123
 1617SOL    HW216485   0.829   2.043   5.161  0.7728 -1.3932  1.2138
 1618SOL     OW16486   4.553   2.847   1.613  0.4746 -0.3988  0.1200
 1618SOL    HW116487   4.523   2.777   1.671  0.2148 -0.3178  0.0839
 1618SOL    HW216488   4.644   2.847   1.643  0.7572  0.5345 -0.7362
 1619SOL     OW16489   2.757   1.569   8.025  1.0062  0.2219 -0.6893
 1619SOL    HW116490   2.816   1.503   7.989  0.9908  0.2777 -0.8145
 1619SOL    HW216491   2.772   1.545   8.117 -1.5993 -1.5087 -0.6943
 1620SOL     OW16492   1.958   2.406   2.130 -0.1962  0.5403 -0.5217
 1620SOL    HW116493   2.012   2.465   2.077  0.7432 -0.9091 -1.1480
 1620SOL    HW216494   1.955   2.453   2.214 -0.5627 -1.1970  0.4277
 1621SOL     OW16495   2.788   2.917   4.312  0.3178  0.6034 -0.2989
 1621SOL    HW116496   2.857   2.984   4.308  0.9384 -0.0354 -0.4089
 1621SOL    HW216497   2.845   2.841   4.302 -0.0208  0.3496 -0.2806
 1622SOL     OW16498   1.345   3.581   1.288  0.3889 -0.4543 -0.2917
 1622SOL    HW116499   1.268   3.605   1.237  0.8986  0.7738 -0.4798
 1622SOL    HW216500   1.406   3.652   1.267  1.0202 -1.1793 -0.9520
 1623SOL     OW16501   1.289   3.747   2.292  0.4451 -1.0981  0.1082
 1623SOL    HW116502   1.373   3.720   2.331  1.0722 -0.4664 -0.7960
 1623SOL    HW216503   1.230   3.677   2.322 -0.3608 -1.4111 -2.2232
 1624SOL     OW16504   3.706   2.299   0.023 -0.6866  0.5282 -0.0399
 1624SOL    HW116505   3.625   2.343   0.051 -1.1531  0.3651 -1.1178
 1624SOL    HW216506   3.731   2.348  17.688  1.0834 -2.2435 -1.2033
 1625SOL     OW16507   0.405   3.030   4.255  0.4382  0.0212 -0.0215
 1625SOL    HW116508   0.379   2.943   4.285 -0.0984 -0.2451 -1.2658
 1625SOL    HW216509   0.416   3.005   4.163 -0.9031  1.7012 -0.6478
 1626SOL     OW16510   0.747   1.589  13.556 -0.2778  0.0588  0.3130
 1626SOL    HW116511   0.719   1.503  13.588 -0.9877 -0.0268 -0.5481
 1626SOL    HW216512   0.673   1.623  13.505 -0.7146 -3.5467 -1.4477
 1627SOL     OW16513   1.682   2.346   8.719  0.1253 -0.3093 -0.2029
 1627SOL    HW116514   1.672   2.388   8.805 -2.3821 -1.9704  0.2950
 1627SOL    HW216515   1.778   2.340   8.716  0.1530  0.9865 -1.7740
 1628SOL     OW16516   3.898   1.414   1.710  0.5858 -0.8906 -0.2190
 1628SOL    HW116517   3.873   1.325   1.735 -2.4377  1.0457  3.5956
 1628SOL    HW216518   3.844   1.429   1.632 -1.9290  3.6808  2.4126
 1629SOL     OW16519   2.338   3.648  14.856  0.1715  0.3582  0.2460
 1629SOL    HW116520   2.289   3.630  14.776  2.6231  2.7149 -1.7952
 1629SOL    HW216521   2.344   3.564  14.901 -0.1667  1.1130  1.6944
 1630SOL     OW16522   2.049   3.242   5.184  0.0902  0.3973 -0.3864
 1630SOL    HW116523   1.967   3.288   5.165 -1.3444 -0.1162  4.4192
 1630SOL    HW216524   2.019   3.153   5.167  0.6666  0.0032  0.6499
 1631SOL     OW16525   2.527   2.762   4.319 -0.3478 -0.1960 -0.1726
 1631SOL    HW116526   2.594   2.750   4.387  0.3389  0.1076 -0.7913
 1631SOL    HW216527   2.530   2.856   4.298  0.7489 -0.8514 -2.8857
 1632SOL     OW16528   1.741   0.225   9.671 -0.9176 -0.1357  0.1744
 1632SOL    HW116529   1.668   0.210   9.731 -0.2728  2.1897  1.5366
 1632SOL    HW216530   1.690   0.273   9.606 -0.9596  0.1683  0.4319
 1633SOL     OW16531   4.465   1.817  10.810  0.3224  0.4306  0.4622
 1633SOL    HW116532   4.435   1.753  10.875  0.8132  0.0562  0.3178
 1633SOL    HW216533   4.555   1.791  10.795 -0.7211 -2.4346 -0.8489
 1634SOL     OW16534   4.444   4.206   2.509  0.3547 -0.1596 -0.4596
 1634SOL    HW116535   4.469   4.115   2.495  0.8308 -0.0824 -0.1006
 1634SOL    HW216536   4.362   4.213   2.460 -0.4570 -0.2981  0.8602
 1635SOL     OW16537   2.127   0.730  13.308  0.0455  0.0098 -0.1769
 1635SOL    HW116538   2.124   0.721  13.213  1.3765  0.8791 -0.2979
 1635SOL    HW216539   2.166   0.643  13.318  2.1308  1.1063  1.0207
 1636SOL     OW16540   3.988   1.910  11.677  0.3835  0.1315  0.3488
 1636SOL    HW116541   4.009   1.961  11.755  1.3136  3.9030 -2.3722
 1636SOL    HW216542   3.946   1.977  11.622  0.4436  0.8447  1.1730
 1637SOL     OW16543   0.024   3.510   3.857 -0.3460  0.1683  0.9170
 1637SOL    HW116544   0.082   3.535   3.929 -0.8782  0.8615  1.1012
 1637SOL    HW216545   0.067   3.558   3.787  1.3552  0.5640  2.2272
 1638SOL     OW16546   4.710   1.431   7.640  0.2327 -0.1371  0.2078
 1638SOL    HW116547   4.667   1.506   7.599  1.7655 -0.2658 -1.6396
 1638SOL    HW216548   0.014   1.383   7.568 -0.0821  2.4855 -1.7191
 1639SOL     OW16549   0.651   2.953   3.446 -0.0150 -0.2064  0.3534
 1639SOL    HW116550   0.724   2.972   3.505 -0.6080 -1.0311  1.3350
 1639SOL    HW216551   0.573   2.951   3.500  0.0581  0.7077  0.4786
 1640SOL     OW16552   2.867   2.054   8.901 -0.4765 -0.0517 -0.1669
 1640SOL    HW116553   2.862   2.128   8.960  2.4875 -0.1701  0.2065
 1640SOL    HW216554   2.962   2.055   8.896 -0.5903 -0.4630 -2.5421
 1641SOL     OW16555   1.494   3.411   2.537  0.1630  0.2629  0.2678
 1641SOL    HW116556   1.470   3.345   2.601  1.2810 -0.5306 -0.1360
 1641SOL    HW216557   1.522   3.486   2.589  0.3940  0.4685 -0.1488
 1642SOL     OW16558   3.267   0.949   3.238 -0.4712 -0.3011  0.0724
 1642SOL    HW116559   3.186   0.998   3.228 -0.0722 -0.1378 -2.4514
 1642SOL    HW216560   3.296   0.983   3.322  0.2322  1.5991 -0.9278
 1643SOL     OW16561   4.670   1.872   8.693 -0.1088 -0.6679  0.4320
 1643SOL    HW116562   4.688   1.824   8.612  2.2959  1.5438 -0.3678
 1643SOL    HW216563   4.579   1.884   8.667  0.0482  1.0134  0.6816
 1644SOL     OW16564   2.171   0.180   0.032 -0.0274  0.2109  0.5898
 1644SOL    HW116565   2.096   0.137  17.735  0.7021 -0.7142  0.2275
 1644SOL    HW216566   2.176   0.253  17.713  0.2838  0.6145  1.0812
 1645SOL     OW16567   2.692   1.918   8.746  0.2453  0.2398 -0.0882
 1645SOL    HW116568   2.732   1.978   8.810 -0.1079 -1.0032  1.2933
 1645SOL    HW216569   2.759   1.930   8.679 -1.7057 -2.1728 -2.4497
 1646SOL     OW16570   2.871   2.356  12.940 -0.8420 -0.3288 -0.1207
 1646SOL    HW116571   2.782   2.391  12.940 -0.7326 -0.0284 -2.2774
 1646SOL    HW216572   2.909   2.432  12.897  1.1477 -1.8035 -1.0049
 1647SOL     OW16573   4.104   2.614   7.153  0.3829  0.4633  0.2559
 1647SOL    HW116574   4.192   2.575   7.150  0.1798  0.1180 -1.2293
 1647SOL    HW216575   4.070   2.590   7.239  0.5092 -3.4941 -0.8356
 1648SOL     OW16576   3.112   1.911   5.601 -0.5560  0.0475  0.4853
 1648SOL    HW116577   3.142   1.977   5.538  0.6648 -0.3387  0.6803
 1648SOL    HW216578   3.111   1.958   5.685  0.6847  0.6078  0.1830
 1649SOL     OW16579   3.564   2.975  14.696  0.1153 -0.2255 -0.0399
 1649SOL    HW116580   3.502   2.935  14.757 -0.4285 -0.3354 -0.6686
 1649SOL    HW216581   3.585   2.900  14.640  2.3957  0.9684 -0.7847
 1650SOL     OW16582   4.001   2.372   2.418 -0.6578  0.4430 -0.3965
 1650SOL    HW116583   4.082   2.397   2.463  0.8426 -1.1695 -2.1905
 1650SOL    HW216584   3.953   2.455   2.418 -2.9838 -0.9222  2.0319
 1651SOL     OW16585   4.115   1.241   2.132  0.0645  0.1144  0.3890
 1651SOL    HW116586   4.064   1.183   2.189 -1.5156  0.0412 -1.1328
 1651SOL    HW216587   4.189   1.249   2.193  1.1088  1.0103 -1.0082
 1652SOL     OW16588   3.469   0.731  13.460  0.0395  0.1780  0.2416
 1652SOL    HW116589   3.388   0.722  13.410  0.3097 -1.1165  0.0521
 1652SOL    HW216590   3.533   0.752  13.392 -0.6705 -0.7598 -0.7203
 1653SOL     OW16591   2.879   3.063   2.105 -0.2857 -0.3568  0.2849
 1653SOL    HW116592   2.863   3.001   2.034  1.8384 -1.4835  0.8235
 1653SOL    HW216593   2.940   3.018   2.162  0.8102  0.6784 -0.0697
 1654SOL     OW16594   2.585   3.732   0.092  0.3789  0.1009 -0.3378
 1654SOL    HW116595   2.543   3.647   0.104 -0.1959  0.7214  2.0135
 1654SOL    HW216596   2.640   3.742   0.170  1.6525 -1.7302 -1.0047
 1655SOL     OW16597   3.451   1.799   0.947  0.5026 -0.3853 -0.1741
 1655SOL    HW116598   3.536   1.842   0.959  0.2322 -0.2434  1.1865
 1655SOL    HW216599   3.450   1.760   1.034 -1.5126  0.7536  0.3035
 1656SOL     OW16600   3.329   4.327  17.458 -0.1717  0.5496  0.5009
 1656SOL    HW116601   3.247   4.344  17.504 -1.5285  1.7346 -2.3745
 1656SOL    HW216602   3.390   4.326  17.532  0.8138 -1.2494 -0.3404
 1657SOL     OW16603   1.094   4.650   0.965 -0.3313 -0.5386 -0.5888
 1657SOL    HW116604   1.058   4.685   1.047  0.4602  2.5415 -1.5402
 1657SOL    HW216605   1.106   4.560   0.995 -1.2772  0.5797  3.1982
 1658SOL     OW16606   4.175   2.365   8.355 -0.1242  0.0825  0.4447
 1658SOL    HW116607   4.220   2.281   8.348  0.2661  0.4265 -1.1136
 1658SOL    HW216608   4.086   2.329   8.365 -0.1816  0.4297  1.2254
 1659SOL     OW16609   3.030   3.458   3.959 -0.6307 -0.0440  0.1348
 1659SOL    HW116610   2.959   3.487   3.902  0.2077  0.0353 -0.8785
 1659SOL    HW216611   3.075   3.394   3.904 -1.1491 -0.8647  0.6732
 1660SOL     OW16612   0.927   2.104   8.018 -0.0738  0.6644  0.0215
 1660SOL    HW116613   0.992   2.170   8.042  0.8780  0.4484 -1.9379
 1660SOL    HW216614   0.844   2.149   8.002 -0.5288 -0.2167 -0.1105
 1661SOL     OW16615   0.439   3.179   5.435 -0.0075 -0.0406 -0.1195
 1661SOL    HW116616   0.362   3.194   5.380  0.3249 -0.4984 -0.7037
 1661SOL    HW216617   0.441   3.249   5.500 -3.1400 -0.3087  0.2566
 1662SOL     OW16618   4.351   1.393   8.443  0.4085 -0.4251  0.8017
 1662SOL    HW116619   4.338   1.413   8.535 -1.6092  3.3437 -0.3154
 1662SOL    HW216620   4.347   1.297   8.444  3.4166 -0.5502  0.9131
 1663SOL     OW16621   2.852   2.175  12.236  0.0118  0.1740 -0.5007
 1663SOL    HW116622   2.920   2.128  12.188  0.4174  0.3370 -0.0905
 1663SOL    HW216623   2.806   2.224  12.168 -3.3749 -1.8506  0.3379
 1664SOL     OW16624   1.852   0.808   6.768 -0.7362 -0.7955  0.6411
 1664SOL    HW116625   1.920   0.855   6.720  0.0671  0.2982  2.8943
 1664SOL    HW216626   1.859   0.723   6.724 -0.6631  0.1225 -1.1055
 1665SOL     OW16627   0.033   3.934   3.274  0.0336 -0.1834  0.0530
 1665SOL    HW116628   0.118   3.948   3.315  0.7237  0.0300 -1.4175
 1665SOL    HW216629   0.063   3.892   3.193 -0.6105  0.4380 -0.5020
 1666SOL     OW16630   3.289   1.825   2.306  0.2445  0.1376 -0.1768
 1666SOL    HW116631   3.357   1.888   2.329 -0.0647 -0.0912  1.3169
 1666SOL    HW216632   3.341   1.796   2.231  2.2173 -0.3796  1.3828
 1667SOL     OW16633   4.629   3.523   3.461 -0.7882 -0.5604  0.3880
 1667SOL    HW116634   4.718   3.511   3.426 -1.3988 -1.0036 -1.0123
 1667SOL    HW216635   4.631   3.613   3.492  2.0085 -1.0008  1.4900
 1668SOL     OW16636   3.239   1.300   2.371 -0.2040 -0.3876  0.0211
 1668SOL    HW116637   3.276   1.343   2.448  2.6575 -3.8597  0.5857
 1668SOL    HW216638   3.199   1.376   2.327  1.2142 -0.0198 -0.6226
 1669SOL     OW16639   3.624   4.209   6.565 -0.7148  0.6164 -0.0526
 1669SOL    HW116640   3.649   4.228   6.655  1.0689  0.0011 -0.4297
 1669SOL    HW216641   3.588   4.122   6.583  0.4123 -0.2293 -1.9559
 1670SOL     OW16642   1.863   0.908   3.162  0.4305  0.0019 -0.1521
 1670SOL    HW116643   1.783   0.929   3.212  0.3650  0.6629 -0.5293
 1670SOL    HW216644   1.842   0.938   3.074  0.9922  0.5673 -0.0925
 1671SOL     OW16645   3.743   3.175   7.155 -0.5075  0.0381  0.1442
 1671SOL    HW116646   3.715   3.208   7.069  0.8084  0.7822 -0.0034
 1671SOL    HW216647   3.740   3.082   7.133  0.8949 -0.2977  1.3758
 1672SOL     OW16648   4.507   1.329   7.775 -0.1231  0.2878 -0.0948
 1672SOL    HW116649   4.577   1.364   7.720 -1.5384  1.0007 -1.4617
 1672SOL    HW216650   4.527   1.363   7.862  0.9808 -1.2972  0.2667
 1673SOL     OW16651   4.084   0.719  13.766  0.2452  0.0643 -0.1487
 1673SOL    HW116652   4.008   0.701  13.711 -0.5032 -0.1726  0.9599
 1673SOL    HW216653   4.114   0.634  13.798 -0.4879  0.3354  1.2606
 1674SOL     OW16654   1.267   0.836   5.712  0.4222 -0.0010  0.3212
 1674SOL    HW116655   1.268   0.880   5.627  0.8118 -0.3191  0.1625
 1674SOL    HW216656   1.356   0.802   5.717  0.1726 -0.7046  0.0023
 1675SOL     OW16657   0.936   1.716  17.328  0.6134 -0.5854  0.5331
 1675SOL    HW116658   0.910   1.776  17.258 -0.4103 -1.3029  0.3022
 1675SOL    HW216659   0.995   1.775  17.376  0.1965  0.4853 -0.2733
 1676SOL     OW16660   1.269   3.453  12.527  0.0016 -0.1742 -0.4420
 1676SOL    HW116661   1.314   3.381  12.482  0.6651  1.2744 -2.1253
 1676SOL    HW216662   1.356   3.472  12.562  0.5333 -1.3793 -1.0974
 1677SOL     OW16663   3.289   3.826   4.309 -0.3896 -0.1326  0.3149
 1677SOL    HW116664   3.306   3.871   4.226 -1.1773  0.2692  0.3792
 1677SOL    HW216665   3.369   3.845   4.359  1.0847  2.2804 -2.9465
 1678SOL     OW16666   1.480   2.077   8.873 -0.5469 -0.2455 -0.6746
 1678SOL    HW116667   1.563   2.111   8.907 -1.1780 -0.4607  1.0719
 1678SOL    HW216668   1.507   1.989   8.848 -2.5017 -0.8244 -0.7096
 1679SOL     OW16669   1.121   0.986  10.257  0.4720 -0.3942 -0.1712
 1679SOL    HW116670   1.063   0.924  10.215 -1.1518  1.4277 -0.6175
 1679SOL    HW216671   1.101   0.966  10.349 -0.7627  0.5883 -0.2212
 1680SOL     OW16672   1.852   2.194   3.948  0.0017 -0.0273  0.2146
 1680SOL    HW116673   1.834   2.162   3.859 -1.4948  0.4236  0.3548
 1680SOL    HW216674   1.833   2.117   4.000  2.4910  0.0229  1.1762
 1681SOL     OW16675   0.747   3.201   1.611  0.1938 -0.4481  0.1958
 1681SOL    HW116676   0.765   3.217   1.518 -0.8827  1.6358  0.3457
 1681SOL    HW216677   0.808   3.262   1.652  0.0618 -2.5396  3.4873
 1682SOL     OW16678   2.442   3.019   6.398  0.3656  0.3684 -0.0898
 1682SOL    HW116679   2.387   2.977   6.332  0.9455 -0.6668  0.0669
 1682SOL    HW216680   2.523   3.025   6.347  0.3599 -0.1351 -0.1643
 1683SOL     OW16681   3.703   1.028   5.647 -0.6255  0.2288  0.0607
 1683SOL    HW116682   3.713   0.995   5.558  1.4440  1.7004 -0.2425
 1683SOL    HW216683   3.707   1.124   5.641 -2.4218  0.3057  0.0563
 1684SOL     OW16684   2.142   0.794   9.880  0.3422  0.3180  0.1367
 1684SOL    HW116685   2.123   0.715   9.829 -0.1467  1.6351 -1.7599
 1684SOL    HW216686   2.081   0.860   9.845 -1.2864 -1.0198  0.4418
 1685SOL     OW16687   4.199   3.753   8.733 -0.0893  0.2827 -0.2139
 1685SOL    HW116688   4.197   3.695   8.657 -1.0543 -0.7176  0.5675
 1685SOL    HW216689   4.163   3.830   8.690  1.2206  1.3719  0.6324
 1686SOL     OW16690   2.817   0.562   1.361 -0.7667  0.8355  0.0952
 1686SOL    HW116691   2.727   0.589   1.378  0.0180  1.3295  3.3757
 1686SOL    HW216692   2.856   0.590   1.443 -0.2362  1.2270 -0.2930
 1687SOL     OW16693   0.724   4.249  15.514 -0.1408  0.1187 -0.4655
 1687SOL    HW116694   0.647   4.268  15.461  0.0092  1.2792 -0.2809
 1687SOL    HW216695   0.792   4.220  15.453 -0.3664  4.2268 -2.7079
 1688SOL     OW16696   4.571   2.564  17.743  0.4049 -0.0287  0.4678
 1688SOL    HW116697   4.564   2.478  17.702 -1.1553 -0.0212  0.7327
 1688SOL    HW216698   4.548   2.535   0.088 -1.9677  0.2244 -0.0783
 1689SOL     OW16699   1.954   2.067   3.072 -0.4461 -0.0585 -0.5443
 1689SOL    HW116700   1.874   2.021   3.047 -0.6919 -0.1783  0.4531
 1689SOL    HW216701   2.022   2.003   3.052  0.1009  1.3679 -3.2830
 1690SOL     OW16702   0.442   2.479   7.135  0.1512  0.5230  0.5703
 1690SOL    HW116703   0.402   2.481   7.222  1.3261 -1.2698  1.1554
 1690SOL    HW216704   0.442   2.385   7.116  1.3395  0.9157 -1.3201
 1691SOL     OW16705   1.337   0.589  11.313 -0.3293  0.5859 -0.5111
 1691SOL    HW116706   1.341   0.669  11.260 -1.4958  0.0397 -1.4013
 1691SOL    HW216707   1.429   0.566  11.328 -0.1339  1.3078 -0.5995
 1692SOL     OW16708   3.753   4.253   3.436  0.3089  0.6385 -0.2199
 1692SOL    HW116709   3.832   4.306   3.420 -0.0482  1.3370  0.3347
 1692SOL    HW216710   3.774   4.180   3.378  1.3588  2.0362 -1.6157
 1693SOL     OW16711   3.982   3.167   8.776  0.0049 -0.5492  0.0028
 1693SOL    HW116712   3.988   3.253   8.816  0.9855 -0.5361 -0.1614
 1693SOL    HW216713   4.014   3.103   8.839  2.1736  0.5966  0.0519
 1694SOL     OW16714   3.654   3.247   9.606 -0.2606 -0.0798  0.3740
 1694SOL    HW116715   3.702   3.326   9.581 -0.9477 -0.4486 -2.0888
 1694SOL    HW216716   3.686   3.234   9.696  0.8456 -0.3305 -0.0587
 1695SOL     OW16717   2.319   4.198  17.315  0.2184  0.1855 -0.2229
 1695SOL    HW116718   2.225   4.210  17.325  0.6418  1.5161  2.2448
 1695SOL    HW216719   2.318   4.102  17.312 -1.1041  0.1363  1.6264
 1696SOL     OW16720   4.265   0.455  12.647  0.1433 -0.1288  0.4785
 1696SOL    HW116721   4.216   0.373  12.636 -1.9882  1.2694 -0.5604
 1696SOL    HW216722   4.238   0.478  12.737 -1.3668 -1.0804  0.2809
 1697SOL     OW16723   0.790   0.125  17.153  0.2606  0.4074  0.4904
 1697SOL    HW116724   0.808   0.042  17.197 -1.7361 -0.5524 -0.5448
 1697SOL    HW216725   0.777   0.182  17.229 -0.6625  1.0440 -0.1514
 1698SOL     OW16726   3.005   3.959   7.839 -0.4146  0.0284  0.7286
 1698SOL    HW116727   2.943   3.897   7.800 -0.2355  0.5400 -0.3525
 1698SOL    HW216728   3.025   3.917   7.923  0.4451 -0.9953 -0.0019
 1699SOL     OW16729   4.431   4.217   7.479 -0.1079  0.4220 -0.1892
 1699SOL    HW116730   4.498   4.216   7.410 -1.5420  0.8459 -1.5856
 1699SOL    HW216731   4.367   4.165   7.431  0.0212 -0.7252  0.8733
 1700SOL     OW16732   4.229   2.708  15.584 -0.0570  0.2284 -0.2986
 1700SOL    HW116733   4.307   2.682  15.633 -0.3238 -0.9896 -0.5252
 1700SOL    HW216734   4.175   2.630  15.589  0.5887 -0.2192 -0.2582
 1701SOL     OW16735   3.123   2.989   5.462 -0.1293  0.0058 -0.2943
 1701SOL    HW116736   3.082   3.050   5.523 -1.1117 -1.3956  0.4307
 1701SOL    HW216737   3.172   3.050   5.406  2.6146 -1.9088  0.0219
 1702SOL     OW16738   0.334   0.422   2.532 -0.0734 -0.3818  0.5001
 1702SOL    HW116739   0.380   0.373   2.600  0.7705 -3.6942 -2.4322
 1702SOL    HW216740   0.371   0.371   2.460  1.4045  1.2294  0.1044
 1703SOL     OW16741   2.861   3.337   1.270  0.2281 -0.3757  0.2975
 1703SOL    HW116742   2.834   3.395   1.341 -0.3704  0.6540 -0.7768
 1703SOL    HW216743   2.929   3.286   1.314  0.3462  0.3952  1.0019
 1704SOL     OW16744   0.135   1.287   7.483  0.3445  0.1811 -0.0929
 1704SOL    HW116745   0.197   1.241   7.539 -0.7883 -1.2810 -0.0451
 1704SOL    HW216746   0.162   1.248   7.399  1.3081 -1.0446  0.7822
 1705SOL     OW16747   0.961   2.297   2.510  0.2876  0.1917  0.4604
 1705SOL    HW116748   1.056   2.295   2.501  0.1578 -0.5301 -0.6206
 1705SOL    HW216749   0.945   2.318   2.602  1.0162 -1.1917  0.8949
 1706SOL     OW16750   0.099   1.652   1.353  0.1078 -0.0272 -0.0205
 1706SOL    HW116751   0.036   1.599   1.305  0.2523 -0.1375 -0.0896
 1706SOL    HW216752   0.077   1.623   1.442  1.3851 -1.4553 -0.1647
 1707SOL     OW16753   3.844   0.199   9.237 -0.3702 -0.3459 -0.3268
 1707SOL    HW116754   3.885   0.272   9.283  0.4308 -1.6676  1.0137
 1707SOL    HW216755   3.755   0.226   9.259  0.0336 -0.2145  1.1024
 1708SOL     OW16756   4.516   1.096  15.605  0.1147  0.6083  0.3810
 1708SOL    HW116757   4.423   1.118  15.608 -0.1252 -0.0653 -2.3744
 1708SOL    HW216758   4.528   1.067  15.515 -0.1372 -2.7624  1.4341
 1709SOL     OW16759   1.164   1.686   6.864  0.0548  0.5493 -0.0434
 1709SOL    HW116760   1.218   1.678   6.942  0.8550  0.2794 -0.6332
 1709SOL    HW216761   1.171   1.780   6.845  1.3577  0.5237  0.3639
 1710SOL     OW16762   2.571   0.007   2.780  0.1978  0.1268 -0.1682
 1710SOL    HW116763   2.648   4.717   2.731  0.1527  0.1427 -0.2472
 1710SOL    HW216764   2.609   0.078   2.832  2.7406 -1.4864  0.1625
 1711SOL     OW16765   1.314   2.579   2.791 -0.1727 -0.4911  0.3899
 1711SOL    HW116766   1.266   2.661   2.797  0.0038 -0.3900  0.4301
 1711SOL    HW216767   1.383   2.606   2.729 -0.1232 -0.4799  0.4495
 1712SOL     OW16768   2.813   1.141   1.344  0.0032  0.1553 -0.1049
 1712SOL    HW116769   2.829   1.083   1.269 -0.8310  0.5352 -0.5825
 1712SOL    HW216770   2.735   1.095   1.375 -0.3369  0.8820  0.1132
 1713SOL     OW16771   3.710   4.438   5.365  0.0100 -0.0453 -0.8161
 1713SOL    HW116772   3.741   4.378   5.434 -0.4764  2.0772  1.2367
 1713SOL    HW216773   3.785   4.496   5.350 -1.0742  1.5438 -0.0953
 1714SOL     OW16774   3.369   1.878   6.948 -0.0486 -0.1058  0.5567
 1714SOL    HW116775   3.285   1.851   6.985 -1.0815  1.4764 -0.6315
 1714SOL    HW216776   3.355   1.973   6.945  3.0876  0.2618 -2.4140
 1715SOL     OW16777   2.420   1.611  16.471 -0.1567 -0.1990  0.1692
 1715SOL    HW116778   2.475   1.689  16.475 -0.4177 -0.0207  0.2516
 1715SOL    HW216779   2.494   1.550  16.462  0.2373  0.6015 -1.9629
 1716SOL     OW16780   4.461   4.719  14.596  0.0528  0.2573 -0.1269
 1716SOL    HW116781   4.458   4.719  14.692 -2.4424  0.3609 -0.1874
 1716SOL    HW216782   4.454   0.078  14.589  1.4522  0.5952  3.0445
 1717SOL     OW16783   2.276   1.956  15.569  0.6250 -0.2329 -0.1696
 1717SOL    HW116784   2.312   1.934  15.483  0.5451 -0.0879 -0.2404
 1717SOL    HW216785   2.343   2.009  15.613 -0.2536  0.9378 -0.2201
 1718SOL     OW16786   0.311   4.300   3.120  0.0400 -0.1517  0.2053
 1718SOL    HW116787   0.248   4.372   3.122  1.7078  1.2584  2.1918
 1718SOL    HW216788   0.307   4.273   3.029  0.4342  0.1724  0.0927
 1719SOL     OW16789   0.170   1.835   3.445 -0.0714 -0.4529  0.4235
 1719SOL    HW116790   0.173   1.788   3.528 -1.1231  1.6594  1.6575
 1719SOL    HW216791   0.206   1.770   3.384  0.6840 -0.4133  0.8221
 1720SOL     OW16792   1.693   1.745  15.009  0.0660  0.2411  0.1590
 1720SOL    HW116793   1.639   1.809  15.056  0.0381 -1.0882  1.9337
 1720SOL    HW216794   1.682   1.773  14.918  0.8928  0.5111  0.1464
 1721SOL     OW16795   0.260   3.749   8.465 -0.3600 -0.8594  0.0682
 1721SOL    HW116796   0.240   3.772   8.555  2.6507 -1.4393  0.9090
 1721SOL    HW216797   0.173   3.764   8.429  0.2374  0.7866 -0.6675
 1722SOL     OW16798   4.305   3.918   2.987 -0.1387  0.6764  0.2680
 1722SOL    HW116799   4.243   3.902   2.916  0.1176  0.4228  0.0975
 1722SOL    HW216800   4.298   3.849   3.052  1.3593  0.8797  0.6569
 1723SOL     OW16801   3.191   3.288  12.374 -0.2371 -0.5969 -0.0318
 1723SOL    HW116802   3.100   3.315  12.385 -0.3421 -0.9617 -0.0171
 1723SOL    HW216803   3.179   3.194  12.379  0.9006 -0.8271 -1.4986
 1724SOL     OW16804   1.467   0.269  13.261 -0.2399  0.0050 -0.0422
 1724SOL    HW116805   1.460   0.364  13.269 -0.9182 -0.1233  0.8234
 1724SOL    HW216806   1.535   0.268  13.329  0.3919  1.8721 -0.6483
 1725SOL     OW16807   3.070   3.303  11.762 -0.4170  0.3331 -0.3428
 1725SOL    HW116808   3.158   3.299  11.724 -0.3986 -0.6758 -0.1816
 1725SOL    HW216809   3.077   3.213  11.792 -2.6979  0.6478  1.1435
 1726SOL     OW16810   0.697   3.972  12.752  0.1763  0.1957  0.5342
 1726SOL    HW116811   0.662   3.914  12.684  0.6377  1.4584 -0.7746
 1726SOL    HW216812   0.715   4.054  12.707  1.7151  0.8367  2.2852
 1727SOL     OW16813   3.945   2.913  10.360 -0.3563  1.0176 -0.3382
 1727SOL    HW116814   3.909   2.877  10.442  1.1639 -0.4669 -0.3314
 1727SOL    HW216815   4.036   2.933  10.383 -0.2323  0.8158 -0.6626
 1728SOL     OW16816   4.210   1.800  11.251  0.4487  1.1335  0.3538
 1728SOL    HW116817   4.188   1.755  11.332  1.2602 -1.6407 -0.9377
 1728SOL    HW216818   4.208   1.892  11.276 -1.3140  1.2967 -0.4265
 1729SOL     OW16819   2.903   1.932  12.088 -0.2927  0.2272  0.3882
 1729SOL    HW116820   2.815   1.897  12.077 -0.1776  0.3150 -0.8804
 1729SOL    HW216821   2.932   1.873  12.158  0.7879  0.2435 -0.0360
 1730SOL     OW16822   0.076   2.337  10.593 -0.2243  0.0684 -0.4399
 1730SOL    HW116823   0.056   2.334  10.686  1.2860  2.3337 -0.0393
 1730SOL    HW216824   0.147   2.402  10.597  2.1528 -2.5151 -0.5611
 1731SOL     OW16825   0.244   3.661   5.058 -0.1567  0.5204 -0.5389
 1731SOL    HW116826   0.266   3.688   4.968  1.6022  0.2120 -0.1925
 1731SOL    HW216827   0.160   3.618   5.043 -0.1816  0.0527  1.0669
 1732SOL     OW16828   0.148   0.085  12.391 -0.3720  0.1565  0.0728
 1732SOL    HW116829   0.096   0.148  12.441  0.4061  1.8085 -1.2024
 1732SOL    HW216830   0.104   0.089  12.306  2.0857  0.7698 -1.1556
 1733SOL     OW16831   0.644   3.469   7.883  0.0656  0.2769  0.0630
 1733SOL    HW116832   0.723   3.432   7.844  1.0554  1.2863  1.0979
 1733SOL    HW216833   0.642   3.429   7.970  1.2666 -2.3016 -1.0910
 1734SOL     OW16834   4.625   0.113   7.313 -0.2525 -0.4252 -0.0387
 1734SOL    HW116835   4.642   0.207   7.311 -0.5202 -0.4012 -1.2159
 1734SOL    HW216836   4.531   0.128   7.318  0.7606  4.9901  2.0024
 1735SOL     OW16837   0.685   0.304   4.084 -0.2984  0.4049  0.0656
 1735SOL    HW116838   0.679   0.244   4.011 -0.5442 -0.3240  0.6821
 1735SOL    HW216839   0.774   0.292   4.118  0.5232 -0.8458 -2.5975
 1736SOL     OW16840   3.250   0.574   6.082  0.0084 -0.0996 -0.0419
 1736SOL    HW116841   3.224   0.550   5.993  0.2457 -1.8637  0.3593
 1736SOL    HW216842   3.195   0.653   6.079 -0.0527 -0.1934 -1.3924
 1737SOL     OW16843   2.985   0.526   2.522 -0.0740  0.2223  0.1731
 1737SOL    HW116844   2.938   0.465   2.465 -0.6920  0.9866 -0.1450
 1737SOL    HW216845   2.985   0.605   2.468  1.0777  0.7046  0.8884
 1738SOL     OW16846   2.618   2.779   5.188  0.0773 -0.1037  0.7238
 1738SOL    HW116847   2.537   2.741   5.221  0.7261 -0.4811  1.8732
 1738SOL    HW216848   2.612   2.749   5.098 -0.3151  0.1969  0.6483
 1739SOL     OW16849   3.073   3.928   4.565 -0.0537 -0.6700  0.2731
 1739SOL    HW116850   3.010   3.864   4.599 -1.0108  0.1439  0.0505
 1739SOL    HW216851   3.053   3.935   4.471  0.5732  0.1896  0.2094
 1740SOL     OW16852   3.741   2.819   6.105 -0.1617  0.8192 -0.1676
 1740SOL    HW116853   3.646   2.817   6.120 -0.0757  0.5039  0.3373
 1740SOL    HW216854   3.743   2.808   6.009 -1.5205 -0.2052 -0.0920
 1741SOL     OW16855   4.191   3.976   2.260 -0.3892 -0.0646 -0.3646
 1741SOL    HW116856   4.226   3.953   2.174  0.2544  0.0714 -0.1425
 1741SOL    HW216857   4.235   3.911   2.314 -0.4881 -0.1248 -0.3564
 1742SOL     OW16858   3.120   0.265  16.006  0.2178 -0.7949 -0.1620
 1742SOL    HW116859   3.215   0.270  16.014  0.1431  0.7128 -0.2252
 1742SOL    HW216860   3.095   0.323  16.078  2.1749  0.3772 -0.4093
 1743SOL     OW16861   4.328   2.850   7.243  0.1745  0.3002 -0.3195
 1743SOL    HW116862   4.239   2.877   7.219  0.9816  0.9693 -2.5074
 1743SOL    HW216863   4.345   2.776   7.186  0.4563  0.3393 -0.2859
 1744SOL     OW16864   2.765   0.066  11.469  0.6269 -0.0816  0.2291
 1744SOL    HW116865   2.825   0.123  11.422  0.8555  0.1618  0.8177
 1744SOL    HW216866   2.787   0.097  11.557  0.5941  1.1812 -0.2071
 1745SOL     OW16867   3.159   3.257  13.267  0.2578  0.3652 -0.0890
 1745SOL    HW116868   3.115   3.252  13.351  0.7150  1.8977  0.2556
 1745SOL    HW216869   3.134   3.171  13.234 -0.1263  0.3890  0.1504
 1746SOL     OW16870   0.649   0.437   9.066 -0.0011  0.3858 -0.5090
 1746SOL    HW116871   0.671   0.345   9.048  0.7742  0.2055  1.3651
 1746SOL    HW216872   0.553   0.442   9.069  0.0802  1.9058 -0.7109
 1747SOL     OW16873   3.197   3.154   5.281 -0.2488 -0.4521 -0.2213
 1747SOL    HW116874   3.177   3.234   5.328 -1.5659  0.9554 -3.1938
 1747SOL    HW216875   3.136   3.146   5.208  1.3174 -2.1743 -1.3659
 1748SOL     OW16876   1.642   2.249   9.518 -0.7470 -0.0078  0.5316
 1748SOL    HW116877   1.626   2.193   9.594 -2.9927  0.3384  0.3079
 1748SOL    HW216878   1.647   2.188   9.444 -0.4867 -0.7325  1.1536
 1749SOL     OW16879   2.259   3.390   2.623  0.5819 -0.1635 -0.0621
 1749SOL    HW116880   2.294   3.338   2.551  1.5010 -0.2251  0.4242
 1749SOL    HW216881   2.182   3.435   2.587  0.6674 -0.6163 -0.7936
 1750SOL     OW16882   2.615   1.179   8.460  0.7163 -0.3901 -0.5078
 1750SOL    HW116883   2.547   1.142   8.403 -1.3011  2.4272  0.0675
 1750SOL    HW216884   2.576   1.164   8.547  0.5869 -1.2299 -0.7063
 1751SOL     OW16885   3.193   3.525  12.622  0.0872  0.3041  0.1954
 1751SOL    HW116886   3.250   3.567  12.557  2.0046 -2.0702  0.3445
 1751SOL    HW216887   3.245   3.542  12.700  0.2431 -0.5884  0.2821
 1752SOL     OW16888   3.882   3.239  10.464 -0.2776  0.4475 -0.3471
 1752SOL    HW116889   3.843   3.207  10.383 -0.7841  0.0383  0.0575
 1752SOL    HW216890   3.820   3.309  10.485  0.4107  1.0626 -0.3430
 1753SOL     OW16891   2.690   2.661   2.080  0.4585  0.2364  0.5905
 1753SOL    HW116892   2.732   2.699   2.157 -1.2016  0.4843  1.3875
 1753SOL    HW216893   2.633   2.730   2.047  0.5413  0.1882  0.3534
 1754SOL     OW16894   0.037   1.109  14.601  0.0478 -0.5833  0.1107
 1754SOL    HW116895   4.711   1.038  14.588 -2.2490  1.3710  0.5131
 1754SOL    HW216896   0.122   1.066  14.589  0.3805  0.1986 -0.3007
 1755SOL     OW16897   2.888   4.645   3.727  0.6286  0.3582  0.4042
 1755SOL    HW116898   2.883   4.729   3.682  0.7781 -0.0827 -0.4447
 1755SOL    HW216899   2.840   4.666   3.807 -1.7826  2.7324 -1.7029
 1756SOL     OW16900   1.651   1.601  15.948  0.2037 -0.4037  0.2228
 1756SOL    HW116901   1.588   1.669  15.974 -0.1921 -0.7295  0.1079
 1756SOL    HW216902   1.659   1.548  16.027 -1.1535 -1.3785 -0.2962
 1757SOL     OW16903   2.878   1.527   9.445  0.4671  0.2337 -0.4337
 1757SOL    HW116904   2.906   1.561   9.529 -0.9208  1.3354 -0.4201
 1757SOL    HW216905   2.937   1.575   9.387 -0.0747 -0.6035 -1.6883
 1758SOL     OW16906   0.383   2.691  11.779 -0.1529  0.4357  0.0917
 1758SOL    HW116907   0.314   2.713  11.715 -1.2606  0.9490  1.4492
 1758SOL    HW216908   0.341   2.716  11.861  0.3357  0.8869  0.2006
 1759SOL     OW16909   3.047   3.757   7.055 -0.1208 -0.4902  0.3788
 1759SOL    HW116910   2.955   3.781   7.046 -0.7343 -2.5422  1.0848
 1759SOL    HW216911   3.090   3.801   6.982  1.3356 -1.3847  0.6888
 1760SOL     OW16912   1.088   1.058   5.780  0.3950  0.0261  0.4396
 1760SOL    HW116913   1.177   1.023   5.774  0.1536 -0.8985  2.2570
 1760SOL    HW216914   1.056   1.015   5.700  1.0019  1.3497 -0.5138
 1761SOL     OW16915   3.235   1.996  15.824  0.5839 -0.5613 -0.9289
 1761SOL    HW116916   3.261   2.084  15.799 -1.5029  0.3107 -0.0347
 1761SOL    HW216917   3.258   2.009  15.916 -0.9845 -0.4693 -0.5517
 1762SOL     OW16918   0.706   1.640   1.941 -0.2589 -0.8633 -0.3156
 1762SOL    HW116919   0.700   1.583   1.864 -0.6715 -0.5026 -0.5496
 1762SOL    HW216920   0.663   1.576   1.999  0.4399 -1.2397 -0.2176
 1763SOL     OW16921   0.595   2.920   5.837 -0.1428  0.0886  0.3011
 1763SOL    HW116922   0.535   2.918   5.762  0.5805 -0.4347 -0.2686
 1763SOL    HW216923   0.652   2.852   5.799 -1.4367 -1.3504  0.9212
 1764SOL     OW16924   2.231   2.002   5.853 -0.1792 -0.5238  0.0106
 1764SOL    HW116925   2.252   1.913   5.882  1.0223  0.3621  1.8567
 1764SOL    HW216926   2.311   2.024   5.806  0.0415 -1.6230 -0.1293
 1765SOL     OW16927   2.390   1.305   5.578 -0.2941 -0.2641 -0.4508
 1765SOL    HW116928   2.356   1.292   5.490 -2.1588  2.5205 -0.1469
 1765SOL    HW216929   2.308   1.306   5.629 -0.1346 -0.7988 -0.1864
 1766SOL     OW16930   2.361   1.453   5.131 -0.2640 -0.2819 -0.1376
 1766SOL    HW116931   2.357   1.358   5.139 -2.5504 -0.1265  0.4390
 1766SOL    HW216932   2.296   1.466   5.061 -0.0205  0.3080 -0.2568
 1767SOL     OW16933   2.877   3.807   1.096  0.2359  0.3422  0.5254
 1767SOL    HW116934   2.965   3.771   1.101  0.2914  0.5886  1.2855
 1767SOL    HW216935   2.884   3.863   1.173  0.0468  1.1470 -0.0432
 1768SOL     OW16936   2.058   0.219   0.627  0.0704 -0.0572  0.5148
 1768SOL    HW116937   2.067   0.174   0.711 -1.1249 -1.1520  0.0490
 1768SOL    HW216938   2.031   0.308   0.648 -2.4994  0.0789 -3.2244
 1769SOL     OW16939   1.913   2.332   0.812 -0.0627  0.0902  0.3500
 1769SOL    HW116940   1.899   2.341   0.906  2.7431  0.7404  0.7246
 1769SOL    HW216941   1.832   2.291   0.784  1.3862 -2.7463  0.2247
 1770SOL     OW16942   2.422   2.272   8.562  0.6011 -0.2064  0.0395
 1770SOL    HW116943   2.386   2.343   8.616 -0.6588 -0.6736 -0.2011
 1770SOL    HW216944   2.434   2.197   8.620  0.1852  1.1142  1.8200
 1771SOL     OW16945   0.082   4.499   8.972  0.0662  0.2810  0.2901
 1771SOL    HW116946   0.021   4.511   9.045  1.2154  0.8669  1.1625
 1771SOL    HW216947   0.146   4.439   9.010 -2.4510 -1.6505  1.4774
 1772SOL     OW16948   1.512   0.428  13.515  0.0928  0.2188  0.2048
 1772SOL    HW116949   1.575   0.359  13.535 -1.2632 -0.9457  0.4826
 1772SOL    HW216950   1.464   0.429  13.597 -0.2737 -1.4511  0.0129
 1773SOL     OW16951   3.204   0.695   2.297  0.0933 -0.2987  0.0360
 1773SOL    HW116952   3.259   0.688   2.219 -0.0670  1.6152 -0.2455
 1773SOL    HW216953   3.216   0.608   2.334 -1.4810 -0.2841  0.5924
 1774SOL     OW16954   0.383   2.739   3.688 -0.0126 -0.5001 -0.1431
 1774SOL    HW116955   0.422   2.715   3.772 -2.0527 -1.4636  0.5475
 1774SOL    HW216956   0.292   2.712   3.701 -0.0024 -0.5150 -0.1026
 1775SOL     OW16957   3.767   2.502   6.249 -0.1442  0.1425 -0.5728
 1775SOL    HW116958   3.731   2.438   6.310  2.6220  1.2294  2.2352
 1775SOL    HW216959   3.708   2.492   6.174  1.3054  0.4785 -1.7740
 1776SOL     OW16960   1.791   0.774   0.645 -0.7728 -0.4449 -0.7785
 1776SOL    HW116961   1.837   0.750   0.726  0.9440  3.5443 -0.5847
 1776SOL    HW216962   1.828   0.861   0.631 -2.1435  0.3344  0.2943
 1777SOL     OW16963   2.688   1.288   4.472  0.4779 -0.1516  0.9219
 1777SOL    HW116964   2.609   1.288   4.418  0.8583  2.7073  0.3793
 1777SOL    HW216965   2.688   1.372   4.518 -1.1986 -0.3441  1.2582
 1778SOL     OW16966   2.007   0.354   2.036 -0.3719 -0.0364  0.2422
 1778SOL    HW116967   1.943   0.325   1.970  0.1884 -2.2269  0.6366
 1778SOL    HW216968   1.970   0.322   2.118 -0.3098 -1.0464 -0.1197
 1779SOL     OW16969   2.284   3.735   1.399  0.3352  0.1314  0.2460
 1779SOL    HW116970   2.354   3.671   1.407  0.5196  0.3041  0.0071
 1779SOL    HW216971   2.337   3.804   1.360  1.9783 -0.9680  0.5484
 1780SOL     OW16972   3.059   0.998   1.087  0.6057  0.0051  0.0056
 1780SOL    HW116973   3.072   1.075   1.143 -0.8241 -0.2592  0.7088
 1780SOL    HW216974   2.968   0.976   1.104  0.0271  0.4939 -2.5742
 1781SOL     OW16975   3.614   3.259   8.419  0.2188  0.3385 -0.0129
 1781SOL    HW116976   3.599   3.199   8.346 -0.7264  0.3889  0.1401
 1781SOL    HW216977   3.655   3.193   8.475 -0.4333  1.2992  1.5935
 1782SOL     OW16978   1.407   2.664   6.580  0.3461 -0.1237 -0.0411
 1782SOL    HW116979   1.368   2.723   6.645 -0.7645 -0.8116 -0.0751
 1782SOL    HW216980   1.346   2.661   6.506  0.6631  0.4032 -0.3189
 1783SOL     OW16981   0.673   0.175   2.432 -0.0837 -0.1214 -0.2200
 1783SOL    HW116982   0.748   0.130   2.394 -1.5432 -2.1642 -0.7329
 1783SOL    HW216983   0.653   0.235   2.360 -1.3694 -0.2847  0.0003
 1784SOL     OW16984   4.610   2.213   8.561 -0.4495 -0.2794  0.2220
 1784SOL    HW116985   4.608   2.192   8.655 -0.0364 -1.0853  0.0433
 1784SOL    HW216986   4.696   2.251   8.544 -0.2403 -1.2431 -0.7928
 1785SOL     OW16987   4.035   3.879   4.542  0.8017  1.1904 -0.5619
 1785SOL    HW116988   4.118   3.889   4.588  1.3800 -1.6543 -0.9773
 1785SOL    HW216989   4.032   3.963   4.496 -0.5036  0.0703 -2.5177
 1786SOL     OW16990   3.097   2.406   1.138  0.5058  0.5951 -0.0409
 1786SOL    HW116991   3.088   2.468   1.210 -0.8001  0.1727  0.1685
 1786SOL    HW216992   3.048   2.333   1.177  0.1398  1.6506  1.4742
 1787SOL     OW16993   3.921   0.893   4.088  0.1585 -0.2292 -0.1692
 1787SOL    HW116994   3.958   0.929   4.008  0.6895 -1.8545 -0.6516
 1787SOL    HW216995   3.952   0.940   4.165 -0.8008  2.8632 -1.6899
 1788SOL     OW16996   1.364   3.811   4.237  0.6260  0.7377  0.3872
 1788SOL    HW116997   1.405   3.739   4.285  0.7432 -0.1313 -1.0074
 1788SOL    HW216998   1.434   3.876   4.243  0.8094  0.6929 -1.1937
 1789SOL     OW16999   3.819   1.119   8.862  0.1570  0.1573  0.1854
 1789SOL    HW117000   3.840   1.103   8.954  0.1763  0.4062  0.2234
 1789SOL    HW217001   3.802   1.212   8.855  0.7950  0.1934 -0.8957
 1790SOL     OW17002   3.624   1.246   4.618  0.0307 -0.5337 -0.2786
 1790SOL    HW117003   3.535   1.276   4.598 -0.6294 -0.1387  3.1357
 1790SOL    HW217004   3.678   1.304   4.564  0.8011 -1.0036 -0.0062
 1791SOL     OW17005   0.176   1.995   5.897  0.4934  0.3347  0.1850
 1791SOL    HW117006   0.222   1.910   5.890  1.5817  1.0787 -1.8863
 1791SOL    HW217007   0.115   1.985   5.970 -0.4239  2.2488 -0.3206
 1792SOL     OW17008   1.515   3.296   7.158 -0.4096 -0.1200 -0.1656
 1792SOL    HW117009   1.554   3.223   7.206 -0.7107 -0.2177 -0.0731
 1792SOL    HW217010   1.489   3.249   7.079  2.7348 -1.4400 -0.4005
 1793SOL     OW17011   1.854   3.155   0.901 -0.4492  0.1053 -0.4770
 1793SOL    HW117012   1.807   3.234   0.927  1.0732  0.8031  0.1126
 1793SOL    HW217013   1.806   3.129   0.822  0.0079 -0.5346 -0.5469
 1794SOL     OW17014   3.775   4.118   2.698 -0.0439  0.0088  0.1278
 1794SOL    HW117015   3.760   4.126   2.792  1.4756 -1.2260  0.4676
 1794SOL    HW217016   3.709   4.056   2.668  2.0469 -2.1124 -0.0650
 1795SOL     OW17017   0.508   3.630   5.162  0.1782  0.3330 -0.0476
 1795SOL    HW117018   0.527   3.633   5.068 -1.4344  1.2145 -0.3443
 1795SOL    HW217019   0.423   3.586   5.164 -0.1606  1.0749  1.9409
 1796SOL     OW17020   1.407   2.390   8.822  0.5989  0.1420 -0.0818
 1796SOL    HW117021   1.319   2.371   8.791 -0.4225  1.3187  2.0511
 1796SOL    HW217022   1.462   2.357   8.752 -1.1628 -0.2121 -1.2913
 1797SOL     OW17023   3.321   4.595   9.028 -0.3746 -0.5750 -0.1006
 1797SOL    HW117024   3.384   4.574   9.097 -0.3881 -0.3064 -0.0056
 1797SOL    HW217025   3.349   4.677   8.989 -2.6105  0.4905  0.5365
 1798SOL     OW17026   3.276   0.607   1.802 -0.0088 -0.2258 -0.7206
 1798SOL    HW117027   3.304   0.532   1.750 -0.0874 -0.4097 -0.4938
 1798SOL    HW217028   3.269   0.674   1.733 -0.1260  0.8610  0.3476
 1799SOL     OW17029   1.666   4.364  12.041  0.2950 -0.1374  0.3694
 1799SOL    HW117030   1.731   4.399  11.981 -0.1588 -0.5760 -0.3815
 1799SOL    HW217031   1.678   4.412  12.123 -1.5545  0.8734  0.0391
 1800SOL     OW17032   2.651   3.713   5.994  0.0657  0.4743 -0.0860
 1800SOL    HW117033   2.692   3.641   6.042  0.1815  0.3450 -0.3779
 1800SOL    HW217034   2.652   3.780   6.063  0.3182 -1.0410  1.3986
 1801SOL     OW17035   2.081   1.145  17.731 -0.7853  0.3160 -0.2307
 1801SOL    HW117036   2.013   1.205  17.702  1.3778  2.3114 -1.1854
 1801SOL    HW217037   2.078   1.080  17.661 -0.3077  2.6505 -2.4204
 1802SOL     OW17038   0.817   2.021  11.870  0.1178  0.1178 -0.2951
 1802SOL    HW117039   0.759   2.094  11.892 -0.0212 -0.8111  2.3812
 1802SOL    HW217040   0.848   1.995  11.956 -0.0300  0.4104 -0.1530
 1803SOL     OW17041   4.405   4.506   8.638 -0.3964  0.1088 -0.0235
 1803SOL    HW117042   4.494   4.538   8.630 -0.3284 -0.1261 -0.2143
 1803SOL    HW217043   4.407   4.413   8.615 -1.8100  0.2632 -0.7884
 1804SOL     OW17044   0.033   3.954   4.020 -0.1057 -0.0959 -0.3419
 1804SOL    HW117045   0.008   3.970   3.929  0.5414 -1.1007 -0.6913
 1804SOL    HW217046   0.009   4.039   4.056  1.2810  0.9305 -1.8123
 1805SOL     OW17047   4.332   2.737   9.353 -0.1813  0.3184  0.2727
 1805SOL    HW117048   4.397   2.798   9.386  1.3023 -0.4013 -1.3373
 1805SOL    HW217049   4.317   2.687   9.433 -1.4633 -2.6352 -1.8373
 1806SOL     OW17050   2.303   1.960  15.890 -0.4124 -0.2707  0.1229
 1806SOL    HW117051   2.219   1.920  15.866 -1.4698 -0.3410  3.9168
 1806SOL    HW217052   2.352   1.958  15.808  0.3138  0.5684  0.5360
 1807SOL     OW17053   2.144   2.317   6.332 -0.7200  0.4545 -0.0162
 1807SOL    HW117054   2.066   2.371   6.319 -1.2872  0.0722  1.7423
 1807SOL    HW217055   2.098   2.235   6.315  0.4291  0.4742 -3.1134
 1808SOL     OW17056   2.807   0.574   5.982 -0.1770 -0.5097  0.1754
 1808SOL    HW117057   2.854   0.513   6.039  0.2932 -0.7906 -0.5120
 1808SOL    HW217058   2.878   0.623   5.941 -0.8316  0.7092  0.4879
 1809SOL     OW17059   0.498   1.602   8.613  0.4536 -0.5506  0.7054
 1809SOL    HW117060   0.441   1.671   8.579 -0.4156 -0.4340  2.3974
 1809SOL    HW217061   0.439   1.529   8.633 -0.9895 -0.1335 -2.0527
 1810SOL     OW17062   0.224   3.718   0.190  0.0340  0.3184  0.1399
 1810SOL    HW117063   0.272   3.785   0.141 -0.3087  1.0942  0.8540
 1810SOL    HW217064   0.275   3.637   0.191  1.2846  1.0946 -1.2645
 1811SOL     OW17065   1.317   0.561   4.230 -0.4533  0.1695  0.4189
 1811SOL    HW117066   1.303   0.468   4.209 -0.6354  0.1430  0.6578
 1811SOL    HW217067   1.244   0.603   4.186 -0.1058 -1.3688 -1.6591
 1812SOL     OW17068   2.749   1.104  16.527  0.3847 -0.4710  0.3602
 1812SOL    HW117069   2.667   1.057  16.516  0.7488 -1.3046  1.2983
 1812SOL    HW217070   2.730   1.179  16.470 -0.8194  0.2718  1.7272
 1813SOL     OW17071   4.567   3.062   7.975  0.0012  0.0734  0.0421
 1813SOL    HW117072   4.557   3.117   7.897  0.2547  1.7958  1.2303
 1813SOL    HW217073   4.606   3.118   8.042  0.4263  1.2059 -1.1631
 1814SOL     OW17074   3.379   1.460   7.760  0.0657 -0.2882  0.1574
 1814SOL    HW117075   3.453   1.427   7.709  0.0728  0.3557 -0.2442
 1814SOL    HW217076   3.413   1.458   7.850 -1.7755  0.7552  0.8720
 1815SOL     OW17077   0.453   2.279   3.586 -0.5314 -0.4078  0.5617
 1815SOL    HW117078   0.413   2.304   3.503 -0.9421  1.2358  1.2453
 1815SOL    HW217079   0.518   2.214   3.559  0.5809 -0.2075  2.7560
 1816SOL     OW17080   1.962   0.273   7.893 -0.1629 -0.0513  0.9467
 1816SOL    HW117081   1.945   0.362   7.865 -0.6625 -0.5447 -0.3139
 1816SOL    HW217082   1.966   0.232   7.807  2.8451  1.0050  0.5752
 1817SOL     OW17083   2.390   0.028   6.750  0.0640 -0.1641 -0.5047
 1817SOL    HW117084   2.359   4.681   6.715  0.3578 -0.7096  0.5332
 1817SOL    HW217085   2.472   0.041   6.701  1.3720 -1.3565  1.3491
 1818SOL     OW17086   2.342   1.440   7.959 -0.9928 -0.5657 -0.2882
 1818SOL    HW117087   2.255   1.458   7.996 -0.7444 -1.4571  0.7387
 1818SOL    HW217088   2.342   1.471   7.868  0.1315  2.5200  0.7854
 1819SOL     OW17089   3.601   3.969   8.131  0.3181  0.0204  0.5567
 1819SOL    HW117090   3.643   3.965   8.217 -0.8670 -0.2173  1.1274
 1819SOL    HW217091   3.523   4.011   8.168  1.3218  2.2363  0.1534
 1820SOL     OW17092   3.091   1.113   3.105 -0.1512 -0.3794 -0.3188
 1820SOL    HW117093   3.013   1.087   3.055  0.0590  1.1672 -1.4619
 1820SOL    HW217094   3.147   1.151   3.037 -1.1752  1.4402 -0.1611
 1821SOL     OW17095   1.874   3.465   2.184  1.1090  0.4110 -0.2590
 1821SOL    HW117096   1.819   3.395   2.219 -0.9892  2.3104  0.2258
 1821SOL    HW217097   1.812   3.534   2.159 -1.2423 -1.6971 -0.3042
 1822SOL     OW17098   1.717   3.305   2.694  0.1757  0.4521  0.5644
 1822SOL    HW117099   1.631   3.305   2.651  1.7349 -0.2986 -2.5669
 1822SOL    HW217100   1.779   3.319   2.622 -0.5265  0.0036 -0.1272
 1823SOL     OW17101   3.625   3.177  15.452 -0.2700 -0.2227  0.0014
 1823SOL    HW117102   3.607   3.236  15.525  1.0859  0.3133 -0.0980
 1823SOL    HW217103   3.639   3.243  15.384  1.1270  1.1839  1.6652
 1824SOL     OW17104   3.043   1.466   1.730 -0.0298  0.2512  0.2663
 1824SOL    HW117105   2.987   1.419   1.669  0.1831  2.3537 -1.5618
 1824SOL    HW217106   3.112   1.401   1.734 -0.1061  0.2707  1.9299
 1825SOL     OW17107   0.744   4.064   8.136  0.0576 -0.6610 -1.2037
 1825SOL    HW117108   0.650   4.067   8.120 -0.0517  0.2267 -0.3784
 1825SOL    HW217109   0.740   3.968   8.137 -0.4622 -0.6382 -1.1048
 1826SOL     OW17110   1.347   1.999   4.989 -0.2211 -0.0132  0.1935
 1826SOL    HW117111   1.262   1.964   5.016  1.1803 -3.8542 -0.2994
 1826SOL    HW217112   1.322   2.090   4.974  0.2953 -0.1171 -1.3096
 1827SOL     OW17113   2.309   3.182   2.248  0.2786  0.3594  0.4451
 1827SOL    HW117114   2.258   3.102   2.261 -1.4829  1.7542  2.0734
 1827SOL    HW217115   2.362   3.165   2.170 -1.8518  0.5023 -1.0039
 1828SOL     OW17116   2.390   2.856   1.994 -0.2997 -0.5281  0.5797
 1828SOL    HW117117   2.298   2.829   1.996 -0.2751 -0.7249 -0.9123
 1828SOL    HW217118   2.425   2.799   1.926  0.9763 -0.0105  0.7995
 1829SOL     OW17119   3.351   0.191   4.230  0.3957 -0.2308  0.3765
 1829SOL    HW117120   3.260   0.200   4.258  1.1569 -1.8337  3.2650
 1829SOL    HW217121   3.399   0.237   4.299  0.6342  0.9145 -0.5543
 1830SOL     OW17122   4.334   0.555   7.954  0.0197  0.4410  0.1559
 1830SOL    HW117123   4.292   0.469   7.955 -1.0962  0.9937  0.8065
 1830SOL    HW217124   4.388   0.545   7.876  2.3098 -2.7027  2.1503
 1831SOL     OW17125   0.665   2.188   7.995 -0.1145 -0.1389 -0.4676
 1831SOL    HW117126   0.588   2.138   7.968  1.2727 -1.6913 -1.5307
 1831SOL    HW217127   0.637   2.214   8.083  0.3493 -1.2266 -0.0051
 1832SOL     OW17128   2.458   2.004   3.074  0.2927  0.2811  0.0811
 1832SOL    HW117129   2.468   1.945   2.999 -0.0543  4.0439 -2.9615
 1832SOL    HW217130   2.389   2.060   3.038 -0.5770 -1.2479 -0.6178
 1833SOL     OW17131   2.819   0.196  17.665  0.1181 -0.1472 -0.1059
 1833SOL    HW117132   2.881   0.255  17.622  2.4211 -2.9981 -0.7079
 1833SOL    HW217133   2.755   0.192  17.594 -0.3895  1.0285  0.2783
 1834SOL     OW17134   3.724   2.279   8.016 -0.0897 -0.2368  0.5866
 1834SOL    HW117135   3.629   2.285   8.006 -0.1056  1.5131  1.6724
 1834SOL    HW217136   3.742   2.330   8.095  0.4483  1.0413 -0.3556
 1835SOL     OW17137   2.985   3.758  15.463  0.2414  0.1722  0.1002
 1835SOL    HW117138   2.946   3.672  15.445  0.6965  0.0347 -0.2403
 1835SOL    HW217139   2.926   3.796  15.527  0.1436 -0.1758  0.2187
 1836SOL     OW17140   0.770   0.935   7.011 -0.1313 -0.8293  0.3541
 1836SOL    HW117141   0.716   1.012   7.029 -0.7046 -0.5984 -2.3013
 1836SOL    HW217142   0.847   0.967   6.964  0.9557 -1.0125  2.0121
 1837SOL     OW17143   1.768   2.878   0.812  1.1285  0.2648  0.5221
 1837SOL    HW117144   1.705   2.832   0.757  0.9192  0.3907  0.6547
 1837SOL    HW217145   1.817   2.812   0.862 -0.3026 -0.9310  0.3653
 1838SOL     OW17146   2.985   2.661  13.142 -0.3231  0.0522  0.0891
 1838SOL    HW117147   2.942   2.725  13.199  0.1277  1.1568 -0.8232
 1838SOL    HW217148   3.018   2.730  13.085  4.5171 -0.2811  2.4655
 1839SOL     OW17149   3.496   4.435   3.802 -0.4094 -0.0188 -0.2700
 1839SOL    HW117150   3.412   4.391   3.785 -1.9489  2.7292  0.2358
 1839SOL    HW217151   3.553   4.377   3.752 -0.0856  0.5086 -0.5112
 1840SOL     OW17152   2.988   4.283   7.597 -0.0252  0.4027 -0.0873
 1840SOL    HW117153   2.941   4.219   7.544  1.0782 -0.1452 -0.3989
 1840SOL    HW217154   2.981   4.354   7.532 -0.5945 -0.1396 -0.6193
 1841SOL     OW17155   1.949   2.481   6.300  0.1559 -0.0152  0.2200
 1841SOL    HW117156   1.859   2.470   6.328  0.6080 -0.1869  1.5956
 1841SOL    HW217157   1.940   2.502   6.207 -0.7818  0.4207  0.4099
 1842SOL     OW17158   4.078   4.517  15.252 -0.1811 -0.6778 -0.6317
 1842SOL    HW117159   3.987   4.488  15.262 -0.6498  0.3078 -2.0499
 1842SOL    HW217160   4.120   4.447  15.202  0.6695  0.6860 -1.8227
 1843SOL     OW17161   0.610   0.669   6.750  0.1107  0.1943  0.0450
 1843SOL    HW117162   0.603   0.625   6.835 -0.9568 -1.4591 -0.9058
 1843SOL    HW217163   0.705   0.659   6.737  0.0816  1.6408 -1.2933
 1844SOL     OW17164   0.010   4.126   5.823  0.8552 -0.0451  0.3593
 1844SOL    HW117165   0.055   4.211   5.820  2.4005 -0.7912  2.4517
 1844SOL    HW217166   4.679   4.132   5.755 -1.1854 -0.3977  2.3635
 1845SOL     OW17167   2.920   3.051   9.067  0.7740 -0.1992 -0.3159
 1845SOL    HW117168   2.978   3.103   9.123  1.4056 -0.9437 -0.2795
 1845SOL    HW217169   2.885   3.103   8.995 -1.9284 -1.5471 -0.0077
 1846SOL     OW17170   4.184   4.009  14.872  0.1228 -0.0476  0.6433
 1846SOL    HW117171   4.104   4.041  14.831  0.2235  0.6719  1.0106
 1846SOL    HW217172   4.143   3.969  14.949  1.3210  0.0246  1.3251
 1847SOL     OW17173   2.964   3.626   8.310 -0.2261 -0.0130 -0.5179
 1847SOL    HW117174   2.970   3.533   8.329 -1.3562  0.5589  2.6637
 1847SOL    HW217175   2.929   3.628   8.221 -0.5680 -2.9016 -0.4343
 1848SOL     OW17176   1.069   0.127   3.162  0.3881  0.2279 -0.2243
 1848SOL    HW117177   1.066   0.034   3.182 -2.7501  0.0923 -1.3466
 1848SOL    HW217178   0.983   0.160   3.188  0.9079  1.4396 -0.0146
 1849SOL     OW17179   1.661   1.305   5.684  0.2932 -0.0641  0.2263
 1849SOL    HW117180   1.631   1.343   5.602 -0.6666  0.3225  0.7662
 1849SOL    HW217181   1.710   1.229   5.651 -0.8577 -0.2121 -1.1421
 1850SOL     OW17182   1.855   3.344   5.890 -0.8962 -0.2477  0.9342
 1850SOL    HW117183   1.817   3.263   5.922  0.0726 -1.6247 -1.3952
 1850SOL    HW217184   1.856   3.407   5.962 -2.6388  2.0798 -1.0724
 1851SOL     OW17185   3.551   2.054   6.759 -0.0885  0.8188  0.0870
 1851SOL    HW117186   3.502   1.972   6.762  0.5713  0.4127 -0.0826
 1851SOL    HW217187   3.515   2.082   6.675  0.2997 -0.6981 -0.5820
 1852SOL     OW17188   3.024   3.518   6.940  0.8445 -0.1159 -0.1739
 1852SOL    HW117189   3.039   3.603   6.983  0.8399 -0.5741  0.7271
 1852SOL    HW217190   2.964   3.471   6.998  1.2623 -1.2849 -0.7052
 1853SOL     OW17191   0.018   1.213   4.617 -0.1781 -1.0727  0.1792
 1853SOL    HW117192   4.674   1.252   4.580  0.8946  0.3840 -0.6046
 1853SOL    HW217193   4.730   1.168   4.698  1.0463 -0.7423  0.7220
 1854SOL     OW17194   3.438   4.650  16.985  0.6835 -0.1708 -0.2007
 1854SOL    HW117195   3.446   4.621  16.894  3.1227 -3.2187  0.9288
 1854SOL    HW217196   3.521   4.616  17.021  0.3044  0.6096  1.3992
 1855SOL     OW17197   1.182   3.954  10.966  0.4692  0.3334 -0.2367
 1855SOL    HW117198   1.277   3.948  10.959  0.5009  0.4205  0.1084
 1855SOL    HW217199   1.173   4.017  11.038 -0.5358  0.5731 -0.5618
 1856SOL     OW17200   0.652   2.549   0.523 -0.3329  0.2613  0.7467
 1856SOL    HW117201   0.607   2.523   0.443  1.3975 -0.2332 -0.0731
 1856SOL    HW217202   0.693   2.467   0.549  0.2973  0.3750  0.1106
 1857SOL     OW17203   1.145   0.685   8.572  0.1245  0.2706  0.2660
 1857SOL    HW117204   1.212   0.729   8.519  1.2936 -1.3294  0.4104
 1857SOL    HW217205   1.206   0.650   8.638 -0.4217 -0.7428  0.2338
 1858SOL     OW17206   4.297   1.095   8.660 -0.1402  0.1618 -0.8193
 1858SOL    HW117207   4.314   1.006   8.690  1.2750  1.0127  0.8669
 1858SOL    HW217208   4.289   1.149   8.738 -0.7770 -0.3582 -0.5287
 1859SOL     OW17209   1.472   3.747   5.853  0.7875 -0.1245  0.2133
 1859SOL    HW117210   1.409   3.685   5.890  1.2946 -0.8519 -0.1493
 1859SOL    HW217211   1.549   3.738   5.909  0.6006 -3.5502 -0.1128
 1860SOL     OW17212   0.439   2.135   9.043 -0.5552 -0.0029  0.3290
 1860SOL    HW117213   0.472   2.047   9.064  1.0262  0.6742  0.6973
 1860SOL    HW217214   0.521   2.173   9.011 -1.4276  1.2861 -0.3365
 1861SOL     OW17215   1.721   3.280   2.294  0.2274 -0.1684 -0.3920
 1861SOL    HW117216   1.747   3.187   2.294 -1.0614 -0.5267 -0.2492
 1861SOL    HW217217   1.626   3.272   2.289  0.2747 -1.2246  0.3146
 1862SOL     OW17218   1.504   3.532   9.726 -0.1585  0.1142 -0.2111
 1862SOL    HW117219   1.432   3.475   9.699 -1.2553  1.8217 -0.8742
 1862SOL    HW217220   1.552   3.555   9.647  0.9696 -1.5686  0.0030
 1863SOL     OW17221   1.885   0.540  16.228 -0.1859 -0.0615 -0.5772
 1863SOL    HW117222   1.894   0.598  16.303  0.2214 -2.7591  1.4295
 1863SOL    HW217223   1.977   0.516  16.220 -0.5302 -1.7594  0.6506
 1864SOL     OW17224   0.373   1.632   3.679  0.1273 -0.5351 -0.1905
 1864SOL    HW117225   0.311   1.564   3.653 -1.0679 -0.6217  2.8460
 1864SOL    HW217226   0.383   1.613   3.772  0.4399  2.5010  0.3951
 1865SOL     OW17227   0.533   2.194   4.284 -0.4637  0.0492  0.1985
 1865SOL    HW117228   0.507   2.135   4.214  0.0472 -0.7192  0.6600
 1865SOL    HW217229   0.526   2.276   4.235  0.6134  0.4694  0.7371
 1866SOL     OW17230   2.160   2.868   9.637 -0.3520  0.2705  0.2736
 1866SOL    HW117231   2.080   2.887   9.685 -1.5045  0.3494 -1.6730
 1866SOL    HW217232   2.122   2.814   9.567  3.4149 -1.7713 -0.2144
 1867SOL     OW17233   3.138   3.019  12.402 -0.0910 -0.5922 -0.2585
 1867SOL    HW117234   3.219   2.971  12.418  0.3309  0.0101 -0.5655
 1867SOL    HW217235   3.097   2.953  12.346  1.2654  1.0545 -3.2278
 1868SOL     OW17236   3.588   3.069   8.209  0.2538 -0.1721 -0.2175
 1868SOL    HW117237   3.523   3.011   8.249  2.3293 -2.0160  0.4619
 1868SOL    HW217238   3.530   3.122   8.154  0.4792 -1.9772 -2.1416
 1869SOL     OW17239   3.860   2.044   0.043  0.0481 -0.2657  0.5314
 1869SOL    HW117240   3.857   1.980  17.715 -1.8518 -0.1635  0.5001
 1869SOL    HW217241   3.823   2.128   0.015  0.6958 -0.8265 -2.0542
 1870SOL     OW17242   1.007   2.776   5.305  0.1917 -0.4422  0.3028
 1870SOL    HW117243   0.999   2.752   5.213  2.1861  0.0502  0.0044
 1870SOL    HW217244   1.101   2.777   5.320  0.1729  3.4380  0.3396
 1871SOL     OW17245   3.883   3.037   3.233  0.3323 -0.4674  0.0222
 1871SOL    HW117246   3.872   3.077   3.320  2.3468  2.2975 -0.9957
 1871SOL    HW217247   3.932   3.105   3.188  0.2357 -1.0127 -0.9024
 1872SOL     OW17248   3.070   3.541  11.641 -0.4107 -0.2315  0.7755
 1872SOL    HW117249   3.143   3.530  11.701  1.2537  0.1059 -1.2026
 1872SOL    HW217250   3.006   3.481  11.679 -1.4367  0.2777 -0.1393
 1873SOL     OW17251   3.544   0.234  14.294 -0.1661 -0.1248 -0.0150
 1873SOL    HW117252   3.605   0.174  14.251 -1.3390 -0.1219 -1.6894
 1873SOL    HW217253   3.606   0.288  14.341 -0.1434 -0.4352  0.3092
 1874SOL     OW17254   1.572   0.480   0.929  0.0915  0.4864 -0.1835
 1874SOL    HW117255   1.480   0.504   0.939  0.5420  1.2719  2.0173
 1874SOL    HW217256   1.590   0.470   1.022  0.9736  1.4685 -0.2571
 1875SOL     OW17257   4.325   1.026   5.270  0.4756 -0.4218 -0.8605
 1875SOL    HW117258   4.278   1.095   5.221 -0.8349 -0.8486 -0.1987
 1875SOL    HW217259   4.401   1.080   5.293  0.4200 -0.6910 -0.0600
 1876SOL     OW17260   0.675   4.144  15.229 -0.2764  0.4303 -0.0967
 1876SOL    HW117261   0.620   4.207  15.275  1.5056  1.2139  0.9796
 1876SOL    HW217262   0.766   4.167  15.249 -1.1038  2.1830  1.6918
 1877SOL     OW17263   2.139   2.644   6.099  0.1609  0.1275 -0.0615
 1877SOL    HW117264   2.162   2.653   6.191  0.1017 -0.4649  0.0098
 1877SOL    HW217265   2.190   2.568   6.071  0.3915  0.3796 -0.3239
 1878SOL     OW17266   3.984   4.685   4.769 -0.3964 -0.0900 -0.3143
 1878SOL    HW117267   4.014   4.596   4.785  3.1257  0.6761 -2.8957
 1878SOL    HW217268   3.897   4.671   4.732 -0.2040  0.9808 -1.1477
 1879SOL     OW17269   3.361   0.634   2.065 -0.3134 -0.3493  0.0714
 1879SOL    HW117270   3.324   0.638   1.977 -2.1660  0.7456  0.8919
 1879SOL    HW217271   3.390   0.543   2.067  1.7731  0.3432  1.4841
 1880SOL     OW17272   0.339   1.344   9.044 -0.3851  0.0951  0.1085
 1880SOL    HW117273   0.273   1.352   9.113 -0.7394 -1.2312 -0.0599
 1880SOL    HW217274   0.303   1.402   8.978  1.8265  1.7125  0.3291
 1881SOL     OW17275   1.572   1.341  15.282  0.0988  0.1875 -0.2413
 1881SOL    HW117276   1.510   1.401  15.240 -0.4169 -0.3818 -0.2972
 1881SOL    HW217277   1.512   1.267  15.293 -1.4598  1.9501  3.1259
 1882SOL     OW17278   2.293   1.831   2.766  0.1278  0.4643  0.0107
 1882SOL    HW117279   2.377   1.796   2.794  0.2636 -0.7277 -1.8698
 1882SOL    HW217280   2.312   1.925   2.770  1.7760  0.1017  0.8572
 1883SOL     OW17281   2.640   0.712   5.813  0.9078  0.1255 -0.1414
 1883SOL    HW117282   2.707   0.649   5.840  1.5132  1.2598  1.0179
 1883SOL    HW217283   2.596   0.727   5.897  1.8531  2.0041  0.0157
 1884SOL     OW17284   2.690   3.924   6.512  0.0683  0.1384 -0.2447
 1884SOL    HW117285   2.668   4.005   6.558  0.1785 -0.9105  1.6745
 1884SOL    HW217286   2.785   3.924   6.529 -0.1752  1.4454  1.1387
 1885SOL     OW17287   3.904   3.945   2.223 -0.2866 -0.1206 -0.1919
 1885SOL    HW117288   3.999   3.942   2.225 -0.1926  0.8313 -2.8165
 1885SOL    HW217289   3.883   4.014   2.286 -1.6582  2.3440 -3.3403
 1886SOL     OW17290   2.237   0.511   3.114 -0.2493 -0.1130  0.2501
 1886SOL    HW117291   2.148   0.490   3.143  1.0378 -2.9617  2.0676
 1886SOL    HW217292   2.262   0.454   3.041 -0.5889  1.9883 -1.5094
 1887SOL     OW17293   3.645   4.656   4.409 -0.1242  0.4201 -0.7194
 1887SOL    HW117294   3.657   4.566   4.379  1.0248 -0.3238  1.9340
 1887SOL    HW217295   3.621   4.690   4.323  4.4828  1.1380 -1.7178
 1888SOL     OW17296   3.095   2.125  12.041  0.1732 -0.1882  0.2863
 1888SOL    HW117297   3.134   2.114  12.128 -0.6698 -0.3366  0.6511
 1888SOL    HW217298   3.039   2.047  12.033  0.6846 -0.7973  2.6212
 1889SOL     OW17299   3.161   1.359   4.955 -1.0262 -0.7256  0.0085
 1889SOL    HW117300   3.112   1.362   5.037 -0.7104 -2.1085  0.2558
 1889SOL    HW217301   3.219   1.287   4.979 -2.6742 -2.3231 -0.7381
 1890SOL     OW17302   0.465   1.524   7.494 -0.4029  0.2830 -0.0441
 1890SOL    HW117303   0.380   1.555   7.526 -0.5604 -1.0432  0.8317
 1890SOL    HW217304   0.495   1.590   7.432  1.5483  2.0845  2.7928
 1891SOL     OW17305   3.348   1.060   5.465 -0.0590  0.2643  0.1910
 1891SOL    HW117306   3.346   1.066   5.560  1.6068 -0.5096  0.2786
 1891SOL    HW217307   3.271   1.006   5.445 -0.0834  1.3825 -2.8192
 1892SOL     OW17308   3.632   2.591  15.294  0.5452 -0.3704  0.2837
 1892SOL    HW117309   3.644   2.609  15.201  0.9645 -2.8034 -0.1483
 1892SOL    HW217310   3.714   2.616  15.336  1.7513 -4.2223  0.2738
 1893SOL     OW17311   3.693   4.153   4.912 -0.3485 -0.0829  0.4937
 1893SOL    HW117312   3.766   4.125   4.857 -1.3618  0.6675 -1.2224
 1893SOL    HW217313   3.720   4.131   5.001 -1.0348 -1.7880  0.2941
 1894SOL     OW17314   0.185   4.287  14.690 -0.6234 -0.1307 -0.4413
 1894SOL    HW117315   0.269   4.304  14.648  0.1639 -0.2104  1.1101
 1894SOL    HW217316   0.173   4.192  14.689  0.5138 -0.2479 -2.1120
 1895SOL     OW17317   0.705   3.428   5.278 -0.4788 -0.0128  0.1491
 1895SOL    HW117318   0.694   3.372   5.201  0.7446  1.0929 -0.8207
 1895SOL    HW217319   0.642   3.498   5.261  1.1286  1.6259  0.9482
 1896SOL     OW17320   0.872   3.207  10.515 -0.6532  0.2837  0.4596
 1896SOL    HW117321   0.916   3.284  10.478 -0.4815 -0.1991 -0.3469
 1896SOL    HW217322   0.779   3.227  10.499 -0.2951  1.4599 -0.1662
 1897SOL     OW17323   3.271   1.146   3.686  0.1772 -0.4011 -0.0772
 1897SOL    HW117324   3.305   1.060   3.714 -0.9172 -0.3462  1.3876
 1897SOL    HW217325   3.283   1.197   3.766  3.3055 -1.1269 -0.0658
 1898SOL     OW17326   0.890   4.056   2.741 -0.0250  0.0795 -0.0202
 1898SOL    HW117327   0.888   3.967   2.707  0.1469  0.0332  0.0895
 1898SOL    HW217328   0.834   4.052   2.819 -1.9239  2.0798 -1.2748
 1899SOL     OW17329   3.087   0.809   0.568  0.1137  0.5965 -0.2385
 1899SOL    HW117330   3.009   0.864   0.556  1.0022  2.2989  1.7845
 1899SOL    HW217331   3.105   0.832   0.659  1.2650  1.4030 -0.6523
 1900SOL     OW17332   4.034   2.592   8.698 -0.0278  0.2031  0.7243
 1900SOL    HW117333   4.055   2.499   8.707  1.3845  0.4560  0.1456
 1900SOL    HW217334   4.117   2.638   8.711  1.3081 -0.6712 -4.4403
 1901SOL     OW17335   4.242   2.082   6.388 -0.0968  0.4227 -0.3523
 1901SOL    HW117336   4.211   2.113   6.473  2.2207  0.8177  0.3507
 1901SOL    HW217337   4.314   2.028   6.422 -1.0880 -0.5458  0.2243
 1902SOL     OW17338   0.000   4.481  13.737  0.3379 -0.2243  0.0215
 1902SOL    HW117339   0.073   4.493  13.799  1.0925  1.4323 -1.1696
 1902SOL    HW217340   0.048   4.452  13.660 -1.4481  1.5658 -1.7670
 1903SOL     OW17341   3.665   3.024  13.267 -0.3080 -0.2299 -0.2155
 1903SOL    HW117342   3.752   3.015  13.304 -0.6180 -0.4003  0.4771
 1903SOL    HW217343   3.612   2.958  13.311  0.1325  0.5182  1.4375
 1904SOL     OW17344   4.423   2.117  16.927 -0.6780 -0.2647 -0.2562
 1904SOL    HW117345   4.423   2.203  16.886  0.2597 -0.5024 -0.7606
 1904SOL    HW217346   4.367   2.147  16.999  2.1237  1.3097  1.2863
 1905SOL     OW17347   1.285   1.185   6.700  0.0632 -0.5942 -0.7692
 1905SOL    HW117348   1.358   1.183   6.639  1.0889  2.4485  0.3659
 1905SOL    HW217349   1.301   1.110   6.757  0.8270 -1.2935 -1.9019
 1906SOL     OW17350   4.520   2.367   4.592 -0.1622 -0.3704  0.7984
 1906SOL    HW117351   4.485   2.302   4.531 -0.7258  1.9239 -1.3902
 1906SOL    HW217352   4.523   2.315   4.672  0.9237 -0.1626  0.8983
 1907SOL     OW17353   3.299   1.447   2.992  0.0175 -0.6855 -0.2443
 1907SOL    HW117354   3.376   1.431   2.937  0.3538  0.4620 -0.1075
 1907SOL    HW217355   3.231   1.389   2.959 -2.2288  1.5247  0.5801
 1908SOL     OW17356   4.645   0.789   6.913 -0.3262 -0.3750 -0.4179
 1908SOL    HW117357   4.585   0.801   6.839  0.5412 -1.0477 -1.2314
 1908SOL    HW217358   4.586   0.803   6.987 -1.1515 -0.3246 -1.0913
 1909SOL     OW17359   0.476   3.980   7.583  0.5263  0.2598  0.7771
 1909SOL    HW117360   0.433   3.983   7.668 -1.1078  1.4628 -0.0927
 1909SOL    HW217361   0.474   4.071   7.554  0.2573  0.4204  1.3076
 1910SOL     OW17362   3.845   1.260   7.254  0.5131 -0.4632  0.1123
 1910SOL    HW117363   3.878   1.213   7.331  1.6082  1.9344  1.1130
 1910SOL    HW217364   3.762   1.302   7.275  0.7948 -0.4581  1.2215
 1911SOL     OW17365   4.231   0.716   7.299  0.0225 -0.1770  1.2264
 1911SOL    HW117366   4.147   0.729   7.344 -0.5281 -0.0140  0.1600
 1911SOL    HW217367   4.252   0.627   7.329  0.3947 -0.6052 -0.3070
 1912SOL     OW17368   1.794   3.259   9.767  0.1167  0.1100  0.0254
 1912SOL    HW117369   1.791   3.291   9.677 -0.2701  1.3403  0.4819
 1912SOL    HW217370   1.725   3.193   9.764  0.9770 -0.8648  1.4558
 1913SOL     OW17371   2.338   1.127   1.612 -0.4247  0.7322  0.4148
 1913SOL    HW117372   2.295   1.048   1.645  0.9365  0.0548  0.5838
 1913SOL    HW217373   2.268   1.191   1.602 -2.0092 -1.7303 -4.0613
 1914SOL     OW17374   1.214   4.360  15.912  0.0838  0.2060  0.4412
 1914SOL    HW117375   1.140   4.302  15.895  1.2158 -0.8247 -0.9681
 1914SOL    HW217376   1.205   4.412  15.832  0.8847 -0.7505 -0.2761
 1915SOL     OW17377   2.592   4.461   9.181  0.5981 -0.5638 -0.0921
 1915SOL    HW117378   2.686   4.468   9.166  1.0525  1.0085  3.5121
 1915SOL    HW217379   2.586   4.505   9.266 -0.5213 -2.3989  0.7581
 1916SOL     OW17380   4.700   1.352   6.312  1.1528  0.3354 -0.1786
 1916SOL    HW117381   0.039   1.390   6.356  2.4471 -1.5082 -0.8355
 1916SOL    HW217382   4.622   1.408   6.307  2.1966  1.4341 -3.6783
 1917SOL     OW17383   2.461   3.298   6.109 -0.2881 -0.2973  0.0374
 1917SOL    HW117384   2.495   3.256   6.029  1.6275 -2.9071  2.2415
 1917SOL    HW217385   2.429   3.376   6.064 -1.1933 -1.6441 -1.6572
 1918SOL     OW17386   4.295   0.176  12.342  0.5574 -0.1755 -0.1586
 1918SOL    HW117387   4.223   0.138  12.393  0.3676  0.2311 -0.1164
 1918SOL    HW217388   4.281   0.149  12.252 -0.2939  1.6043 -0.5610
 1919SOL     OW17389   4.482   4.492   7.301  0.0497 -0.3631 -0.7231
 1919SOL    HW117390   4.484   4.546   7.223 -0.8608 -0.2885 -0.7004
 1919SOL    HW217391   4.517   4.410   7.265 -0.0622 -1.2391  1.1301
 1920SOL     OW17392   0.281   4.269   2.848  0.0918  0.2250 -0.0833
 1920SOL    HW117393   0.232   4.221   2.781 -0.7772 -1.6534  1.8666
 1920SOL    HW217394   0.265   4.355   2.810 -0.1640  1.3854  2.6459
 1921SOL     OW17395   2.247   2.727   3.364  0.4679 -0.1469  0.1162
 1921SOL    HW117396   2.319   2.724   3.300 -1.1705 -0.3388 -1.7166
 1921SOL    HW217397   2.289   2.660   3.418 -1.3830 -1.0514  0.4185
 1922SOL     OW17398   1.244   0.481   2.780 -0.0593  0.2404 -0.1692
 1922SOL    HW117399   1.198   0.416   2.832  1.0208 -2.1983 -2.2989
 1922SOL    HW217400   1.232   0.447   2.691  0.6372 -0.5992  0.0718
 1923SOL     OW17401   3.544   0.966   5.844 -0.4234  0.0372  0.1702
 1923SOL    HW117402   3.589   1.006   5.770 -0.1825 -0.1101  0.2378
 1923SOL    HW217403   3.615   0.908   5.871  0.4020  0.5906 -0.8118
 1924SOL     OW17404   1.606   3.251   9.268  0.9383  0.1538  0.8390
 1924SOL    HW117405   1.513   3.260   9.288  1.1126 -1.1261  2.2200
 1924SOL    HW217406   1.620   3.158   9.249  2.3734  0.3860  0.7811
 1925SOL     OW17407   2.157   1.249   6.069  0.4113  0.1152  0.2750
 1925SOL    HW117408   2.165   1.271   5.976  0.3384  1.3208  0.5501
 1925SOL    HW217409   2.087   1.184   6.066  0.1372  0.3912  0.6747
 1926SOL     OW17410   3.212   2.806   2.503 -0.0067 -0.6794 -0.3573
 1926SOL    HW117411   3.298   2.848   2.504 -0.5927  0.4987  0.1899
 1926SOL    HW217412   3.213   2.749   2.580 -0.4111 -0.6831 -0.3562
 1927SOL     OW17413   0.058   0.786   3.942 -0.2828 -0.4692 -0.0292
 1927SOL    HW117414   0.041   0.820   4.030  0.0241  1.1254 -0.5940
 1927SOL    HW217415   0.015   0.860   3.899  0.9158 -0.8649 -1.9183
 1928SOL     OW17416   2.911   3.729   3.089 -0.3278  0.4512  0.4743
 1928SOL    HW117417   2.875   3.710   3.002 -1.5587  3.1111  0.4206
 1928SOL    HW217418   2.935   3.639   3.111  0.3031 -0.1511 -2.6338
 1929SOL     OW17419   1.526   0.283   4.222 -0.0127  0.1957  0.2350
 1929SOL    HW117420   1.490   0.273   4.133  0.0711  1.0494  0.1034
 1929SOL    HW217421   1.454   0.255   4.279  0.7233  1.0812  1.6091
 1930SOL     OW17422   1.381   1.577  10.573 -0.1188 -0.2341 -0.5758
 1930SOL    HW117423   1.390   1.672  10.587 -1.3887  0.0093 -1.3944
 1930SOL    HW217424   1.445   1.548  10.638 -2.1187 -0.0541  1.4314
 1931SOL     OW17425   1.109   0.304   2.922  0.7852 -0.5351 -0.0065
 1931SOL    HW117426   1.063   0.250   2.857  1.6263 -0.8895 -0.3100
 1931SOL    HW217427   1.108   0.248   2.999 -1.5250  2.1672  1.9390
 1932SOL     OW17428   1.670   0.714  13.613  0.0977 -0.2748 -0.3551
 1932SOL    HW117429   1.612   0.747  13.682 -0.7251 -3.3876  0.4472
 1932SOL    HW217430   1.617   0.684  13.539  0.8224  0.0239 -0.9953
 1933SOL     OW17431   2.552   1.602  15.049 -0.5276 -0.4268 -0.3264
 1933SOL    HW117432   2.478   1.649  15.087 -0.6971  0.8075 -2.1744
 1933SOL    HW217433   2.579   1.675  14.992  0.6563  0.2836  1.1556
 1934SOL     OW17434   1.696   1.612   1.557 -0.3598  0.0624 -0.3013
 1934SOL    HW117435   1.762   1.547   1.534 -0.9237 -0.8724  0.7423
 1934SOL    HW217436   1.681   1.594   1.650  1.8521 -2.9530 -0.5407
 1935SOL     OW17437   2.579   1.590   1.719 -0.5455 -0.4305  0.0656
 1935SOL    HW117438   2.635   1.539   1.778  2.1008  0.1184 -1.9778
 1935SOL    HW217439   2.577   1.672   1.767  0.4987  1.3299 -2.9045
 1936SOL     OW17440   1.541   3.109  11.508  0.7884  0.1669 -0.7795
 1936SOL    HW117441   1.622   3.074  11.472  0.6579 -0.1485 -0.7685
 1936SOL    HW217442   1.476   3.079  11.445 -1.5347 -0.1473  1.7580
 1937SOL     OW17443   0.772   3.987   2.985  0.6573 -0.0929 -0.0425
 1937SOL    HW117444   0.762   4.079   3.010  0.5489 -0.5069  1.4269
 1937SOL    HW217445   0.698   3.944   3.027  0.1013 -0.4178 -1.3532
 1938SOL     OW17446   4.260   4.685   8.180 -0.3268 -0.1676 -0.1757
 1938SOL    HW117447   4.276   4.596   8.212  0.6174  0.5608  1.3788
 1938SOL    HW217448   4.221   4.665   8.095  0.8190  2.2342 -1.2614
 1939SOL     OW17449   3.879   0.298   4.020 -0.7996  0.0647 -0.0083
 1939SOL    HW117450   3.849   0.256   4.100  1.0661 -1.2597 -0.0124
 1939SOL    HW217451   3.814   0.367   4.013  1.3904  2.0970 -0.4883
 1940SOL     OW17452   4.198   1.777   8.466 -0.8596 -0.6016 -0.1194
 1940SOL    HW117453   4.270   1.811   8.519 -1.6169 -0.3277  0.7279
 1940SOL    HW217454   4.124   1.819   8.509  0.6294  0.8999  0.9889
 1941SOL     OW17455   2.975   2.428  10.120  0.2330  0.3584 -0.0067
 1941SOL    HW117456   3.063   2.406  10.149  0.8996  2.4177 -0.5348
 1941SOL    HW217457   2.930   2.344  10.108 -0.2789  0.4874  0.9921
 1942SOL     OW17458   3.759   3.461   9.799  0.2531  0.3960  0.5461
 1942SOL    HW117459   3.849   3.444   9.827 -0.1207  0.0299  1.5150
 1942SOL    HW217460   3.706   3.399   9.849 -0.2414  0.0731 -0.3591
 1943SOL     OW17461   0.189   2.938  15.936  0.2217 -0.0476 -0.1762
 1943SOL    HW117462   0.250   2.962  15.867 -1.9963  2.1736 -1.3394
 1943SOL    HW217463   0.168   3.025  15.972  0.1568 -0.2472  0.2763
 1944SOL     OW17464   3.397   2.510  11.528  0.5778  0.3372 -0.0486
 1944SOL    HW117465   3.469   2.455  11.556  0.3008  0.2153  0.4350
 1944SOL    HW217466   3.370   2.480  11.441  1.9241  1.1510 -0.7492
 1945SOL     OW17467   4.538   4.233   9.496  0.3330 -0.5054 -0.0428
 1945SOL    HW117468   4.522   4.319   9.455  0.1002  0.1680  1.4586
 1945SOL    HW217469   4.498   4.251   9.581  0.8625 -1.8106  0.4789
 1946SOL     OW17470   4.203   1.792   5.861  0.3171 -0.6360 -0.1320
 1946SOL    HW117471   4.126   1.742   5.888 -0.3824  0.9790  0.8481
 1946SOL    HW217472   4.246   1.808   5.945 -2.1906 -0.4133  1.1159
 1947SOL     OW17473   0.159   2.823   3.311 -0.2409  0.9144 -0.4794
 1947SOL    HW117474   0.175   2.901   3.259  1.5114  1.7966  1.3790
 1947SOL    HW217475   0.242   2.775   3.315 -0.4545  0.7521  2.1782
 1948SOL     OW17476   3.293   3.347   9.381 -0.3621 -0.6485 -0.0444
 1948SOL    HW117477   3.315   3.417   9.320  1.1723 -1.0557  0.0391
 1948SOL    HW217478   3.253   3.394   9.455 -0.1350  0.0904 -0.3965
 1949SOL     OW17479   1.943   4.078  16.367 -1.1611 -0.4830  0.1321
 1949SOL    HW117480   1.921   4.042  16.453  0.3608 -0.0031  0.7267
 1949SOL    HW217481   1.906   4.020  16.301 -1.9232 -1.6855  1.5894
 1950SOL     OW17482   3.779   4.651   9.704  0.2481 -0.7483  0.1766
 1950SOL    HW117483   3.709   4.708   9.671  0.0215 -1.5419 -0.7334
 1950SOL    HW217484   3.782   4.681   9.795 -1.6151  0.0619 -0.0225
 1951SOL     OW17485   4.095   0.396   8.265  0.2276 -0.5464  0.0208
 1951SOL    HW117486   4.147   0.402   8.185 -1.1496  0.9915 -0.7542
 1951SOL    HW217487   4.117   0.310   8.302 -0.0745 -1.0156 -0.9028
 1952SOL     OW17488   1.825   3.978   6.883 -0.2015 -0.3179  0.3752
 1952SOL    HW117489   1.767   4.054   6.881 -0.4349 -0.4662  1.3703
 1952SOL    HW217490   1.772   3.898   6.888 -1.0921  0.1395 -1.7666
 1953SOL     OW17491   2.134   1.326   3.552 -0.0615  0.4902 -0.0541
 1953SOL    HW117492   2.127   1.414   3.590  2.3681 -0.4816  2.6780
 1953SOL    HW217493   2.204   1.345   3.489 -0.5343  0.1986 -0.6651
 1954SOL     OW17494   0.523   3.151   7.584  0.0847 -0.1608  0.1746
 1954SOL    HW117495   0.523   3.059   7.559  0.5906  0.5853 -2.5728
 1954SOL    HW217496   0.541   3.192   7.499 -3.2611  2.4454  0.7332
 1955SOL     OW17497   4.122   0.807   3.577  0.3130  0.5585 -0.3093
 1955SOL    HW117498   4.154   0.821   3.666  1.0926 -2.6130 -0.1023
 1955SOL    HW217499   4.026   0.806   3.577  0.3443 -1.6055 -0.3087
 1956SOL     OW17500   2.397   4.406   1.100  0.5216  0.0973 -0.4287
 1956SOL    HW117501   2.347   4.340   1.149  0.6447  1.2162  1.1793
 1956SOL    HW217502   2.417   4.363   1.017  1.9834 -0.0730  0.0139
 1957SOL     OW17503   0.902   0.940   2.750 -0.1275 -0.0032 -0.1232
 1957SOL    HW117504   0.902   0.846   2.770  2.3798 -0.1384 -0.8130
 1957SOL    HW217505   0.900   0.948   2.655  0.3788 -2.1697 -0.3275
 1958SOL     OW17506   0.937   3.095   3.885  0.7528  0.0705 -0.1223
 1958SOL    HW117507   0.966   3.140   3.965 -0.1729  0.5091 -0.0339
 1958SOL    HW217508   0.881   3.025   3.917  0.4054  1.4346  2.2330
 1959SOL     OW17509   3.020   1.658   5.787  0.1041 -0.0266  0.5907
 1959SOL    HW117510   3.008   1.741   5.739  0.2276 -0.4250 -0.1333
 1959SOL    HW217511   2.941   1.613   5.758 -0.2208 -0.3208  1.9556
 1960SOL     OW17512   3.048   2.489   6.274 -0.1364 -0.3586  0.2575
 1960SOL    HW117513   3.066   2.471   6.182  0.9878 -1.8419  0.7784
 1960SOL    HW217514   3.069   2.407   6.318 -0.5485  0.2260  1.5540
 1961SOL     OW17515   4.211   4.597   6.911 -0.0793 -0.1463  0.1369
 1961SOL    HW117516   4.141   4.635   6.859 -0.7738 -2.9879 -1.0112
 1961SOL    HW217517   4.177   4.508   6.924  0.3933 -0.2748  0.5220
 1962SOL     OW17518   1.904   4.452  11.958 -0.4479  0.0832 -0.0906
 1962SOL    HW117519   1.958   4.485  12.030 -0.7709  1.3030 -0.4052
 1962SOL    HW217520   1.965   4.456  11.885  0.9799  1.6257  1.2021
 1963SOL     OW17521   0.367   3.391   1.266  0.0803 -0.5919 -0.0462
 1963SOL    HW117522   0.375   3.299   1.292  0.6831 -1.0837 -2.0222
 1963SOL    HW217523   0.310   3.373   1.191  1.4536  0.2013 -1.2817
 1964SOL     OW17524   1.828   2.531  16.916 -0.2455  0.9607 -0.0810
 1964SOL    HW117525   1.752   2.508  16.971 -1.3270  1.1301 -1.5106
 1964SOL    HW217526   1.831   2.440  16.887 -2.0469  1.5150 -1.9979
 1965SOL     OW17527   2.793   0.881   8.080  0.3207 -0.0544  0.3522
 1965SOL    HW117528   2.789   0.967   8.037 -0.8188 -0.5518 -0.5557
 1965SOL    HW217529   2.749   0.894   8.164 -0.3536  0.4162 -0.0707
 1966SOL     OW17530   3.289   2.980   3.462  0.4803  0.6292 -0.3534
 1966SOL    HW117531   3.334   2.923   3.399  1.2346  0.9745 -0.1247
 1966SOL    HW217532   3.239   2.912   3.507  0.3103 -0.9370 -2.9114
 1967SOL     OW17533   1.550   0.572  16.790  0.2015  0.2968  0.3397
 1967SOL    HW117534   1.545   0.511  16.716 -0.0463 -0.5921  1.0936
 1967SOL    HW217535   1.463   0.569  16.830  0.8131 -2.3530  1.4760
 1968SOL     OW17536   0.676   4.310   3.453 -0.3094 -0.7215  0.2563
 1968SOL    HW117537   0.691   4.219   3.425  0.6791  0.2151 -2.2582
 1968SOL    HW217538   0.671   4.352   3.367  0.9359 -0.4815  0.2999
 1969SOL     OW17539   2.466   3.523   1.373  0.6954  0.5458 -0.0261
 1969SOL    HW117540   2.458   3.494   1.282 -0.4411  0.5469  0.0707
 1969SOL    HW217541   2.484   3.443   1.422  0.2188  0.3952 -0.1026
 1970SOL     OW17542   1.948   3.313   7.705  0.3572 -0.0552 -0.0305
 1970SOL    HW117543   1.944   3.226   7.667 -1.0477  0.5121 -1.1826
 1970SOL    HW217544   1.895   3.364   7.643  0.8903 -0.0500 -0.4764
 1971SOL     OW17545   1.213   0.099   7.920 -0.5600  0.2665  0.5674
 1971SOL    HW117546   1.190   0.188   7.895 -2.1163 -0.0340  0.9017
 1971SOL    HW217547   1.280   0.107   7.988 -1.6697  1.2107  1.5382
 1972SOL     OW17548   2.115   0.283  10.481 -0.2523  0.5872  0.0637
 1972SOL    HW117549   2.178   0.329  10.536 -0.4708  0.5332  0.3594
 1972SOL    HW217550   2.077   0.222  10.545 -0.0204  0.9593  0.5550
 1973SOL     OW17551   1.606   2.733   8.991  0.3124  0.0155  0.2300
 1973SOL    HW117552   1.698   2.757   9.002  0.3355  0.0696 -0.0719
 1973SOL    HW217553   1.620   2.639   8.985  0.8228  0.0137  1.3895
 1974SOL     OW17554   1.213   2.335  10.828 -0.6605  0.0698  0.5692
 1974SOL    HW117555   1.139   2.336  10.767  0.3172 -1.4853 -0.6557
 1974SOL    HW217556   1.265   2.408  10.794 -0.0804 -1.0416 -0.9284
 1975SOL     OW17557   4.641   4.513  11.067 -0.4817  0.3220  0.6796
 1975SOL    HW117558   4.557   4.544  11.101 -0.1803  1.7095  0.1811
 1975SOL    HW217559   4.611   4.437  11.018 -1.6105 -0.2262  2.2453
 1976SOL     OW17560   2.334   2.099   2.786  1.0048 -0.4258 -0.0231
 1976SOL    HW117561   2.247   2.127   2.814 -0.7799 -3.0827 -2.8617
 1976SOL    HW217562   2.393   2.162   2.826 -0.7741  1.2698 -0.0498
 1977SOL     OW17563   1.253   3.062   0.476 -0.2919  0.2943  0.4051
 1977SOL    HW117564   1.265   2.972   0.447 -0.8302  0.2284  0.3901
 1977SOL    HW217565   1.161   3.061   0.503 -0.2622  0.2007  0.5006
 1978SOL     OW17566   3.429   4.645   6.574 -0.3498 -0.0951  0.9501
 1978SOL    HW117567   3.424   4.685   6.661  0.6359 -1.2391  1.5369
 1978SOL    HW217568   3.407   4.711   6.509  2.6460 -0.0560 -0.0164
 1979SOL     OW17569   1.286   4.314   7.903  0.1885  0.2278  0.6433
 1979SOL    HW117570   1.333   4.251   7.848  1.8341  0.6598  1.5473
 1979SOL    HW217571   1.336   4.392   7.877 -0.3780 -0.0208 -1.1909
 1980SOL     OW17572   1.283   3.390   9.597  0.2874  0.2308 -0.5571
 1980SOL    HW117573   1.309   3.298   9.586  0.6775  0.6989 -3.4586
 1980SOL    HW217574   1.188   3.379   9.587  0.4711 -0.5482 -1.4534
 1981SOL     OW17575   0.240   0.709  11.910  0.0537  0.3889  0.4084
 1981SOL    HW117576   0.224   0.657  11.831  0.1543  0.1540  0.5458
 1981SOL    HW217577   0.307   0.651  11.946 -0.7489  0.3322  1.8209
 1982SOL     OW17578   4.490   4.402   6.576 -0.5152  0.0996  0.1183
 1982SOL    HW117579   4.553   4.475   6.579  1.3366 -1.4421 -1.3859
 1982SOL    HW217580   4.418   4.462   6.593  0.2164  0.1098  3.2503
 1983SOL     OW17581   4.327   2.156   8.774 -0.0838 -0.4569  0.0015
 1983SOL    HW117582   4.335   2.177   8.867  0.7429 -1.2384  0.1020
 1983SOL    HW217583   4.303   2.242   8.741 -0.9261 -1.7204 -2.6937
 1984SOL     OW17584   3.932   1.020   8.484  0.0595 -0.0730  0.2405
 1984SOL    HW117585   3.992   0.961   8.438  1.3395  1.2686  0.2226
 1984SOL    HW217586   3.875   1.070   8.425 -0.2933  0.3098  0.8989
 1985SOL     OW17587   3.474   1.021  17.275  0.5696  0.6240 -0.0403
 1985SOL    HW117588   3.488   0.949  17.213  0.7827 -0.2426  1.0098
 1985SOL    HW217589   3.560   1.015  17.318 -0.6185 -1.1371  2.1093
 1986SOL     OW17590   0.140   1.935   4.506  0.3366 -0.3443  0.0006
 1986SOL    HW117591   0.193   1.858   4.527 -0.5615 -0.7267  0.8337
 1986SOL    HW217592   0.058   1.906   4.466  0.9589 -0.8169 -0.9548
 1987SOL     OW17593   1.033   2.364  14.093  0.3891 -0.3619  0.0167
 1987SOL    HW117594   1.080   2.411  14.023  1.9514 -2.9495 -0.6428
 1987SOL    HW217595   0.953   2.344  14.045 -0.4694 -2.9380  2.5337
 1988SOL     OW17596   0.067   0.872   0.231 -0.3344  0.0463 -0.0070
 1988SOL    HW117597   0.003   0.858   0.162 -0.1316 -1.0646  0.0287
 1988SOL    HW217598   0.064   0.793   0.286  0.1772  0.4385  0.5837
 1989SOL     OW17599   1.887   0.557   6.673 -0.4578  0.4031  0.2719
 1989SOL    HW117600   1.952   0.490   6.695 -1.5229 -0.8195 -0.2847
 1989SOL    HW217601   1.811   0.535   6.727  0.7573 -2.0700  0.9720
 1990SOL     OW17602   4.641   0.386   7.251  0.5482 -0.2561  0.2815
 1990SOL    HW117603   4.662   0.362   7.161  1.8653 -0.8223  0.7402
 1990SOL    HW217604   4.709   0.451   7.268  0.2598  0.0076  0.4324
 1991SOL     OW17605   3.490   4.415  11.831  0.1041  0.6347  0.1105
 1991SOL    HW117606   3.397   4.393  11.840  0.6414 -1.3681  0.7755
 1991SOL    HW217607   3.518   4.385  11.918 -0.2874 -0.0289  0.0074
 1992SOL     OW17608   1.996   0.622  17.199 -0.3085 -0.3044  0.0408
 1992SOL    HW117609   1.946   0.558  17.148 -3.6281 -0.5723  3.6484
 1992SOL    HW217610   1.926   0.678  17.231  0.9923  2.4773 -2.0474
 1993SOL     OW17611   4.489   1.902   6.103 -0.0735  0.1721  0.1655
 1993SOL    HW117612   4.415   1.869   6.155 -0.3799 -0.3278 -0.6008
 1993SOL    HW217613   4.510   1.828   6.047  0.4984 -0.5405  1.3165
 1994SOL     OW17614   2.627   0.362   2.926 -0.8763 -0.2929 -0.5525
 1994SOL    HW117615   2.594   0.391   2.840 -2.1963 -1.3667 -0.4139
 1994SOL    HW217616   2.667   0.437   2.971 -1.1628 -0.3745 -0.1673
 1995SOL     OW17617   2.583   3.452   2.604  0.5520  0.4066 -0.0692
 1995SOL    HW117618   2.532   3.502   2.668 -0.4965 -0.3277 -0.3143
 1995SOL    HW217619   2.519   3.386   2.578 -0.0635  0.4854  1.2308
 1996SOL     OW17620   1.004   3.821   2.112  0.5713 -0.6665 -0.1147
 1996SOL    HW117621   0.963   3.751   2.163 -0.9430 -0.9367 -1.7400
 1996SOL    HW217622   0.999   3.782   2.025 -1.7895  1.1808 -0.8017
 1997SOL     OW17623   3.527   3.049  13.023  0.1010  0.7215  0.4820
 1997SOL    HW117624   3.470   3.126  13.022  1.1687  1.4853 -2.4532
 1997SOL    HW217625   3.591   3.081  13.086 -0.5025 -1.8215  2.3755
 1998SOL     OW17626   0.544   2.317   2.579 -0.6056  0.1071  0.1536
 1998SOL    HW117627   0.563   2.356   2.494  1.5263 -1.0374  0.1094
 1998SOL    HW217628   0.450   2.310   2.564 -0.9030  0.7597  1.6688
 1999SOL     OW17629   3.120   3.719   1.158  0.1262  0.2775 -0.0627
 1999SOL    HW117630   3.188   3.710   1.092  1.4203  0.0218  1.3174
 1999SOL    HW217631   3.158   3.691   1.241  0.4854  0.0905 -0.2894
 2000SOL     OW17632   0.616   4.560   4.393  0.1436  0.3063  0.3709
 2000SOL    HW117633   0.546   4.518   4.442  0.6652  0.6888  1.4436
 2000SOL    HW217634   0.655   4.487   4.345  2.2659  0.4860  1.8079
 2001SOL     OW17635   1.077   1.316   1.597  0.2934  0.3084 -0.2562
 2001SOL    HW117636   1.134   1.331   1.673  0.2727 -1.9673  0.2342
 2001SOL    HW217637   1.111   1.367   1.524  0.6272  1.3648  0.6488
 2002SOL     OW17638   3.136   2.018   5.841 -0.0746  0.2041  0.2844
 2002SOL    HW117639   3.159   1.966   5.918  0.8498  2.7335  1.7166
 2002SOL    HW217640   3.128   2.102   5.886  0.7830  0.9525 -0.9925
 2003SOL     OW17641   0.735   3.997   3.721 -0.5067 -0.3656 -0.4136
 2003SOL    HW117642   0.783   4.033   3.796  0.6727  1.2364 -1.9559
 2003SOL    HW217643   0.732   3.908   3.755  0.6143  0.7110  2.4916
 2004SOL     OW17644   0.157   1.496   2.627 -0.1639  0.2503  0.0119
 2004SOL    HW117645   0.062   1.499   2.611 -0.0818 -2.2858 -0.9599
 2004SOL    HW217646   0.166   1.489   2.722 -0.7453 -0.8265 -0.0187
 2005SOL     OW17647   1.106   1.201  12.480  0.5226 -0.1596  0.4861
 2005SOL    HW117648   1.051   1.154  12.417 -0.7393  1.9645 -0.0102
 2005SOL    HW217649   1.048   1.210  12.556  0.2629 -0.7204  0.3522
 2006SOL     OW17650   0.678   2.644  16.121  0.0066  0.1242 -0.4619
 2006SOL    HW117651   0.760   2.595  16.111  0.3577  0.6842 -0.3062
 2006SOL    HW217652   0.697   2.725  16.074  0.3074 -0.0993 -0.7295
 2007SOL     OW17653   1.497   3.527  12.908 -0.3533 -0.4496  0.5729
 2007SOL    HW117654   1.416   3.514  12.859  0.4550  3.8694 -1.8907
 2007SOL    HW217655   1.527   3.606  12.864  2.0241 -1.3106  0.6422
 2008SOL     OW17656   3.772   2.019   8.661 -0.8710 -0.1338 -0.2310
 2008SOL    HW117657   3.750   1.973   8.742  2.1666 -0.1691  0.5455
 2008SOL    HW217658   3.691   2.062   8.632 -1.2897 -0.0755  1.0599
 2009SOL     OW17659   2.133   3.456   2.968 -0.0220 -0.0049  0.3528
 2009SOL    HW117660   2.147   3.500   2.884  1.3183  0.2370  0.7057
 2009SOL    HW217661   2.040   3.436   2.961 -0.2027  1.3203 -0.8720
 2010SOL     OW17662   3.684   4.692  12.336 -0.1380 -0.5015 -0.3956
 2010SOL    HW117663   3.651   4.650  12.415  1.2469  1.1291  1.0562
 2010SOL    HW217664   3.615   4.665  12.274  0.6957 -1.1717 -1.0341
 2011SOL     OW17665   0.142   2.654   5.035 -0.1915  0.6662  0.3071
 2011SOL    HW117666   0.232   2.686   5.034 -0.3400  1.0907  0.6654
 2011SOL    HW217667   0.142   2.582   4.971 -0.7778 -0.7399  1.8627
 2012SOL     OW17668   4.356   1.372   9.444  0.4543 -0.3519 -0.1220
 2012SOL    HW117669   4.321   1.387   9.532  1.3006  0.9974 -0.0172
 2012SOL    HW217670   4.450   1.369   9.463  0.6042 -1.8383 -1.1372
 2013SOL     OW17671   4.357   2.163   5.497  0.4283 -0.0435  0.1774
 2013SOL    HW117672   4.353   2.087   5.556  1.9456  0.0394  0.4002
 2013SOL    HW217673   4.295   2.220   5.542 -1.6867 -2.5895  0.4780
 2014SOL     OW17674   2.585   3.183   3.684 -0.5232  0.2104  0.1563
 2014SOL    HW117675   2.604   3.269   3.648  0.7657  0.1220  0.6198
 2014SOL    HW217676   2.665   3.143   3.652 -1.1502 -0.8613 -0.0861
 2015SOL     OW17677   2.538   2.459   1.768  0.0651 -0.2804  0.0974
 2015SOL    HW117678   2.603   2.454   1.838  0.1902  2.5217  0.1486
 2015SOL    HW217679   2.503   2.548   1.771 -0.4007 -0.4710  0.3736
 2016SOL     OW17680   2.780   1.760   7.364 -0.6210 -0.0277  0.1601
 2016SOL    HW117681   2.764   1.677   7.409 -1.9864 -0.0260 -0.3130
 2016SOL    HW217682   2.854   1.802   7.406 -1.8971  1.5033  0.8836
 2017SOL     OW17683   2.774   4.686   8.362  0.5201 -0.4654 -0.4100
 2017SOL    HW117684   2.757   4.656   8.451  0.4011 -0.9136 -0.5842
 2017SOL    HW217685   2.783   0.044   8.372 -0.4683 -0.3732 -0.4209
 2018SOL     OW17686   0.331   3.511   8.603 -0.2902  0.7551 -0.1920
 2018SOL    HW117687   0.362   3.579   8.663 -0.7632 -1.5028  2.6241
 2018SOL    HW217688   0.404   3.500   8.542 -0.0709 -1.8365  0.5360
 2019SOL     OW17689   2.279   2.976  17.155  0.1484  0.5581  0.2272
 2019SOL    HW117690   2.185   2.982  17.141  0.1515  0.9508  0.3957
 2019SOL    HW217691   2.312   3.019  17.076  1.7137 -0.3918  0.3610
 2020SOL     OW17692   2.770   1.646   4.507  0.1675  0.1470 -0.3675
 2020SOL    HW117693   2.682   1.615   4.488  0.4645 -0.3235 -1.0007
 2020SOL    HW217694   2.755   1.690   4.590 -1.6232 -0.1978 -0.5134
 2021SOL     OW17695   0.857   1.656   5.983 -0.0067  0.1286  0.0774
 2021SOL    HW117696   0.866   1.571   6.027 -1.0105 -0.1266 -0.2037
 2021SOL    HW217697   0.780   1.690   6.029 -0.1965 -0.0203 -0.1298
 2022SOL     OW17698   2.216   1.840   3.665  0.0924 -0.1611  0.0142
 2022SOL    HW117699   2.134   1.871   3.702 -0.6052  0.3015 -1.9424
 2022SOL    HW217700   2.272   1.834   3.743  1.9066  0.7845 -1.2188
 2023SOL     OW17701   0.348   4.522   5.344 -0.0824  0.0618 -0.6748
 2023SOL    HW117702   0.332   4.585   5.275  1.0048  1.8457  0.6930
 2023SOL    HW217703   0.417   4.471   5.301  1.2502  0.4135  1.0089
 2024SOL     OW17704   2.038   4.484   3.428 -0.4616 -0.4728 -0.1218
 2024SOL    HW117705   2.059   4.564   3.380 -2.0177  0.9320  1.5648
 2024SOL    HW217706   2.111   4.432   3.395  0.5423  0.6507  0.3665
 2025SOL     OW17707   0.926   4.335   7.689 -0.2845 -0.2037  0.0352
 2025SOL    HW117708   0.845   4.384   7.703 -0.7003 -0.7103 -0.6217
 2025SOL    HW217709   0.957   4.358   7.602 -1.0988  0.0292 -0.1976
 2026SOL     OW17710   0.023   3.249   8.867  0.1256 -0.6464  0.4025
 2026SOL    HW117711   4.684   3.224   8.921  1.1389 -1.8682  1.2233
 2026SOL    HW217712   0.101   3.236   8.920  1.0421  1.5980 -0.3902
 2027SOL     OW17713   3.138   2.476   5.459  0.0261 -0.0327 -0.3625
 2027SOL    HW117714   3.101   2.551   5.505 -0.2310 -0.1733 -0.3368
 2027SOL    HW217715   3.172   2.413   5.523  1.7893  1.0709 -0.2143
 2028SOL     OW17716   1.788   2.856   4.776  0.2943  0.7170 -0.0138
 2028SOL    HW117717   1.875   2.868   4.815 -0.2879 -0.7199  1.7105
 2028SOL    HW217718   1.815   2.868   4.685  3.0355  0.3419  0.7178
 2029SOL     OW17719   3.814   1.847   4.869 -0.0211  0.4189 -0.0674
 2029SOL    HW117720   3.728   1.870   4.903  0.8061  2.4166  0.6855
 2029SOL    HW217721   3.847   1.817   4.954  0.8786  0.8316 -0.2684
 2030SOL     OW17722   2.454   4.568   8.191 -0.2084  0.1484  0.3301
 2030SOL    HW117723   2.410   4.567   8.106  1.0560 -0.0043 -0.3307
 2030SOL    HW217724   2.472   4.662   8.195  0.9104  0.0126 -1.5327
 2031SOL     OW17725   1.449   3.105   2.540 -0.0917  0.0153  0.1189
 2031SOL    HW117726   1.429   3.015   2.513  0.6108 -0.5995  1.6232
 2031SOL    HW217727   1.467   3.140   2.453 -0.2893 -1.1799 -0.4030
 2032SOL     OW17728   2.792   0.771  15.080 -0.9385 -0.7466 -0.3190
 2032SOL    HW117729   2.748   0.689  15.058  0.2193 -1.4654  0.0441
 2032SOL    HW217730   2.878   0.731  15.097 -0.5000  0.2297 -0.2412
 2033SOL     OW17731   3.484   2.928   7.444 -0.2911  0.4573 -1.0744
 2033SOL    HW117732   3.464   2.865   7.513  2.1263  0.7057 -0.1604
 2033SOL    HW217733   3.576   2.946   7.461  0.0146 -0.8467 -1.3670
 2034SOL     OW17734   2.726   2.201   6.007  0.6132 -0.3199 -0.5998
 2034SOL    HW117735   2.725   2.107   5.987 -0.1213  0.1068 -2.6194
 2034SOL    HW217736   2.662   2.235   5.944 -0.7870  1.3216  1.6798
 2035SOL     OW17737   3.528   3.088   4.968  0.2097  0.1303  0.6713
 2035SOL    HW117738   3.610   3.121   5.005  0.9167 -0.2404 -0.5522
 2035SOL    HW217739   3.523   3.005   5.016  4.1392 -0.4108  0.1825
 2036SOL     OW17740   3.738   1.250  11.478 -0.2037  0.3643  0.0640
 2036SOL    HW117741   3.821   1.202  11.484 -0.9124 -0.8139  0.5124
 2036SOL    HW217742   3.676   1.177  11.474  1.4687 -1.2841  3.9231
 2037SOL     OW17743   0.753   0.699  10.780  0.0783 -0.0432  0.2813
 2037SOL    HW117744   0.830   0.643  10.770  0.6414  0.7126  0.4456
 2037SOL    HW217745   0.680   0.646  10.747 -0.9787  0.2700  2.1216
 2038SOL     OW17746   1.606   1.087   9.363 -0.5009 -0.4298  0.3607
 2038SOL    HW117747   1.678   1.026   9.377 -2.1400 -2.6608 -0.8446
 2038SOL    HW217748   1.569   1.020   9.305 -0.1884 -0.6754  0.4424
 2039SOL     OW17749   0.677   2.707   6.697  0.0077 -0.2170 -0.0732
 2039SOL    HW117750   0.769   2.687   6.715  0.2836  1.5619  0.5613
 2039SOL    HW217751   0.633   2.701   6.781 -1.9491  0.0819 -1.0890
 2040SOL     OW17752   3.021   1.487   3.752 -0.3223  0.2540 -0.0141
 2040SOL    HW117753   3.008   1.509   3.844  0.8307  1.0637 -0.0469
 2040SOL    HW217754   2.961   1.547   3.708  0.4942  1.7279  0.8793
 2041SOL     OW17755   0.128   1.468  10.614  0.2339 -0.2243 -0.6324
 2041SOL    HW117756   0.055   1.411  10.637 -0.2829  1.4294  1.8321
 2041SOL    HW217757   0.121   1.461  10.519 -0.5385  1.6998 -0.7113
 2042SOL     OW17758   4.059   0.373   2.134  0.5540 -0.1493  0.2624
 2042SOL    HW117759   4.034   0.284   2.111  0.7769 -0.3682  0.8568
 2042SOL    HW217760   4.108   0.396   2.055 -2.1338 -2.9506 -2.1979
 2043SOL     OW17761   1.421   3.372   6.867 -0.5453  0.4918  0.4504
 2043SOL    HW117762   1.439   3.278   6.861 -0.7049  0.5651 -1.0933
 2043SOL    HW217763   1.327   3.388   6.853 -0.1709  2.3154 -0.0405
 2044SOL     OW17764   2.692   2.433   4.724  0.1814  0.4196  0.0047
 2044SOL    HW117765   2.677   2.345   4.690 -0.6902 -0.2094  2.0517
 2044SOL    HW217766   2.635   2.430   4.801 -1.0140 -1.2231 -0.9493
 2045SOL     OW17767   2.878   1.138  14.716  0.0977 -0.3124  0.0710
 2045SOL    HW117768   2.875   1.107  14.807 -0.0096  0.6863  0.4121
 2045SOL    HW217769   2.875   1.062  14.658 -3.9845  0.2893 -0.4866
 2046SOL     OW17770   3.291   3.546  17.366 -0.1765 -0.3636 -0.2660
 2046SOL    HW117771   3.265   3.638  17.360 -0.2806 -0.3461  0.4157
 2046SOL    HW217772   3.212   3.500  17.337 -1.4354  0.8250  1.3303
 2047SOL     OW17773   0.069   0.995   5.559  0.3353  0.2215  0.3712
 2047SOL    HW117774   0.023   0.918   5.527  1.3167 -0.2688  0.1296
 2047SOL    HW217775   4.727   1.039   5.592  0.2411  0.0630  0.3596
 2048SOL     OW17776   1.889   4.412   8.682 -0.0801 -0.1997  0.3419
 2048SOL    HW117777   1.892   4.498   8.723 -3.2300  0.4563 -0.7868
 2048SOL    HW217778   1.798   4.394   8.705  0.3609 -0.6682  1.6974
 2049SOL     OW17779   1.712   2.324  15.600  0.3832  0.2702 -0.0126
 2049SOL    HW117780   1.803   2.304  15.621  0.4250  1.6305  1.0854
 2049SOL    HW217781   1.722   2.349  15.508  0.5023 -2.4959 -0.7338
 2050SOL     OW17782   2.773   3.227  10.526  0.2391 -0.7534 -0.4583
 2050SOL    HW117783   2.860   3.220  10.487 -0.8650  0.9816 -3.2239
 2050SOL    HW217784   2.789   3.181  10.608 -2.1898 -1.8861 -0.6413
 2051SOL     OW17785   1.740   1.918   9.182 -0.1262  0.4771 -0.5391
 2051SOL    HW117786   1.770   1.855   9.248 -0.2854  1.8749  0.8703
 2051SOL    HW217787   1.757   1.995   9.236 -0.1254 -0.1541  0.3614
 2052SOL     OW17788   4.553   3.411   2.176 -0.0344  0.4469  0.1479
 2052SOL    HW117789   4.547   3.325   2.134  1.0511  0.9181 -1.0003
 2052SOL    HW217790   4.493   3.463   2.122  0.4109 -1.0285 -1.7860
 2053SOL     OW17791   1.664   0.030   4.835  0.5547 -0.3744 -0.2781
 2053SOL    HW117792   1.742   4.716   4.810  0.0070 -0.9029 -0.9130
 2053SOL    HW217793   1.686   0.115   4.872 -3.0028  1.8595 -3.2324
 2054SOL     OW17794   3.211   3.804   2.545 -0.2883  0.1438 -0.1838
 2054SOL    HW117795   3.178   3.841   2.627 -0.0404  0.5256 -0.2579
 2054SOL    HW217796   3.192   3.712   2.563 -1.7974  0.9395  2.2706
 2055SOL     OW17797   3.095   4.467   0.972 -0.6297  0.0871  0.3211
 2055SOL    HW117798   3.036   4.543   0.969 -1.2144 -0.4157 -0.7440
 2055SOL    HW217799   3.045   4.395   0.935 -0.5983  0.3461 -0.2270
 2056SOL     OW17800   4.629   0.649   9.403 -0.3819  0.0921 -0.4610
 2056SOL    HW117801   4.581   0.704   9.464  0.4709 -0.0825  0.3720
 2056SOL    HW217802   4.672   0.585   9.459  0.7158  0.1112 -1.2729
 2057SOL     OW17803   4.197   0.034   7.851  0.1030  0.2270  0.0360
 2057SOL    HW117804   4.192   4.677   7.827 -0.2083 -0.0764  1.2876
 2057SOL    HW217805   4.104   0.050   7.868 -0.4221 -2.3606 -0.2929
 2058SOL     OW17806   4.081   4.583   1.511  0.1578  0.2907  0.1351
 2058SOL    HW117807   4.177   4.576   1.512  0.0966 -0.4271  1.5655
 2058SOL    HW217808   4.062   4.504   1.562  0.6815  0.6191  0.8368
 2059SOL     OW17809   3.715   3.161   2.624 -0.2352  0.2093 -0.2483
 2059SOL    HW117810   3.645   3.099   2.643 -0.1358  0.4630  0.9528
 2059SOL    HW217811   3.736   3.206   2.706  0.7758  1.9472 -1.4526
 2060SOL     OW17812   0.065   2.672   6.537  0.0484  0.2507 -0.4320
 2060SOL    HW117813   0.049   2.578   6.530 -2.9831  0.8565 -1.7268
 2060SOL    HW217814   0.092   2.701   6.450  3.0357 -1.7507 -0.1566
 2061SOL     OW17815   2.220   2.022  13.683 -0.0322 -0.8120 -0.1030
 2061SOL    HW117816   2.232   2.094  13.621 -1.1781 -1.1983 -0.7761
 2061SOL    HW217817   2.135   1.984  13.659 -0.2804  0.2937 -1.0111
 2062SOL     OW17818   2.137   3.378   4.474 -0.3676 -0.2836  0.0057
 2062SOL    HW117819   2.127   3.313   4.403  0.6540 -0.3263 -0.1002
 2062SOL    HW217820   2.222   3.358   4.513 -0.0749 -1.4312 -1.2001
 2063SOL     OW17821   3.339   2.817   0.078 -0.0154 -0.1889 -0.1863
 2063SOL    HW117822   3.313   2.840  17.732  0.0782  1.8507  0.3227
 2063SOL    HW217823   3.350   2.722   0.069 -0.2652 -0.5186  3.2274
 2064SOL     OW17824   1.748   0.289   0.799 -0.4366 -0.2802  0.1738
 2064SOL    HW117825   1.830   0.336   0.787 -0.7055  0.1370 -0.0321
 2064SOL    HW217826   1.683   0.359   0.810 -1.5588 -1.2223 -0.3989
 2065SOL     OW17827   1.128   1.283  15.388 -0.1286  0.2657  0.1626
 2065SOL    HW117828   1.065   1.337  15.435 -0.9907 -0.0544 -0.6096
 2065SOL    HW217829   1.068   1.252  15.320 -0.0633 -1.5371  0.9103
 2066SOL     OW17830   4.634   4.029  16.699  0.4723 -0.8806 -0.4304
 2066SOL    HW117831   4.607   3.969  16.629 -0.4663 -0.3919 -0.4848
 2066SOL    HW217832   4.592   3.994  16.777 -1.6128  1.5079 -0.4623
 2067SOL     OW17833   3.386   4.228   5.376  0.2380 -0.4649 -0.0348
 2067SOL    HW117834   3.375   4.153   5.434  0.9102 -1.9458 -1.8105
 2067SOL    HW217835   3.373   4.301   5.437  0.0592  0.2424 -0.9184
 2068SOL     OW17836   4.408   3.627   4.637 -0.1461  0.7470 -0.1325
 2068SOL    HW117837   4.359   3.575   4.573 -0.2425 -0.3196  0.8050
 2068SOL    HW217838   4.349   3.616   4.711  0.6135 -0.0448  0.3561
 2069SOL     OW17839   4.177   3.165   1.689  0.0535  0.6014 -0.0880
 2069SOL    HW117840   4.199   3.258   1.694  0.3270  0.5591 -0.5129
 2069SOL    HW217841   4.251   3.121   1.647 -1.2628 -1.2915 -0.3872
 2070SOL     OW17842   2.508   0.539   1.115 -0.3250 -0.3245 -0.6000
 2070SOL    HW117843   2.462   0.543   1.031 -2.1214  1.0405  0.4462
 2070SOL    HW217844   2.471   0.624   1.141  0.4410 -0.3090  0.4281
 2071SOL     OW17845   4.270   1.653   4.593 -1.0289 -0.0717 -0.0077
 2071SOL    HW117846   4.210   1.707   4.541 -2.4739 -0.8108  0.8964
 2071SOL    HW217847   4.337   1.654   4.524 -2.5773 -0.5426 -1.5278
 2072SOL     OW17848   4.076   3.061   4.031 -0.1299  0.3331  0.4502
 2072SOL    HW117849   4.017   2.986   4.045  0.6892 -0.0778  1.7341
 2072SOL    HW217850   4.024   3.129   3.989 -2.0280 -1.4983 -0.1439
 2073SOL     OW17851   0.938   2.513  16.047  0.4827  0.3184 -0.7784
 2073SOL    HW117852   1.001   2.576  16.011  2.6488 -0.8661  0.9043
 2073SOL    HW217853   0.989   2.439  16.079 -1.2456 -0.4260  0.2817
 2074SOL     OW17854   4.385   4.537  14.997  0.4688  0.0827 -0.4655
 2074SOL    HW117855   4.451   4.583  14.946  2.0476  0.0984  1.6324
 2074SOL    HW217856   4.439   4.467  15.033 -1.3814 -1.5244 -0.8142
 2075SOL     OW17857   0.991   0.593   5.686 -0.6004  0.3051  0.5795
 2075SOL    HW117858   1.041   0.634   5.756 -0.2292 -0.2137  0.6171
 2075SOL    HW217859   1.062   0.578   5.623  0.2373 -1.0106  1.8168
 2076SOL     OW17860   0.994   1.474   9.317 -0.0917  0.2623 -0.1195
 2076SOL    HW117861   0.966   1.452   9.228  1.5717 -2.4909  0.0313
 2076SOL    HW217862   1.058   1.403   9.324  1.7299  2.0419  0.9698
 2077SOL     OW17863   0.478   2.357  16.314  0.0130 -0.6626 -0.0640
 2077SOL    HW117864   0.470   2.282  16.255  0.2228  0.4465 -1.5062
 2077SOL    HW217865   0.474   2.325  16.404 -0.2815  0.2743  0.2587
 2078SOL     OW17866   2.378   2.084  13.904 -0.1978  0.4877  0.2165
 2078SOL    HW117867   2.327   2.070  13.824  0.5541  0.6288 -0.2927
 2078SOL    HW217868   2.311   2.060  13.968 -1.3661 -0.0142 -1.1960
 2079SOL     OW17869   4.411   3.420   4.964 -0.0971 -0.7328  0.1742
 2079SOL    HW117870   4.470   3.448   5.034 -0.7653 -1.5156  1.0522
 2079SOL    HW217871   4.355   3.497   4.955  0.0800 -0.6526 -0.2251
 2080SOL     OW17872   3.292   4.332   2.599  0.1734 -0.2968 -0.6384
 2080SOL    HW117873   3.267   4.419   2.568  3.1473  0.3949 -1.1330
 2080SOL    HW217874   3.367   4.361   2.650  0.6476 -1.0048 -0.9228
 2081SOL     OW17875   0.322   3.742   7.749  0.1866 -0.0434  0.7539
 2081SOL    HW117876   0.414   3.723   7.729  0.3363 -0.0417  1.4759
 2081SOL    HW217877   0.295   3.651   7.760 -1.1681  0.6229  2.7796
 2082SOL     OW17878   0.984   3.316   0.479 -0.3432 -0.1230  0.1122
 2082SOL    HW117879   0.996   3.381   0.548  0.7380 -0.0886 -0.1150
 2082SOL    HW217880   1.064   3.335   0.431 -2.2194 -0.2670 -3.0700
 2083SOL     OW17881   4.318   3.926   1.190  0.1748 -0.3227  0.4250
 2083SOL    HW117882   4.411   3.925   1.214  0.0091 -0.0438  1.0741
 2083SOL    HW217883   4.309   4.005   1.136  1.6398  1.6162  3.0046
 2084SOL     OW17884   3.899   1.528   8.531  0.3832 -0.3943 -0.3776
 2084SOL    HW117885   3.883   1.435   8.543  0.3515 -0.1813  1.3509
 2084SOL    HW217886   3.993   1.532   8.549  0.3862  0.8660 -0.6529
 2085SOL     OW17887   4.607   2.918   1.344 -0.5111 -0.9194 -0.4026
 2085SOL    HW117888   4.583   2.891   1.433 -0.1523  0.0601 -0.0194
 2085SOL    HW217889   4.595   3.012   1.336 -2.1698 -1.0450  0.4903
 2086SOL     OW17890   1.825   3.633   1.627 -0.4016  0.1240 -0.6987
 2086SOL    HW117891   1.918   3.614   1.617 -0.4072 -0.4101  0.2009
 2086SOL    HW217892   1.784   3.546   1.625  2.6218 -1.2837 -1.9413
 2087SOL     OW17893   1.231   4.104  12.297  0.0994  0.5458  0.0930
 2087SOL    HW117894   1.261   4.041  12.232  0.3410  1.9285 -1.1427
 2087SOL    HW217895   1.212   4.048  12.373  0.3881 -1.1126 -1.0774
 2088SOL     OW17896   0.460   4.100   9.348 -0.0025 -0.0275 -0.0965
 2088SOL    HW117897   0.421   4.069   9.267 -0.5816  0.2135  0.0908
 2088SOL    HW217898   0.447   4.195   9.358  2.2469  0.4974 -2.0634
 2089SOL     OW17899   0.025   2.251   9.449 -0.2193 -0.4835 -0.6150
 2089SOL    HW117900   0.103   2.287   9.492 -0.6434  0.3851 -0.5768
 2089SOL    HW217901   0.059   2.173   9.405 -0.8379 -1.4103  0.5486
 2090SOL     OW17902   1.471   0.308   0.256  0.1681 -0.4600 -0.0421
 2090SOL    HW117903   1.455   0.345   0.342 -3.6021 -0.8100 -0.5663
 2090SOL    HW217904   1.517   0.226   0.271 -0.8883 -1.3047 -1.4480
 2091SOL     OW17905   3.817   2.961  12.939  0.1273  0.2833 -0.2739
 2091SOL    HW117906   3.726   2.950  12.966  0.7445  0.2107  1.7747
 2091SOL    HW217907   3.800   3.011  12.859 -1.3114  0.5540  0.1982
 2092SOL     OW17908   2.663   3.644   5.116 -1.0221  0.7051 -0.0076
 2092SOL    HW117909   2.650   3.657   5.210  0.3813 -0.3486  0.3326
 2092SOL    HW217910   2.636   3.731   5.086  1.6643  0.3433 -3.5073
 2093SOL     OW17911   1.418   3.223  12.763 -0.2765  0.0163 -0.1347
 2093SOL    HW117912   1.340   3.166  12.768 -1.7231  2.0943  0.8465
 2093SOL    HW217913   1.369   3.303  12.783 -0.8838 -0.5808  0.8047
 2094SOL     OW17914   2.051   1.286   5.289 -0.5133 -0.0312  0.6314
 2094SOL    HW117915   2.072   1.269   5.197 -0.1707 -0.2809  0.7566
 2094SOL    HW217916   2.065   1.201   5.329  1.6254  0.7094  1.4604
 2095SOL     OW17917   1.066   4.696   6.925  0.5817 -0.0047 -0.5242
 2095SOL    HW117918   1.029   4.687   7.012 -2.3442 -0.0163 -1.7639
 2095SOL    HW217919   1.009   0.027   6.887 -0.8123 -0.5182  0.6825
 2096SOL     OW17920   0.206   0.725  10.566  0.2670  0.4368 -0.2126
 2096SOL    HW117921   0.299   0.749  10.565  0.0702  1.1996 -0.5911
 2096SOL    HW217922   0.186   0.717  10.472 -0.6586 -0.1068  0.0365
 2097SOL     OW17923   1.607   3.961   7.233 -0.1134 -0.2817  0.0999
 2097SOL    HW117924   1.541   3.894   7.216  1.5413 -2.2540  1.5710
 2097SOL    HW217925   1.682   3.907   7.210  0.4049 -0.0876  1.3510
 2098SOL     OW17926   0.805   1.037   2.481  0.1810 -0.1161 -0.2182
 2098SOL    HW117927   0.777   1.114   2.530 -0.1285 -0.2895 -0.1261
 2098SOL    HW217928   0.725   0.986   2.466  0.3181 -0.5941  0.6522
 2099SOL     OW17929   2.072   2.929   3.423 -0.4705 -0.0108 -0.0613
 2099SOL    HW117930   2.117   2.946   3.506 -1.0131 -2.7235  0.8013
 2099SOL    HW217931   2.138   2.877   3.377 -0.5443 -0.8677  0.8096
 2100SOL     OW17932   1.524   0.669   6.581 -0.5893 -0.5774 -0.1028
 2100SOL    HW117933   1.547   0.583   6.546 -0.4567 -0.2517 -0.8169
 2100SOL    HW217934   1.510   0.653   6.674  2.0716 -1.0662  0.2051
 2101SOL     OW17935   0.841   3.120   1.990  0.4000 -0.2077  0.0506
 2101SOL    HW117936   0.833   3.024   1.986  0.4664 -0.2515  0.8785
 2101SOL    HW217937   0.761   3.150   1.947  1.0118  0.4454 -0.6242
 2102SOL     OW17938   0.361   3.416   1.899  0.2170  0.4619  0.5777
 2102SOL    HW117939   0.436   3.475   1.896  0.9724 -0.4650  1.3589
 2102SOL    HW217940   0.294   3.472   1.860 -0.4442  0.4587  1.6940
 2103SOL     OW17941   4.717   2.685   3.462  0.2901  0.0866 -0.0638
 2103SOL    HW117942   0.040   2.727   3.400 -0.8504  0.8964 -0.5957
 2103SOL    HW217943   4.629   2.692   3.427  0.5152 -0.0952 -0.6602
 2104SOL     OW17944   2.750   4.721   3.298 -0.1519 -0.6275  0.3835
 2104SOL    HW117945   2.721   0.048   3.231 -2.1963  1.8382  3.5837
 2104SOL    HW217946   2.688   4.651   3.279 -2.3609  1.1591  0.9933
 2105SOL     OW17947   2.976   0.306   5.887  0.3480 -0.2093 -0.0759
 2105SOL    HW117948   3.017   0.221   5.869  0.1631 -0.2886 -0.1232
 2105SOL    HW217949   2.980   0.309   5.983  0.6630  0.7924 -0.1233
 2106SOL     OW17950   1.639   4.319   0.718 -0.3024 -0.0350  0.0643
 2106SOL    HW117951   1.650   4.314   0.623 -2.8290  0.6564 -0.2875
 2106SOL    HW217952   1.699   4.249   0.744 -2.4281 -2.7144 -2.2386
 2107SOL     OW17953   3.438   2.394  13.654  0.0996  0.3553  0.1110
 2107SOL    HW117954   3.484   2.474  13.681 -0.2802  0.9346 -0.9957
 2107SOL    HW217955   3.434   2.402  13.559  0.5850  0.1753  0.0779
 2108SOL     OW17956   3.024   4.670   3.281  0.4313  0.7677  0.6756
 2108SOL    HW117957   3.048   0.022   3.253 -2.0684  1.1297 -0.3465
 2108SOL    HW217958   2.930   4.677   3.264  0.9524  3.9223 -0.9954
 2109SOL     OW17959   2.194   1.760   7.430  0.2135  0.0073  0.6828
 2109SOL    HW117960   2.275   1.776   7.477  0.0934  0.7987  0.6226
 2109SOL    HW217961   2.128   1.763   7.499 -0.3468 -1.4750  0.2123
 2110SOL     OW17962   3.185   2.774   7.859 -0.1823 -0.0759 -0.2707
 2110SOL    HW117963   3.266   2.725   7.844 -0.3559 -0.7884  1.1555
 2110SOL    HW217964   3.171   2.746   7.949  1.8946 -1.4172 -0.3649
 2111SOL     OW17965   1.922   0.334   7.384  0.0037  0.4001  0.5371
 2111SOL    HW117966   1.878   0.399   7.439  1.5508  1.8974  0.0010
 2111SOL    HW217967   1.845   0.292   7.345 -0.4826  0.8217  1.0352
 2112SOL     OW17968   4.061   4.432   5.867 -0.1407  0.1459 -0.1678
 2112SOL    HW117969   4.118   4.507   5.886  1.3007 -0.8641 -0.5375
 2112SOL    HW217970   3.980   4.481   5.854  0.1754 -0.3444 -3.9966
 2113SOL     OW17971   0.390   3.995   4.839 -0.2922  0.1011 -0.0285
 2113SOL    HW117972   0.337   4.050   4.897  0.3010  2.8705 -2.1287
 2113SOL    HW217973   0.475   4.014   4.878 -0.6000  3.1084 -0.8373
 2114SOL     OW17974   3.733   1.727   8.377  0.0319  0.4393  0.1470
 2114SOL    HW117975   3.790   1.667   8.425  0.7736 -0.5580 -2.0051
 2114SOL    HW217976   3.741   1.696   8.287 -0.7380  2.0435 -0.4599
 2115SOL     OW17977   0.055   1.459   4.928  0.2714 -0.3004  0.1903
 2115SOL    HW117978   0.138   1.411   4.926 -1.5768 -3.4545  0.5097
 2115SOL    HW217979   0.003   1.391   4.886  0.4293  0.1292 -0.7122
 2116SOL     OW17980   1.754   1.803   2.789  0.1438  0.3051  0.4035
 2116SOL    HW117981   1.832   1.746   2.788 -0.2278 -0.2620  2.6158
 2116SOL    HW217982   1.763   1.845   2.875 -0.3079 -0.9485  1.0736
 2117SOL     OW17983   3.208   4.028   7.514  0.2524 -0.0752 -0.1057
 2117SOL    HW117984   3.232   4.115   7.484 -4.8373  0.7540 -1.6989
 2117SOL    HW217985   3.177   3.989   7.432 -1.7156  0.1961  0.5104
 2118SOL     OW17986   0.629   3.426  16.868 -0.1221  0.2120 -0.1628
 2118SOL    HW117987   0.611   3.401  16.777  0.1170  0.3114 -0.2351
 2118SOL    HW217988   0.545   3.452  16.907  0.4734  0.8188  0.6977
 2119SOL     OW17989   1.062   0.143   0.861 -0.0645  0.1480  0.2514
 2119SOL    HW117990   1.088   0.057   0.894 -0.7862 -0.2278 -0.1418
 2119SOL    HW217991   1.151   0.174   0.845  0.5201 -1.6319  0.1525
 2120SOL     OW17992   1.179   0.373  11.168  0.3613 -0.6797 -0.3256
 2120SOL    HW117993   1.199   0.281  11.186 -1.1684 -0.9642 -0.0586
 2120SOL    HW217994   1.236   0.430  11.220 -0.4187 -0.6783  0.5363
 2121SOL     OW17995   0.949   3.536   5.326  0.0315  1.2147 -0.6302
 2121SOL    HW117996   1.007   3.516   5.252 -0.0245 -0.6762 -0.1502
 2121SOL    HW217997   0.870   3.486   5.308  0.1048  0.8382  0.0966
 2122SOL     OW17998   2.523   2.824   7.642  0.0537  0.1932 -1.0778
 2122SOL    HW117999   2.501   2.737   7.607  1.0179 -0.7675  0.7537
 2122SOL    HW218000   2.618   2.830   7.644  0.1134 -0.1520 -2.5673
 2123SOL     OW18001   3.938   1.557   7.459  0.1000 -0.4980  0.2218
 2123SOL    HW118002   3.851   1.535   7.426  0.6076 -1.2369 -0.6208
 2123SOL    HW218003   3.940   1.496   7.533  1.8448 -1.1161 -0.3235
 2124SOL     OW18004   1.830   4.228   8.971  0.3710 -0.1037 -0.0112
 2124SOL    HW118005   1.807   4.136   8.979  1.0620 -0.5391 -3.2939
 2124SOL    HW218006   1.744   4.269   8.967  1.3146  1.9833  0.6648
 2125SOL     OW18007   1.310   3.943   7.310  0.1846  0.8008  0.4448
 2125SOL    HW118008   1.341   3.859   7.276  0.1073  0.9922 -0.0876
 2125SOL    HW218009   1.217   3.945   7.288  0.1502 -1.6042  0.3365
 2126SOL     OW18010   2.200   3.945   4.397 -0.5635  0.0762 -0.3543
 2126SOL    HW118011   2.160   3.859   4.409 -0.6491  0.4120  1.7342
 2126SOL    HW218012   2.293   3.923   4.396 -0.3153  1.1320 -0.6466
 2127SOL     OW18013   4.486   0.641  13.783  0.4159  0.1058 -0.1511
 2127SOL    HW118014   4.480   0.729  13.747 -0.1157  1.0926  2.3083
 2127SOL    HW218015   4.507   0.652  13.876  4.3545 -1.3426 -0.8751
 2128SOL     OW18016   2.968   3.687   2.104  0.5860 -0.0362 -0.9000
 2128SOL    HW118017   2.897   3.747   2.126  1.5483  0.4222  0.9287
 2128SOL    HW218018   2.923   3.605   2.123 -0.9260  0.6297 -1.6002
 2129SOL     OW18019   3.218   1.212  10.512 -0.0340 -0.1982 -0.5978
 2129SOL    HW118020   3.220   1.268  10.589 -1.9668  0.9420 -1.3632
 2129SOL    HW218021   3.270   1.138  10.543  0.5000 -0.5494 -2.3384
 2130SOL     OW18022   2.135   2.092   0.097 -0.2519 -0.4152 -0.3241
 2130SOL    HW118023   2.204   2.027   0.083  1.2835  1.3582 -1.0247
 2130SOL    HW218024   2.059   2.034   0.091 -0.1422 -0.6094  0.1456
 2131SOL     OW18025   0.720   2.770   4.698 -0.1102  0.1505 -0.4473
 2131SOL    HW118026   0.690   2.776   4.607 -2.0299 -1.5875  0.0764
 2131SOL    HW218027   0.638   2.793   4.741  0.2826 -1.7331  1.3075
 2132SOL     OW18028   4.676   0.372   0.376 -0.0013 -0.4322 -0.2443
 2132SOL    HW118029   4.684   0.403   0.286  1.1315 -0.4044 -0.1357
 2132SOL    HW218030   4.594   0.322   0.373 -1.1077  1.3465  0.6866
 2133SOL     OW18031   0.797   4.697   8.125 -1.0481  0.3952 -0.4399
 2133SOL    HW118032   0.845   4.667   8.048 -0.2038  1.8029 -0.4561
 2133SOL    HW218033   0.855   0.031   8.152 -2.0894  0.8998  0.5201
 2134SOL     OW18034   4.242   3.571   7.469 -0.0991 -0.4046  0.0929
 2134SOL    HW118035   4.226   3.646   7.526 -1.2567  0.1550 -0.9571
 2134SOL    HW218036   4.323   3.549   7.513  0.5038  0.1151 -0.7538
 2135SOL     OW18037   4.592   3.923   3.789 -0.0494  0.1006 -0.1808
 2135SOL    HW118038   4.649   3.878   3.726 -0.6629 -0.7918 -0.0903
 2135SOL    HW218039   4.506   3.886   3.770  0.7857 -0.5390 -2.7359
 2136SOL     OW18040   4.133   1.460   6.142 -0.0297  0.6077 -0.1613
 2136SOL    HW118041   4.124   1.550   6.173  1.4112  0.8977 -0.5789
 2136SOL    HW218042   4.178   1.419   6.216 -1.3762 -0.8178 -0.1326
 2137SOL     OW18043   0.093   2.423   0.144  0.0429  0.1030  0.6589
 2137SOL    HW118044   0.072   2.411   0.237 -1.2409  0.3139  0.3943
 2137SOL    HW218045   0.004   2.404   0.115  1.0515 -3.6335  0.1373
 2138SOL     OW18046   2.288   3.726   8.686 -0.1292 -0.1138  0.0934
 2138SOL    HW118047   2.224   3.774   8.632 -2.4912 -2.4720  0.7979
 2138SOL    HW218048   2.353   3.693   8.624  1.8597 -0.2880  2.2933
 2139SOL     OW18049   2.203   2.677   6.393 -0.3629 -0.3079  0.2494
 2139SOL    HW118050   2.258   2.689   6.470 -1.6096  2.5226  0.7104
 2139SOL    HW218051   2.125   2.636   6.432 -0.9826 -0.3339 -1.0321
 2140SOL     OW18052   3.513   2.531   6.891  0.1666  0.1968 -0.3863
 2140SOL    HW118053   3.439   2.544   6.831  1.3547  0.7603 -1.7369
 2140SOL    HW218054   3.581   2.578   6.843  1.1170  0.0680  0.8429
 2141SOL     OW18055   0.583   0.883   7.583  0.2450 -0.6501 -0.0595
 2141SOL    HW118056   0.519   0.813   7.595  0.5059 -0.4166  2.5568
 2141SOL    HW218057   0.529   0.955   7.613  1.7437 -0.1772  1.5195
 2142SOL     OW18058   3.881   3.932   7.493 -0.1637  0.0883 -0.2776
 2142SOL    HW118059   3.828   4.012   7.499 -0.2535  0.0551 -0.6454
 2142SOL    HW218060   3.841   3.886   7.567  1.1154  2.5367  1.9498
 2143SOL     OW18061   4.292   1.788   8.913  0.4542  0.1061 -0.5930
 2143SOL    HW118062   4.196   1.780   8.914  0.7078 -2.9758 -0.3215
 2143SOL    HW218063   4.324   1.698   8.911  0.8037  0.3248 -3.7744
 2144SOL     OW18064   3.724   1.599   3.601  0.0630  0.0699  0.2237
 2144SOL    HW118065   3.687   1.600   3.689  1.7969 -2.2608  0.9694
 2144SOL    HW218066   3.701   1.683   3.562 -0.4594  0.2092  0.8414
 2145SOL     OW18067   4.148   3.356   8.559 -0.6088  0.5774 -0.2832
 2145SOL    HW118068   4.129   3.308   8.639  3.6150 -2.3427 -1.0369
 2145SOL    HW218069   4.170   3.282   8.502  0.0401  1.1785 -0.8108
 2146SOL     OW18070   2.726   4.238  13.273 -0.1864  0.6272 -0.1756
 2146SOL    HW118071   2.774   4.159  13.294 -2.3041 -0.4801  0.4942
 2146SOL    HW218072   2.636   4.208  13.287 -1.0378  2.6817 -1.1817
 2147SOL     OW18073   2.857   1.131   8.705  0.5587 -0.1273 -0.0599
 2147SOL    HW118074   2.851   1.211   8.757 -2.0682 -0.3552 -0.0290
 2147SOL    HW218075   2.770   1.101   8.732  0.7905  1.2451  2.2193
 2148SOL     OW18076   2.554   1.266   3.902 -0.4997  0.2746  0.5735
 2148SOL    HW118077   2.610   1.301   3.833 -1.5484 -1.4256 -1.1190
 2148SOL    HW218078   2.476   1.241   3.853 -1.0305  1.4025  0.8239
 2149SOL     OW18079   0.301   0.144   8.353 -0.4236  0.5699 -0.0630
 2149SOL    HW118080   0.377   0.168   8.300  2.3516 -1.3026  3.0746
 2149SOL    HW218081   0.246   0.222   8.359  0.8871  1.5022 -0.0945
 2150SOL     OW18082   1.850   2.622  14.759  0.2954  0.2823  0.1289
 2150SOL    HW118083   1.830   2.585  14.844 -0.9837 -1.6015 -0.9937
 2150SOL    HW218084   1.823   2.545  14.708 -0.3599 -1.4378  3.0856
 2151SOL     OW18085   0.857   4.199   8.357 -0.1451 -0.8175 -0.1382
 2151SOL    HW118086   0.815   4.152   8.285  0.9108 -1.4099 -0.3591
 2151SOL    HW218087   0.949   4.180   8.341 -0.1066  0.3661 -1.3244
 2152SOL     OW18088   2.660   4.724   7.564 -0.0301  0.2316  0.1821
 2152SOL    HW118089   2.643   4.653   7.502 -0.4782  1.8235 -1.4987
 2152SOL    HW218090   2.617   4.699   7.646 -1.3612  2.0170  0.0269
 2153SOL     OW18091   3.437   0.971   8.615  0.2803  0.1087  0.3768
 2153SOL    HW118092   3.392   0.949   8.534  0.6580  0.7018  0.0100
 2153SOL    HW218093   3.506   0.905   8.615  0.0826 -0.0957 -0.0926
 2154SOL     OW18094   3.589   1.266  17.128 -0.2605 -0.1155 -0.2665
 2154SOL    HW118095   3.678   1.232  17.137  0.7603  2.1038 -2.0777
 2154SOL    HW218096   3.554   1.247  17.215  0.2381  0.1906 -0.0024
 2155SOL     OW18097   4.041   1.975   8.595  0.3823 -0.3236 -0.4414
 2155SOL    HW118098   3.966   2.008   8.644 -1.2276  0.2347 -3.2785
 2155SOL    HW218099   4.099   1.972   8.670  0.7147  0.8399 -0.6493
 2156SOL     OW18100   4.339   3.648   6.577  0.2356 -0.0819 -0.2734
 2156SOL    HW118101   4.315   3.674   6.489  1.1777 -0.7443 -0.7287
 2156SOL    HW218102   4.432   3.671   6.575  0.2512 -0.2063 -0.9331
 2157SOL     OW18103   2.246   4.039   8.917 -0.7402 -0.6673  0.0161
 2157SOL    HW118104   2.273   4.086   8.838 -2.2532 -1.2697 -0.8600
 2157SOL    HW218105   2.234   4.106   8.983 -2.2547 -0.2987 -0.6360
 2158SOL     OW18106   1.856   0.245   8.933 -0.3071 -0.8068 -0.2374
 2158SOL    HW118107   1.843   0.323   8.988  0.6225 -1.9291  1.5772
 2158SOL    HW218108   1.898   0.291   8.860  2.4438  0.5181  2.1622
 2159SOL     OW18109   0.666   1.637   3.911 -0.2825  0.4367 -0.1494
 2159SOL    HW118110   0.693   1.602   3.826  0.6567 -0.9603  0.7386
 2159SOL    HW218111   0.574   1.612   3.906 -0.2731  0.4147 -0.2190
 2160SOL     OW18112   2.976   0.414   2.941  0.2240 -0.3185  0.0026
 2160SOL    HW118113   3.047   0.436   2.881 -1.0287  2.1521 -0.5881
 2160SOL    HW218114   2.910   0.434   2.874  0.2461  2.5344  0.8398
 2161SOL     OW18115   1.657   1.335   9.435  0.1799 -0.0402 -0.2436
 2161SOL    HW118116   1.740   1.296   9.463  0.2419  0.1463 -0.1696
 2161SOL    HW218117   1.628   1.250   9.402  1.3709 -0.4899 -0.1238
 2162SOL     OW18118   1.065   0.875   8.226 -0.1793 -0.3060  0.1364
 2162SOL    HW118119   0.973   0.853   8.209 -0.7138 -0.1405  2.8896
 2162SOL    HW218120   1.114   0.825   8.160 -1.2147 -1.7090  0.4297
 2163SOL     OW18121   4.583   2.776   8.461  0.0336 -0.1494 -0.1187
 2163SOL    HW118122   4.676   2.757   8.451  0.2185  0.7137  0.0539
 2163SOL    HW218123   4.572   2.870   8.471 -1.5096 -0.3205 -0.2557
 2164SOL     OW18124   3.370   0.081   8.803  0.5399  0.0250  0.1833
 2164SOL    HW118125   3.401   0.129   8.726 -2.1744  0.7524 -0.4569
 2164SOL    HW218126   3.378   0.148   8.870 -2.1139  1.5130 -1.0022
 2165SOL     OW18127   4.463   0.248  14.547  0.0506  0.4501  0.5122
 2165SOL    HW118128   4.422   0.305  14.612 -0.0571 -1.1393  1.8517
 2165SOL    HW218129   4.505   0.320  14.502  1.0530 -0.6102 -0.2541
 2166SOL     OW18130   0.368   3.666   2.187  0.9134  0.0725 -0.0851
 2166SOL    HW118131   0.302   3.620   2.135 -0.0646 -0.6200  1.8007
 2166SOL    HW218132   0.304   3.706   2.246  0.6208 -0.5891  0.0456
 2167SOL     OW18133   4.526   0.917   6.700  0.7849  0.1405  0.3732
 2167SOL    HW118134   4.604   0.945   6.651  2.4932 -0.7661  2.5786
 2167SOL    HW218135   4.466   0.991   6.690 -1.0475 -1.4547 -0.4713
 2168SOL     OW18136   1.856   1.843  16.219 -0.5050  0.2892 -0.0001
 2168SOL    HW118137   1.828   1.862  16.309 -1.6668 -1.2411 -0.0504
 2168SOL    HW218138   1.950   1.850  16.236 -0.6034 -0.3416  0.8092
 2169SOL     OW18139   1.468   0.758   6.868  0.3834  0.2914 -0.5774
 2169SOL    HW118140   1.423   0.842   6.859  0.1011  0.1913 -0.1175
 2169SOL    HW218141   1.511   0.762   6.953  0.2186  1.5736 -0.5566
 2170SOL     OW18142   0.970   1.625  16.703 -0.1557  0.5425  0.4576
 2170SOL    HW118143   0.989   1.632  16.609  2.4902 -0.2690  0.9411
 2170SOL    HW218144   0.904   1.556  16.704  0.8622 -0.4342 -0.5122
 2171SOL     OW18145   1.631   3.620   7.389 -0.6729 -0.4839 -0.0515
 2171SOL    HW118146   1.539   3.600   7.373 -0.2969 -1.3874 -1.1160
 2171SOL    HW218147   1.680   3.655   7.314 -2.0731  1.0856 -0.2193
 2172SOL     OW18148   3.109   3.899   2.766  0.1508 -0.3328 -0.1641
 2172SOL    HW118149   3.155   3.899   2.850 -0.6445 -1.6537  0.2610
 2172SOL    HW218150   3.066   3.985   2.771 -0.2983 -0.7229  2.8229
 2173SOL     OW18151   2.718   4.419   9.481 -0.0976 -0.0163 -0.5934
 2173SOL    HW118152   2.703   4.325   9.485  2.1470 -0.3327  0.5999
 2173SOL    HW218153   2.645   4.447   9.536  0.9358  0.1464  0.6987
 2174SOL     OW18154   1.644   1.325   4.091  0.1319 -0.3391 -0.0209
 2174SOL    HW118155   1.716   1.264   4.078  1.7498  1.5157  0.1772
 2174SOL    HW218156   1.656   1.377   4.012 -0.4979  0.6877  0.5437
 2175SOL     OW18157   2.784   0.715  17.440  0.2693  0.2569  0.4200
 2175SOL    HW118158   2.798   0.681  17.352  1.0350  2.6330 -0.3920
 2175SOL    HW218159   2.857   0.775  17.454 -0.5830  1.5153 -0.5169
 2176SOL     OW18160   4.724   2.496   6.178 -0.7630  0.2636 -0.4175
 2176SOL    HW118161   0.066   2.549   6.161 -0.5264 -0.9266 -3.0873
 2176SOL    HW218162   4.664   2.523   6.108  2.3248  1.5448 -2.5889
 2177SOL     OW18163   1.600   4.263   8.658  0.0457 -0.0773  0.2087
 2177SOL    HW118164   1.546   4.207   8.712 -0.8478  0.0522 -0.5459
 2177SOL    HW218165   1.595   4.350   8.698  0.2809 -0.2548  0.6176
 2178SOL     OW18166   4.523   1.624   7.531  0.0396 -0.0153 -0.3428
 2178SOL    HW118167   4.454   1.602   7.594 -0.8162  0.3502 -1.1566
 2178SOL    HW218168   4.475   1.696   7.489  0.8075 -0.2569 -1.6476
 2179SOL     OW18169   2.155   0.112   3.687 -0.0838 -0.5877 -0.0669
 2179SOL    HW118170   2.072   0.139   3.647  0.2259  0.5150  0.0262
 2179SOL    HW218171   2.204   0.185   3.648 -1.2400  0.0382 -0.3533
 2180SOL     OW18172   3.198   1.356   6.120 -0.1197 -0.3033 -0.1357
 2180SOL    HW118173   3.279   1.306   6.125  1.1801  1.7732 -0.3760
 2180SOL    HW218174   3.223   1.446   6.140 -3.0739  0.3339  0.7888
 2181SOL     OW18175   2.883   3.386   4.982  0.0201  0.2431  0.0875
 2181SOL    HW118176   2.926   3.300   4.974 -0.3324 -0.0211  1.0193
 2181SOL    HW218177   2.924   3.411   5.065 -0.5159 -0.1107  0.4591
 2182SOL     OW18178   1.697   0.045  12.054 -0.4534 -0.2304 -0.3092
 2182SOL    HW118179   1.770   0.107  12.063 -1.7482  1.0650  1.1824
 2182SOL    HW218180   1.697   0.037  11.958  0.6400  0.3478 -0.3654
 2183SOL     OW18181   1.150   1.705   0.827 -0.0200 -0.2257 -0.0100
 2183SOL    HW118182   1.127   1.632   0.885  0.3229 -0.2133  0.1384
 2183SOL    HW218183   1.232   1.672   0.789  0.9036  0.2348  1.6016
 2184SOL     OW18184   1.688   4.323   7.204 -0.1082  0.2925  0.1179
 2184SOL    HW118185   1.678   4.408   7.161 -2.5268 -0.3769 -0.6181
 2184SOL    HW218186   1.761   4.284   7.156 -0.4415  1.5879 -1.4565
 2185SOL     OW18187   3.187   3.112   8.350  0.4048 -0.0102  0.0989
 2185SOL    HW118188   3.260   3.051   8.359  1.2959  0.8354 -1.2833
 2185SOL    HW218189   3.120   3.059   8.392 -1.2113  0.5827 -1.7529
 2186SOL     OW18190   3.119   4.573   6.723 -0.1094  0.1271  0.0434
 2186SOL    HW118191   3.133   4.509   6.653  2.6187 -0.0112  0.7160
 2186SOL    HW218192   3.125   4.652   6.669 -0.1592  1.4044  1.9002
 2187SOL     OW18193   1.924   1.257   9.542  0.1533  0.1298  0.9158
 2187SOL    HW118194   2.007   1.210   9.550 -1.0928 -1.6548  3.3691
 2187SOL    HW218195   1.902   1.261   9.635  1.9181 -0.4949  1.3637
 2188SOL     OW18196   3.578   2.521   5.613 -0.1602 -0.7322  0.6581
 2188SOL    HW118197   3.662   2.564   5.598  0.4996 -2.2036  0.0710
 2188SOL    HW218198   3.518   2.581   5.570  2.8828  1.0649 -1.0310
 2189SOL     OW18199   2.977   0.692  16.095  0.3007 -0.9118 -0.6755
 2189SOL    HW118200   2.909   0.725  16.154  1.2297  1.7729 -1.0989
 2189SOL    HW218201   3.011   0.608  16.126 -1.3720 -1.4748 -0.4152
 2190SOL     OW18202   3.482   0.500   7.994 -0.0462  0.1364 -0.4909
 2190SOL    HW118203   3.485   0.594   8.012  0.8233 -0.6385  3.3016
 2190SOL    HW218204   3.459   0.516   7.902 -1.4650 -2.6958 -0.6338
 2191SOL     OW18205   3.947   4.090   9.955  0.3602 -0.2413  0.2695
 2191SOL    HW118206   3.865   4.138   9.948 -0.5670 -1.5932  1.9681
 2191SOL    HW218207   3.920   4.024  10.018 -0.9669 -1.6252 -1.7408
 2192SOL     OW18208   2.861   2.681   5.259 -0.2711 -0.0391 -0.0285
 2192SOL    HW118209   2.833   2.603   5.212 -2.1871  0.8309 -0.3295
 2192SOL    HW218210   2.794   2.744   5.231  2.7565  2.4797 -1.6452
 2193SOL     OW18211   0.578   1.837   7.969  0.1772  0.6291 -0.2644
 2193SOL    HW118212   0.572   1.862   8.061 -2.5220 -1.3519  0.1016
 2193SOL    HW218213   0.533   1.910   7.926  1.0768  1.6716  0.5599
 2194SOL     OW18214   3.228   0.604   6.409 -0.2429 -0.6300  0.8595
 2194SOL    HW118215   3.175   0.618   6.487 -1.3901 -2.4293  0.4017
 2194SOL    HW218216   3.284   0.682   6.411 -2.6608  1.1449 -0.8566
 2195SOL     OW18217   3.419   0.590   7.464 -0.0148 -0.3763  0.7751
 2195SOL    HW118218   3.403   0.652   7.393 -0.3281 -1.3019  0.0455
 2195SOL    HW218219   3.507   0.556   7.445 -0.4631 -0.8929 -0.3426
 2196SOL     OW18220   3.556   4.690   5.185 -0.0014 -0.4189  0.6296
 2196SOL    HW118221   3.569   4.673   5.278  0.2087 -0.8753  0.5167
 2196SOL    HW218222   3.500   4.618   5.156  2.3145 -1.6300 -0.8769
 2197SOL     OW18223   4.307   3.704   5.703 -0.3579 -0.2948 -0.3418
 2197SOL    HW118224   4.216   3.711   5.674  0.4075  1.2099 -2.4356
 2197SOL    HW218225   4.322   3.609   5.698 -2.1443 -0.5796 -0.1753
 2198SOL     OW18226   3.608   3.396   8.822  0.5007 -0.2428 -0.1155
 2198SOL    HW118227   3.591   3.306   8.795  0.3504 -0.1316 -0.3992
 2198SOL    HW218228   3.687   3.426   8.775  0.3561  2.0379  1.0813
 2199SOL     OW18229   3.943   1.171   6.569 -0.4112 -0.4407 -0.5855
 2199SOL    HW118230   3.999   1.200   6.641  0.5466 -0.7014 -1.2211
 2199SOL    HW218231   3.916   1.259   6.542 -1.5269 -0.6496 -0.1230
 2200SOL     OW18232   3.991   0.756   3.105  0.3371 -0.1273 -0.3524
 2200SOL    HW118233   3.924   0.697   3.140  0.7652  0.6113  1.7289
 2200SOL    HW218234   4.057   0.757   3.174 -1.8068 -0.4526  1.7317
 2201SOL     OW18235   0.570   1.815  15.775  0.1736 -0.0925 -0.4801
 2201SOL    HW118236   0.530   1.903  15.775 -1.5737 -0.8869 -0.6070
 2201SOL    HW218237   0.555   1.775  15.860 -1.3803  1.8552  0.1670
 2202SOL     OW18238   2.509   4.352   8.816  0.1161  0.0292  0.0897
 2202SOL    HW118239   2.431   4.346   8.870  0.6929 -2.7829  0.5808
 2202SOL    HW218240   2.552   4.279   8.860  2.3353  0.7487 -0.8455
 2203SOL     OW18241   3.585   4.360   9.692 -0.1838 -0.5493  0.3947
 2203SOL    HW118242   3.592   4.369   9.597  0.3056 -0.9533  0.3962
 2203SOL    HW218243   3.676   4.344   9.715  0.0311 -0.0888 -0.1319
 2204SOL     OW18244   1.598   4.529   4.577  0.1226  0.0639 -0.0378
 2204SOL    HW118245   1.653   4.605   4.597 -1.0418  0.9064 -0.0148
 2204SOL    HW218246   1.655   4.457   4.603 -0.8589 -0.3935  0.8515
 2205SOL     OW18247   0.294   4.224   6.841  0.0065 -0.9320 -0.2093
 2205SOL    HW118248   0.239   4.292   6.801 -0.1193 -0.0796  1.4031
 2205SOL    HW218249   0.245   4.145   6.820 -0.1176 -1.0437  0.4950
 2206SOL     OW18250   3.376   2.985   6.770 -0.4949  0.3870 -0.3163
 2206SOL    HW118251   3.335   2.986   6.857 -1.6137  0.3663 -0.8528
 2206SOL    HW218252   3.306   2.943   6.721 -0.6932  0.0535  0.2417
 2207SOL     OW18253   2.224   3.711   3.223  0.2897 -0.2335 -0.2307
 2207SOL    HW118254   2.142   3.730   3.270  0.6408 -0.1399  0.3455
 2207SOL    HW218255   2.241   3.635   3.279  1.1086 -0.5981 -0.9782
 2208SOL     OW18256   2.218   3.633   6.977  0.1439 -0.2555  0.8349
 2208SOL    HW118257   2.134   3.618   7.020  0.0122 -0.0151  0.6632
 2208SOL    HW218258   2.218   3.573   6.902 -1.4167  0.5039  0.2128
 2209SOL     OW18259   0.112   1.015   3.341  0.6007  0.0963 -0.0550
 2209SOL    HW118260   0.122   1.002   3.247 -2.0929 -1.4545 -0.1356
 2209SOL    HW218261   0.161   0.940   3.376  0.3407  0.6809  1.5948
 2210SOL     OW18262   3.418   0.508   7.725  0.0867  0.1409  0.0873
 2210SOL    HW118263   3.333   0.468   7.739  1.5874 -2.7345  1.0125
 2210SOL    HW218264   3.408   0.549   7.639  1.7238 -1.6353 -0.9591
 2211SOL     OW18265   3.880   0.313   5.644  0.3984  0.7354  0.2265
 2211SOL    HW118266   3.789   0.285   5.636  0.5701 -0.2020  1.5344
 2211SOL    HW218267   3.879   0.408   5.650  0.9220  0.7664 -0.1843
 2212SOL     OW18268   1.892   1.657   6.807  0.6208  0.2362  0.1828
 2212SOL    HW118269   1.924   1.588   6.866 -2.0064  0.1049  1.4741
 2212SOL    HW218270   1.803   1.623   6.797  0.1498  1.5214  0.1195
 2213SOL     OW18271   0.600   3.962   9.540  0.0773 -0.2912 -0.0496
 2213SOL    HW118272   0.546   3.987   9.466  1.4504 -0.4701 -1.1039
 2213SOL    HW218273   0.596   4.043   9.591  0.3256 -0.0811 -0.3686
 2214SOL     OW18274   2.699   0.905   9.238  0.4357 -0.3175  0.0899
 2214SOL    HW118275   2.624   0.884   9.183 -1.0663  4.5808  0.2014
 2214SOL    HW218276   2.689   1.000   9.247 -1.8022 -0.3262 -2.3521
 2215SOL     OW18277   4.246   1.938  10.398 -0.1156 -0.2713 -0.4799
 2215SOL    HW118278   4.160   1.969  10.370  0.8098 -0.9319 -4.0940
 2215SOL    HW218279   4.235   1.899  10.485  0.0889 -2.0524 -1.2528
 2216SOL     OW18280   4.343   3.995  15.905  0.4690  0.6287 -0.4934
 2216SOL    HW118281   4.262   3.945  15.907 -0.3840  1.9914 -1.3157
 2216SOL    HW218282   4.313   4.081  15.876  0.7823  1.1621  0.7502
 2217SOL     OW18283   2.800   0.548  11.755 -0.3202  0.5261  0.4733
 2217SOL    HW118284   2.762   0.635  11.738  1.2694  0.9043 -1.1231
 2217SOL    HW218285   2.794   0.545  11.850  0.6535  1.1138  0.5508
 2218SOL     OW18286   2.481   4.016   7.890  0.2014 -0.0101 -1.1259
 2218SOL    HW118287   2.505   4.019   7.982 -0.5333 -1.0010 -0.8970
 2218SOL    HW218288   2.398   4.064   7.896 -0.7627 -1.6726 -0.9942
 2219SOL     OW18289   3.971   3.888   3.605 -0.6043  0.2929 -0.2919
 2219SOL    HW118290   4.036   3.957   3.620  0.7226 -1.1068  0.4050
 2219SOL    HW218291   3.974   3.882   3.510 -1.5142  0.5925 -0.3393
 2220SOL     OW18292   2.959   3.719  14.581  0.2169 -0.2515  0.8016
 2220SOL    HW118293   3.019   3.763  14.641 -1.3022 -0.1593  2.2436
 2220SOL    HW218294   2.874   3.752  14.610  0.5856  0.9450  0.4898
 2221SOL     OW18295   3.926   0.761   0.185  0.6477 -0.4700 -0.0054
 2221SOL    HW118296   3.851   0.711   0.219  2.0374 -2.4362  0.1920
 2221SOL    HW218297   3.878   0.821   0.128  0.4757  1.6827  2.4387
 2222SOL     OW18298   1.120   3.983   0.506  0.3299 -0.6654  0.3149
 2222SOL    HW118299   1.104   4.072   0.478 -0.8104  0.2780  3.9091
 2222SOL    HW218300   1.035   3.939   0.503 -0.2970  0.6537 -0.9852
 2223SOL     OW18301   1.419   2.464   4.423 -0.1553  0.0356 -0.6989
 2223SOL    HW118302   1.413   2.527   4.351  0.9476 -0.1054 -0.9151
 2223SOL    HW218303   1.462   2.390   4.379  1.0542 -0.9751  2.1672
 2224SOL     OW18304   0.806   2.248  16.417  0.0979  0.0894  0.4920
 2224SOL    HW118305   0.776   2.333  16.450 -1.6498 -0.1146 -0.5665
 2224SOL    HW218306   0.872   2.220  16.481 -0.1643 -0.8570  0.3476
 2225SOL     OW18307   3.082   0.064   6.548 -0.4117 -0.4616  0.1972
 2225SOL    HW118308   3.131   0.139   6.583 -3.1832  1.1268  0.7575
 2225SOL    HW218309   3.027   0.100   6.479 -1.4189  1.1290  1.7954
 2226SOL     OW18310   4.366   3.078   8.829  0.0264 -0.3998  0.1538
 2226SOL    HW118311   4.350   3.033   8.746  1.4975 -0.2242 -0.2180
 2226SOL    HW218312   4.448   3.038   8.857 -0.0410 -1.1774 -0.7721
 2227SOL     OW18313   0.262   3.540   9.478  0.0258  0.2229  0.0545
 2227SOL    HW118314   0.203   3.565   9.407  0.3520 -0.4563 -0.4509
 2227SOL    HW218315   0.337   3.597   9.459  0.3663  0.2806  1.5515
 2228SOL     OW18316   0.962   2.686   6.755 -0.0404 -0.3747 -0.0993
 2228SOL    HW118317   0.989   2.698   6.664 -0.4863 -0.7110 -0.2706
 2228SOL    HW218318   0.977   2.772   6.795  2.8277  0.1773 -2.2989
 2229SOL     OW18319   4.092   3.424  11.200 -0.0762 -0.3737 -0.6906
 2229SOL    HW118320   4.169   3.460  11.245 -0.0364 -1.0108 -0.2357
 2229SOL    HW218321   4.055   3.369  11.270 -2.1788  1.8630 -0.0655
 2230SOL     OW18322   4.008   0.532   3.847 -0.0144  0.2746  0.1676
 2230SOL    HW118323   4.004   0.445   3.887 -0.0041  0.8857  1.4993
 2230SOL    HW218324   3.936   0.527   3.783  0.9426 -0.6713 -0.8279
 2231SOL     OW18325   3.082   2.974   8.085 -0.0214  0.5732 -0.3937
 2231SOL    HW118326   3.105   3.042   8.149  2.1877 -0.5996  0.0881
 2231SOL    HW218327   3.103   2.893   8.133 -4.0840  1.1953  2.4076
 2232SOL     OW18328   0.533   2.876  13.549  0.4030  0.4879 -0.3778
 2232SOL    HW118329   0.568   2.796  13.590  0.5185  0.3986 -0.6547
 2232SOL    HW218330   0.479   2.907  13.622 -1.7139 -2.5688 -0.6520
 2233SOL     OW18331   0.424   3.944  12.806 -0.5117  0.0320  0.1256
 2233SOL    HW118332   0.342   3.987  12.830 -1.5108 -1.2535 -0.9153
 2233SOL    HW218333   0.494   3.984  12.857 -2.2614  1.6997  1.1790
 2234SOL     OW18334   4.048   0.151   4.567 -0.2180  0.0943 -0.1366
 2234SOL    HW118335   4.131   0.126   4.526 -0.5545 -0.2230 -0.6244
 2234SOL    HW218336   4.029   0.072   4.618  1.2057 -0.0006  0.2378
 2235SOL     OW18337   3.168   3.446   4.370 -0.8865  0.3024 -0.3235
 2235SOL    HW118338   3.172   3.532   4.412  1.3544  0.4636 -0.8474
 2235SOL    HW218339   3.114   3.480   4.299 -2.2018 -1.9685 -0.4015
 2236SOL     OW18340   1.315   0.106   2.723  0.0365 -0.0794 -0.4243
 2236SOL    HW118341   1.298   0.097   2.630  3.5303  0.6121 -1.1352
 2236SOL    HW218342   1.223   0.107   2.749  0.0828 -1.9669 -0.2074
 2237SOL     OW18343   2.218   3.920   1.075  0.0136 -0.2164  0.3918
 2237SOL    HW118344   2.299   3.873   1.094  1.2758  0.6266 -3.0017
 2237SOL    HW218345   2.212   3.958   1.163  1.7796  1.5338 -0.2564
 2238SOL     OW18346   1.466   4.150   3.961 -0.0873 -0.0855 -0.6874
 2238SOL    HW118347   1.535   4.217   3.961 -0.7444  0.6154  1.3434
 2238SOL    HW218348   1.480   4.102   3.880 -1.4078 -0.4569 -0.6870
 2239SOL     OW18349   2.470   1.605   5.539  0.3461 -0.0310 -0.2606
 2239SOL    HW118350   2.389   1.621   5.492  0.5260  1.5937 -0.0215
 2239SOL    HW218351   2.539   1.606   5.473 -0.3375 -2.6696 -1.0224
 2240SOL     OW18352   1.289   3.088   2.929  0.3725  0.0821  0.1997
 2240SOL    HW118353   1.335   3.114   3.009  1.7724  1.6525 -1.0848
 2240SOL    HW218354   1.199   3.107   2.953  0.7129 -1.4123  2.5740
 2241SOL     OW18355   1.587   0.787   8.200  0.2303  0.0350  0.0847
 2241SOL    HW118356   1.629   0.717   8.151 -0.6865 -0.4034 -0.0878
 2241SOL    HW218357   1.507   0.806   8.150  1.1909  0.8093 -1.1590
 2242SOL     OW18358   3.045   4.485   1.244  0.5825 -0.3008 -0.4004
 2242SOL    HW118359   3.076   4.477   1.154 -1.2408 -1.2139 -0.9533
 2242SOL    HW218360   3.127   4.460   1.287  0.6714  0.0898 -0.3360
 2243SOL     OW18361   0.558   3.185   5.891  0.5434  0.5226  0.6113
 2243SOL    HW118362   0.474   3.198   5.846 -0.1722 -2.1397  1.2208
 2243SOL    HW218363   0.588   3.103   5.851  0.1525  0.9687 -0.6186
 2244SOL     OW18364   2.875   0.727   0.169 -0.6213 -0.4487  0.1868
 2244SOL    HW118365   2.933   0.793   0.208 -0.8817  0.2419 -0.6002
 2244SOL    HW218366   2.868   0.769   0.084  1.7371 -1.2363 -0.4121
 2245SOL     OW18367   1.943   4.686  10.581  0.2030  0.4577  0.1039
 2245SOL    HW118368   1.984   4.655  10.662 -2.7459 -0.0712  1.4101
 2245SOL    HW218369   1.915   0.037  10.608  1.0107  0.5807  0.5443
 2246SOL     OW18370   1.215   4.014   4.769  0.1706 -0.1910 -0.6714
 2246SOL    HW118371   1.293   3.967   4.738  1.2128  1.6503 -0.8927
 2246SOL    HW218372   1.214   3.990   4.862  0.4596  1.9604 -0.0996
 2247SOL     OW18373   3.224   4.724   5.166  0.5159 -0.0935 -0.5636
 2247SOL    HW118374   3.262   4.643   5.200  3.3089  0.8135 -1.4561
 2247SOL    HW218375   3.298   0.042   5.136  0.0272  0.7932 -0.1774
 2248SOL     OW18376   3.851   3.916   6.586  0.6697  0.6345 -0.4536
 2248SOL    HW118377   3.936   3.950   6.558  0.3804  1.4040 -0.3987
 2248SOL    HW218378   3.839   3.960   6.670 -0.3236 -0.1738 -0.1632
 2249SOL     OW18379   3.736   2.556   2.889 -0.4710 -1.0335 -0.3759
 2249SOL    HW118380   3.766   2.518   2.971  1.4303 -0.1780 -0.6785
 2249SOL    HW218381   3.812   2.560   2.831  0.6663 -0.5348  1.1679
 2250SOL     OW18382   3.518   0.002  15.021  0.4342  1.0601 -0.3167
 2250SOL    HW118383   3.468   4.704  14.946 -0.7233  0.8796  0.5266
 2250SOL    HW218384   3.599   0.018  14.974 -0.5757 -0.3511 -2.5483
 2251SOL     OW18385   3.305   0.412  15.691 -0.0531 -0.5774 -0.5210
 2251SOL    HW118386   3.311   0.317  15.706  1.5553 -0.0936  1.9087
 2251SOL    HW218387   3.397   0.441  15.691 -0.2464  0.0385  1.3517
 2252SOL     OW18388   1.280   0.172   2.451 -0.2504  0.0957 -0.4540
 2252SOL    HW118389   1.324   0.182   2.367 -1.7463  2.1864 -0.9782
 2252SOL    HW218390   1.271   0.261   2.484  1.1954  0.2769 -0.5660
 2253SOL     OW18391   1.591   4.700   1.087  0.1605  0.2642 -0.2455
 2253SOL    HW118392   1.585   4.604   1.088 -0.9749  0.3052 -2.3786
 2253SOL    HW218393   1.600   4.717   0.993 -2.4522 -2.7451 -1.0294
 2254SOL     OW18394   2.641   0.759   4.578 -0.9191  0.0560  0.7705
 2254SOL    HW118395   2.638   0.753   4.483 -0.9923  0.3504  0.7529
 2254SOL    HW218396   2.665   0.851   4.593 -0.6609 -0.0540  1.0420
 2255SOL     OW18397   4.483   2.730  12.412  0.0464  0.3319  0.2488
 2255SOL    HW118398   4.426   2.657  12.439 -0.0099  1.2202  2.5331
 2255SOL    HW218399   4.428   2.802  12.443  0.1648 -0.0517  1.3729
 2256SOL     OW18400   0.647   1.602  12.949 -0.2179 -0.0833  0.4423
 2256SOL    HW118401   0.566   1.585  12.996 -0.7287  0.2447 -0.3025
 2256SOL    HW218402   0.607   1.645  12.873  0.9159  0.9135  0.4161
 2257SOL     OW18403   3.250   4.023  11.223 -0.1279 -0.1739  0.1731
 2257SOL    HW118404   3.241   4.091  11.156 -0.2098 -0.1175  0.2407
 2257SOL    HW218405   3.210   4.070  11.296 -0.5590 -0.7778  0.3236
 2258SOL     OW18406   0.667   3.388   5.584 -0.5846 -0.4215 -1.0186
 2258SOL    HW118407   0.727   3.314   5.584  0.3463  0.3367  0.1109
 2258SOL    HW218408   0.657   3.398   5.489  0.7615 -1.2255 -1.2373
 2259SOL     OW18409   4.177   1.345   7.353 -0.3589 -0.2541 -0.0404
 2259SOL    HW118410   4.255   1.289   7.356 -0.5912 -0.7032 -2.2071
 2259SOL    HW218411   4.128   1.308   7.426 -1.4212 -2.9726 -2.0977
 2260SOL     OW18412   0.143   1.939  15.088  0.0557 -0.1230 -0.7255
 2260SOL    HW118413   0.063   1.890  15.068  0.5842 -2.0077  1.7467
 2260SOL    HW218414   0.155   1.927  15.182 -0.2489 -0.2542 -0.7025
 2261SOL     OW18415   3.487   0.131   6.395 -0.6026 -0.2570 -0.4647
 2261SOL    HW118416   3.503   0.094   6.307 -1.4616 -0.7387 -0.4149
 2261SOL    HW218417   3.444   0.212   6.367 -1.7118 -1.1961 -1.4978
 2262SOL     OW18418   3.647   3.381  16.738  0.2946 -0.3710  0.2408
 2262SOL    HW118419   3.738   3.392  16.764  0.6276  2.1799 -1.9461
 2262SOL    HW218420   3.643   3.459  16.682 -0.2043 -1.1169 -0.7755
 2263SOL     OW18421   3.124   1.344   8.534  0.5135  0.7542 -0.4097
 2263SOL    HW118422   3.131   1.260   8.489  1.8948  0.4486  0.3892
 2263SOL    HW218423   3.029   1.349   8.548  0.6442  0.2443  0.6637
 2264SOL     OW18424   0.137   1.701   7.953  0.2371 -0.2656 -0.2473
 2264SOL    HW118425   0.135   1.678   8.045  1.1743  3.4614  0.7192
 2264SOL    HW218426   0.045   1.692   7.929  0.6102  0.3321 -1.9605
 2265SOL     OW18427   1.404   3.946   6.228  0.0690  0.6221  0.1446
 2265SOL    HW118428   1.406   3.988   6.142 -0.7436 -0.4510 -0.4016
 2265SOL    HW218429   1.331   3.984   6.276  0.9975 -0.2002  2.2298
 2266SOL     OW18430   1.440   3.313   5.175 -0.3264  0.6859  0.3010
 2266SOL    HW118431   1.419   3.314   5.269 -1.8438 -0.4896 -0.0157
 2266SOL    HW218432   1.500   3.386   5.164 -3.4985  3.2112 -0.3326
 2267SOL     OW18433   0.054   4.256   4.042 -0.1439 -0.0863  0.2241
 2267SOL    HW118434   4.725   4.325   4.046 -2.2273 -2.0742  0.6573
 2267SOL    HW218435   0.116   4.274   4.113 -0.8145 -0.6331  0.9502
 2268SOL     OW18436   3.396   0.805   6.322  0.0383 -0.1261  0.0400
 2268SOL    HW118437   3.477   0.755   6.309 -0.8384 -1.3775 -0.5727
 2268SOL    HW218438   3.436   0.862   6.388  0.9525 -0.2353 -0.4165
 2269SOL     OW18439   3.716   4.211   5.849 -0.7039  0.5037 -0.2323
 2269SOL    HW118440   3.634   4.164   5.837  1.7775 -2.9485 -3.5881
 2269SOL    HW218441   3.690   4.270   5.920 -1.7756 -2.1924  1.5887
 2270SOL     OW18442   2.618   0.509   8.924 -0.5856 -0.4953  0.4957
 2270SOL    HW118443   2.610   0.473   8.836  1.3185 -1.2463  0.6243
 2270SOL    HW218444   2.620   0.427   8.975 -1.1105  0.3827  1.9353
 2271SOL     OW18445   0.962   2.747   4.478 -0.4584 -0.0056 -0.7068
 2271SOL    HW118446   1.017   2.695   4.420 -1.4756 -0.1099 -1.5840
 2271SOL    HW218447   1.017   2.826   4.485  0.3492 -0.5941 -0.4261
 2272SOL     OW18448   0.895   3.811   3.370  0.0850 -0.0986  0.4678
 2272SOL    HW118449   0.958   3.746   3.398  1.1679  0.7869  0.0909
 2272SOL    HW218450   0.862   3.774   3.287 -2.5162  1.8814  0.6090
 2273SOL     OW18451   3.194   4.395  15.504 -0.5271 -0.0050 -0.0548
 2273SOL    HW118452   3.122   4.424  15.448 -0.2923 -0.7119 -0.7239
 2273SOL    HW218453   3.172   4.302  15.510  0.0857 -0.1475  0.0145
 2274SOL     OW18454   3.065   3.903   3.500 -0.6481 -0.0648 -0.0930
 2274SOL    HW118455   3.069   3.882   3.407  1.6946 -0.7113  0.1718
 2274SOL    HW218456   3.148   3.944   3.523 -0.9123 -0.3870  1.4545
 2275SOL     OW18457   2.944   2.362   3.875 -0.3564 -0.1994  0.7882
 2275SOL    HW118458   3.015   2.301   3.854  0.7295  1.2738  0.2726
 2275SOL    HW218459   2.994   2.430   3.920 -0.6236 -0.9603  2.2548
 2276SOL     OW18460   1.748   2.170  15.278  0.4384 -0.5490 -0.1356
 2276SOL    HW118461   1.768   2.260  15.302 -0.0973 -0.2691 -0.7399
 2276SOL    HW218462   1.831   2.143  15.239  0.0529 -0.2773 -1.1599
 2277SOL     OW18463   3.825   4.175  15.995  0.4810  0.3239  0.5571
 2277SOL    HW118464   3.845   4.265  15.968  1.4978  0.0687  0.4884
 2277SOL    HW218465   3.912   4.151  16.024  0.1051 -1.2915  0.3552
 2278SOL     OW18466   4.453   1.797  10.017  0.2009  0.2491 -0.0469
 2278SOL    HW118467   4.434   1.721   9.962 -0.6847  2.5359 -2.9563
 2278SOL    HW218468   4.501   1.740  10.077  1.6148  2.3409  0.7935
 2279SOL     OW18469   3.793   1.525   7.931  0.2921 -0.2538 -0.4153
 2279SOL    HW118470   3.807   1.430   7.930 -2.6874 -0.7359  1.4451
 2279SOL    HW218471   3.831   1.561   8.012 -2.0901  0.6948  0.2921
 2280SOL     OW18472   2.363   1.756   6.799  0.7896 -0.1283 -0.2449
 2280SOL    HW118473   2.359   1.851   6.807 -0.3979 -0.1713 -0.3930
 2280SOL    HW218474   2.319   1.744   6.714 -0.2475  0.6854  0.1730
 2281SOL     OW18475   1.107   0.763   9.326 -0.1483 -0.1819  0.5003
 2281SOL    HW118476   1.156   0.820   9.266  1.0546 -0.2982  1.3698
 2281SOL    HW218477   1.078   0.819   9.398  1.5216 -0.1900  1.1805
 2282SOL     OW18478   0.560   0.131   3.694 -0.1304 -0.2697 -0.2088
 2282SOL    HW118479   0.632   0.068   3.703  1.3242  1.4569  0.2656
 2282SOL    HW218480   0.499   0.083   3.750 -0.3253  0.8976  0.5594
 2283SOL     OW18481   2.857   0.939  12.990  0.1698 -0.2156 -0.1816
 2283SOL    HW118482   2.885   0.849  13.003 -1.0436 -0.5999 -0.2358
 2283SOL    HW218483   2.823   0.948  13.079  2.8876  0.2584  0.8235
 2284SOL     OW18484   3.758   3.935   9.407 -0.7525 -0.3887  0.1253
 2284SOL    HW118485   3.809   3.899   9.479  0.0228 -0.7048 -0.5803
 2284SOL    HW218486   3.791   4.024   9.421 -1.8290 -0.6896  4.3791
 2285SOL     OW18487   0.080   2.916   5.131 -0.0131  0.0231 -0.1000
 2285SOL    HW118488   4.721   2.917   5.122  0.2003 -0.2340 -2.4147
 2285SOL    HW218489   0.105   2.842   5.076  2.4476  0.9614 -0.2710
 2286SOL     OW18490   1.174   0.782   3.771 -0.5871  0.4459 -0.1317
 2286SOL    HW118491   1.146   0.764   3.860 -1.2630  1.1165 -0.2030
 2286SOL    HW218492   1.261   0.748   3.752 -0.1307  1.2725  0.4871
 2287SOL     OW18493   3.903   2.135   6.211  0.2051  0.4151 -0.2844
 2287SOL    HW118494   3.889   2.144   6.305  2.7941 -0.1350  0.1704
 2287SOL    HW218495   3.938   2.221   6.188  0.1612  0.6185  0.4120
 2288SOL     OW18496   4.307   2.978  13.370 -0.1900  0.3937  0.2238
 2288SOL    HW118497   4.259   3.060  13.385 -0.0641  0.8513 -1.9178
 2288SOL    HW218498   4.255   2.918  13.423  1.4532 -1.5310 -0.3391
 2289SOL     OW18499   3.781   1.307   0.309 -0.2735  0.0934  0.2803
 2289SOL    HW118500   3.795   1.212   0.307  0.3200  0.2134 -1.1218
 2289SOL    HW218501   3.749   1.330   0.396 -2.6800 -1.2905 -0.2628
 2290SOL     OW18502   0.571   0.553   7.012  0.3580 -0.2554 -0.7009
 2290SOL    HW118503   0.511   0.531   7.083  0.7070  1.2762  0.0671
 2290SOL    HW218504   0.652   0.524   7.053 -0.5124 -1.6984  0.0020
 2291SOL     OW18505   2.295   2.865   6.790 -0.1418 -0.4574 -0.2047
 2291SOL    HW118506   2.279   2.845   6.698  2.4589 -0.6185 -0.6218
 2291SOL    HW218507   2.209   2.894   6.822  0.1151  0.1752 -0.0955
 2292SOL     OW18508   2.229   1.574   7.746 -0.1248  0.6836 -0.1357
 2292SOL    HW118509   2.265   1.633   7.680  0.2384 -0.8155 -1.2621
 2292SOL    HW218510   2.135   1.595   7.746 -1.0503 -3.4914 -0.8878
 2293SOL     OW18511   2.158   2.405   9.506 -0.6081 -0.5390 -0.0170
 2293SOL    HW118512   2.193   2.331   9.555 -0.3947 -0.7065 -0.4165
 2293SOL    HW218513   2.108   2.370   9.432  1.8272 -2.2657 -0.8404
 2294SOL     OW18514   1.253   4.473  14.509 -0.2797 -0.0651  0.4721
 2294SOL    HW118515   1.248   4.421  14.589  1.4867 -0.7814  0.1209
 2294SOL    HW218516   1.205   4.552  14.533 -0.1706 -0.0598  0.6687
 2295SOL     OW18517   0.400   0.420   3.889  0.3485  0.0747  0.6583
 2295SOL    HW118518   0.422   0.479   3.961 -0.4205  1.6311 -0.3761
 2295SOL    HW218519   0.306   0.438   3.880  0.4467  0.1072 -0.3548
 2296SOL     OW18520   2.584   1.299   6.191  0.9562  0.2941 -0.4897
 2296SOL    HW118521   2.567   1.213   6.153  2.2401 -1.8335  3.7574
 2296SOL    HW218522   2.498   1.332   6.219  1.2720  1.0004 -0.3388
 2297SOL     OW18523   0.600   3.220   4.714  0.4274  0.0809  0.2902
 2297SOL    HW118524   0.533   3.238   4.780 -0.2429 -2.0627  0.2171
 2297SOL    HW218525   0.535   3.194   4.648  0.2225  0.1602  0.4624
 2298SOL     OW18526   1.211   2.997   7.567 -0.0418 -0.1538  0.1560
 2298SOL    HW118527   1.290   2.950   7.541 -0.3409 -2.1847  2.9450
 2298SOL    HW218528   1.163   2.934   7.621  0.6647 -0.4004  0.4995
 2299SOL     OW18529   2.097   2.964  15.644  0.0623  0.5084  0.0566
 2299SOL    HW118530   2.046   3.014  15.580 -3.9411 -0.2644  2.6358
 2299SOL    HW218531   2.031   2.936  15.708 -0.4600 -1.6514 -1.4197
 2300SOL     OW18532   3.971   3.086   5.435 -0.9198 -0.8321 -0.3750
 2300SOL    HW118533   4.030   3.019   5.470  1.2054  1.4377  0.4231
 2300SOL    HW218534   3.889   3.039   5.452  0.0668 -1.7767  1.7378
 2301SOL     OW18535   3.669   4.144  14.788  0.2599  0.1212 -0.3323
 2301SOL    HW118536   3.652   4.232  14.821 -0.3500 -1.0466  2.4848
 2301SOL    HW218537   3.693   4.152  14.696  0.2174  0.5760 -0.3042
 2302SOL     OW18538   0.568   1.127   7.028  0.2464 -0.0979  0.7612
 2302SOL    HW118539   0.502   1.106   6.962 -0.2039 -1.4601  1.6478
 2302SOL    HW218540   0.520   1.112   7.109 -0.1161 -1.1684  0.3428
 2303SOL     OW18541   0.013   4.674   5.273 -0.4492 -0.2416  0.2551
 2303SOL    HW118542   4.728   4.703   5.185  0.0030  1.2219  0.6295
 2303SOL    HW218543   4.710   4.588   5.264  0.6702 -0.5832 -1.2360
 2304SOL     OW18544   0.657   3.820   5.312 -0.5910  0.1046 -0.4888
 2304SOL    HW118545   0.609   3.741   5.285  0.2742 -0.1744 -1.2040
 2304SOL    HW218546   0.588   3.878   5.344 -0.1116 -0.3505  1.3398
 2305SOL     OW18547   2.826   3.227   6.835 -0.6182  0.4419  0.2587
 2305SOL    HW118548   2.813   3.311   6.791 -1.7000 -0.2217 -0.6577
 2305SOL    HW218549   2.743   3.181   6.840 -0.2735 -0.3570 -1.4842
 2306SOL     OW18550   3.609   2.448   9.728  0.6784  0.6339  0.5777
 2306SOL    HW118551   3.669   2.469   9.656 -0.6432 -1.0267 -0.9956
 2306SOL    HW218552   3.575   2.537   9.741  0.6977  0.7878 -0.4213
 2307SOL     OW18553   0.138   2.022   7.077  0.0738 -0.0409 -0.7002
 2307SOL    HW118554   0.070   2.066   7.128 -1.3248 -1.4473 -1.3536
 2307SOL    HW218555   0.153   1.948   7.136  1.5175  1.1112  0.3562
 2308SOL     OW18556   2.866   1.623   3.568 -0.2763 -0.0902  0.1634
 2308SOL    HW118557   2.876   1.607   3.474 -0.7219  1.4410 -0.1490
 2308SOL    HW218558   2.817   1.705   3.563 -0.3274 -0.2185 -1.3844
 2309SOL     OW18559   3.961   3.725   4.897 -0.7073  0.1569  0.4292
 2309SOL    HW118560   4.020   3.734   4.972 -0.4990 -0.5097  0.3430
 2309SOL    HW218561   3.877   3.752   4.934 -0.7144  1.3576 -0.4320
 2310SOL     OW18562   1.863   3.292   3.276  0.5141 -0.1156  0.3990
 2310SOL    HW118563   1.880   3.219   3.217 -0.7646  0.5101 -0.7474
 2310SOL    HW218564   1.788   3.335   3.236 -0.8550 -2.6810  0.1998
 2311SOL     OW18565   0.204   4.632   4.588 -0.7826 -0.2550 -0.0331
 2311SOL    HW118566   0.165   4.552   4.552 -0.4092 -0.8879  0.9769
 2311SOL    HW218567   0.255   4.592   4.658 -0.4064 -1.4944 -1.0041
 2312SOL     OW18568   2.330   2.489   3.461 -0.2678  0.1621  0.2132
 2312SOL    HW118569   2.338   2.398   3.431  0.4660  0.6333 -1.0220
 2312SOL    HW218570   2.386   2.493   3.538 -1.5569  0.3903  1.1261
 2313SOL     OW18571   0.213   0.080   5.407  0.1480 -1.1386 -0.2601
 2313SOL    HW118572   0.233   0.005   5.463  2.0387 -1.1222 -0.9449
 2313SOL    HW218573   0.131   0.056   5.364 -1.2758  1.7684  0.7702
 2314SOL     OW18574   2.039   2.699  15.898 -0.3079  0.2168 -0.1860
 2314SOL    HW118575   2.001   2.764  15.957 -0.3457  0.7658 -0.8107
 2314SOL    HW218576   2.124   2.741  15.905 -0.5578  1.0947 -2.2855
 2315SOL     OW18577   1.528   2.534   4.679 -0.4390  0.4387 -0.1438
 2315SOL    HW118578   1.536   2.491   4.594  0.4817  0.5268 -0.0994
 2315SOL    HW218579   1.521   2.625   4.649  1.6017  0.9153  0.8612
 2316SOL     OW18580   2.320   4.597   7.545  0.1492  0.0797 -0.2865
 2316SOL    HW118581   2.248   4.610   7.607 -1.4101 -0.8405 -1.9067
 2316SOL    HW218582   2.280   4.645   7.472 -0.5500 -1.8285 -1.1610
 2317SOL     OW18583   0.309   1.836   8.733  0.5708  0.0762 -0.4611
 2317SOL    HW118584   0.262   1.917   8.755 -0.1181 -0.1609 -1.0556
 2317SOL    HW218585   0.286   1.840   8.640 -0.8820 -0.8649 -0.1593
 2318SOL     OW18586   0.680   2.894   1.251 -0.5730 -0.0597 -0.5078
 2318SOL    HW118587   0.619   2.951   1.205 -1.3482 -0.8831 -0.4957
 2318SOL    HW218588   0.648   2.886   1.341  1.6345 -1.3187  0.1867
 2319SOL     OW18589   2.850   4.134  10.634 -0.3241  0.1996  1.0670
 2319SOL    HW118590   2.793   4.145  10.710 -0.6589  1.5898  0.6214
 2319SOL    HW218591   2.914   4.203  10.653 -0.2527 -0.0457  1.6956
 2320SOL     OW18592   2.116   3.590   5.570  0.4297  0.2639  0.0813
 2320SOL    HW118593   2.126   3.525   5.640  1.0372  0.8972  0.5832
 2320SOL    HW218594   2.195   3.642   5.583  1.3213 -0.5030 -2.2100
 2321SOL     OW18595   1.041   4.048   6.567  0.1544  0.4127  0.1948
 2321SOL    HW118596   1.074   3.996   6.640 -2.2804 -1.3123  0.0672
 2321SOL    HW218597   0.989   4.104   6.624 -0.1843 -1.1812  1.4369
 2322SOL     OW18598   2.239   3.062   5.483  0.4537 -0.0531 -0.1043
 2322SOL    HW118599   2.242   2.966   5.477  1.0365 -0.0663  0.3818
 2322SOL    HW218600   2.232   3.085   5.575  2.7240 -0.3177  0.1308
 2323SOL     OW18601   3.657   2.861   3.502 -0.1097  0.0285 -0.7612
 2323SOL    HW118602   3.746   2.830   3.483 -0.4346 -0.9677 -0.6655
 2323SOL    HW218603   3.615   2.847   3.417 -0.5387 -1.5495 -0.2952
 2324SOL     OW18604   1.968   1.810   4.998  0.4493  0.3428  0.4191
 2324SOL    HW118605   1.909   1.734   4.996  0.6038  0.2458 -0.8112
 2324SOL    HW218606   1.953   1.846   4.910 -2.4380  1.7861  1.4961
 2325SOL     OW18607   2.130   2.178   6.923 -0.1972  0.2168  0.1144
 2325SOL    HW118608   2.041   2.154   6.951 -0.6327 -1.7302 -2.9816
 2325SOL    HW218609   2.176   2.099   6.951  2.0985  2.0857  1.5129
 2326SOL     OW18610   4.157   1.243   4.220  0.0332  0.3249  0.0840
 2326SOL    HW118611   4.112   1.276   4.142  0.6346  0.1539 -0.3380
 2326SOL    HW218612   4.099   1.178   4.260 -0.4762  0.4030 -0.5211
 2327SOL     OW18613   0.925   4.456   3.447 -0.3097  0.0945 -0.0324
 2327SOL    HW118614   0.830   4.462   3.450 -0.2128  1.1379  1.0394
 2327SOL    HW218615   0.944   4.362   3.444 -0.9579 -0.0014 -1.1211
 2328SOL     OW18616   1.520   0.480   7.992 -0.3257  0.2822 -0.5288
 2328SOL    HW118617   1.592   0.540   8.013  0.3140 -0.2828 -1.0530
 2328SOL    HW218618   1.523   0.417   8.064 -4.0635  2.3012  1.3216
 2329SOL     OW18619   3.600   2.821   7.088  0.1643 -0.1431  0.2649
 2329SOL    HW118620   3.689   2.844   7.112  0.3138  0.2997 -0.7295
 2329SOL    HW218621   3.606   2.830   6.993 -2.2006 -1.5066 -0.0259
 2330SOL     OW18622   2.809   3.343   9.238  0.0409  0.0401 -0.0837
 2330SOL    HW118623   2.905   3.348   9.238  0.0529 -0.1391  1.0795
 2330SOL    HW218624   2.785   3.285   9.167  0.1838  0.4434 -0.4609
 2331SOL     OW18625   4.408   3.957   4.900 -0.0507 -0.1078  0.0802
 2331SOL    HW118626   4.414   3.919   4.988  0.8926  0.5624  0.3142
 2331SOL    HW218627   4.424   3.878   4.848 -2.6651 -2.1699  2.4183
 2332SOL     OW18628   4.000   1.330   4.942  0.2027  0.8038  0.3182
 2332SOL    HW118629   4.024   1.423   4.939  1.2818  0.4446 -2.9583
 2332SOL    HW218630   3.905   1.335   4.945  0.3501  2.5220  1.8862
 2333SOL     OW18631   1.563   0.590   7.179 -0.8030 -0.1295  0.3192
 2333SOL    HW118632   1.644   0.618   7.137 -0.9967  1.8955  1.3225
 2333SOL    HW218633   1.542   0.668   7.229 -0.6734 -0.9433  1.6511
 2334SOL     OW18634   2.388   1.703   8.434 -0.0767 -0.0493  0.6531
 2334SOL    HW118635   2.445   1.780   8.433  2.5723 -2.0291  0.4918
 2334SOL    HW218636   2.315   1.735   8.381 -1.0489 -0.0048  2.0206
 2335SOL     OW18637   3.591   1.682   5.052  0.0648  0.1432 -0.3786
 2335SOL    HW118638   3.606   1.776   5.042 -2.7910  0.6768  0.3014
 2335SOL    HW218639   3.546   1.668   4.968  0.0547  1.0417 -0.5175
 2336SOL     OW18640   4.561   4.090   1.879 -0.3268 -0.4159 -0.2875
 2336SOL    HW118641   4.531   4.176   1.850  0.6159  0.3072  0.8838
 2336SOL    HW218642   4.559   4.032   1.803 -1.2843 -1.6301  0.6789
 2337SOL     OW18643   3.189   0.933   2.447  0.1330 -0.2591 -0.4743
 2337SOL    HW118644   3.173   0.853   2.396  1.1541 -1.7360  1.5646
 2337SOL    HW218645   3.247   0.977   2.385  1.7006 -0.5386  0.8106
 2338SOL     OW18646   3.468   2.881   5.108  0.7031  0.1828 -0.4671
 2338SOL    HW118647   3.523   2.811   5.072  0.5561 -0.6182  0.8674
 2338SOL    HW218648   3.387   2.841   5.075  0.1009  2.2872 -1.5578
 2339SOL     OW18649   0.810   4.473   1.288  0.1169 -0.2042  0.1908
 2339SOL    HW118650   0.893   4.430   1.308  0.0141 -0.3869  0.2236
 2339SOL    HW218651   0.850   4.552   1.250  1.4603  0.1773  2.3895
 2340SOL     OW18652   3.054   3.310  13.000 -0.1208  0.2286  0.0132
 2340SOL    HW118653   2.999   3.388  12.996  2.7283  2.2630  0.1820
 2340SOL    HW218654   3.084   3.304  13.090  0.3640 -2.4532 -0.3404
 2341SOL     OW18655   2.625   1.967   4.008 -0.1646 -0.5718  0.2599
 2341SOL    HW118656   2.624   2.063   4.014  2.3883 -0.4627 -1.2265
 2341SOL    HW218657   2.640   1.943   4.099  0.0607 -0.6792  0.1951
 2342SOL     OW18658   3.925   1.852  14.771  0.2570 -0.4429  0.2335
 2342SOL    HW118659   3.922   1.813  14.684  2.7088 -2.5648  1.0713
 2342SOL    HW218660   4.006   1.902  14.785 -0.1058  0.9236 -2.7049
 2343SOL     OW18661   2.482   0.014   3.145 -0.3782 -0.3273  0.1752
 2343SOL    HW118662   2.414   0.072   3.110 -1.8813 -1.5466  1.0701
 2343SOL    HW218663   2.559   0.055   3.107  0.9097  0.3975  3.6001
 2344SOL     OW18664   4.611   3.791   3.529  0.0536 -0.1421 -0.0921
 2344SOL    HW118665   4.516   3.787   3.520  0.0538 -0.2754 -0.0316
 2344SOL    HW218666   4.614   3.879   3.491  2.2620 -0.2018 -0.0603
 2345SOL     OW18667   1.803   3.076   7.010  0.0149 -0.4632 -0.4077
 2345SOL    HW118668   1.799   2.981   7.009  0.5909 -0.4696 -1.3979
 2345SOL    HW218669   1.747   3.091   7.086  1.6006  2.3244  0.2141
 2346SOL     OW18670   2.654   3.072  15.176  0.1509  0.6473 -0.0734
 2346SOL    HW118671   2.715   3.124  15.123  0.7679  0.9043  0.8836
 2346SOL    HW218672   2.577   3.129  15.166  0.5839  0.9804 -1.5727
 2347SOL     OW18673   3.568   1.082   2.948 -0.1463 -0.6354  0.4720
 2347SOL    HW118674   3.548   1.114   3.036  0.3770  0.7954  0.0734
 2347SOL    HW218675   3.509   1.137   2.896  0.0034  0.2504  1.2434
 2348SOL     OW18676   0.357   0.396   9.122  0.1825  0.3896  0.6320
 2348SOL    HW118677   0.286   0.349   9.166  0.3523 -0.5703 -0.1071
 2348SOL    HW218678   0.321   0.419   9.037 -0.6100  0.3934  0.9691
 2349SOL     OW18679   3.454   1.600   3.164  0.0669 -0.0118  0.2854
 2349SOL    HW118680   3.403   1.528   3.128  1.1280 -0.3413 -0.5652
 2349SOL    HW218681   3.538   1.595   3.119  0.7162 -2.3372  1.7714
 2350SOL     OW18682   3.907   1.040   5.838  0.3723 -0.3632 -0.7267
 2350SOL    HW118683   3.829   1.048   5.784 -0.5091 -0.0791  0.6026
 2350SOL    HW218684   3.933   1.132   5.840  1.1147 -0.5746 -0.6978
 2351SOL     OW18685   0.579   2.687   1.595 -0.6737  0.3508  0.9691
 2351SOL    HW118686   0.634   2.764   1.585 -0.6219 -0.0522 -1.8159
 2351SOL    HW218687   0.506   2.721   1.648  0.3641 -0.1020  2.6839
 2352SOL     OW18688   4.234   2.349   4.239  0.5154  0.2621 -0.5313
 2352SOL    HW118689   4.187   2.393   4.310  0.0728  0.5283 -0.9884
 2352SOL    HW218690   4.221   2.413   4.168 -0.1708 -0.2566 -0.8683
 2353SOL     OW18691   2.986   1.568   9.927  0.2939  0.0556 -0.2001
 2353SOL    HW118692   3.051   1.559   9.998 -0.0619 -1.5039 -0.0763
 2353SOL    HW218693   2.921   1.618   9.976 -1.2618  0.9492 -3.1955
 2354SOL     OW18694   2.113   0.676  14.704 -0.5684  0.0513  0.6420
 2354SOL    HW118695   2.125   0.613  14.633 -1.5558  1.5517 -0.8705
 2354SOL    HW218696   2.162   0.639  14.776 -1.7296 -1.8488  0.4682
 2355SOL     OW18697   1.317   3.872   6.913  0.2139  0.4054  0.0136
 2355SOL    HW118698   1.337   3.958   6.878 -2.5192  0.3708 -1.6594
 2355SOL    HW218699   1.376   3.864   6.988 -0.9623  1.7730  1.0578
 2356SOL     OW18700   0.824   2.334   4.171 -0.2193  0.5338  0.3357
 2356SOL    HW118701   0.770   2.271   4.123 -0.5571 -0.1315  1.5813
 2356SOL    HW218702   0.804   2.410   4.117 -1.9737  0.1251  0.4099
 2357SOL     OW18703   1.884   0.727   4.080  0.0827 -0.1984  0.5455
 2357SOL    HW118704   1.832   0.646   4.085 -1.6980  0.9117 -0.0376
 2357SOL    HW218705   1.973   0.692   4.083  0.7561  1.5780  1.2650
 2358SOL     OW18706   3.475   4.522   7.978  0.0688  0.2333 -0.5267
 2358SOL    HW118707   3.430   4.580   8.039  0.0977 -0.6435  0.3341
 2358SOL    HW218708   3.568   4.542   7.985  0.2972 -1.0230  0.1493
 2359SOL     OW18709   3.679   1.821   3.435  0.6023 -0.0699  0.2450
 2359SOL    HW118710   3.592   1.793   3.406  0.1277  1.7347 -0.0681
 2359SOL    HW218711   3.724   1.803   3.353 -1.2410  0.3812 -0.8606
 2360SOL     OW18712   2.758   4.167  17.034 -0.0665  0.2733 -0.3534
 2360SOL    HW118713   2.678   4.192  16.988  0.6330  2.1531 -0.5374
 2360SOL    HW218714   2.809   4.128  16.963  1.0346  2.0496 -0.5327
 2361SOL     OW18715   1.197   1.272  15.975 -0.3508  0.2790 -0.0425
 2361SOL    HW118716   1.273   1.327  15.955 -1.9016  2.2147 -0.6582
 2361SOL    HW218717   1.247   1.193  15.997 -0.2261  0.0298 -1.1680
 2362SOL     OW18718   3.990   4.678  13.977 -0.1184  0.8567  0.7276
 2362SOL    HW118719   4.025   4.675  13.888  0.7504 -1.7284  1.1583
 2362SOL    HW218720   3.929   0.014  13.960 -1.1565 -0.1543  0.1146
 2363SOL     OW18721   1.802   2.965   7.954 -0.2868 -0.2133  0.0065
 2363SOL    HW118722   1.710   2.940   7.963  0.0233 -1.3181  0.0920
 2363SOL    HW218723   1.843   2.911   8.022 -0.3023 -0.8827 -0.5145
 2364SOL     OW18724   1.668   1.765   4.835 -0.3894  0.2170  0.1569
 2364SOL    HW118725   1.671   1.669   4.840  0.6133  0.2298 -0.3554
 2364SOL    HW218726   1.575   1.788   4.847 -0.2108  0.8959  0.2271
 2365SOL     OW18727   3.231   0.405   8.085 -0.1000  0.3240  0.0820
 2365SOL    HW118728   3.234   0.310   8.070  1.6268  0.2329  0.9806
 2365SOL    HW218729   3.317   0.431   8.054  1.2105 -1.4488  2.1812
 2366SOL     OW18730   2.206   0.934   7.972 -0.4423  0.1177 -0.3686
 2366SOL    HW118731   2.287   0.980   7.994 -0.7075  1.0902 -1.3990
 2366SOL    HW218732   2.203   0.921   7.877  1.3835 -0.3457 -0.3501
 2367SOL     OW18733   1.361   0.834   4.358 -0.1968  0.4922 -0.5813
 2367SOL    HW118734   1.332   0.758   4.309 -0.5947  1.7704 -2.3075
 2367SOL    HW218735   1.416   0.884   4.297 -0.7307 -1.0142 -2.2781
 2368SOL     OW18736   4.540   3.187   5.548 -0.5691 -0.4130  0.8949
 2368SOL    HW118737   4.535   3.099   5.511 -0.2867 -0.6666  1.4608
 2368SOL    HW218738   4.512   3.247   5.480 -1.7024 -1.4743  0.4292
 2369SOL     OW18739   2.605   0.474  17.724 -0.1180 -0.6986  0.9516
 2369SOL    HW118740   2.633   0.405  17.664  1.2270  0.1665  0.5954
 2369SOL    HW218741   2.689   0.515   0.001  0.1013  0.4200 -2.1621
 2370SOL     OW18742   1.858   4.215   3.854  0.1937  0.2984 -0.7504
 2370SOL    HW118743   1.810   4.217   3.771 -0.5607 -0.8967 -0.3394
 2370SOL    HW218744   1.905   4.132   3.859  0.1393  0.3031 -0.2043
 2371SOL     OW18745   3.552   4.336   2.768 -0.4306  0.0738 -0.3944
 2371SOL    HW118746   3.492   4.280   2.816  1.3347  0.8655  2.7057
 2371SOL    HW218747   3.550   4.413   2.825 -0.1278 -1.6593  1.9130
 2372SOL     OW18748   1.228   1.652   3.579  0.0603 -0.1892  0.0565
 2372SOL    HW118749   1.260   1.698   3.656 -2.1389  0.0792  0.8173
 2372SOL    HW218750   1.137   1.643   3.609 -0.2814  0.4264 -0.8004
 2373SOL     OW18751   1.000   3.235  16.944  0.5070  0.7434 -0.1979
 2373SOL    HW118752   0.970   3.323  16.965 -0.7160 -0.0397  1.3971
 2373SOL    HW218753   1.095   3.247  16.936  0.5191  1.9579  1.8485
 2374SOL     OW18754   3.901   4.159   9.495 -0.0041  0.0584 -0.1860
 2374SOL    HW118755   3.892   4.225   9.427  1.1263 -0.2033 -0.5803
 2374SOL    HW218756   3.873   4.218   9.565 -0.1182 -0.8713  0.5714
 2375SOL     OW18757   2.801   3.482   8.117 -0.1199  0.2459  0.3058
 2375SOL    HW118758   2.737   3.417   8.148  1.0201 -1.4618 -0.9158
 2375SOL    HW218759   2.749   3.561   8.134  0.0618  0.4064  0.1015
 2376SOL     OW18760   3.841   2.542   9.582 -0.3445  0.0990 -0.1679
 2376SOL    HW118761   3.840   2.614   9.519  0.3473 -1.0422 -1.4921
 2376SOL    HW218762   3.880   2.469   9.534  0.7128  0.6020 -0.0591
 2377SOL     OW18763   3.615   1.992   9.469  0.2842 -0.2477  0.5331
 2377SOL    HW118764   3.582   2.081   9.473 -1.2772 -0.7858 -0.1176
 2377SOL    HW218765   3.705   2.012   9.496  0.6862 -2.0319  0.5392
 2378SOL     OW18766   4.232   4.237   2.330 -0.5082  0.2347 -0.0455
 2378SOL    HW118767   4.201   4.162   2.280 -1.0322 -0.3489  1.1386
 2378SOL    HW218768   4.159   4.250   2.390 -1.4137 -3.2313 -0.4243
 2379SOL     OW18769   2.606   0.148   3.783  0.0752  0.0565 -1.1778
 2379SOL    HW118770   2.607   0.065   3.735  0.8671 -0.2783 -0.5779
 2379SOL    HW218771   2.692   0.185   3.760 -0.6335  2.7217  0.4556
 2380SOL     OW18772   0.738   2.134   2.667 -0.5206 -0.1090 -0.1243
 2380SOL    HW118773   0.682   2.201   2.628  0.9124  1.3603  0.3873
 2380SOL    HW218774   0.779   2.108   2.584  1.2895  0.0774  0.7299
 2381SOL     OW18775   3.178   3.284   7.921  0.3275 -0.4601  0.4452
 2381SOL    HW118776   3.214   3.353   7.977  0.0043  0.9850 -1.1351
 2381SOL    HW218777   3.089   3.318   7.917  0.2269 -1.0226 -1.7838
 2382SOL     OW18778   4.585   1.729   5.259  0.7059  0.2398 -0.1609
 2382SOL    HW118779   4.634   1.797   5.211  5.2411 -1.8937  1.3887
 2382SOL    HW218780   4.551   1.679   5.185  0.1987 -1.4259  1.2185
 2383SOL     OW18781   4.399   0.401  13.077 -0.2481  0.0172  0.1226
 2383SOL    HW118782   4.481   0.353  13.064 -1.0666 -0.9076 -1.6605
 2383SOL    HW218783   4.419   0.470  13.140 -1.9140  1.4943 -0.9928
 2384SOL     OW18784   4.637   4.472   9.162  0.0421  0.7770  0.4903
 2384SOL    HW118785   4.611   4.382   9.144  0.8657  0.6315  0.0389
 2384SOL    HW218786   4.548   4.508   9.167  0.2832  1.6008 -1.2344
 2385SOL     OW18787   3.141   2.427   7.131 -0.4776 -0.4523 -0.7306
 2385SOL    HW118788   3.236   2.420   7.119 -0.1223  2.6437  0.2211
 2385SOL    HW218789   3.142   2.512   7.088 -3.0044 -0.5551 -0.9926
 2386SOL     OW18790   3.905   4.068  11.745 -0.3398  0.3047 -0.0512
 2386SOL    HW118791   3.919   4.151  11.698  1.8189 -0.5843 -0.9419
 2386SOL    HW218792   3.844   4.102  11.811  0.4276 -1.1472  1.3767
 2387SOL     OW18793   1.980   4.552   0.677  0.0311  0.3883 -0.1535
 2387SOL    HW118794   2.009   4.463   0.697 -0.5176  0.3259  0.3460
 2387SOL    HW218795   2.064   4.597   0.664  0.2844  0.4820  1.7987
 2388SOL     OW18796   2.185   2.949   2.199 -0.2263  0.2790  0.2045
 2388SOL    HW118797   2.120   2.913   2.139  0.7502 -1.7538  0.3570
 2388SOL    HW218798   2.231   2.870   2.228 -1.8069 -1.0601 -0.9648
 2389SOL     OW18799   2.522   1.289  13.905 -0.6205  0.4136  0.7341
 2389SOL    HW118800   2.460   1.325  13.969  0.2195  0.7467  1.3520
 2389SOL    HW218801   2.478   1.211  13.871  0.9426 -0.1881  0.0878
 2390SOL     OW18802   3.917   1.135   2.303 -0.1576 -0.0699  0.2681
 2390SOL    HW118803   3.850   1.180   2.354 -0.7952  0.7367 -1.2807
 2390SOL    HW218804   3.903   1.043   2.326 -0.9206  0.5322  2.2547
 2391SOL     OW18805   2.170   1.110   9.882 -0.1319  0.2153  0.0707
 2391SOL    HW118806   2.188   1.038   9.943  1.0974 -0.7400 -1.4096
 2391SOL    HW218807   2.225   1.182   9.913 -1.0969  1.1134 -0.3137
 2392SOL     OW18808   3.014   4.603   4.961  0.3520  0.5516 -0.7682
 2392SOL    HW118809   3.051   4.540   4.899 -2.1829 -1.0416 -0.6799
 2392SOL    HW218810   3.088   4.644   5.005 -0.5250  1.4090 -0.1013
 2393SOL     OW18811   0.637   4.063   5.966 -0.1626 -0.2074 -0.5217
 2393SOL    HW118812   0.671   4.013   5.891  2.4410 -0.1551  0.6433
 2393SOL    HW218813   0.648   4.001   6.038  1.0922 -0.1904 -0.6999
 2394SOL     OW18814   2.963   3.514  10.239  0.2078  0.1843  0.3319
 2394SOL    HW118815   2.966   3.427  10.279 -0.0684 -0.3453 -0.8167
 2394SOL    HW218816   2.872   3.514  10.210  0.7186  0.3286 -1.2488
 2395SOL     OW18817   1.437   0.616   0.156 -0.7411 -0.4168 -0.2590
 2395SOL    HW118818   1.523   0.658   0.145 -1.0116  0.0837 -0.4599
 2395SOL    HW218819   1.461   0.524   0.163 -1.5949 -0.6124  0.0533
 2396SOL     OW18820   2.818   0.055   2.004  0.4720 -0.1283  0.0730
 2396SOL    HW118821   2.776   0.141   1.999  0.9932  0.3170  3.5034
 2396SOL    HW218822   2.893   0.073   1.948  0.0473 -1.0581 -0.7974
 2397SOL     OW18823   2.863   0.350  15.565 -0.6622  0.4646 -0.2009
 2397SOL    HW118824   2.881   0.346  15.659  0.0992 -1.9390 -0.4309
 2397SOL    HW218825   2.789   0.291  15.550 -1.0445  0.5348  1.3515
 2398SOL     OW18826   3.647   1.433   3.401 -0.1122  0.2238 -0.4093
 2398SOL    HW118827   3.553   1.422   3.421  0.6645 -0.0219  3.1935
 2398SOL    HW218828   3.692   1.474   3.475 -0.5099  0.4163 -0.2723
 2399SOL     OW18829   1.163   2.894   3.539 -0.0855 -0.2016  0.0084
 2399SOL    HW118830   1.238   2.880   3.480 -0.6001 -0.8456 -0.4921
 2399SOL    HW218831   1.161   2.989   3.538 -2.1104 -0.2306  2.5810
 2400SOL     OW18832   0.120   4.382   6.690  0.0633 -0.3038  0.3445
 2400SOL    HW118833   0.122   4.476   6.676 -1.8497  0.0579  2.5300
 2400SOL    HW218834   0.067   4.345   6.620 -0.5785 -0.1281  0.7447
 2401SOL     OW18835   2.026   0.369   1.015  0.1956  0.1778  0.0802
 2401SOL    HW118836   2.103   0.327   1.053  0.1887 -0.1917 -0.3142
 2401SOL    HW218837   1.957   0.307   1.039  0.7867 -2.0612 -3.9266
 2402SOL     OW18838   0.907   1.788   2.003  0.3262 -0.3956  0.4129
 2402SOL    HW118839   0.821   1.759   1.974  0.8545 -1.1654 -0.3870
 2402SOL    HW218840   0.912   1.738   2.084  0.8625  0.6710  1.0411
 2403SOL     OW18841   0.551   2.789   0.892 -0.2835  0.4204 -0.3096
 2403SOL    HW118842   0.464   2.789   0.932 -1.0432  0.2469 -1.9768
 2403SOL    HW218843   0.578   2.866   0.943 -0.7324  0.7738 -0.6111
 2404SOL     OW18844   2.919   3.491  14.997  0.3203 -0.1868 -0.0966
 2404SOL    HW118845   2.992   3.552  14.989  0.4082 -0.0544  1.7142
 2404SOL    HW218846   2.899   3.488  14.904  2.7302  0.4429 -0.6219
 2405SOL     OW18847   2.132   0.601   5.622  0.6254 -0.2212  0.9747
 2405SOL    HW118848   2.202   0.665   5.611 -0.6561  1.1486  0.8577
 2405SOL    HW218849   2.152   0.549   5.700  0.8708 -1.7839 -0.1409
 2406SOL     OW18850   3.076   2.234   0.768 -0.0616 -0.0992  0.5034
 2406SOL    HW118851   2.986   2.234   0.801 -0.0634  0.0636  0.4995
 2406SOL    HW218852   3.085   2.148   0.727 -0.9253 -0.4691  1.0826
 2407SOL     OW18853   2.060   3.606   5.052  0.7648 -0.5021  0.3628
 2407SOL    HW118854   2.098   3.677   5.105 -1.9583  0.5150  0.9510
 2407SOL    HW218855   2.008   3.564   5.120  0.3507 -0.6895 -0.0699
 2408SOL     OW18856   2.280   2.415   5.221  0.0764  0.5005  0.1611
 2408SOL    HW118857   2.364   2.379   5.248  0.3665  0.5198 -0.7193
 2408SOL    HW218858   2.216   2.358   5.262  0.6668  0.0372  0.4292
 2409SOL     OW18859   3.768   1.924   9.836  0.3412 -0.3807 -0.5326
 2409SOL    HW118860   3.813   1.962   9.912  1.7137  1.6722 -2.3674
 2409SOL    HW218861   3.781   2.001   9.781 -1.1350 -0.1224 -0.5276
 2410SOL     OW18862   4.232   3.263  17.098  0.4257  0.3186 -0.0135
 2410SOL    HW118863   4.148   3.304  17.075  0.5824  0.2929 -0.6341
 2410SOL    HW218864   4.201   3.175  17.120  1.3656 -0.0069 -0.0020
 2411SOL     OW18865   2.368   1.124   9.252  0.1344  0.7696  0.1699
 2411SOL    HW118866   2.455   1.142   9.217  0.3092 -1.6205 -0.6185
 2411SOL    HW218867   2.314   1.187   9.205 -0.9207  0.7233  1.2956
 2412SOL     OW18868   2.427   4.144   1.977 -0.5340 -0.1191 -0.0241
 2412SOL    HW118869   2.442   4.226   1.930 -0.5236 -0.0654  0.0730
 2412SOL    HW218870   2.421   4.086   1.901  0.2545 -2.7334  1.9196
 2413SOL     OW18871   4.147   3.429  15.402 -0.1053 -0.2868 -0.2342
 2413SOL    HW118872   4.241   3.440  15.421 -0.5774  0.9075  1.3599
 2413SOL    HW218873   4.134   3.339  15.372  2.2629 -0.2388 -1.4182
 2414SOL     OW18874   0.041   2.400   7.277 -0.1795  0.0951  0.0661
 2414SOL    HW118875   0.092   2.468   7.233 -0.0305  0.6535  1.1110
 2414SOL    HW218876   4.734   2.454   7.343 -1.0631 -0.3028 -0.1842
 2415SOL     OW18877   1.362   3.398  16.521 -0.1804 -0.2287  0.0023
 2415SOL    HW118878   1.350   3.432  16.432  0.7504  1.3497  0.4736
 2415SOL    HW218879   1.280   3.352  16.541  0.8969 -1.5131  1.4246
 2416SOL     OW18880   3.740   3.544   7.594  0.5997  0.1517  0.2398
 2416SOL    HW118881   3.764   3.598   7.519  1.5033  0.3660  0.6811
 2416SOL    HW218882   3.762   3.606   7.663  0.5783  1.9276 -1.3528
 2417SOL     OW18883   1.398   2.397   6.708 -0.2329 -0.1620  0.0197
 2417SOL    HW118884   1.391   2.487   6.677 -0.3849  0.1914  1.1012
 2417SOL    HW218885   1.492   2.389   6.724  0.1119  1.7519 -1.0034
 2418SOL     OW18886   4.546   1.383   6.888  0.1600  0.0073  0.7059
 2418SOL    HW118887   4.641   1.391   6.885  0.1262  0.2093  0.0438
 2418SOL    HW218888   4.524   1.441   6.960  2.0726  0.0907  1.2111
 2419SOL     OW18889   3.955   4.252   7.687  0.1755  0.3657 -0.1560
 2419SOL    HW118890   4.031   4.294   7.646 -0.9258  2.8054  0.3652
 2419SOL    HW218891   3.889   4.299   7.637 -0.0984 -2.9068 -2.9436
 2420SOL     OW18892   3.660   3.151   4.744  0.0208 -0.2616 -0.0794
 2420SOL    HW118893   3.591   3.211   4.715  1.6008  1.5734 -0.0078
 2420SOL    HW218894   3.625   3.105   4.821 -0.0861  2.3046  1.4175
 2421SOL     OW18895   3.257   2.490   2.592 -0.0696  0.3710  0.2141
 2421SOL    HW118896   3.249   2.405   2.636  0.1195 -0.4528 -1.3211
 2421SOL    HW218897   3.200   2.544   2.647 -0.8081  0.0840 -0.2787
 2422SOL     OW18898   0.833   3.063   4.785 -0.3214 -0.0643  0.4584
 2422SOL    HW118899   0.843   3.025   4.698  2.8199  2.8346 -0.4388
 2422SOL    HW218900   0.779   3.139   4.763 -0.8872 -0.2895  1.0377
 2423SOL     OW18901   1.376   2.759  17.449 -0.1913  0.7675  0.5820
 2423SOL    HW118902   1.289   2.762  17.408 -0.8153 -6.1698  1.4570
 2423SOL    HW218903   1.372   2.841  17.498 -1.2236  0.1452  1.5313
 2424SOL     OW18904   2.342   2.659   2.758 -0.0263 -0.3533 -0.3383
 2424SOL    HW118905   2.276   2.693   2.698 -0.7221 -0.7933  0.1705
 2424SOL    HW218906   2.407   2.729   2.750 -0.7646  0.7036  2.6311
 2425SOL     OW18907   1.466   0.433  10.453 -0.1522  0.3749 -0.2030
 2425SOL    HW118908   1.455   0.345  10.487 -0.9702  0.3715 -0.4721
 2425SOL    HW218909   1.375   0.455  10.431 -1.4653 -2.6752  2.1160
 2426SOL     OW18910   2.953   1.876  13.716  0.2784  0.0182  0.2995
 2426SOL    HW118911   3.030   1.828  13.748  0.2257 -0.3457 -0.1136
 2426SOL    HW218912   2.885   1.811  13.736  0.7005 -0.2631  0.8353
 2427SOL     OW18913   0.671   1.856  14.432 -0.1901  0.0886  0.5981
 2427SOL    HW118914   0.622   1.922  14.481  1.2952 -0.2123  2.4861
 2427SOL    HW218915   0.709   1.905  14.359  0.1884  0.7579  1.2365
 2428SOL     OW18916   0.915   2.508   7.361  0.2781  0.3174 -0.4027
 2428SOL    HW118917   0.820   2.503   7.372  0.1436  2.2893 -0.8081
 2428SOL    HW218918   0.952   2.434   7.409 -1.1290 -0.8242 -1.0726
 2429SOL     OW18919   2.671   4.165  17.730  0.0068  0.7319  0.1833
 2429SOL    HW118920   2.690   4.237  17.670 -0.8381  0.2568 -0.6658
 2429SOL    HW218921   2.740   4.172   0.052 -0.1473  0.5803  0.3637
 2430SOL     OW18922   0.870   1.221  13.961 -0.3743 -0.9206 -0.4986
 2430SOL    HW118923   0.952   1.250  13.921  0.1233 -0.1514  1.0737
 2430SOL    HW218924   0.878   1.127  13.943 -1.0826 -0.5906 -2.4737
 2431SOL     OW18925   4.207   1.258   7.682  0.0460 -0.2432 -0.1800
 2431SOL    HW118926   4.174   1.272   7.770  0.7898 -1.5829  0.3183
 2431SOL    HW218927   4.296   1.286   7.701  0.7575 -1.6521 -1.3655
 2432SOL     OW18928   0.560   1.353   7.993  0.1430 -0.0613  0.4594
 2432SOL    HW118929   0.589   1.346   8.084  1.7457  0.0457 -0.0495
 2432SOL    HW218930   0.564   1.448   7.977 -1.2845  0.1130  1.1052
 2433SOL     OW18931   4.506   3.270   2.917  0.2151 -1.1260 -0.3175
 2433SOL    HW118932   4.520   3.176   2.911 -0.0144 -1.3424  2.6636
 2433SOL    HW218933   4.424   3.261   2.965  0.2028 -0.5588 -0.2300
 2434SOL     OW18934   2.758   4.294   0.969  0.4362  0.3572  0.5440
 2434SOL    HW118935   2.717   4.217   0.931  3.0571 -1.4364  1.3640
 2434SOL    HW218936   2.849   4.266   0.980 -0.1135 -0.8808  1.9419
 2435SOL     OW18937   4.350   2.800   9.685 -0.5473 -0.1813  0.6836
 2435SOL    HW118938   4.339   2.710   9.716 -2.9729 -0.9394 -2.4224
 2435SOL    HW218939   4.334   2.851   9.764  1.5158  0.5425  0.6547
 2436SOL     OW18940   1.341   0.402   4.855 -0.0053 -0.1164 -0.1002
 2436SOL    HW118941   1.269   0.465   4.848  0.1613 -0.2297 -2.9529
 2436SOL    HW218942   1.397   0.407   4.777 -0.1640  1.5405 -0.1118
 2437SOL     OW18943   2.742   1.687   5.400 -0.1433  0.3188  0.3406
 2437SOL    HW118944   2.825   1.693   5.352  0.9186  2.2636  2.4484
 2437SOL    HW218945   2.684   1.668   5.326 -0.9539 -2.6615  1.7296
 2438SOL     OW18946   2.942   3.397   8.692  0.3582  0.1760  0.2416
 2438SOL    HW118947   2.989   3.405   8.608 -0.0960 -0.6311 -0.0885
 2438SOL    HW218948   3.007   3.358   8.750 -2.8095 -3.5617  1.2710
 2439SOL     OW18949   1.587   4.107  10.365  0.0964  0.6258 -0.3499
 2439SOL    HW118950   1.580   4.029  10.311 -1.9662 -0.9632  2.2030
 2439SOL    HW218951   1.653   4.151  10.312  0.9027 -0.6710 -0.4155
 2440SOL     OW18952   4.723   2.797  12.516  0.3928  0.1269  0.1437
 2440SOL    HW118953   4.644   2.775  12.466 -1.1727 -0.9265  3.0429
 2440SOL    HW218954   4.678   2.772  12.597  1.1384  0.9234  0.7973
 2441SOL     OW18955   0.184   2.779   5.384 -0.2885  0.0853 -0.1580
 2441SOL    HW118956   0.175   2.794   5.290 -1.2190 -2.2374 -0.4487
 2441SOL    HW218957   0.171   2.685   5.374 -1.0581  0.0424  1.2492
 2442SOL     OW18958   0.128   1.915   1.587  0.2839 -0.0830  0.3827
 2442SOL    HW118959   0.145   1.840   1.643  2.6587  0.7844  0.8146
 2442SOL    HW218960   0.210   1.940   1.545  1.0080 -1.4070  1.0263
 2443SOL     OW18961   3.258   0.071  11.711 -0.0021  0.1638 -0.2038
 2443SOL    HW118962   3.256   0.144  11.773 -1.5476  2.1070 -2.5608
 2443SOL    HW218963   3.339   0.082  11.660 -0.1946 -1.0415 -0.7743
 2444SOL     OW18964   3.318   1.419   2.606  0.0698 -0.5337  0.2191
 2444SOL    HW118965   3.371   1.371   2.671  1.6257  0.0801 -0.5858
 2444SOL    HW218966   3.284   1.498   2.648 -0.2405 -0.0083 -1.0162
 2445SOL     OW18967   0.039   1.702   2.215  0.1131 -0.0236  0.8175
 2445SOL    HW118968   4.714   1.699   2.141  0.0415 -0.9242  0.9034
 2445SOL    HW218969   0.073   1.791   2.203 -1.9328  0.6358  0.0247
 2446SOL     OW18970   3.155   3.593  14.815  0.2967 -0.0101 -0.3002
 2446SOL    HW118971   3.170   3.518  14.757 -0.9417  0.7528 -1.5718
 2446SOL    HW218972   3.149   3.665  14.753 -1.5774  0.6214  0.6085
 2447SOL     OW18973   2.961   0.091   1.177 -0.3174  0.2576 -0.4499
 2447SOL    HW118974   2.908   0.170   1.170 -1.7305 -0.8477 -2.0381
 2447SOL    HW218975   2.940   0.052   1.262  0.6250  1.4341  0.3128
 2448SOL     OW18976   4.517   1.304   1.571  0.1521  0.1072 -0.0992
 2448SOL    HW118977   4.591   1.245   1.559 -1.1105 -1.1658 -1.5546
 2448SOL    HW218978   4.518   1.335   1.661  3.4298 -0.8268  0.1590
 2449SOL     OW18979   0.551   1.026  11.102 -0.2367 -0.1421 -0.7252
 2449SOL    HW118980   0.457   1.032  11.086 -0.3275  1.5193  0.4012
 2449SOL    HW218981   0.567   1.072  11.185 -1.7526  0.8114 -0.9690
 2450SOL     OW18982   4.051   2.857  13.047  0.3029  0.1030 -0.4449
 2450SOL    HW118983   3.971   2.901  13.022 -0.2953 -0.4918  0.4228
 2450SOL    HW218984   4.029   2.832  13.137  1.6990  0.1515 -0.0871
 2451SOL     OW18985   3.717   4.452  14.717  0.0083  0.2947  0.0818
 2451SOL    HW118986   3.799   4.418  14.682 -0.1902 -0.8974  0.7364
 2451SOL    HW218987   3.654   4.400  14.667 -0.5050 -0.3318  1.3634
 2452SOL     OW18988   1.372   3.826  14.280  0.7813  0.0034 -0.2075
 2452SOL    HW118989   1.425   3.899  14.312  1.0291 -0.7119  1.0090
 2452SOL    HW218990   1.296   3.869  14.240  0.5644 -0.0684  0.1260
 2453SOL     OW18991   2.382   0.473   0.126  0.1103 -0.5136 -0.1142
 2453SOL    HW118992   2.319   0.481   0.055  2.4866  1.4665 -2.0204
 2453SOL    HW218993   2.459   0.459   0.071  1.1330  0.1237  1.1380
 2454SOL     OW18994   3.336   3.465   0.756  0.1449  0.5062 -0.1382
 2454SOL    HW118995   3.313   3.372   0.757  1.2047  0.2165 -2.1217
 2454SOL    HW218996   3.347   3.491   0.665  0.6280 -1.6577 -0.7028
 2455SOL     OW18997   3.233   3.780   8.192  0.2266  0.1927 -0.0112
 2455SOL    HW118998   3.202   3.759   8.280 -3.3596  0.4502 -1.2146
 2455SOL    HW218999   3.316   3.735   8.176 -0.4045 -0.9074 -0.1917
 2456SOL     OW19000   0.269   2.821   0.529  0.1711 -0.4339  0.6633
 2456SOL    HW119001   0.305   2.898   0.485  2.4467 -2.1821 -0.4932
 2456SOL    HW219002   0.351   2.784   0.562 -0.1769  0.3371  2.3866
 2457SOL     OW19003   2.201   1.649  15.449 -0.8361 -0.7526  0.3736
 2457SOL    HW119004   2.257   1.710  15.400  1.2011 -2.0700  1.0808
 2457SOL    HW219005   2.160   1.714  15.506  1.0480  0.3045  0.5277
 2458SOL     OW19006   2.650   1.165   9.205  0.1618  0.4384  0.1940
 2458SOL    HW119007   2.634   1.220   9.128  1.5030 -0.2899 -0.5980
 2458SOL    HW219008   2.707   1.226   9.251  0.4753  0.5695 -0.3644
 2459SOL     OW19009   0.981   2.712   6.501 -0.0675 -0.1158  0.2727
 2459SOL    HW119010   0.920   2.654   6.455 -0.7027  2.5457 -2.2749
 2459SOL    HW219011   0.992   2.773   6.427 -1.7637 -0.7049 -0.4843
 2460SOL     OW19012   1.279   1.775   2.862  0.4388  0.5271  0.4225
 2460SOL    HW119013   1.255   1.817   2.945 -1.0714 -0.4342  0.4692
 2460SOL    HW219014   1.266   1.844   2.798 -0.4372 -1.6854 -1.7893
 2461SOL     OW19015   0.011   3.340   7.907  0.2022 -0.6017  0.3049
 2461SOL    HW119016   0.078   3.299   7.852  1.4573  2.6662 -0.5714
 2461SOL    HW219017   0.036   3.295   7.988  1.3009  0.0830  0.3445
 2462SOL     OW19018   2.062   0.864   6.318  0.3523 -0.0021  0.0334
 2462SOL    HW119019   2.073   0.945   6.367 -0.8576 -0.2723  0.7472
 2462SOL    HW219020   1.976   0.844   6.355  0.2354 -0.6316 -0.5696
 2463SOL     OW19021   3.022   2.297  17.717  0.0502  0.4686  0.0016
 2463SOL    HW119022   3.042   2.388  17.739 -1.0223  0.3978  1.2648
 2463SOL    HW219023   3.114   2.273  17.727 -0.6047 -2.0231  0.1639
 2464SOL     OW19024   3.370   4.100   1.958  0.2621 -0.0924  0.4502
 2464SOL    HW119025   3.312   4.080   2.032 -1.1703 -1.8554 -1.1644
 2464SOL    HW219026   3.429   4.027   1.975  0.7882  0.6107  1.6581
 2465SOL     OW19027   3.540   1.948   4.579 -0.4797 -0.1890  0.9354
 2465SOL    HW119028   3.464   1.899   4.547 -0.0460  0.2812 -0.8129
 2465SOL    HW219029   3.506   1.978   4.663  1.3649 -0.2700  1.6975
 2466SOL     OW19030   0.764   3.146   2.567  0.0196  0.2929 -0.0698
 2466SOL    HW119031   0.780   3.057   2.537  1.4783  0.2396  0.8899
 2466SOL    HW219032   0.834   3.190   2.518 -0.3984  0.3786 -0.5921
 2467SOL     OW19033   1.330   2.995   8.725  0.1650  0.0097 -0.1352
 2467SOL    HW119034   1.416   2.954   8.714 -0.3579 -0.4398 -2.4707
 2467SOL    HW219035   1.335   3.023   8.816  0.6406 -0.2353 -0.0851
 2468SOL     OW19036   1.057   0.015   5.416 -0.7591  0.3276  0.2808
 2468SOL    HW119037   1.013   0.052   5.493 -1.1527 -1.5569  0.9731
 2468SOL    HW219038   0.991   4.685   5.397 -0.3264  0.6299 -2.1675
 2469SOL     OW19039   1.499   1.947  15.836  0.3547  0.0689  0.7652
 2469SOL    HW119040   1.568   1.934  15.770  1.2611 -1.1659  1.9467
 2469SOL    HW219041   1.553   1.955  15.915 -0.3058  1.5404  1.0582
 2470SOL     OW19042   2.337   4.635   7.955  0.3753 -0.1134 -0.1962
 2470SOL    HW119043   2.300   4.722   7.969  0.7167 -0.1360  0.8881
 2470SOL    HW219044   2.260   4.593   7.917 -0.5681  0.6789  0.8289
 2471SOL     OW19045   4.266   3.165   6.006 -0.3469  0.2695  0.0859
 2471SOL    HW119046   4.298   3.200   5.924  2.4866  0.6349  1.3619
 2471SOL    HW219047   4.332   3.171   6.075 -0.7298 -2.1192  0.6531
 2472SOL     OW19048   3.500   4.239   8.759 -0.3959 -0.5675  0.0799
 2472SOL    HW119049   3.497   4.155   8.805  0.7570  0.9294  2.8743
 2472SOL    HW219050   3.411   4.239   8.724 -0.2904  2.8714 -0.1235
 2473SOL     OW19051   3.064   0.340   6.636 -0.0005  0.1094  0.4372
 2473SOL    HW119052   3.137   0.357   6.696 -0.0561 -0.1989  0.5906
 2473SOL    HW219053   3.007   0.288   6.691  0.9950 -0.8343  0.5761
 2474SOL     OW19054   4.558   1.692  12.598 -0.0601  0.2683  0.1186
 2474SOL    HW119055   4.480   1.636  12.599 -0.3652  0.7269  1.4586
 2474SOL    HW219056   4.624   1.637  12.555 -1.7138 -0.9602 -0.8486
 2475SOL     OW19057   2.818   1.350   8.851 -0.2452  0.7276  0.6270
 2475SOL    HW119058   2.742   1.340   8.908 -0.6768  1.8890  0.2426
 2475SOL    HW219059   2.837   1.443   8.859  0.4990  0.5228  1.2947
 2476SOL     OW19060   4.720   4.211   6.491  0.1073  0.0034 -0.2319
 2476SOL    HW119061   0.012   4.243   6.405  0.1836 -0.9175 -0.5579
 2476SOL    HW219062   4.629   4.236   6.505 -0.6113 -0.9582 -3.0328
 2477SOL     OW19063   0.525   3.576   6.433  0.4265 -0.5824  0.1229
 2477SOL    HW119064   0.548   3.659   6.476 -2.3885 -0.6194  1.6858
 2477SOL    HW219065   0.597   3.572   6.371  0.6814 -1.4769  0.4813
 2478SOL     OW19066   0.998   4.405   5.162 -0.4724 -0.0751 -0.3402
 2478SOL    HW119067   0.944   4.386   5.085  0.4843 -2.0321 -0.5251
 2478SOL    HW219068   0.941   4.416   5.238 -0.9633 -0.6598 -0.6237
 2479SOL     OW19069   1.923   3.482   8.191  0.0840  0.1634  0.5076
 2479SOL    HW119070   1.898   3.391   8.208  3.9292 -0.7555  1.0396
 2479SOL    HW219071   1.971   3.502   8.272  3.1565  2.4599 -1.9319
 2480SOL     OW19072   0.284   0.235   6.647  0.4206 -0.6166 -0.2677
 2480SOL    HW119073   0.320   0.323   6.632 -1.0377 -0.1274 -0.9009
 2480SOL    HW219074   0.290   0.197   6.559  0.3746  0.3961 -0.7109
 2481SOL     OW19075   4.021   4.342   2.741 -0.1719  0.0765 -0.1193
 2481SOL    HW119076   4.103   4.372   2.780 -0.6761 -0.5476  1.4574
 2481SOL    HW219077   3.957   4.392   2.793  0.6825 -1.8206  2.8002
 2482SOL     OW19078   2.461   1.279  10.221  0.0721  0.1282 -0.1557
 2482SOL    HW119079   2.556   1.278  10.209  0.0394 -0.6062 -0.3452
 2482SOL    HW219080   2.453   1.251  10.313  1.0823  1.4655  0.3399
 2483SOL     OW19081   1.207   2.126   2.087  0.2673  0.0223  0.0574
 2483SOL    HW119082   1.257   2.060   2.038 -0.3155 -0.9122  0.7384
 2483SOL    HW219083   1.269   2.199   2.085  0.3626 -0.0579  0.1004
 2484SOL     OW19084   2.843   2.189   7.056 -0.3392  0.0281  0.6279
 2484SOL    HW119085   2.805   2.116   7.105 -0.1167 -0.6473 -0.2052
 2484SOL    HW219086   2.906   2.225   7.120  0.5263  0.7972 -0.6491
 2485SOL     OW19087   2.998   3.160   2.676 -0.1560 -0.0597 -0.0803
 2485SOL    HW119088   2.964   3.116   2.598 -1.0347  0.5467 -0.0442
 2485SOL    HW219089   2.915   3.205   2.695  0.3814  0.0861  1.9198
 2486SOL     OW19090   0.498   1.741   0.053 -0.3837 -0.4137  0.3200
 2486SOL    HW119091   0.469   1.688   0.127  0.2822  0.2232  1.0384
 2486SOL    HW219092   0.524   1.668  17.740 -0.9369 -0.2592 -0.1403
 2487SOL     OW19093   4.432   2.113   7.322 -0.2832 -0.1743 -0.2551
 2487SOL    HW119094   4.441   2.194   7.373  0.1002 -0.7049  0.5088
 2487SOL    HW219095   4.521   2.118   7.289 -0.2511 -1.8060 -0.3862
 2488SOL     OW19096   3.903   3.629   2.080 -0.4400 -0.1535 -0.4944
 2488SOL    HW119097   3.987   3.674   2.068  1.1305 -3.2655 -0.9423
 2488SOL    HW219098   3.929   3.543   2.049 -1.4453 -1.0186  1.0614
 2489SOL     OW19099   2.010   3.049  12.283  0.2533 -0.3261  0.0047
 2489SOL    HW119100   2.089   3.087  12.321  0.5222 -1.7768  0.8921
 2489SOL    HW219101   1.956   3.043  12.361  2.3608  2.8505  1.6750
 2490SOL     OW19102   1.167   1.888   4.703  0.3949  0.0043 -0.0221
 2490SOL    HW119103   1.164   1.968   4.756 -2.8611 -3.1745  4.5781
 2490SOL    HW219104   1.084   1.846   4.726  0.7531 -0.5415  0.2561
 2491SOL     OW19105   3.278   4.641  11.953  0.0660 -0.2331 -0.8186
 2491SOL    HW119106   3.243   4.724  11.922 -2.2262  0.0021  2.3536
 2491SOL    HW219107   3.240   4.571  11.900 -0.2350 -0.0618 -0.8287
 2492SOL     OW19108   4.075   0.222   3.864  0.1796 -0.5631 -0.4393
 2492SOL    HW119109   4.009   0.229   3.933  1.0970 -0.1568  0.4018
 2492SOL    HW219110   4.150   0.201   3.921 -0.3742 -0.8896  0.1660
 2493SOL     OW19111   1.416   1.262   7.329  0.0040  0.5881 -0.0302
 2493SOL    HW119112   1.480   1.287   7.395 -0.8898  1.6584  0.4465
 2493SOL    HW219113   1.464   1.226   7.255  1.4433 -0.2192  1.2949
 2494SOL     OW19114   2.673   0.181  15.443 -0.2008  0.0019  0.0816
 2494SOL    HW119115   2.737   0.125  15.400  2.1496  2.5793  0.1996
 2494SOL    HW219116   2.599   0.123  15.461  0.0051 -0.8850 -1.8590
 2495SOL     OW19117   2.932   3.596   7.440  1.1019 -0.3784  0.1150
 2495SOL    HW119118   3.010   3.588   7.384  0.3571 -0.2632 -0.9367
 2495SOL    HW219119   2.888   3.672   7.402  0.8978  1.0018  3.1458
 2496SOL     OW19120   0.967   1.991   2.237 -0.7760  0.5379 -0.1566
 2496SOL    HW119121   0.926   1.962   2.155  2.3703 -2.8085 -0.5668
 2496SOL    HW219122   1.046   2.025   2.195  0.2290 -1.0901  0.4152
 2497SOL     OW19123   3.428   3.727   0.260 -0.2684 -0.1793 -0.2713
 2497SOL    HW119124   3.483   3.726   0.182  0.5806  1.0481  0.3085
 2497SOL    HW219125   3.348   3.718   0.209  0.1063  1.3538 -1.1250
 2498SOL     OW19126   4.466   4.345   4.029  0.0012 -0.7136  0.3932
 2498SOL    HW119127   4.464   4.258   4.071 -0.3547 -1.4275 -1.1257
 2498SOL    HW219128   4.509   4.319   3.948  0.3941  0.3741  0.2656
 2499SOL     OW19129   1.050   1.416  17.032  0.1916  0.3925 -0.3911
 2499SOL    HW119130   1.081   1.461  17.111 -0.6698 -0.3602  0.3773
 2499SOL    HW219131   0.992   1.481  16.993 -0.0725  0.9056  0.8516
 2500SOL     OW19132   2.982   1.526   6.469  0.0235 -0.1728  0.2987
 2500SOL    HW119133   3.011   1.614   6.449  3.5409 -0.6462  3.4464
 2500SOL    HW219134   2.971   1.500   6.377 -0.2070  1.2176 -0.0658
 2501SOL     OW19135   4.012   3.340   5.580 -0.2725 -0.2269  0.1518
 2501SOL    HW119136   3.976   3.285   5.511  0.5609 -0.7328  0.1291
 2501SOL    HW219137   3.981   3.300   5.661  0.2876  1.1678  1.0723
 2502SOL     OW19138   3.795   1.777   3.182  0.2026  0.0447 -0.1851
 2502SOL    HW119139   3.875   1.726   3.192  0.9563  1.1717 -0.5880
 2502SOL    HW219140   3.737   1.712   3.143 -1.6976  0.1243  2.5005
 2503SOL     OW19141   4.645   3.874   8.051  0.0211 -0.1401 -0.6638
 2503SOL    HW119142   4.583   3.807   8.079  1.0788 -0.9851 -0.3446
 2503SOL    HW219143   4.724   3.821   8.044 -0.2375 -0.7259  0.6870
 2504SOL     OW19144   1.422   2.829   3.428 -0.3928  0.6715  0.3004
 2504SOL    HW119145   1.451   2.804   3.340  0.0833  0.8719  0.4033
 2504SOL    HW219146   1.503   2.855   3.472  0.2106 -0.9228  0.1405
 2505SOL     OW19147   3.475   0.564  15.027 -0.7382 -0.2909 -0.4779
 2505SOL    HW119148   3.497   0.550  15.120 -2.1990  3.2285  0.3968
 2505SOL    HW219149   3.460   0.474  14.999 -1.3263  0.2872 -2.0084
 2506SOL     OW19150   1.515   4.065   3.422  0.2278  0.7075  0.1377
 2506SOL    HW119151   1.496   4.048   3.330  0.1832 -0.0694  0.2863
 2506SOL    HW219152   1.465   3.991   3.459 -0.0724  0.2823 -1.1342
 2507SOL     OW19153   1.998   0.165  12.352  0.6769 -0.4406 -0.0420
 2507SOL    HW119154   2.026   0.075  12.340 -1.6161 -0.7609 -3.1628
 2507SOL    HW219155   1.960   0.194  12.269  0.8265  0.3769  0.1695
 2508SOL     OW19156   3.842   3.451   5.014  0.4631 -0.0390 -0.1926
 2508SOL    HW119157   3.911   3.514   5.034  0.7149  0.2062 -1.8594
 2508SOL    HW219158   3.862   3.419   4.926 -0.7784  1.9182 -1.1591
 2509SOL     OW19159   4.403   1.097  13.905 -0.5310 -1.0850 -0.4167
 2509SOL    HW119160   4.470   1.033  13.932  0.8275  1.0335  1.1926
 2509SOL    HW219161   4.326   1.064  13.950 -0.9438 -0.3943 -0.6218
 2510SOL     OW19162   0.245   3.487   4.009  0.1428  0.4011 -0.8637
 2510SOL    HW119163   0.243   3.488   4.105  2.3714  0.0908 -0.8293
 2510SOL    HW219164   0.248   3.393   3.991  0.0051  0.1139  0.5915
 2511SOL     OW19165   3.442   1.977   5.138 -0.2905 -0.0491 -0.3867
 2511SOL    HW119166   3.433   2.045   5.205  0.3557  0.2266 -0.5861
 2511SOL    HW219167   3.349   1.960   5.124  0.1113 -0.0491 -2.9701
 2512SOL     OW19168   0.188   4.511   6.054  0.1141 -0.3531 -0.0367
 2512SOL    HW119169   0.151   4.595   6.080  0.0089 -0.1883 -0.7235
 2512SOL    HW219170   0.111   4.482   6.006  0.3978  0.9248 -1.2631
 2513SOL     OW19171   1.998   3.649   5.841  0.8875 -0.1110 -0.2470
 2513SOL    HW119172   2.045   3.572   5.810  1.0963 -1.3810  3.2197
 2513SOL    HW219173   2.074   3.704   5.860 -0.1545  0.7913  1.3283
 2514SOL     OW19174   4.184   0.009   3.013 -0.8093  0.0878  0.2181
 2514SOL    HW119175   4.117   0.078   3.013 -0.3968  0.4860 -0.9869
 2514SOL    HW219176   4.204   0.029   2.922  0.5523  0.4999  0.6103
 2515SOL     OW19177   0.299   0.847   2.233 -0.0775  0.4569  0.0408
 2515SOL    HW119178   0.208   0.822   2.214 -0.0698  0.5469 -0.1125
 2515SOL    HW219179   0.339   0.842   2.146  0.5137  0.8523  0.2938
 2516SOL     OW19180   4.451   0.463   7.460  0.4011 -0.2997 -0.4814
 2516SOL    HW119181   4.511   0.536   7.443  0.9082 -0.7262 -0.5263
 2516SOL    HW219182   4.469   0.417   7.378  0.6276  1.2105 -1.2766
 2517SOL     OW19183   3.195   3.110   8.701  0.0247  0.2327  0.2219
 2517SOL    HW119184   3.179   3.189   8.752  2.6932  0.0189  1.4196
 2517SOL    HW219185   3.267   3.152   8.654  1.6888 -2.8097  0.0507
 2518SOL     OW19186   0.051   1.871  17.159  0.0132 -0.5927  0.1278
 2518SOL    HW119187   0.056   1.785  17.117  0.9976  0.1830 -1.3412
 2518SOL    HW219188   0.019   1.931  17.092 -1.3477 -1.7868 -0.2952
 2519SOL     OW19189   2.844   1.941   3.863 -0.2567 -0.2609 -0.4279
 2519SOL    HW119190   2.769   1.926   3.921  0.1582  0.5454  0.3266
 2519SOL    HW219191   2.891   1.858   3.870 -0.6579 -0.4879 -0.4398
 2520SOL     OW19192   2.487   0.996  16.518 -0.3567  0.0039  0.3916
 2520SOL    HW119193   2.476   1.071  16.459  0.8649  0.9758  1.4100
 2520SOL    HW219194   2.458   1.035  16.600  0.2207  0.7132  0.2560
 2521SOL     OW19195   1.489   2.184   1.855  0.0856  0.4364 -0.0187
 2521SOL    HW119196   1.489   2.102   1.804  0.6032 -0.0233  0.7267
 2521SOL    HW219197   1.578   2.207   1.827 -0.3404 -0.8128 -2.3987
 2522SOL     OW19198   1.870   4.192   2.484 -0.2955 -0.7411  0.1276
 2522SOL    HW119199   1.840   4.185   2.575 -0.2324 -0.3685  0.1762
 2522SOL    HW219200   1.794   4.163   2.433  0.4091 -0.7574 -0.9086
 2523SOL     OW19201   3.219   3.664   4.511  0.4696 -0.2465 -0.1762
 2523SOL    HW119202   3.220   3.733   4.445 -0.1359  0.2598  0.3419
 2523SOL    HW219203   3.300   3.678   4.560  0.0225  0.3701  0.3948
 2524SOL     OW19204   3.164   4.339   5.722  0.6606  0.3015  0.3450
 2524SOL    HW119205   3.094   4.371   5.665  1.4220 -2.2693 -2.0580
 2524SOL    HW219206   3.125   4.263   5.765 -0.0775 -0.2413 -1.2748
 2525SOL     OW19207   1.798   1.434  14.414  0.5336 -0.6245  0.2193
 2525SOL    HW119208   1.826   1.508  14.361 -0.3060 -0.4013  0.0940
 2525SOL    HW219209   1.725   1.469  14.465 -1.4004 -1.1390 -2.2378
 2526SOL     OW19210   0.239   4.306   9.096  0.1723  0.5221  0.1504
 2526SOL    HW119211   0.200   4.313   9.184  0.1388 -1.1290  0.2681
 2526SOL    HW219212   0.183   4.233   9.069  1.7857 -0.6601  0.0064
 2527SOL     OW19213   4.634   2.600   7.070 -0.2567 -0.0784  0.0645
 2527SOL    HW119214   4.626   2.695   7.074  0.7872 -0.0781  2.0315
 2527SOL    HW219215   4.729   2.593   7.080  0.0932  3.2862 -0.9988
 2528SOL     OW19216   0.438   4.018  15.322 -0.0277  0.2283 -0.0545
 2528SOL    HW119217   0.519   4.052  15.285  0.1863 -0.5145 -0.2749
 2528SOL    HW219218   0.456   4.056  15.408  1.6304  2.0057 -1.1946
 2529SOL     OW19219   0.592   0.535   1.770  0.2991 -0.6524 -0.4395
 2529SOL    HW119220   0.557   0.446   1.781 -1.8115  0.3162  0.6494
 2529SOL    HW219221   0.519   0.587   1.802  1.7966  2.0099 -1.3377
 2530SOL     OW19222   0.188   3.341   4.307  0.0331  0.4103 -0.4997
 2530SOL    HW119223   0.133   3.404   4.354  2.1214  0.7611  1.4499
 2530SOL    HW219224   0.143   3.258   4.323 -1.1073  0.6450 -2.4414
 2531SOL     OW19225   0.139   3.826  16.118  0.3338 -0.4403 -0.5733
 2531SOL    HW119226   0.141   3.851  16.211  4.9529  0.2059 -0.8515
 2531SOL    HW219227   0.230   3.797  16.116 -0.3179 -2.5597 -0.2011
 2532SOL     OW19228   2.644   1.606   2.209  0.1479  0.6393 -0.4459
 2532SOL    HW119229   2.699   1.592   2.132  0.2798 -0.4185 -0.1622
 2532SOL    HW219230   2.592   1.684   2.187 -0.1744  0.5610  0.0460
 2533SOL     OW19231   3.850   0.214   5.030 -0.7265 -0.4134  0.5950
 2533SOL    HW119232   3.937   0.184   5.007  0.5081  3.1071  0.6238
 2533SOL    HW219233   3.788   0.169   4.973 -0.5785  0.5255 -0.3040
 2534SOL     OW19234   1.771   0.287  10.171  0.7499 -0.6334 -0.0375
 2534SOL    HW119235   1.747   0.270  10.262 -2.5022 -0.7782 -0.9186
 2534SOL    HW219236   1.781   0.382  10.183 -2.1559 -0.1723 -1.0979
 2535SOL     OW19237   2.428   1.762   7.578 -0.6752 -0.3697  0.2303
 2535SOL    HW119238   2.491   1.707   7.624 -0.8947 -0.5349  0.3331
 2535SOL    HW219239   2.477   1.842   7.560 -1.1076 -0.3174 -0.6909
 2536SOL     OW19240   0.245   3.136   9.130  0.3182 -0.2046 -0.4385
 2536SOL    HW119241   0.218   3.228   9.138 -1.2499 -0.8251  1.2797
 2536SOL    HW219242   0.266   3.130   9.037  2.1809  1.5448 -0.1315
 2537SOL     OW19243   2.666   3.374   8.725  0.3016 -0.2462  0.0264
 2537SOL    HW119244   2.758   3.371   8.698  0.2730 -0.5503 -0.0441
 2537SOL    HW219245   2.669   3.453   8.779 -2.3552 -0.0994 -0.0785
 2538SOL     OW19246   3.896   3.728  10.112 -0.2584 -0.3035 -0.0888
 2538SOL    HW119247   3.865   3.649  10.155 -3.2185  1.2216  0.6141
 2538SOL    HW219248   3.824   3.787  10.134  1.1367  1.4492 -0.1733
 2539SOL     OW19249   4.019   1.173   9.436 -0.6363 -0.4793  0.8068
 2539SOL    HW119250   3.957   1.121   9.386  2.0033 -2.6640 -0.2184
 2539SOL    HW219251   4.030   1.246   9.375 -1.0304 -2.6168 -1.8399
 2540SOL     OW19252   3.149   0.336   0.314 -0.1090 -0.0201 -0.4212
 2540SOL    HW119253   3.136   0.372   0.226 -0.8161 -0.3367 -0.4473
 2540SOL    HW219254   3.098   0.402   0.361  0.1538 -0.1869  0.0985
 2541SOL     OW19255   0.122   0.246  15.723 -0.2057 -0.4493  0.3108
 2541SOL    HW119256   0.113   0.341  15.730 -2.5422 -0.7909  1.8338
 2541SOL    HW219257   0.094   0.241  15.631  0.9404 -3.2130  0.1418
 2542SOL     OW19258   3.057   0.955   8.604  0.8125  0.0898  0.2855
 2542SOL    HW119259   3.132   1.015   8.604  1.3733 -0.5865  1.7943
 2542SOL    HW219260   2.994   1.004   8.657 -0.5580 -1.5541  0.1382
 2543SOL     OW19261   0.828   4.497   5.348 -0.1460 -0.2883  0.2067
 2543SOL    HW119262   0.815   4.449   5.430  1.1131  0.1923  0.6816
 2543SOL    HW219263   0.748   4.549   5.344  1.0323  1.4995 -0.1014
 2544SOL     OW19264   4.222   1.764   6.161  0.0574 -0.3469 -0.2534
 2544SOL    HW119265   4.140   1.809   6.140 -0.6869 -1.0757  1.1222
 2544SOL    HW219266   4.215   1.778   6.255  0.5950  1.0777 -0.4110
 2545SOL     OW19267   1.857   3.356  16.478  0.8163  0.2648 -0.0305
 2545SOL    HW119268   1.780   3.315  16.439  0.2960 -1.8009  3.1519
 2545SOL    HW219269   1.916   3.370  16.403 -3.2255 -1.7988 -3.5889
 2546SOL     OW19270   2.100   2.975   7.019  0.1948  0.7330  0.3303
 2546SOL    HW119271   2.092   3.047   7.082 -1.8083  0.0314  0.8652
 2546SOL    HW219272   2.008   2.949   7.016  0.7525 -1.2838  0.6232
 2547SOL     OW19273   0.184   3.550   1.744 -0.7652  0.7191  0.1171
 2547SOL    HW119274   0.102   3.523   1.704 -0.8998  3.0267 -1.1467
 2547SOL    HW219275   0.218   3.569   1.657  0.7414  3.1199  1.2051
 2548SOL     OW19276   3.076   4.608  11.666  0.0034  0.0645  0.1112
 2548SOL    HW119277   3.118   4.692  11.684  3.2153 -1.1769 -1.5739
 2548SOL    HW219278   3.096   4.595  11.573  1.0150 -0.6246  0.4160
 2549SOL     OW19279   3.197   4.434   7.935 -0.0297 -0.2969  0.0703
 2549SOL    HW119280   3.260   4.496   7.972 -0.6119 -0.8998  2.1165
 2549SOL    HW219281   3.133   4.495   7.898 -1.7426 -2.1139  0.0435
 2550SOL     OW19282   2.783   2.981   6.056 -0.6655  0.4072 -0.0501
 2550SOL    HW119283   2.724   2.946   6.123  2.1000 -0.7906  1.7876
 2550SOL    HW219284   2.869   2.973   6.097  0.1025 -3.1769 -2.3841
 2551SOL     OW19285   4.273   3.372   8.185  0.1356 -0.1442 -0.2311
 2551SOL    HW119286   4.334   3.351   8.114  0.3061 -0.4392  0.0030
 2551SOL    HW219287   4.322   3.374   8.267 -2.1958 -1.9884  1.1907
 2552SOL     OW19288   1.977   2.235   8.185 -0.3151 -0.0463 -0.6103
 2552SOL    HW119289   1.941   2.231   8.274  1.2940  4.3542  0.2549
 2552SOL    HW219290   2.068   2.263   8.196 -0.3697 -0.7690  1.7284
 2553SOL     OW19291   3.245   0.104   7.436 -0.5754 -0.4893 -0.1868
 2553SOL    HW119292   3.294   0.073   7.360  0.1981  0.1843  0.0414
 2553SOL    HW219293   3.156   0.076   7.415  0.0087 -2.4366 -0.0655
 2554SOL     OW19294   3.826   0.563   9.169  0.1883 -0.3514  0.1321
 2554SOL    HW119295   3.735   0.584   9.149  0.7318  1.9953  0.2141
 2554SOL    HW219296   3.812   0.472   9.197 -0.1135 -1.3117 -3.0984
 2555SOL     OW19297   4.501   0.931   3.743 -0.4297 -0.3589  0.1646
 2555SOL    HW119298   4.549   0.902   3.665  0.6164  0.9907  0.3034
 2555SOL    HW219299   4.558   0.998   3.780  0.2398 -0.8869  0.0825
 2556SOL     OW19300   3.119   2.473   5.976 -0.7138 -0.1187  0.2182
 2556SOL    HW119301   3.117   2.500   5.884 -1.7886 -2.3013 -0.4066
 2556SOL    HW219302   3.199   2.421   5.978 -2.1805 -2.4580 -1.4238
 2557SOL     OW19303   3.883   4.439   8.738 -0.1955 -0.2645 -0.7103
 2557SOL    HW119304   3.814   4.469   8.797  0.5632  0.5390 -0.2233
 2557SOL    HW219305   3.857   4.347   8.726 -2.4804  0.4682 -1.3420
 2558SOL     OW19306   4.488   1.373  13.898  0.0241 -0.6655 -0.2012
 2558SOL    HW119307   4.579   1.356  13.922  0.4192  0.3115 -1.0053
 2558SOL    HW219308   4.459   1.289  13.864 -0.8937  0.2355 -1.6161
 2559SOL     OW19309   3.147   2.838  12.963  0.3381 -0.3245  0.2333
 2559SOL    HW119310   3.203   2.774  12.918  0.2926 -0.2659  0.0919
 2559SOL    HW219311   3.166   2.914  12.908  1.1262 -0.3725  0.4309
 2560SOL     OW19312   2.985   2.353  14.896  0.1050  0.4406  0.2587
 2560SOL    HW119313   2.893   2.375  14.882  0.5538  0.3271 -2.8213
 2560SOL    HW219314   3.030   2.417  14.841  2.1120 -0.5069  0.8019
 2561SOL     OW19315   0.342   0.791   5.086 -0.1780  0.3890 -0.4073
 2561SOL    HW119316   0.419   0.760   5.038  0.4033  0.4348  0.4943
 2561SOL    HW219317   0.276   0.723   5.073 -0.4390  0.5084  0.2930
 2562SOL     OW19318   0.925   0.624   3.655 -0.7173  0.1826 -0.1234
 2562SOL    HW119319   0.874   0.705   3.653 -2.1738 -0.7135  0.3215
 2562SOL    HW219320   0.915   0.592   3.745 -2.9385 -1.2796 -0.8830
 2563SOL     OW19321   3.080   4.131   6.729  0.0258  0.5427 -0.2688
 2563SOL    HW119322   3.157   4.158   6.779  0.2851  1.3345 -1.1001
 2563SOL    HW219323   3.094   4.173   6.644 -1.2114 -0.8778 -1.1662
 2564SOL     OW19324   2.518   3.417   7.575 -0.2815  0.4103  0.1996
 2564SOL    HW119325   2.528   3.464   7.492  2.2845  2.3659  1.6164
 2564SOL    HW219326   2.559   3.331   7.569 -1.8330 -0.4206  1.4245
 2565SOL     OW19327   3.232   0.708  17.331  0.2150 -0.4602  0.6114
 2565SOL    HW119328   3.226   0.752  17.246  0.7816  0.0876  0.8513
 2565SOL    HW219329   3.165   0.758  17.377  1.4521  0.5253  1.3507
 2566SOL     OW19330   2.443   1.338   7.519 -0.0386  0.1754 -0.1485
 2566SOL    HW119331   2.528   1.303   7.494 -0.7763  0.4148 -2.9498
 2566SOL    HW219332   2.423   1.310   7.608  2.0103 -0.3906  0.1390
 2567SOL     OW19333   3.354   4.339   3.047  1.1108 -0.3158  0.1877
 2567SOL    HW119334   3.286   4.403   3.025  0.7722 -0.5710  0.4825
 2567SOL    HW219335   3.334   4.271   2.983  0.4023  1.6862 -1.7107
 2568SOL     OW19336   2.484   3.565   4.550 -0.2914 -0.1483  0.4559
 2568SOL    HW119337   2.451   3.586   4.637 -3.4492  2.7685 -1.4358
 2568SOL    HW219338   2.465   3.471   4.552 -2.8432  0.2883 -2.4787
 2569SOL     OW19339   4.485   0.108   1.606  0.2813  0.0496 -0.3220
 2569SOL    HW119340   4.400   0.136   1.640  0.9108  0.0471  1.2536
 2569SOL    HW219341   4.522   0.187   1.568  2.3680 -1.9289 -2.3610
 2570SOL     OW19342   0.339   0.226   3.221  0.3090  0.2155  0.5304
 2570SOL    HW119343   0.252   0.260   3.241 -0.0081 -1.2568  1.6001
 2570SOL    HW219344   0.395   0.299   3.194  0.7359  0.5871  2.4200
 2571SOL     OW19345   2.339   4.575  10.027  0.1192  0.2736  0.2121
 2571SOL    HW119346   2.259   4.538   9.988 -0.3994  0.9431  0.6514
 2571SOL    HW219347   2.314   4.667  10.034  1.6300  0.9602 -3.2719
 2572SOL     OW19348   4.731   3.223   3.831  0.4538  0.2180 -0.3583
 2572SOL    HW119349   4.669   3.241   3.901 -1.3099  1.0477 -2.1549
 2572SOL    HW219350   0.017   3.313   3.808  1.6964 -0.2171 -0.8791
 2573SOL     OW19351   3.859   2.633   4.330  0.1403 -0.5474  0.6742
 2573SOL    HW119352   3.895   2.666   4.413 -0.5505 -1.1318  1.2152
 2573SOL    HW219353   3.767   2.629   4.357  0.1376  2.7582  1.0604
 2574SOL     OW19354   0.340   1.692   8.984  0.2589 -1.1228 -0.6480
 2574SOL    HW119355   0.279   1.756   9.022  1.5835  0.2075 -0.7997
 2574SOL    HW219356   0.337   1.708   8.890  1.7585 -2.4662 -0.9208
 2575SOL     OW19357   0.297   2.537   9.634 -0.2004  0.6497  0.1587
 2575SOL    HW119358   0.357   2.591   9.582 -0.3880  0.2730 -0.4512
 2575SOL    HW219359   0.365   2.493   9.685  2.0842  1.8890 -1.7792
 2576SOL     OW19360   4.735   0.157   5.686 -0.5399 -0.4021  0.2983
 2576SOL    HW119361   4.699   0.177   5.600 -0.5438  0.7339  0.5659
 2576SOL    HW219362   4.665   0.194   5.739  1.2331  2.2797  0.7774
 2577SOL     OW19363   2.707   4.046   0.564  0.1608 -0.1267 -0.2952
 2577SOL    HW119364   2.676   4.013   0.479  1.2016 -1.4949 -0.1344
 2577SOL    HW219365   2.699   4.141   0.554 -1.0069 -0.1917 -0.0144
 2578SOL     OW19366   4.635   2.297   5.825  0.4732  0.3509  0.1129
 2578SOL    HW119367   4.548   2.260   5.813  1.1050 -0.9199 -0.6684
 2578SOL    HW219368   4.656   2.258   5.910 -1.9902 -0.2269  0.4448
 2579SOL     OW19369   3.221   4.694   3.802  0.5526  0.6232  0.1473
 2579SOL    HW119370   3.215   0.036   3.857 -1.2399 -0.7065  1.8441
 2579SOL    HW219371   3.142   4.723   3.755  0.3527  0.5028  0.4049
 2580SOL     OW19372   0.227   1.356   9.950 -0.4961 -0.2265 -0.2709
 2580SOL    HW119373   0.271   1.403  10.021 -1.9220  2.0640 -0.8952
 2580SOL    HW219374   0.265   1.389   9.869  0.7766 -0.8377  0.0815
 2581SOL     OW19375   1.190   3.944  14.118 -0.0156 -0.5781 -0.0924
 2581SOL    HW119376   1.193   3.856  14.081  0.0543  0.5369 -2.6910
 2581SOL    HW219377   1.096   3.962  14.114  0.4309  1.3434 -1.9379
 2582SOL     OW19378   0.701   1.100   8.350  0.0732  0.0979  0.0185
 2582SOL    HW119379   0.717   1.152   8.272  2.6746  1.0894  1.2013
 2582SOL    HW219380   0.722   1.011   8.323 -0.9499  0.1801 -1.0290
 2583SOL     OW19381   4.109   2.827  13.496  0.7894  0.0540 -0.0565
 2583SOL    HW119382   4.116   2.746  13.444  0.5420 -2.2079  3.4534
 2583SOL    HW219383   4.147   2.801  13.579 -0.4489 -2.8554 -0.3937
 2584SOL     OW19384   4.606   2.260   3.026  0.5478 -0.2856 -0.5556
 2584SOL    HW119385   4.664   2.226   2.957  0.4863 -1.1679 -0.1697
 2584SOL    HW219386   4.632   2.195   3.091  0.7209 -1.0827 -1.4176
 2585SOL     OW19387   3.190   3.351   8.815  0.0962 -0.4490  0.8769
 2585SOL    HW119388   3.245   3.401   8.754 -1.1648 -0.0697  0.0341
 2585SOL    HW219389   3.246   3.323   8.887  1.3716 -0.1279  0.0213
 2586SOL     OW19390   1.665   0.180  13.443  0.7306 -0.2065 -0.3125
 2586SOL    HW119391   1.684   0.163  13.535 -0.0124 -0.3163 -0.1748
 2586SOL    HW219392   1.711   0.114  13.391 -0.4252 -0.6381 -0.7779
 2587SOL     OW19393   2.718   4.351   4.597 -0.7252  0.3905  0.1579
 2587SOL    HW119394   2.728   4.303   4.514  0.9915 -0.6783  0.9741
 2587SOL    HW219395   2.708   4.441   4.569 -1.9342  0.0283 -0.5889
 2588SOL     OW19396   0.123   4.477   7.126 -0.1589  0.3679 -0.4228
 2588SOL    HW119397   0.053   4.542   7.127 -1.0304 -0.5702 -0.8214
 2588SOL    HW219398   0.092   4.410   7.065 -1.3009 -1.8285  2.6011
 2589SOL     OW19399   4.044   3.030   0.614  0.4319  0.0713  0.0278
 2589SOL    HW119400   3.990   3.104   0.585  0.4027  0.5830  1.4207
 2589SOL    HW219401   4.016   3.033   0.705  0.2450 -0.7785  0.0037
 2590SOL     OW19402   1.367   1.930   2.002 -0.1020  0.6406  0.3999
 2590SOL    HW119403   1.418   1.949   1.924 -1.7761 -1.7995 -1.2782
 2590SOL    HW219404   1.295   1.884   1.958  1.3104 -0.9714 -0.2128
 2591SOL     OW19405   3.981   4.502   8.145 -0.6426 -0.7795 -0.1044
 2591SOL    HW119406   4.018   4.516   8.057  1.0067  0.2796  0.7547
 2591SOL    HW219407   3.936   4.420   8.127  0.3927 -1.3233 -0.2219
 2592SOL     OW19408   4.171   2.285   9.029  0.0283  0.1874 -0.3856
 2592SOL    HW119409   4.246   2.344   9.021  0.1471  0.4328  2.3586
 2592SOL    HW219410   4.097   2.336   9.062  0.4938 -1.2508  2.8875
 2593SOL     OW19411   2.474   2.131   5.647  0.2571  0.0632 -0.8555
 2593SOL    HW119412   2.487   2.067   5.716 -0.0813  0.9045 -0.0150
 2593SOL    HW219413   2.510   2.205   5.696  1.5689  0.3177 -2.1879
 2594SOL     OW19414   1.289   3.772   8.110 -0.4313  0.1499  0.5034
 2594SOL    HW119415   1.258   3.719   8.183 -1.1985 -0.0268  0.0409
 2594SOL    HW219416   1.322   3.713   8.042 -0.1263  0.6015  0.2606
 2595SOL     OW19417   3.985   4.695  16.830 -0.3923  0.9574  0.5840
 2595SOL    HW119418   4.052   4.637  16.795  1.2761  3.0171  0.3939
 2595SOL    HW219419   3.964   0.006  16.749 -0.5079 -0.3411 -0.1436
 2596SOL     OW19420   4.099   4.621   2.669 -0.2285  0.6471  0.5839
 2596SOL    HW119421   4.146   4.544   2.702  1.2887  0.5445 -1.7778
 2596SOL    HW219422   4.105   4.601   2.575  0.8046 -2.8740  1.4122
 2597SOL     OW19423   0.805   3.676   2.231  0.6922  0.3485  0.1339
 2597SOL    HW119424   0.758   3.675   2.314 -1.0743 -0.1477 -0.8616
 2597SOL    HW219425   0.746   3.739   2.189  0.5964 -0.3867 -0.8551
 2598SOL     OW19426   3.246   0.440   4.461  0.2782 -0.0386 -0.3251
 2598SOL    HW119427   3.247   0.532   4.434 -0.0264 -0.2778 -1.1735
 2598SOL    HW219428   3.338   0.415   4.459 -0.0123 -1.1416  0.1924
 2599SOL     OW19429   2.721   3.246   9.000 -0.3361 -0.0501  0.2496
 2599SOL    HW119430   2.635   3.204   8.991 -0.5135  0.4481 -0.3761
 2599SOL    HW219431   2.708   3.311   8.931 -2.1953 -2.2817 -1.5491
 2600SOL     OW19432   0.804   0.030  14.232  0.3157 -0.4282  0.4296
 2600SOL    HW119433   0.781   0.110  14.184 -2.5730 -1.0432  0.8256
 2600SOL    HW219434   0.852   4.726  14.160  1.0561 -1.4969  1.5334
 2601SOL     OW19435   2.268   0.071   6.997 -0.6247  0.0269  0.2361
 2601SOL    HW119436   2.324   4.731   7.012 -2.6189 -1.8387 -1.8057
 2601SOL    HW219437   2.284   0.076   6.903  1.2705  1.3223  0.6333
 2602SOL     OW19438   2.053   1.750   2.794  0.3409  0.3246  0.2495
 2602SOL    HW119439   2.145   1.769   2.779  0.7420 -0.1845  2.0460
 2602SOL    HW219440   2.057   1.665   2.838  1.4002  0.8933  1.2374
 2603SOL     OW19441   3.714   2.765   3.783 -0.1244  0.0790  0.4716
 2603SOL    HW119442   3.721   2.804   3.696  0.5074 -2.5208 -0.6479
 2603SOL    HW219443   3.805   2.739   3.797 -0.0402 -0.2473 -0.6533
 2604SOL     OW19444   4.343   3.457   6.234 -0.7593 -0.2810 -0.2303
 2604SOL    HW119445   4.372   3.366   6.231 -0.5505 -0.2505  0.9827
 2604SOL    HW219446   4.413   3.504   6.279  1.0944 -2.8721 -0.3520
 2605SOL     OW19447   0.836   1.286   5.315  0.6222  0.5201  0.3324
 2605SOL    HW119448   0.885   1.367   5.327  2.8413 -0.6683 -0.6294
 2605SOL    HW219449   0.792   1.278   5.399 -0.5965  1.3328 -0.2274
 2606SOL     OW19450   2.859   4.435   8.631 -0.0264  0.0557 -0.2449
 2606SOL    HW119451   2.810   4.481   8.699 -0.5100  0.4740 -0.8892
 2606SOL    HW219452   2.897   4.501   8.574  2.8775 -1.2440  0.1527
 2607SOL     OW19453   1.512   3.597   3.012  0.4547  0.1024  0.2349
 2607SOL    HW119454   1.560   3.679   3.006  0.7650 -0.2103 -1.7021
 2607SOL    HW219455   1.458   3.610   3.090  0.9999  2.0833  0.2750
 2608SOL     OW19456   0.629   3.846   7.140 -0.3225  0.4435  0.4902
 2608SOL    HW119457   0.613   3.863   7.233  3.0558  0.2222  1.1227
 2608SOL    HW219458   0.611   3.927   7.092 -2.2663  1.1062  2.3289
 2609SOL     OW19459   0.121   2.708   3.678 -0.6095 -0.3833 -0.3528
 2609SOL    HW119460   0.084   2.708   3.590 -3.5344 -0.9267  0.8883
 2609SOL    HW219461   0.082   2.792   3.705  1.4414  0.6894 -0.7116
 2610SOL     OW19462   1.658   1.259   4.597 -0.0731  0.4748  0.0911
 2610SOL    HW119463   1.706   1.309   4.532  0.0709  1.0219  0.6234
 2610SOL    HW219464   1.582   1.231   4.545  1.9741 -1.2524 -1.9490
 2611SOL     OW19465   0.985   3.889   9.087 -0.0112  0.1002  0.8002
 2611SOL    HW119466   0.990   3.843   9.003  3.6735 -0.8680  1.5432
 2611SOL    HW219467   0.889   3.888   9.096  0.1346  0.6274  2.3511
 2612SOL     OW19468   0.446   0.072  16.076 -0.0274  0.8658  0.5357
 2612SOL    HW119469   0.468   0.083  15.983  1.1919  0.3656  0.7616
 2612SOL    HW219470   0.525   0.109  16.115  1.3196 -0.0915 -1.2545
 2613SOL     OW19471   2.072   3.600  17.103 -0.3320 -0.9039 -0.7084
 2613SOL    HW119472   2.159   3.639  17.095 -1.1705  1.4046  1.3231
 2613SOL    HW219473   2.069   3.565  17.193 -2.7057  0.9161 -0.0788
 2614SOL     OW19474   4.401   3.242   6.987 -0.1204  0.5226  0.1563
 2614SOL    HW119475   4.415   3.327   6.946 -1.0519  0.1871 -0.8793
 2614SOL    HW219476   4.339   3.268   7.055  2.2835  2.4584  1.6067
 2615SOL     OW19477   1.811   4.032   4.127  0.2086 -0.4212 -0.6621
 2615SOL    HW119478   1.790   4.094   4.057 -0.0578 -0.3982 -0.5585
 2615SOL    HW219479   1.885   3.992   4.080  0.8950 -0.4252  0.4052
 2616SOL     OW19480   0.123   3.527   3.140  0.0258 -0.2914  0.0205
 2616SOL    HW119481   0.164   3.464   3.081  1.9885 -1.2919  2.4684
 2616SOL    HW219482   0.045   3.557   3.093  0.2654  3.3159  1.9745
 2617SOL     OW19483   1.187   3.404   3.192 -0.2640  0.4469 -0.1568
 2617SOL    HW119484   1.265   3.348   3.198 -0.2270  0.1792 -2.9949
 2617SOL    HW219485   1.123   3.355   3.243 -2.5269 -0.0491 -3.4783
 2618SOL     OW19486   3.883   3.349   2.991  0.0891 -0.3462  0.3077
 2618SOL    HW119487   3.846   3.437   2.991  0.3801 -0.2234  0.5099
 2618SOL    HW219488   3.802   3.300   2.977 -0.9177  2.0244 -2.0449
 2619SOL     OW19489   3.538   0.501  15.311  0.1176  0.3158 -0.8663
 2619SOL    HW119490   3.453   0.517  15.354  1.4015  2.7163  0.7410
 2619SOL    HW219491   3.542   0.405  15.309 -3.0645  0.1581  0.3333
 2620SOL     OW19492   4.324   1.718   2.358 -0.5463  0.8127 -0.3774
 2620SOL    HW119493   4.347   1.793   2.303  2.4236 -0.2561 -0.5781
 2620SOL    HW219494   4.364   1.740   2.442 -1.2340 -0.7131  0.3562
 2621SOL     OW19495   4.064   1.370  13.777  0.2586 -0.0339 -0.3254
 2621SOL    HW119496   4.113   1.291  13.801  0.6257  0.0514 -0.8041
 2621SOL    HW219497   4.008   1.374  13.854 -0.1917  0.6430 -0.6861
 2622SOL     OW19498   1.926   4.267  15.698 -0.5349 -0.0940  0.1548
 2622SOL    HW119499   1.907   4.251  15.606 -0.7208 -2.5021  0.6038
 2622SOL    HW219500   1.864   4.338  15.716 -0.3677  0.1227 -0.1437
 2623SOL     OW19501   2.505   0.697   8.615 -0.1159 -0.2085  0.4634
 2623SOL    HW119502   2.442   0.641   8.659 -0.1585 -0.8911 -0.4687
 2623SOL    HW219503   2.461   0.781   8.626 -1.7363 -1.0057  0.0321
 2624SOL     OW19504   3.400   0.606   9.702  0.0920 -0.2093 -0.3945
 2624SOL    HW119505   3.438   0.614   9.614  0.0530 -0.9402 -0.4738
 2624SOL    HW219506   3.312   0.577   9.677  0.9470 -2.0444 -1.2214
 2625SOL     OW19507   2.424   2.034   6.928 -0.4262  0.0661  0.2554
 2625SOL    HW119508   2.479   1.976   6.980 -2.6084 -0.9258  1.4379
 2625SOL    HW219509   2.475   2.115   6.940 -2.3850  1.3052  0.1346
 2626SOL     OW19510   1.305   4.676   7.634 -0.3746  0.5449  0.5341
 2626SOL    HW119511   1.281   0.028   7.665  0.7668  1.4991 -1.3394
 2626SOL    HW219512   1.338   4.630   7.712 -2.7898  0.3619  1.4537
 2627SOL     OW19513   0.775   4.692   3.649  0.1038 -0.6938  0.1931
 2627SOL    HW119514   0.853   4.665   3.600  0.2881  0.3949 -0.1090
 2627SOL    HW219515   0.712   4.624   3.625 -1.8880  0.9168  0.8139
 2628SOL     OW19516   0.970   4.358  14.742  0.6045  0.5718 -0.2659
 2628SOL    HW119517   1.060   4.341  14.714  0.2388 -1.0908 -0.4370
 2628SOL    HW219518   0.982   4.326  14.831  0.3113 -2.3532 -1.2605
 2629SOL     OW19519   4.567   3.460   5.210  0.0905 -0.3759  0.1680
 2629SOL    HW119520   4.525   3.391   5.261  0.8173 -1.7451 -1.1053
 2629SOL    HW219521   4.556   3.537   5.266 -0.5421 -0.8253  0.6596
 2630SOL     OW19522   4.105   0.830   8.325  0.3080  0.1841 -0.4164
 2630SOL    HW119523   4.138   0.818   8.236  1.8400 -2.0688  0.4711
 2630SOL    HW219524   4.118   0.746   8.368 -0.1371 -0.9558 -2.4830
 2631SOL     OW19525   2.019   2.707  13.712  0.4183 -0.0824  0.1439
 2631SOL    HW119526   2.023   2.770  13.639 -0.5337 -1.6606 -1.2712
 2631SOL    HW219527   1.927   2.715  13.737 -0.4659  0.7553 -3.2884
 2632SOL     OW19528   3.735   1.870   5.709 -0.3539 -0.0359 -0.1562
 2632SOL    HW119529   3.709   1.780   5.727  2.5060 -0.9179 -0.5368
 2632SOL    HW219530   3.693   1.877   5.623  0.4532  1.5834 -0.4202
 2633SOL     OW19531   0.939   4.547   2.371 -0.3468  0.0554 -0.1616
 2633SOL    HW119532   1.024   4.518   2.404 -0.0876  0.3389 -0.5804
 2633SOL    HW219533   0.919   4.478   2.308 -2.4183 -0.2311  0.8074
 2634SOL     OW19534   2.705   4.126   6.713  0.3461 -0.4235 -0.3856
 2634SOL    HW119535   2.771   4.171   6.766 -0.3569  1.4992 -1.1271
 2634SOL    HW219536   2.646   4.117   6.788  0.9912 -0.6126  0.0922
 2635SOL     OW19537   1.561   1.015   8.532  0.3357 -0.2017  0.6371
 2635SOL    HW119538   1.584   0.964   8.610 -2.5527  0.4537  1.8971
 2635SOL    HW219539   1.640   0.998   8.480  0.3706 -0.2020  0.6898
 2636SOL     OW19540   4.115   1.202   4.537  0.0008  0.1983 -0.5583
 2636SOL    HW119541   4.071   1.286   4.530 -0.1457  0.3254  1.7667
 2636SOL    HW219542   4.077   1.169   4.619  1.9453 -0.8197 -0.0437
 2637SOL     OW19543   3.429   1.286   7.414 -0.1192  0.4108 -0.5942
 2637SOL    HW119544   3.399   1.211   7.465 -2.7794  1.0782 -1.1716
 2637SOL    HW219545   3.400   1.259   7.327  0.7018 -0.7742 -0.5062
 2638SOL     OW19546   2.634   0.334   1.264 -0.1259 -0.0804 -0.1101
 2638SOL    HW119547   2.708   0.371   1.312  0.2733 -0.0803 -0.7195
 2638SOL    HW219548   2.594   0.410   1.221 -0.4860 -0.6046 -0.6885
 2639SOL     OW19549   1.004   0.213   5.084 -0.0139  0.4955 -0.2601
 2639SOL    HW119550   1.097   0.206   5.107 -0.3178 -0.9878  0.5044
 2639SOL    HW219551   0.989   0.120   5.069  0.6788  0.5370 -1.2462
 2640SOL     OW19552   1.905   1.494   8.271  0.0389  0.1582  0.7072
 2640SOL    HW119553   1.884   1.587   8.283  3.2372  0.9025  0.4960
 2640SOL    HW219554   1.820   1.461   8.243  0.9395 -2.2512  0.7758
 2641SOL     OW19555   4.327   0.853   9.106 -0.0302 -0.0762  0.2536
 2641SOL    HW119556   4.328   0.892   9.019 -3.2146 -2.6313 -0.9266
 2641SOL    HW219557   4.366   0.766   9.101 -0.5156 -0.2410 -0.7689
 2642SOL     OW19558   3.143   0.382   9.245 -0.2666 -0.0192  0.6445
 2642SOL    HW119559   3.107   0.383   9.157 -0.5374  1.3922  0.7822
 2642SOL    HW219560   3.202   0.457   9.237 -0.3619  0.0175  0.2901
 2643SOL     OW19561   0.588   4.468  12.096 -0.3475 -0.1039  0.6303
 2643SOL    HW119562   0.675   4.482  12.058 -1.0684  1.0240 -0.6164
 2643SOL    HW219563   0.590   4.393  12.155  0.6507 -1.2788 -0.9299
 2644SOL     OW19564   0.666   3.119   4.267 -0.1065  0.0409  0.2518
 2644SOL    HW119565   0.723   3.055   4.310  0.5157 -0.1718 -0.8862
 2644SOL    HW219566   0.579   3.081   4.281  0.2292 -0.9784 -0.3899
 2645SOL     OW19567   4.538   0.152   6.365 -0.3536 -0.2652  0.1032
 2645SOL    HW119568   4.556   0.070   6.320  1.2899  0.0085  0.2462
 2645SOL    HW219569   4.619   0.199   6.345  0.5053 -1.4521  0.8693
 2646SOL     OW19570   1.300   3.284   8.763  0.0429 -0.5181 -0.1094
 2646SOL    HW119571   1.383   3.263   8.721  0.5588 -0.2078  0.7513
 2646SOL    HW219572   1.312   3.239   8.847  0.3711  0.1128  0.1836
 2647SOL     OW19573   3.535   3.994   4.417 -1.0846 -0.9489  0.4433
 2647SOL    HW119574   3.615   3.958   4.378 -0.2211  2.8490 -1.3430
 2647SOL    HW219575   3.570   4.041   4.492 -0.1939  2.6218 -2.1842
 2648SOL     OW19576   3.534   3.344   1.169  0.2097 -0.1591 -0.2823
 2648SOL    HW119577   3.624   3.311   1.174  0.6045  0.9930  0.3563
 2648SOL    HW219578   3.553   3.425   1.121  0.5026 -0.0822 -0.0435
 2649SOL     OW19579   4.492   3.536   7.580  0.0025 -0.2463 -0.0591
 2649SOL    HW119580   4.577   3.492   7.587 -0.9675 -2.2559 -0.8924
 2649SOL    HW219581   4.499   3.587   7.660 -0.5935  0.0024 -0.1650
 2650SOL     OW19582   2.863   1.649   8.683  0.2361 -0.3803 -0.6565
 2650SOL    HW119583   2.817   1.615   8.606 -1.0074  2.1502 -1.0344
 2650SOL    HW219584   2.951   1.673   8.655 -0.1435  2.5301  0.7047
 2651SOL     OW19585   2.551   2.010   5.411  0.0381  0.6247 -0.2757
 2651SOL    HW119586   2.531   2.057   5.492 -0.9457 -1.5803  0.7806
 2651SOL    HW219587   2.643   1.989   5.422 -0.4995 -1.6372  0.0806
 2652SOL     OW19588   3.582   4.275   1.225  0.3079 -0.2181 -0.0073
 2652SOL    HW119589   3.531   4.357   1.226  0.9314  0.1768 -0.7924
 2652SOL    HW219590   3.584   4.248   1.317  1.6854  0.4968  0.1680
 2653SOL     OW19591   3.528   0.897   3.166  0.6515  0.2194 -0.2224
 2653SOL    HW119592   3.434   0.900   3.183  0.5103 -0.6183 -0.8672
 2653SOL    HW219593   3.530   0.873   3.073  1.0208 -0.4326 -0.0448
 2654SOL     OW19594   2.478   1.823   2.183 -0.3290  0.5502 -0.2083
 2654SOL    HW119595   2.517   1.884   2.246 -0.3433  0.3457 -0.0045
 2654SOL    HW219596   2.387   1.853   2.184 -0.6131 -0.2317 -1.8766
 2655SOL     OW19597   1.807   1.260   8.660 -0.3636 -0.5764  0.9326
 2655SOL    HW119598   1.713   1.271   8.647  0.0879  0.9111 -1.0523
 2655SOL    HW219599   1.813   1.189   8.723  2.6198 -0.1762  1.0722
 2656SOL     OW19600   1.456   3.488   4.860  0.4105  0.1207  0.1887
 2656SOL    HW119601   1.480   3.579   4.842 -0.4295  0.1140 -1.0098
 2656SOL    HW219602   1.545   3.456   4.869 -0.1333 -1.7994 -1.1855
 2657SOL     OW19603   4.485   4.615   3.767  0.0864 -0.6237  0.0631
 2657SOL    HW119604   4.538   4.663   3.704  0.3583  0.0624  0.8126
 2657SOL    HW219605   4.448   4.542   3.718 -2.3649  1.2613 -0.9124
 2658SOL     OW19606   2.656   1.030   4.571  0.1607  0.1250 -0.2460
 2658SOL    HW119607   2.654   1.125   4.564 -1.4332  0.1884  1.0458
 2658SOL    HW219608   2.705   1.012   4.491  0.3497 -0.3672 -0.0245
 2659SOL     OW19609   3.857   3.182   3.495  0.1339  0.0731 -0.1735
 2659SOL    HW119610   3.861   3.126   3.572 -1.4432  0.8163  0.4522
 2659SOL    HW219611   3.929   3.243   3.516  0.1512  0.4767 -1.3763
 2660SOL     OW19612   3.087   2.666   2.718 -0.2793 -0.1932  0.4917
 2660SOL    HW119613   3.013   2.608   2.734 -0.2812  0.2491  2.0278
 2660SOL    HW219614   3.131   2.677   2.802 -0.6088  2.1133  0.3659
 2661SOL     OW19615   4.408   1.632  13.871 -0.2472 -0.1883 -0.0571
 2661SOL    HW119616   4.317   1.634  13.902 -0.3241 -0.5120 -0.2640
 2661SOL    HW219617   4.424   1.539  13.888 -0.3643 -0.1593  0.2255
 2662SOL     OW19618   0.237   0.907  12.120  0.6165  0.4781  0.0614
 2662SOL    HW119619   0.218   0.998  12.095 -1.6044 -0.5194 -1.9082
 2662SOL    HW219620   0.240   0.857  12.038  1.3876 -0.5375  0.7129
 2663SOL     OW19621   3.929   4.539  15.626  0.5493  0.6911  0.7557
 2663SOL    HW119622   3.969   4.575  15.705  1.4931  1.8880 -0.2659
 2663SOL    HW219623   3.912   4.623  15.584  0.9862 -0.8199 -2.4586
 2664SOL     OW19624   1.288   0.226   7.501 -0.5798  0.1927  0.1870
 2664SOL    HW119625   1.347   0.233   7.426  0.2091 -2.2880  0.6023
 2664SOL    HW219626   1.314   0.295   7.562  2.1343  0.4036 -1.2134
 2665SOL     OW19627   2.315   1.525   7.356  0.3994 -0.2777 -0.1481
 2665SOL    HW119628   2.340   1.477   7.435  0.2893  0.6585  0.4576
 2665SOL    HW219629   2.266   1.600   7.390 -1.1035 -0.5028 -1.8755
 2666SOL     OW19630   3.495   4.117   3.279  0.2702  0.2394  0.0040
 2666SOL    HW119631   3.543   4.103   3.197 -1.6953 -0.9232 -0.9332
 2666SOL    HW219632   3.556   4.063   3.330  1.0667  4.0039  3.0249
 2667SOL     OW19633   0.347   1.381   8.706  0.6609  0.0116  0.0044
 2667SOL    HW119634   0.375   1.309   8.761 -0.8439 -0.1425  0.5508
 2667SOL    HW219635   0.262   1.404   8.744  0.8594 -0.9286  1.0064
 2668SOL     OW19636   2.345   0.296   3.283  0.1516  0.3672  0.4469
 2668SOL    HW119637   2.360   0.266   3.193  0.1904 -2.9270  1.5671
 2668SOL    HW219638   2.286   0.369   3.264  0.3752  0.0264 -1.5333
 2669SOL     OW19639   2.403   4.328   4.319  0.1540  0.0761 -0.3379
 2669SOL    HW119640   2.341   4.327   4.392  0.7527 -1.2010  0.1551
 2669SOL    HW219641   2.431   4.239   4.298  0.1881 -0.0467  0.2228
 2670SOL     OW19642   2.008   0.853   5.535 -0.1935 -0.1638  0.2313
 2670SOL    HW119643   1.999   0.785   5.602  0.2700  0.2393  0.7004
 2670SOL    HW219644   2.034   0.926   5.591 -1.5728 -0.0088  0.6857
 2671SOL     OW19645   1.147   2.359  14.341  0.5253  0.1848 -0.1204
 2671SOL    HW119646   1.136   2.265  14.355 -2.3633  0.3579 -1.1198
 2671SOL    HW219647   1.097   2.367  14.260  2.3231  0.4308 -1.1785
 2672SOL     OW19648   0.267   0.007   8.077 -0.2545  0.1541  0.4056
 2672SOL    HW119649   0.200   0.075   8.084  1.8133  2.1853  0.0624
 2672SOL    HW219650   0.312   0.026   8.159  0.6193  0.1080 -0.0699
 2673SOL     OW19651   3.009   1.271  15.950 -0.1817  0.1586  0.5266
 2673SOL    HW119652   3.031   1.205  15.884 -1.0575 -0.5276  0.9256
 2673SOL    HW219653   3.042   1.347  15.901  2.1034 -0.3191  1.3201
 2674SOL     OW19654   1.702   4.413  10.404  0.0050  0.0523  0.1698
 2674SOL    HW119655   1.713   4.508  10.399 -0.2788  0.1850  1.9790
 2674SOL    HW219656   1.688   4.378  10.316  0.2907  2.1371 -0.7000
 2675SOL     OW19657   1.569   4.644   3.744 -0.1780 -0.0840  0.0571
 2675SOL    HW119658   1.527   4.722   3.707  1.0942 -0.1723 -1.5683
 2675SOL    HW219659   1.660   4.663   3.720 -0.3773 -3.0373 -2.9750
 2676SOL     OW19660   2.311   3.763   1.781 -0.5086 -0.1642 -0.1465
 2676SOL    HW119661   2.322   3.839   1.724  1.5518  0.7639  1.4958
 2676SOL    HW219662   2.301   3.824   1.855 -0.8617  0.7564 -0.9550
 2677SOL     OW19663   4.476   1.083   5.853  0.6126 -0.0657 -0.2714
 2677SOL    HW119664   4.548   1.071   5.915  2.3374  1.2010 -2.0065
 2677SOL    HW219665   4.399   1.084   5.910  2.3950  1.3597  2.0897
 2678SOL     OW19666   2.421   1.853   3.891  0.0231 -0.2833 -0.8928
 2678SOL    HW119667   2.449   1.762   3.904 -1.5502 -0.5491  0.5479
 2678SOL    HW219668   2.495   1.897   3.934 -0.1994  0.6032 -1.4270
 2679SOL     OW19669   0.478   1.609   2.348 -0.0766  0.5873  0.5016
 2679SOL    HW119670   0.503   1.581   2.436  0.8233 -0.0468  0.0531
 2679SOL    HW219671   0.515   1.697   2.354 -1.1620  1.0045  1.0215
 2680SOL     OW19672   3.862   3.932   1.761  0.0464 -0.0129 -0.5838
 2680SOL    HW119673   3.824   3.898   1.842  0.6458 -0.1613 -0.3662
 2680SOL    HW219674   3.794   3.990   1.727  0.1349  0.1127 -0.5500
 2681SOL     OW19675   4.378   2.570   7.161 -0.1036  0.3098 -0.6155
 2681SOL    HW119676   4.464   2.568   7.120  0.2540 -3.3313  0.3562
 2681SOL    HW219677   4.381   2.568   7.257  0.7419 -1.2059 -0.6860
 2682SOL     OW19678   3.316   1.324   5.393  0.5215 -0.4625  0.8062
 2682SOL    HW119679   3.357   1.341   5.308 -0.8112 -1.2197  0.0212
 2682SOL    HW219680   3.339   1.234   5.412  1.9917 -0.7069 -2.0345
 2683SOL     OW19681   4.413   3.599   2.031  0.2646 -0.4555 -0.5032
 2683SOL    HW119682   4.336   3.609   2.088  0.4483  1.4108 -0.5814
 2683SOL    HW219683   4.468   3.672   2.060 -0.8211  0.3322 -0.4496
 2684SOL     OW19684   3.367   4.598   3.523  0.1123 -0.3169  0.1903
 2684SOL    HW119685   3.351   4.607   3.617 -1.5087  0.5258 -0.1640
 2684SOL    HW219686   3.435   4.664   3.515 -1.0027  0.7253 -0.6203
 2685SOL     OW19687   4.189   4.245   8.720  0.2163  0.0292  0.0501
 2685SOL    HW119688   4.150   4.163   8.691 -1.0784  0.4913  0.4797
 2685SOL    HW219689   4.258   4.253   8.654 -0.7900 -1.6057 -1.1964
 2686SOL     OW19690   1.596   1.696   5.149 -0.0977  0.1584 -0.6579
 2686SOL    HW119691   1.659   1.765   5.167 -1.8311  2.1005 -2.0158
 2686SOL    HW219692   1.650   1.617   5.153  1.2440  1.0973 -0.4387
 2687SOL     OW19693   0.611   3.676   8.539  0.2157  0.2805 -0.5023
 2687SOL    HW119694   0.631   3.769   8.548 -2.6917  0.6887  1.5724
 2687SOL    HW219695   0.590   3.661   8.447 -2.2049  3.0436 -0.3682
 2688SOL     OW19696   0.015   2.258  12.521  0.1209 -0.0471 -0.2741
 2688SOL    HW119697   0.070   2.308  12.580 -0.2521  0.8421 -0.6846
 2688SOL    HW219698   0.076   2.186  12.503  2.8393  2.4485 -0.9449
 2689SOL     OW19699   4.331   3.831   3.512  0.0436 -0.0307  0.0138
 2689SOL    HW119700   4.354   3.852   3.422  2.7289  0.3448  0.7668
 2689SOL    HW219701   4.292   3.912   3.545  3.3723  1.6843 -0.1696
 2690SOL     OW19702   1.637   1.674   8.884  0.7015 -0.2934  0.2436
 2690SOL    HW119703   1.721   1.710   8.915  1.1257  0.3886 -1.6939
 2690SOL    HW219704   1.644   1.680   8.789 -0.5553  2.5564  0.3292
 2691SOL     OW19705   4.233   3.468   3.327 -0.1600 -0.7763 -0.1994
 2691SOL    HW119706   4.153   3.416   3.333 -1.0980  0.5445 -1.0195
 2691SOL    HW219707   4.232   3.511   3.412  0.2264 -0.7307 -0.2170
 2692SOL     OW19708   0.038   2.701   4.058  0.0233 -0.3915  0.3019
 2692SOL    HW119709   0.057   2.607   4.060 -1.6034 -0.7064  1.2935
 2692SOL    HW219710   0.081   2.720   3.975  2.9122 -2.6112  1.2760
 2693SOL     OW19711   0.094   0.510  12.354  0.1680  0.1347 -0.3311
 2693SOL    HW119712   0.023   0.448  12.370  0.8362 -1.2821 -2.8646
 2693SOL    HW219713   0.158   0.466  12.410  0.7203  1.4631  0.0729
 2694SOL     OW19714   1.779   3.482   9.954  0.2688 -0.6119  0.3417
 2694SOL    HW119715   1.871   3.502   9.937 -0.0042 -1.8481 -2.5703
 2694SOL    HW219716   1.772   3.417   9.884 -2.6852  1.1452 -1.0190
 2695SOL     OW19717   2.924   0.069   9.395 -0.0271  0.4560 -0.5188
 2695SOL    HW119718   2.946   0.061   9.302  0.5494 -1.8046 -0.1994
 2695SOL    HW219719   2.837   0.109   9.385  0.5538  2.1964  1.5248
 2696SOL     OW19720   0.398   0.487   5.717 -0.1120  0.0977 -0.6254
 2696SOL    HW119721   0.472   0.452   5.767  0.7729  0.3607 -1.7409
 2696SOL    HW219722   0.335   0.416   5.726 -1.2429  1.4029  1.5441
 2697SOL     OW19723   1.929   4.607   7.215 -0.4990  0.3891 -0.8240
 2697SOL    HW119724   1.913   4.543   7.284  2.3670  0.8822  0.2817
 2697SOL    HW219725   1.938   4.545   7.143  1.4442  1.8019 -1.7771
 2698SOL     OW19726   1.561   0.677  11.716  0.1615 -0.1249 -0.3458
 2698SOL    HW119727   1.511   0.753  11.687  1.6695  0.2856 -1.8719
 2698SOL    HW219728   1.527   0.622  11.646 -0.0646 -0.8382  0.3217
 2699SOL     OW19729   0.271   3.073   8.850 -0.2496 -0.1032  0.1525
 2699SOL    HW119730   0.315   3.099   8.769 -1.8907 -0.9374 -1.0116
 2699SOL    HW219731   0.184   3.040   8.826 -0.3099  0.7261 -0.7746
 2700SOL     OW19732   4.016   3.398   2.001 -0.4720  0.3390  0.1247
 2700SOL    HW119733   4.111   3.384   1.993 -0.5047  0.1102  0.1529
 2700SOL    HW219734   3.983   3.322   2.048 -0.8976  0.2416 -0.3371
 2701SOL     OW19735   4.735   3.637   0.360 -0.2260  0.2711 -0.0945
 2701SOL    HW119736   0.076   3.590   0.393 -0.3835 -0.6922 -1.0907
 2701SOL    HW219737   0.043   3.714   0.324 -0.1867  0.1656 -0.2726
 2702SOL     OW19738   2.501   3.052   3.925 -0.0024  0.7107  0.1011
 2702SOL    HW119739   2.528   3.104   3.850 -0.2667  0.2201 -0.3274
 2702SOL    HW219740   2.405   3.053   3.925 -0.0427 -2.1049 -1.6096
 2703SOL     OW19741   1.559   1.969   6.004 -0.4846 -0.3238 -0.1709
 2703SOL    HW119742   1.496   2.038   6.023  0.2269  0.8460 -2.1071
 2703SOL    HW219743   1.515   1.886   5.983 -1.7821  0.4776 -0.6060
 2704SOL     OW19744   1.572   0.967   1.806 -0.1749 -0.2271  0.5693
 2704SOL    HW119745   1.521   0.907   1.751  1.2026 -2.5731  1.8530
 2704SOL    HW219746   1.655   0.921   1.810  0.7426  1.3978 -0.0174
 2705SOL     OW19747   4.141   1.351   6.658  0.1909  0.0808  0.1337
 2705SOL    HW119748   4.197   1.412   6.610 -0.0926 -1.3305 -1.9664
 2705SOL    HW219749   4.107   1.402   6.732  1.8944  0.8793  0.3554
 2706SOL     OW19750   3.163   1.134   8.378 -0.0643  0.0270 -0.6567
 2706SOL    HW119751   3.139   1.142   8.286  0.0884  0.5584 -0.6480
 2706SOL    HW219752   3.123   1.047   8.384 -1.3975  0.7964  1.9746
 2707SOL     OW19753   2.372   1.016   4.255 -0.3376 -0.2955 -0.3556
 2707SOL    HW119754   2.334   0.961   4.323  0.0060  0.8258  0.7371
 2707SOL    HW219755   2.430   0.948   4.218  1.5278 -0.6077  3.0580
 2708SOL     OW19756   1.912   3.039   3.215 -0.3332  0.3177  0.6853
 2708SOL    HW119757   1.881   2.950   3.200  0.7638  0.0590 -0.0850
 2708SOL    HW219758   1.970   3.014   3.287  0.8933  2.9212  0.6120
 2709SOL     OW19759   4.518   3.772   2.730  0.1784  0.2938 -0.1524
 2709SOL    HW119760   4.429   3.805   2.737 -1.0276 -3.0033  0.1351
 2709SOL    HW219761   4.500   3.682   2.704  1.7753 -0.5331  1.6024
 2710SOL     OW19762   3.285   1.787   3.653 -0.0011  0.1012 -0.1677
 2710SOL    HW119763   3.230   1.861   3.629  1.6848  1.9723  1.7783
 2710SOL    HW219764   3.321   1.761   3.568 -0.0990 -1.0427  0.1411
 2711SOL     OW19765   3.435   3.997   7.191  0.3105  0.2236  0.0495
 2711SOL    HW119766   3.514   3.949   7.163  0.3763  1.4706 -1.9011
 2711SOL    HW219767   3.417   3.959   7.277 -0.3607 -2.2723 -1.2126
 2712SOL     OW19768   2.982   1.641   9.672  0.1048  0.1494  0.0682
 2712SOL    HW119769   3.055   1.702   9.665 -0.9928  1.3762 -0.8017
 2712SOL    HW219770   2.987   1.626   9.766  1.2212 -1.0198 -0.1685
 2713SOL     OW19771   1.739   0.383   6.082 -0.4419  0.8971  0.8519
 2713SOL    HW119772   1.761   0.297   6.117  2.1462  0.2807 -2.2739
 2713SOL    HW219773   1.643   0.389   6.082 -0.4780  0.5156 -1.0032
 2714SOL     OW19774   1.156   1.858   9.261  0.0915  0.0061  0.2014
 2714SOL    HW119775   1.185   1.880   9.349 -0.4301  0.4392  0.2641
 2714SOL    HW219776   1.066   1.828   9.276  0.1025  0.4180  1.0730
 2715SOL     OW19777   3.565   0.014   4.189  0.4885  0.0388 -0.1236
 2715SOL    HW119778   3.489   0.069   4.205  0.9221  0.3077  1.0306
 2715SOL    HW219779   3.548   4.723   4.099  2.8271 -0.6116 -0.3666
 2716SOL     OW19780   0.691   2.886  13.965  0.1560  0.3017 -0.0665
 2716SOL    HW119781   0.644   2.930  14.035  1.0814  0.4271  0.4699
 2716SOL    HW219782   0.748   2.822  14.008 -0.7274 -0.3670  0.1024
 2717SOL     OW19783   4.032   0.245   1.096  0.3135  0.4016  0.0216
 2717SOL    HW119784   4.054   0.233   1.188 -0.5081 -2.0987 -0.1266
 2717SOL    HW219785   3.971   0.319   1.105 -0.5420 -0.5873  2.3171
 2718SOL     OW19786   1.896   2.962  15.819 -0.5845  0.5073 -0.3028
 2718SOL    HW119787   1.865   3.047  15.789 -1.0572  0.4540  0.0273
 2718SOL    HW219788   1.937   2.978  15.904  1.1104 -1.9009 -0.6486
 2719SOL     OW19789   4.584   1.902   2.926 -0.1794  0.1753 -0.0829
 2719SOL    HW119790   4.584   1.966   2.855 -1.0762  0.8766  0.5415
 2719SOL    HW219791   4.674   1.892   2.956  0.3326 -2.2461 -2.4822
 2720SOL     OW19792   2.146   0.876   6.737  0.3130 -0.6748 -0.7192
 2720SOL    HW119793   2.099   0.803   6.777  1.7794 -1.1926  0.0498
 2720SOL    HW219794   2.192   0.830   6.666  1.7007  0.0347 -0.2767
 2721SOL     OW19795   2.986   0.915   5.686 -0.2198  0.0034  0.3149
 2721SOL    HW119796   2.926   0.960   5.746 -0.4903 -0.8942  0.7208
 2721SOL    HW219797   3.013   0.857   5.757 -0.3436 -0.6858 -0.2022
 2722SOL     OW19798   2.717   3.010   8.614 -0.7272  0.0977  0.1403
 2722SOL    HW119799   2.752   2.983   8.699  1.7171  1.3176 -0.4815
 2722SOL    HW219800   2.654   2.940   8.596 -0.2302 -0.1679 -0.5634
 2723SOL     OW19801   3.382   1.014   4.668  0.1883  0.0329  0.2771
 2723SOL    HW119802   3.465   0.969   4.685  0.0888 -0.0816  0.4716
 2723SOL    HW219803   3.387   1.043   4.577 -2.2572  0.5632  0.2989
 2724SOL     OW19804   1.032   2.023   5.923 -0.1535 -0.3764  0.1131
 2724SOL    HW119805   1.116   2.030   5.879  0.0002 -0.0465  0.4496
 2724SOL    HW219806   0.971   2.051   5.855  1.3984  0.3991 -0.9587
 2725SOL     OW19807   0.719   4.217   8.719 -0.2197 -0.0942  0.1859
 2725SOL    HW119808   0.660   4.263   8.778 -0.4884  2.3381 -1.9732
 2725SOL    HW219809   0.794   4.216   8.778 -0.9900  1.7434  1.1768
 2726SOL     OW19810   3.768   3.391  14.801  0.0330  0.1442 -0.2957
 2726SOL    HW119811   3.765   3.487  14.807 -0.3026  0.0708  0.7409
 2726SOL    HW219812   3.679   3.371  14.829 -0.3904  1.4457 -0.7269
 2727SOL     OW19813   2.065   0.559   2.476  0.0072  0.0863 -0.1070
 2727SOL    HW119814   2.055   0.621   2.548 -0.9563  1.3461 -1.3277
 2727SOL    HW219815   2.100   0.613   2.405 -2.3778 -0.9797 -2.0799
 2728SOL     OW19816   2.558   3.450   3.547 -0.1841  0.3722  0.0797
 2728SOL    HW119817   2.616   3.526   3.540  0.2061  0.0894  0.2625
 2728SOL    HW219818   2.575   3.405   3.465  3.2591 -1.0788  1.6352
 2729SOL     OW19819   4.636   3.881  14.890  0.0029 -0.7334  0.5484
 2729SOL    HW119820   4.555   3.932  14.896  0.2421 -0.2484 -0.2494
 2729SOL    HW219821   4.635   3.855  14.982  0.8635 -0.1099  0.7414
 2730SOL     OW19822   2.516   2.260   2.943  0.2033  0.3579  0.3418
 2730SOL    HW119823   2.451   2.256   3.013  1.0413  0.0124  1.1014
 2730SOL    HW219824   2.600   2.260   2.989 -0.3470  2.5519  1.3410
 2731SOL     OW19825   3.588   2.295   8.353  0.5359 -0.0094  0.4080
 2731SOL    HW119826   3.579   2.200   8.361 -1.7861  0.1084 -0.5344
 2731SOL    HW219827   3.497   2.325   8.360  0.1912 -1.3211  1.6140
 2732SOL     OW19828   4.146   2.234   1.581 -0.3489 -0.2091 -0.3974
 2732SOL    HW119829   4.111   2.286   1.654  1.0318  1.3179 -0.8241
 2732SOL    HW219830   4.121   2.293   1.510 -0.0764 -0.5815 -0.7969
 2733SOL     OW19831   4.306   0.839   4.366  0.2820  0.2445  0.5467
 2733SOL    HW119832   4.313   0.876   4.278  0.0254  0.9263  0.8123
 2733SOL    HW219833   4.316   0.921   4.414 -0.3918  2.9754 -4.0051
 2734SOL     OW19834   3.864   4.408  15.884  0.3911  0.0530 -0.4173
 2734SOL    HW119835   3.932   4.476  15.883 -0.7093  1.1466 -0.2383
 2734SOL    HW219836   3.791   4.449  15.838  0.9076 -1.0088 -2.1783
 2735SOL     OW19837   3.564   1.120   9.060  0.1587  0.0478 -0.2749
 2735SOL    HW119838   3.651   1.086   9.081 -0.8416 -1.9296  0.6739
 2735SOL    HW219839   3.520   1.055   9.006 -0.6349  1.4613 -1.3347
 2736SOL     OW19840   0.879   2.916   2.489  0.2260 -0.0793 -0.3102
 2736SOL    HW119841   0.863   2.822   2.488 -2.4497  0.3630 -0.5482
 2736SOL    HW219842   0.969   2.921   2.520 -0.2546 -1.5647  1.3118
 2737SOL     OW19843   1.739   4.228   3.470  0.2369  0.1004 -0.3616
 2737SOL    HW119844   1.699   4.242   3.555 -0.2298 -0.3780 -0.5027
 2737SOL    HW219845   1.664   4.184   3.429  0.1987 -0.8253  0.6933
 2738SOL     OW19846   2.290   0.321   1.986  0.8300 -0.1933  0.1942
 2738SOL    HW119847   2.203   0.328   2.025  1.0930 -1.2154  0.9629
 2738SOL    HW219848   2.324   0.258   2.049 -3.0229 -2.4636 -0.0223
 2739SOL     OW19849   0.345   0.302  12.166 -0.0218  0.0538 -0.4179
 2739SOL    HW119850   0.252   0.311  12.149 -0.3878 -0.5326  1.2894
 2739SOL    HW219851   0.346   0.234  12.233  0.9498 -0.6913 -1.2006
 2740SOL     OW19852   2.258   4.505   6.321  0.8772  0.1451 -0.3296
 2740SOL    HW119853   2.272   4.596   6.297  0.9237  0.0452 -0.6812
 2740SOL    HW219854   2.313   4.513   6.399 -0.9114 -0.4695  0.9945
 2741SOL     OW19855   1.261   1.104  11.256  0.4046  0.3540 -0.0904
 2741SOL    HW119856   1.222   1.185  11.289 -1.3278 -0.3533 -0.3429
 2741SOL    HW219857   1.346   1.111  11.298  0.4650 -0.6581 -0.0408
 2742SOL     OW19858   1.137   2.290   8.834 -0.6316 -0.1130 -0.0041
 2742SOL    HW119859   1.130   2.304   8.929  0.5650  3.0453 -0.3803
 2742SOL    HW219860   1.045   2.283   8.807 -0.8417  0.0796  0.6647
 2743SOL     OW19861   1.473   1.791  16.263  0.5484  0.2075  0.0919
 2743SOL    HW119862   1.482   1.805  16.358 -1.5663 -2.0164  0.6338
 2743SOL    HW219863   1.450   1.882  16.244 -3.5160 -1.0031 -0.8574
 2744SOL     OW19864   2.763   2.550   7.273  0.0853  0.4812 -0.0883
 2744SOL    HW119865   2.838   2.609   7.265 -0.3035  0.7482 -1.6782
 2744SOL    HW219866   2.691   2.612   7.263  1.0543  1.9219  1.8971
 2745SOL     OW19867   3.357   4.531   1.891 -0.0379 -0.0915  0.3671
 2745SOL    HW119868   3.352   4.449   1.841 -0.9926  0.0329  0.2617
 2745SOL    HW219869   3.347   4.493   1.979 -0.9747  0.3928  0.4627
 2746SOL     OW19870   4.464   3.135  11.593 -0.4361 -0.6314  0.1603
 2746SOL    HW119871   4.482   3.089  11.511  0.5972 -2.2023  1.2800
 2746SOL    HW219872   4.409   3.211  11.569  1.1920  1.0586  1.7719
 2747SOL     OW19873   3.653   2.835   2.820  0.3093  0.7282  0.2397
 2747SOL    HW119874   3.594   2.763   2.798 -0.0117  1.7496 -2.1930
 2747SOL    HW219875   3.598   2.914   2.822  0.3021  0.7907 -2.2951
 2748SOL     OW19876   0.190   3.904   1.934 -0.3697  0.0184 -0.2632
 2748SOL    HW119877   0.174   3.817   1.971 -1.1548 -0.0783 -0.8161
 2748SOL    HW219878   0.222   3.889   1.845  1.4461 -0.4502  0.4636
 2749SOL     OW19879   1.929   1.073  15.118  0.1296 -0.3882 -0.1337
 2749SOL    HW119880   1.965   1.117  15.195  2.0252 -1.8111 -0.2116
 2749SOL    HW219881   2.001   1.076  15.055 -0.4062 -0.0593 -0.7217
 2750SOL     OW19882   3.146   4.687   8.751 -0.0397  0.2653 -0.1833
 2750SOL    HW119883   3.161   4.643   8.667  0.4889 -0.6299  0.3806
 2750SOL    HW219884   3.226   0.002   8.758  0.3450 -0.1676 -1.3580
 2751SOL     OW19885   2.859   1.030  14.960 -0.4155 -0.2686 -0.7754
 2751SOL    HW119886   2.843   0.949  15.009 -1.0365 -0.1800 -0.8330
 2751SOL    HW219887   2.949   1.045  14.989  0.2270 -2.9850 -1.3299
 2752SOL     OW19888   2.650   0.937  17.138 -0.1483 -0.1361 -0.2023
 2752SOL    HW119889   2.666   0.972  17.050  1.2540  0.3965  0.2762
 2752SOL    HW219890   2.588   0.865  17.124 -0.8839 -0.0156  2.4370
 2753SOL     OW19891   4.555   2.745  15.962  0.0105 -0.2315 -0.7502
 2753SOL    HW119892   4.551   2.827  16.010  1.7328 -0.5699 -0.0281
 2753SOL    HW219893   4.477   2.750  15.906 -1.2883  1.2991  1.2006
 2754SOL     OW19894   3.412   0.132  10.114 -0.5392  0.2752 -0.4227
 2754SOL    HW119895   3.483   0.081  10.074 -0.4372  1.2466 -1.4648
 2754SOL    HW219896   3.338   0.111  10.058 -0.0718 -0.4976 -0.7477
 2755SOL     OW19897   4.566   1.412   8.015 -0.3353  0.0477  0.0088
 2755SOL    HW119898   4.488   1.404   8.070  0.0720 -0.1346  0.5552
 2755SOL    HW219899   4.629   1.352   8.055  2.1121  1.2426 -2.0698
 2756SOL     OW19900   3.835   4.534  11.870  0.1634  0.1203  0.3486
 2756SOL    HW119901   3.757   4.507  11.919 -0.4419  0.1894 -0.5610
 2756SOL    HW219902   3.857   4.448  11.836  0.1660  0.8350 -1.4458
 2757SOL     OW19903   4.020   1.956  15.140 -0.0658  0.1259 -0.1864
 2757SOL    HW119904   3.945   1.991  15.093  0.2201  0.1263 -0.6344
 2757SOL    HW219905   4.078   1.936  15.067 -0.6526 -1.1028 -0.3169
 2758SOL     OW19906   2.485   1.033   6.771  0.0070  0.7218  0.1517
 2758SOL    HW119907   2.560   1.088   6.747  0.9140 -0.9178 -0.8434
 2758SOL    HW219908   2.454   1.079   6.848 -0.5191 -0.0840  0.4240
 2759SOL     OW19909   2.103   4.679   3.266 -0.3141  0.1101 -0.2412
 2759SOL    HW119910   2.087   4.641   3.180  1.3346  0.2714 -0.6305
 2759SOL    HW219911   2.059   0.028   3.265  1.7134  1.1739  0.9181
 2760SOL     OW19912   2.253   3.916   5.501 -0.5566 -0.3031  0.1533
 2760SOL    HW119913   2.284   3.985   5.442  2.0073 -2.4116 -1.0018
 2760SOL    HW219914   2.325   3.856   5.484  1.1786  0.4761  4.6500
 2761SOL     OW19915   1.103   4.001   5.220 -0.9390 -0.3868  0.2999
 2761SOL    HW119916   1.115   3.945   5.296 -0.5793 -0.8314 -0.0802
 2761SOL    HW219917   1.035   4.060   5.254  1.3520  1.3388  1.8333
 2762SOL     OW19918   1.458   4.322   5.045  0.2865 -0.4168 -0.1102
 2762SOL    HW119919   1.505   4.245   5.014  0.7184 -0.0640 -0.3294
 2762SOL    HW219920   1.388   4.276   5.092  1.5240 -1.5836  0.5770
 2763SOL     OW19921   2.062   3.308   7.003  0.3756 -0.1635 -0.3288
 2763SOL    HW119922   2.034   3.255   7.077 -0.7493  1.2098  0.2497
 2763SOL    HW219923   2.038   3.245   6.935 -0.0480 -1.3190  0.8895
 2764SOL     OW19924   0.609   2.864   8.054  0.1578 -0.0075  0.0295
 2764SOL    HW119925   0.519   2.846   8.084 -0.4743  2.7332 -0.1945
 2764SOL    HW219926   0.607   2.958   8.034  2.5106  0.4149  1.8479
 2765SOL     OW19927   3.246   2.388   2.940  0.0996  0.2438 -0.2648
 2765SOL    HW119928   3.166   2.440   2.941  0.3288  0.4798  3.6158
 2765SOL    HW219929   3.313   2.450   2.968 -0.0381  1.2218 -2.0781
 2766SOL     OW19930   4.574   4.065  12.740 -0.6965 -0.4107  0.0602
 2766SOL    HW119931   4.502   4.059  12.678 -0.2459 -1.8217 -0.3400
 2766SOL    HW219932   4.588   3.975  12.770  1.2638 -0.2276 -0.2971
 2767SOL     OW19933   2.310   0.866   7.487  0.2750  0.3265  0.1708
 2767SOL    HW119934   2.334   0.804   7.418 -0.0873 -1.8236  1.9630
 2767SOL    HW219935   2.319   0.942   7.431  0.9263  1.4086  1.7675
 2768SOL     OW19936   1.721   2.526   5.300  0.0476 -0.1212 -0.1962
 2768SOL    HW119937   1.665   2.581   5.244  0.0839 -1.1397 -1.2238
 2768SOL    HW219938   1.684   2.438   5.294 -0.5751 -0.0552  2.5435
 2769SOL     OW19939   3.157   3.592  11.359  0.3269  0.3029 -0.1574
 2769SOL    HW119940   3.139   3.569  11.450  0.8633 -2.6642 -0.8000
 2769SOL    HW219941   3.241   3.551  11.337  1.1332  2.5677 -1.2455
 2770SOL     OW19942   2.315   3.745   7.191  0.3821 -0.1293  0.0392
 2770SOL    HW119943   2.278   3.710   7.109 -0.8505 -0.7697  0.8795
 2770SOL    HW219944   2.368   3.672   7.224  1.6367  0.8845  0.2584
 2771SOL     OW19945   1.101   3.414   7.252  0.1187  0.4194 -0.3813
 2771SOL    HW119946   1.051   3.420   7.171  0.4942 -2.2850 -0.7909
 2771SOL    HW219947   1.120   3.321   7.248  0.2936  0.5037 -1.5435
 2772SOL     OW19948   0.825   0.905   9.224  0.5027  0.0515  0.1517
 2772SOL    HW119949   0.773   0.826   9.209 -1.4981  1.1353  1.2783
 2772SOL    HW219950   0.895   0.894   9.160 -1.0801 -0.6740 -1.4559
 2773SOL     OW19951   1.539   2.287   7.355  0.3824 -0.0659  0.6954
 2773SOL    HW119952   1.629   2.254   7.347 -0.2431 -1.3316 -1.0857
 2773SOL    HW219953   1.536   2.376   7.322 -1.8248  0.0144  1.1054
 2774SOL     OW19954   1.698   4.379  14.260 -0.5142  0.2200  0.0447
 2774SOL    HW119955   1.618   4.356  14.308 -1.1397  0.2475 -0.9832
 2774SOL    HW219956   1.687   4.474  14.259  0.1126  0.2772 -1.1178
 2775SOL     OW19957   0.633   4.145   5.487 -0.1045  0.0454  0.1203
 2775SOL    HW119958   0.697   4.211   5.515 -0.0916 -0.4181  1.1989
 2775SOL    HW219959   0.619   4.090   5.564  2.1104 -0.0498  0.4748
 2776SOL     OW19960   0.140   0.513   3.883 -0.0894 -0.5156 -0.0706
 2776SOL    HW119961   0.052   0.481   3.906 -0.5990  1.5338  0.8346
 2776SOL    HW219962   0.124   0.606   3.898  2.7429 -0.0259 -0.2072
 2777SOL     OW19963   2.957   0.589   6.575 -0.0016 -0.3586  0.7657
 2777SOL    HW119964   2.996   0.515   6.621  2.1467  1.3702  1.6786
 2777SOL    HW219965   2.924   0.653   6.639 -0.4000 -0.7195  0.9193
 2778SOL     OW19966   4.732   2.396   1.795 -0.4381  0.6048  0.2681
 2778SOL    HW119967   4.709   2.304   1.784  1.6704  0.3067 -1.7037
 2778SOL    HW219968   0.006   2.394   1.890 -0.1356 -1.2631  0.1871
 2779SOL     OW19969   3.295   2.020   2.689 -0.0489  0.0713  0.8616
 2779SOL    HW119970   3.260   2.102   2.653  0.6786 -0.0887 -0.2005
 2779SOL    HW219971   3.213   1.976   2.713 -0.0832 -0.0780  0.4670
 2780SOL     OW19972   0.064   2.892   7.221  0.6283 -0.5628 -0.2343
 2780SOL    HW119973   4.729   2.874   7.160 -1.1706  0.8232  1.4804
 2780SOL    HW219974   0.056   2.987   7.233  2.3591 -0.6485  1.6823
 2781SOL     OW19975   2.993   2.274   5.370  0.1283 -0.3320  0.0165
 2781SOL    HW119976   2.919   2.334   5.370  0.4213  0.0243  1.0349
 2781SOL    HW219977   3.058   2.341   5.394  2.5103 -1.5561 -2.9749
 2782SOL     OW19978   4.736   3.264   9.910 -0.7324  0.2409  0.1118
 2782SOL    HW119979   0.082   3.230   9.945 -0.2948 -0.5206 -1.6427
 2782SOL    HW219980   4.720   3.185   9.859  0.6728  1.5576 -2.3875
 2783SOL     OW19981   1.756   0.973   4.060 -0.2269  0.7559  0.2243
 2783SOL    HW119982   1.761   0.985   3.965 -1.4836 -1.0338 -0.0817
 2783SOL    HW219983   1.796   0.886   4.062 -0.9081  0.3790 -2.8837
 2784SOL     OW19984   1.438   3.300   7.559 -0.3727 -0.1907  0.1122
 2784SOL    HW119985   1.471   3.348   7.636 -0.4143  0.1057 -0.0537
 2784SOL    HW219986   1.345   3.322   7.558 -0.3288  0.0589  0.9045
 2785SOL     OW19987   3.090   1.337   9.210 -0.1497 -0.2016 -0.2955
 2785SOL    HW119988   3.154   1.295   9.153  0.5699  0.0853  0.2979
 2785SOL    HW219989   3.137   1.416   9.238  1.9094 -1.6484  0.3251
 2786SOL     OW19990   3.164   1.636  12.122  0.0433 -0.1068 -0.2611
 2786SOL    HW119991   3.192   1.717  12.163  1.7878  0.5197 -2.6717
 2786SOL    HW219992   3.096   1.616  12.186  0.2819  1.4880  0.4709
 2787SOL     OW19993   2.548   2.214   6.280 -0.1598 -0.8044 -0.0567
 2787SOL    HW119994   2.474   2.164   6.246 -0.8908 -0.0232  0.3816
 2787SOL    HW219995   2.619   2.150   6.274  0.0006 -0.5252 -1.1607
 2788SOL     OW19996   4.681   2.471  11.753 -0.4249 -0.3503  0.4354
 2788SOL    HW119997   4.721   2.528  11.688  2.0239 -3.8035 -1.0836
 2788SOL    HW219998   4.669   2.539  11.820 -3.5520 -1.0291  0.5829
 2789SOL     OW19999   2.483   0.574   4.924 -0.0106  0.2026 -0.0306
 2789SOL    HW120000   2.428   0.653   4.918  1.8287  1.5371  0.7200
 2789SOL    HW220001   2.466   0.527   4.843 -3.3502  1.3556 -0.0149
 2790SOL     OW20002   3.475   2.173   1.963  0.2414 -0.2801 -0.2181
 2790SOL    HW120003   3.398   2.120   1.985 -0.2612  0.8793  0.7620
 2790SOL    HW220004   3.541   2.125   2.014 -0.3377 -0.5308  0.2928
 2791SOL     OW20005   1.125   1.415   8.629 -0.0228  0.2566  0.3277
 2791SOL    HW120006   1.099   1.357   8.557 -0.8856  1.4857 -0.3448
 2791SOL    HW220007   1.134   1.346   8.696  0.4675  0.2708  0.2795
 2792SOL     OW20008   0.574   3.387   8.514  0.1047  0.1755 -0.2305
 2792SOL    HW120009   0.669   3.376   8.506  0.1801  0.8702 -0.3060
 2792SOL    HW220010   0.558   3.427   8.428 -0.1576  0.2077 -0.1649
 2793SOL     OW20011   2.550   0.554   6.034  0.1268 -0.3841  0.2110
 2793SOL    HW120012   2.560   0.460   6.047  2.4866 -0.1658 -0.1173
 2793SOL    HW220013   2.640   0.585   6.027 -0.6301  1.7155 -0.3949
 2794SOL     OW20014   0.593   1.484   9.561  0.0385  0.0059 -0.2584
 2794SOL    HW120015   0.612   1.522   9.475 -0.0898  0.5402 -0.0505
 2794SOL    HW220016   0.555   1.397   9.547 -1.6987  1.4148 -4.1264
 2795SOL     OW20017   2.857   0.671   1.118 -0.4804 -0.1376  0.4759
 2795SOL    HW120018   2.873   0.635   1.206  1.1684 -3.8513 -1.3291
 2795SOL    HW220019   2.828   0.598   1.063  0.1335  0.0870 -0.1406
 2796SOL     OW20020   0.659   3.825   7.439  0.8477  0.2695  0.3533
 2796SOL    HW120021   0.598   3.885   7.482 -0.9649 -0.0517 -1.7408
 2796SOL    HW220022   0.712   3.805   7.516  1.2150  1.1400  0.3277
 2797SOL     OW20023   0.972   2.275   1.995  0.4850 -0.5249 -1.2023
 2797SOL    HW120024   1.052   2.223   2.008 -0.0288 -1.2086 -0.7905
 2797SOL    HW220025   0.908   2.211   1.965 -0.0383  0.3783 -2.0213
 2798SOL     OW20026   0.541   1.357  13.607  0.0117 -0.1523  0.3044
 2798SOL    HW120027   0.532   1.375  13.700 -1.5407 -1.6714  0.4407
 2798SOL    HW220028   0.479   1.420  13.567  1.4077  1.3734  0.5363
 2799SOL     OW20029   2.854   1.740   3.303  0.1426 -0.0096 -0.1274
 2799SOL    HW120030   2.815   1.740   3.215 -1.1434  1.6009  0.4474
 2799SOL    HW220031   2.912   1.816   3.295  0.0719  0.1930  1.3080
 2800SOL     OW20032   2.471   0.841   9.097  0.1374 -0.0709 -0.2323
 2800SOL    HW120033   2.426   0.842   9.181 -1.2240 -0.8305 -0.9608
 2800SOL    HW220034   2.438   0.763   9.053  0.0306 -0.4673  0.5448
 2801SOL     OW20035   1.019   4.425   8.960 -1.2808  0.0039 -0.5755
 2801SOL    HW120036   0.937   4.473   8.977 -1.1914 -0.1742  0.3204
 2801SOL    HW220037   1.068   4.486   8.904 -3.2506  0.9826 -1.2575
 2802SOL     OW20038   0.737   3.571  10.542  0.6334  0.0109 -0.8807
 2802SOL    HW120039   0.820   3.525  10.528  0.1682 -0.4522 -2.1273
 2802SOL    HW220040   0.764   3.592  10.631  0.3757 -0.5787 -0.6652
 2803SOL     OW20041   1.566   0.273   2.674 -0.6631 -0.3151 -0.0426
 2803SOL    HW120042   1.483   0.224   2.677 -0.3065 -0.9116  0.1394
 2803SOL    HW220043   1.537   0.357   2.707  1.8953  0.5530 -0.0449
 2804SOL     OW20044   0.466   3.862   3.833  0.0062  0.3767 -0.4854
 2804SOL    HW120045   0.470   3.774   3.871  0.1089  0.0448 -1.2588
 2804SOL    HW220046   0.524   3.918   3.884 -0.8716  1.3573 -0.5495
 2805SOL     OW20047   2.358   4.530   5.508  0.1143 -0.4877 -0.4729
 2805SOL    HW120048   2.276   4.482   5.520  0.1922 -0.5841 -0.3293
 2805SOL    HW220049   2.341   4.608   5.456 -0.5468  0.1995  0.7848
 2806SOL     OW20050   0.515   2.408   0.278  0.2814  0.3755 -0.5489
 2806SOL    HW120051   0.542   2.334   0.333 -2.3404  0.3122  0.6391
 2806SOL    HW220052   0.425   2.383   0.259 -0.3493  3.3503 -1.4927
 2807SOL     OW20053   0.119   0.539  17.417  0.2210 -0.6234  0.1169
 2807SOL    HW120054   0.078   0.603  17.475 -1.6707  0.5551 -2.5216
 2807SOL    HW220055   0.187   0.590  17.372  0.2845 -0.5106  0.3398
 2808SOL     OW20056   0.692   4.395   7.468 -0.6750 -0.4345  0.0221
 2808SOL    HW120057   0.784   4.368   7.463  0.2120  2.4294  0.9854
 2808SOL    HW220058   0.696   4.489   7.485 -0.0523 -0.2519 -1.1822
 2809SOL     OW20059   1.007   2.840   9.002  0.0096  0.3362  0.1234
 2809SOL    HW120060   1.063   2.763   8.992  1.1206  1.3060 -1.1042
 2809SOL    HW220061   1.025   2.860   9.094  0.7928 -0.5356  0.1607
 2810SOL     OW20062   2.983   4.587   4.342 -0.0080 -0.0797  0.9909
 2810SOL    HW120063   2.890   4.576   4.365 -0.1916 -1.1426 -0.2638
 2810SOL    HW220064   3.020   4.632   4.418  2.1822  1.0893 -0.7769
 2811SOL     OW20065   1.272   1.025   8.659 -0.0002  0.1722 -0.4462
 2811SOL    HW120066   1.237   1.104   8.701  2.6493  0.5691  1.0212
 2811SOL    HW220067   1.367   1.038   8.660  0.2340 -1.6438  1.0787
 2812SOL     OW20068   0.570   4.335   8.174  0.3601 -0.2109  0.0701
 2812SOL    HW120069   0.560   4.386   8.094 -0.2299  0.5660  0.6353
 2812SOL    HW220070   0.563   4.403   8.242 -1.4448 -0.1715 -0.1482
 2813SOL     OW20071   2.153   0.956  14.627 -0.4185 -0.5208  0.0041
 2813SOL    HW120072   2.133   0.864  14.644  2.4195 -1.0064  0.7363
 2813SOL    HW220073   2.248   0.954  14.641 -0.4911  1.3844  0.8081
 2814SOL     OW20074   1.514   4.019  10.632 -0.4014  0.2131  0.0966
 2814SOL    HW120075   1.475   4.058  10.554 -1.4025  2.2787  1.6371
 2814SOL    HW220076   1.598   4.064  10.632 -0.9329  1.2148  1.2237
 2815SOL     OW20077   3.428   1.245   6.083  0.0557 -0.3022 -0.3922
 2815SOL    HW120078   3.432   1.162   6.035 -0.4403  0.2228 -1.3419
 2815SOL    HW220079   3.483   1.230   6.160  0.0259  1.1197 -0.0948
 2816SOL     OW20080   1.094   2.754   7.707 -0.4746  0.2147  0.2292
 2816SOL    HW120081   1.141   2.725   7.785  0.3876 -0.4106 -0.5264
 2816SOL    HW220082   1.010   2.712   7.726 -1.6203  1.9927 -0.8988
 2817SOL     OW20083   4.183   3.117   6.652  0.5184  0.2185 -0.0071
 2817SOL    HW120084   4.268   3.144   6.686  0.7176 -1.7081  1.0208
 2817SOL    HW220085   4.127   3.102   6.728 -0.2271 -2.7920 -1.1406
 2818SOL     OW20086   4.386   2.842   6.636  0.4940  0.3593  0.0361
 2818SOL    HW120087   4.301   2.845   6.680  1.0357  0.4049  1.0818
 2818SOL    HW220088   4.433   2.901   6.695  0.1571 -1.5416  2.2076
 2819SOL     OW20089   2.293   4.304   9.016  0.2334  0.4763  0.1721
 2819SOL    HW120090   2.198   4.317   9.015  0.0863 -0.7263 -1.2505
 2819SOL    HW220091   2.315   4.398   9.022  1.1016  0.2358  0.7946
 2820SOL     OW20092   3.952   1.912   2.700  0.2041  0.2422 -0.2153
 2820SOL    HW120093   3.957   1.935   2.793 -1.1787 -1.2875  0.2262
 2820SOL    HW220094   3.970   1.992   2.650  0.4320  0.1094 -0.3495
 2821SOL     OW20095   0.075   0.326  16.531 -0.2279  0.8013  0.4584
 2821SOL    HW120096   0.161   0.298  16.564 -1.5361 -3.2827  0.3941
 2821SOL    HW220097   0.034   0.274  16.601 -2.9939 -0.4386 -2.1101
 2822SOL     OW20098   0.941   1.187  15.208 -0.2720  0.4413 -0.8586
 2822SOL    HW120099   0.905   1.241  15.138  1.3274  2.3198 -0.2258
 2822SOL    HW220100   0.986   1.120  15.156  0.9172 -0.8265  1.7675
 2823SOL     OW20101   1.030   4.206  15.772  0.0241  0.3359  0.4768
 2823SOL    HW120102   0.976   4.167  15.841 -1.7267  0.8701 -0.5842
 2823SOL    HW220103   1.008   4.143  15.704  1.1582  1.8352 -1.2859
 2824SOL     OW20104   2.897   0.366   7.578 -0.0821 -0.0327 -0.1257
 2824SOL    HW120105   2.948   0.349   7.499  0.4418 -0.5308  0.3260
 2824SOL    HW220106   2.949   0.316   7.641 -0.4663 -1.3286 -0.8419
 2825SOL     OW20107   1.372   2.141   6.043  0.5866 -0.3713 -0.7098
 2825SOL    HW120108   1.362   2.158   5.949  0.2649  0.2787 -0.5566
 2825SOL    HW220109   1.337   2.221   6.083 -1.3104 -2.0021  0.8880
 2826SOL     OW20110   2.820   1.529   5.611 -0.0318  0.2473 -0.1225
 2826SOL    HW120111   2.807   1.437   5.589  0.3385 -0.0850  1.0332
 2826SOL    HW220112   2.793   1.570   5.529 -0.1242 -0.5316 -0.4808
 2827SOL     OW20113   4.643   1.304   7.222 -0.1686  0.2244 -0.9981
 2827SOL    HW120114   4.729   1.340   7.242 -0.7055  0.0897  1.5634
 2827SOL    HW220115   4.671   1.258   7.143  0.5553 -1.2788  0.1331
 2828SOL     OW20116   4.160   2.835   7.719  0.2162  0.4999 -1.1066
 2828SOL    HW120117   4.243   2.846   7.673  0.9562  0.3890  0.2074
 2828SOL    HW220118   4.189   2.845   7.810 -0.5051 -0.1131 -0.8131
 2829SOL     OW20119   1.793   0.462   3.102 -0.0471  0.4148 -0.1363
 2829SOL    HW120120   1.735   0.395   3.066  1.8156 -0.8508 -0.8013
 2829SOL    HW220121   1.725   0.526   3.122  3.1014  3.6841  0.1353
 2830SOL     OW20122   3.154   1.620  16.928  0.5308 -0.1045  0.0820
 2830SOL    HW120123   3.193   1.546  16.975  1.5487  0.3051 -0.1217
 2830SOL    HW220124   3.145   1.587  16.839 -2.8910 -0.4537  0.5425
 2831SOL     OW20125   0.002   1.095   7.017  0.4289 -0.3648 -0.6244
 2831SOL    HW120126   0.046   1.013   7.036 -0.8731 -1.1345 -0.9550
 2831SOL    HW220127   0.052   1.129   6.943  0.9829 -0.3086 -0.2226
 2832SOL     OW20128   2.032   0.256   4.233  0.2414 -0.3387 -0.5515
 2832SOL    HW120129   1.989   0.272   4.149 -2.3520  0.5777  0.9753
 2832SOL    HW220130   1.960   0.263   4.295  0.0037 -3.4132 -0.4677
 2833SOL     OW20131   3.411   1.596   7.488  0.1370  0.1214  0.0685
 2833SOL    HW120132   3.427   1.503   7.473 -0.5481 -0.0686  0.4960
 2833SOL    HW220133   3.337   1.586   7.549 -0.8540  1.1948 -0.9537
 2834SOL     OW20134   3.432   1.425   3.606  0.4099 -0.1832 -0.6169
 2834SOL    HW120135   3.355   1.388   3.563 -0.8282  1.3011  0.3196
 2834SOL    HW220136   3.395   1.471   3.682 -0.4481 -2.5738  0.4100
 2835SOL     OW20137   1.044   0.176   6.632  0.0817  0.0050  0.6097
 2835SOL    HW120138   0.989   0.130   6.696  1.5108 -0.3181  1.6164
 2835SOL    HW220139   1.010   0.265   6.637  0.3516  0.0373  1.9695
 2836SOL     OW20140   2.313   1.886   1.684  0.1777  0.0054  0.1016
 2836SOL    HW120141   2.326   1.921   1.771  0.9730  0.7435 -0.3118
 2836SOL    HW220142   2.219   1.904   1.680  0.0301 -0.3938  1.8336
 2837SOL     OW20143   3.145   4.262   9.719 -0.3238  0.3798 -0.2493
 2837SOL    HW120144   3.224   4.231   9.763  0.6348  1.2074 -1.3889
 2837SOL    HW220145   3.079   4.236   9.783  1.1978 -0.8032  0.8622
 2838SOL     OW20146   3.965   0.760   2.121 -0.1375  0.0594 -0.0576
 2838SOL    HW120147   3.943   0.779   2.212  0.1158 -0.2871  0.0740
 2838SOL    HW220148   3.922   0.678   2.097  0.2815  0.5499 -2.4621
 2839SOL     OW20149   3.764   2.435   8.822 -0.0789 -0.0896  0.4056
 2839SOL    HW120150   3.813   2.359   8.792 -1.8300 -0.2448 -2.0584
 2839SOL    HW220151   3.679   2.404   8.790 -1.3847  2.3511  1.4652
 2840SOL     OW20152   1.989   0.742   9.551 -0.3475 -0.1896 -0.2820
 2840SOL    HW120153   2.015   0.703   9.635 -2.6419 -1.3899 -0.1279
 2840SOL    HW220154   2.012   0.678   9.483 -0.1614 -4.4283  3.7734
 2841SOL     OW20155   4.530   3.564   7.306 -0.5364  0.2953  0.5313
 2841SOL    HW120156   4.484   3.554   7.389  0.3151 -1.7889  0.7386
 2841SOL    HW220157   4.460   3.548   7.242 -1.1705  0.6024  1.1523
 2842SOL     OW20158   0.578   3.157   3.973 -0.1321  0.2295 -0.3977
 2842SOL    HW120159   0.598   3.064   3.977 -1.1176  0.1156  2.0472
 2842SOL    HW220160   0.613   3.192   4.055  1.6362 -3.1695  0.2627
 2843SOL     OW20161   0.823   0.510  14.558 -0.1379  0.9341 -0.4261
 2843SOL    HW120162   0.785   0.570  14.623  2.2704  1.1854  0.7641
 2843SOL    HW220163   0.916   0.533  14.561  0.0757  0.1846 -1.2510
 2844SOL     OW20164   0.815   4.274  17.075 -0.7285 -0.1596  0.0444
 2844SOL    HW120165   0.799   4.288  17.168 -2.6644 -0.3888 -0.2432
 2844SOL    HW220166   0.725   4.274  17.043  0.4942 -1.2846 -3.4109
 2845SOL     OW20167   3.663   1.529   2.518 -0.7757  0.0875 -0.0951
 2845SOL    HW120168   3.753   1.555   2.538 -0.6720  1.3166 -2.1525
 2845SOL    HW220169   3.643   1.548   2.426 -0.7277  5.0159  0.9357
 2846SOL     OW20170   4.199   3.521   2.989  0.5761  0.0562 -0.3496
 2846SOL    HW120171   4.138   3.565   3.049 -0.3505 -1.0525 -0.4887
 2846SOL    HW220172   4.279   3.548   3.034 -0.9689  1.6706  1.4132
 2847SOL     OW20173   3.346   3.571   2.009 -0.0226  0.0050  0.9117
 2847SOL    HW120174   3.407   3.572   1.935  0.2356 -1.1713  1.1014
 2847SOL    HW220175   3.287   3.638   1.974  2.6830  2.3126  0.7755
 2848SOL     OW20176   1.869   2.115   7.976 -0.3200 -0.6369 -0.2226
 2848SOL    HW120177   1.898   2.159   8.056 -1.9613 -0.5916  0.3503
 2848SOL    HW220178   1.841   2.030   8.011 -0.9955 -0.8566 -1.2805
 2849SOL     OW20179   2.655   0.304   4.771 -0.3614 -0.2087 -0.1161
 2849SOL    HW120180   2.575   0.351   4.751  0.2789  0.5967 -0.7655
 2849SOL    HW220181   2.702   0.386   4.785 -1.4086  0.2855  0.4346
 2850SOL     OW20182   1.119   3.814  12.673  0.3736  0.1072 -0.3645
 2850SOL    HW120183   1.200   3.799  12.720 -0.1572 -1.4179  0.0517
 2850SOL    HW220184   1.054   3.778  12.733 -0.6486  1.2022 -0.8087
 2851SOL     OW20185   2.082   1.561   5.971  0.0146 -0.2119  0.2826
 2851SOL    HW120186   2.099   1.528   6.059  1.0389  1.1476  0.5924
 2851SOL    HW220187   1.990   1.586   5.979 -0.7672 -2.0844 -2.6236
 2852SOL     OW20188   1.575   4.436   6.803 -0.4864  0.0711  0.0265
 2852SOL    HW120189   1.514   4.501   6.770  1.8966  3.5176  2.4151
 2852SOL    HW220190   1.610   4.482   6.879 -0.8511  1.7651 -0.8458
 2853SOL     OW20191   2.900   4.275  13.559 -0.0515  0.2706  0.2081
 2853SOL    HW120192   2.854   4.191  13.564  0.3666  0.0988  1.2901
 2853SOL    HW220193   2.956   4.274  13.637 -1.3579  0.3151  1.1531
 2854SOL     OW20194   1.662   2.272   3.500  0.6901 -0.2807  0.4533
 2854SOL    HW120195   1.595   2.337   3.476  2.0301  1.1655  0.5792
 2854SOL    HW220196   1.714   2.260   3.420  0.6008  0.4013  0.2899
 2855SOL     OW20197   3.240   0.911   5.177 -0.4213 -0.2495 -0.2019
 2855SOL    HW120198   3.175   0.937   5.242 -2.1745 -1.9505 -1.2862
 2855SOL    HW220199   3.202   0.829   5.145 -1.6966  0.3685 -0.2516
 2856SOL     OW20200   2.052   3.814   2.990  0.0632  0.2826  0.4168
 2856SOL    HW120201   2.100   3.802   3.072 -0.1416 -0.3607  0.4450
 2856SOL    HW220202   2.084   3.743   2.934  0.7137  1.3613 -0.5589
 2857SOL     OW20203   4.482   0.559   4.125 -0.3836 -0.0416  0.3185
 2857SOL    HW120204   4.461   0.629   4.063  0.2145  2.6643  3.1430
 2857SOL    HW220205   4.510   0.612   4.200 -0.6393  1.9106 -0.9599
 2858SOL     OW20206   0.884   4.639   5.635  0.3304 -0.7522  0.0037
 2858SOL    HW120207   0.808   4.626   5.578 -0.7939  0.3156  1.2720
 2858SOL    HW220208   0.863   4.720   5.681  0.0814 -0.8121 -0.0059
 2859SOL     OW20209   1.707   3.600   0.084  0.6070  0.1169 -0.3070
 2859SOL    HW120210   1.632   3.610   0.026  1.6237  0.8082 -1.5027
 2859SOL    HW220211   1.665   3.609   0.169 -1.8185 -1.7682 -1.3214
 2860SOL     OW20212   4.561   1.675   9.661 -0.2654 -0.1777 -0.5280
 2860SOL    HW120213   4.650   1.696   9.690 -0.8358  2.5487 -0.7226
 2860SOL    HW220214   4.515   1.662   9.745 -1.0373 -0.2325 -0.9601
 2861SOL     OW20215   3.950   1.906   2.996 -0.3959  1.3091 -0.0447
 2861SOL    HW120216   3.888   1.861   3.054 -0.9772  1.4085 -0.5923
 2861SOL    HW220217   4.004   1.953   3.060  0.1256  2.2473 -1.1747
 2862SOL     OW20218   4.222   1.693   6.982 -0.2082  0.3659  0.8471
 2862SOL    HW120219   4.314   1.669   6.979 -0.3216 -0.2104  2.0073
 2862SOL    HW220220   4.174   1.611   6.972 -2.4501  1.8268 -0.4397
 2863SOL     OW20221   3.053   1.855   6.799 -0.1245  0.3817 -0.2653
 2863SOL    HW120222   3.070   1.883   6.889 -1.4487  1.3551 -0.3104
 2863SOL    HW220223   2.985   1.919   6.777 -0.9066 -0.1189  0.7229
 2864SOL     OW20224   2.879   1.467  16.545  0.3153 -0.0611 -0.0737
 2864SOL    HW120225   2.927   1.400  16.496  1.6064  1.0047 -0.2666
 2864SOL    HW220226   2.954   1.522  16.568  0.3603  0.5457 -1.6158
 2865SOL     OW20227   0.166   0.148   5.898  0.0554 -0.3813  0.0238
 2865SOL    HW120228   0.234   0.100   5.851 -0.4172  0.7562 -1.8472
 2865SOL    HW220229   0.107   0.170   5.826  0.1386  0.3754  0.1834
 2866SOL     OW20230   3.031   2.796  12.281  0.6234  0.1405  0.1056
 2866SOL    HW120231   3.068   2.739  12.214 -1.7492 -1.6426  0.3252
 2866SOL    HW220232   2.941   2.767  12.294  0.3542 -0.2602 -2.5048
 2867SOL     OW20233   0.394   3.514   3.547  0.1260  0.2550  0.1617
 2867SOL    HW120234   0.346   3.589   3.584  1.7328  1.0448  0.6214
 2867SOL    HW220235   0.480   3.554   3.558  0.4785 -0.9122  1.6372
 2868SOL     OW20236   2.540   1.810   1.885 -0.1682  0.1817 -0.1316
 2868SOL    HW120237   2.547   1.811   1.981  0.9607  0.7647 -0.2164
 2868SOL    HW220238   2.447   1.813   1.862 -0.3627 -1.1639  0.4737
 2869SOL     OW20239   0.079   3.336   1.426 -0.3956  0.2223 -0.0808
 2869SOL    HW120240   0.061   3.325   1.332 -3.4958 -0.3817  0.5898
 2869SOL    HW220241   0.174   3.347   1.426 -0.3212 -0.4250 -0.3480
 2870SOL     OW20242   2.118   4.669  17.512 -0.5112  0.4956 -0.5019
 2870SOL    HW120243   2.066   4.590  17.500  1.5730 -0.7989 -0.8153
 2870SOL    HW220244   2.205   4.637  17.534 -0.0409  2.6882  0.8517
 2871SOL     OW20245   3.803   3.404   9.069 -0.1453 -0.2890 -0.1076
 2871SOL    HW120246   3.757   3.480   9.034  0.3615  0.0427 -0.0540
 2871SOL    HW220247   3.894   3.434   9.061 -0.1135 -0.4606 -0.3980
 2872SOL     OW20248   3.736   4.646   1.867  0.7285  0.2786  0.0324
 2872SOL    HW120249   3.749   4.671   1.776  2.1865 -1.4790 -0.2373
 2872SOL    HW220250   3.784   4.563   1.873 -0.1718 -0.1883  0.8734
 2873SOL     OW20251   1.987   3.020   4.057 -0.3662 -0.3749  0.1417
 2873SOL    HW120252   1.945   3.068   3.986 -0.6916 -0.5658  0.2059
 2873SOL    HW220253   2.080   3.017   4.033 -0.1631 -0.3511  0.9158
 2874SOL     OW20254   0.596   0.048   4.151 -0.3546  0.1378  0.0238
 2874SOL    HW120255   0.518   0.084   4.108 -0.2655  0.6435  0.2881
 2874SOL    HW220256   0.635   0.134   4.161 -2.4866  0.9708  1.2880
 2875SOL     OW20257   4.148   2.441   2.835  0.2844 -0.4249  0.0072
 2875SOL    HW120258   4.224   2.400   2.794 -0.6127 -0.7217 -1.3429
 2875SOL    HW220259   4.105   2.358   2.857 -1.9384  0.7832  0.2416
 2876SOL     OW20260   2.123   0.739   2.687  1.0484  0.4546 -0.6600
 2876SOL    HW120261   2.098   0.824   2.724  1.0252  0.3633 -0.4626
 2876SOL    HW220262   2.199   0.725   2.744  1.8027 -0.9819 -2.0512
 2877SOL     OW20263   2.393   3.999   8.390  0.0224  0.0216  0.1025
 2877SOL    HW120264   2.361   3.919   8.350  0.0387  0.9463 -1.7786
 2877SOL    HW220265   2.348   4.058   8.329 -0.8373 -0.7342  0.0184
 2878SOL     OW20266   1.979   3.777   7.568  0.4058 -0.2581 -0.1344
 2878SOL    HW120267   1.886   3.767   7.588  1.0284 -0.8519  2.5956
 2878SOL    HW220268   1.993   3.768   7.474  1.0642 -0.7351  0.0057
 2879SOL     OW20269   2.085   3.902   9.762  0.0773  0.2166  0.4778
 2879SOL    HW120270   2.124   3.860   9.686 -0.0810  2.6487 -0.9550
 2879SOL    HW220271   1.998   3.919   9.725 -0.4249 -2.9334  0.2208
 2880SOL     OW20272   1.233   2.688   4.902 -0.1030  0.7563  0.4291
 2880SOL    HW120273   1.196   2.654   4.821  1.6503  0.3205 -0.1958
 2880SOL    HW220274   1.250   2.781   4.886  1.0604  0.5021  0.1702
 2881SOL     OW20275   0.348   4.081   2.320  0.0395  0.6192  0.5481
 2881SOL    HW120276   0.262   4.048   2.347  0.9517 -3.0446 -1.0919
 2881SOL    HW220277   0.336   4.120   2.233  0.2598 -2.3262 -0.8024
 2882SOL     OW20278   0.150   4.142   7.198  0.1677 -0.2876  0.4156
 2882SOL    HW120279   0.243   4.159   7.207  0.4771 -1.6910 -0.1790
 2882SOL    HW220280   0.156   4.098   7.113  1.4110  0.5227  0.0966
 2883SOL     OW20281   2.132   0.097  11.170 -0.4997  0.1333  0.3273
 2883SOL    HW120282   2.199   0.068  11.233  1.1862  1.8186 -0.6795
 2883SOL    HW220283   2.174   0.075  11.086  1.3976  2.3065  0.7057
 2884SOL     OW20284   0.553   3.525   1.594  1.0684  0.4326 -0.3252
 2884SOL    HW120285   0.620   3.503   1.530 -0.5958 -1.0874 -1.5485
 2884SOL    HW220286   0.469   3.524   1.547  1.4640 -0.2944 -1.0065
 2885SOL     OW20287   4.570   3.428   4.288 -0.7134  0.4343 -0.0983
 2885SOL    HW120288   4.608   3.508   4.324 -1.5009  0.8897 -0.2951
 2885SOL    HW220289   4.558   3.379   4.369 -0.4283  0.8137  0.1749
 2886SOL     OW20290   2.542   2.386   4.954  1.2161  0.4749  0.1224
 2886SOL    HW120291   2.452   2.365   4.930  0.6117  1.5959  1.4167
 2886SOL    HW220292   2.553   2.314   5.016  1.4502 -0.4671 -1.0070
 2887SOL     OW20293   3.554   0.355   1.138  0.0199 -0.1379 -0.0011
 2887SOL    HW120294   3.568   0.264   1.163  0.0830 -0.4222 -1.0805
 2887SOL    HW220295   3.460   0.349   1.119  0.4022 -0.4819 -1.7354
 2888SOL     OW20296   2.350   3.784   7.642 -0.2794  0.5362  0.6829
 2888SOL    HW120297   2.290   3.711   7.662 -1.1682  0.9170 -0.6320
 2888SOL    HW220298   2.401   3.800   7.722 -0.0146 -1.8341  0.9975
 2889SOL     OW20299   1.478   4.676   8.442  0.0883 -0.0758  0.3605
 2889SOL    HW120300   1.561   4.721   8.428 -0.3711  1.7450  3.3878
 2889SOL    HW220301   1.473   4.616   8.368  0.5274  0.6903 -0.2977
 2890SOL     OW20302   0.698   0.223   4.588  0.4306 -0.3792  0.1874
 2890SOL    HW120303   0.791   0.214   4.609  0.1552 -0.9073  1.1776
 2890SOL    HW220304   0.651   0.156   4.638 -2.0666 -0.2313 -1.9392
 2891SOL     OW20305   0.429   3.405  10.889 -0.1236  0.0824  0.5361
 2891SOL    HW120306   0.502   3.352  10.920  0.7636  0.1670 -1.4259
 2891SOL    HW220307   0.444   3.393  10.795  0.4474 -0.5918  0.7199
 2892SOL     OW20308   0.129   4.137   2.635 -0.8317  0.2138  0.0600
 2892SOL    HW120309   0.145   4.065   2.573  0.6016  0.2269  0.4140
 2892SOL    HW220310   0.071   4.190   2.581  1.0969 -0.6910 -2.9075
 2893SOL     OW20311   1.576   1.237   3.508 -0.2390 -0.0843  0.1019
 2893SOL    HW120312   1.665   1.250   3.474 -0.8440  0.3744 -1.3289
 2893SOL    HW220313   1.551   1.322   3.544  1.5835 -0.4911  2.2911
 2894SOL     OW20314   3.773   2.242  15.934 -0.0691 -0.5567 -0.0176
 2894SOL    HW120315   3.764   2.311  15.999  0.3421 -1.3847  0.9209
 2894SOL    HW220316   3.684   2.217  15.908 -0.0974 -0.1770 -0.2813
 2895SOL     OW20317   3.015   2.227   6.834 -0.0876 -0.1988 -0.6016
 2895SOL    HW120318   2.945   2.185   6.886 -0.7004  1.0639 -0.4137
 2895SOL    HW220319   3.002   2.316   6.866  2.2547  0.3601 -1.2819
 2896SOL     OW20320   2.498   3.467   0.159  0.5755 -0.5623 -0.1606
 2896SOL    HW120321   2.408   3.464   0.127  0.5030 -1.8337  0.1576
 2896SOL    HW220322   2.479   3.442   0.249 -0.4566 -2.5214 -0.9241
 2897SOL     OW20323   2.021   2.659   3.585  0.0346  0.0175 -0.4628
 2897SOL    HW120324   2.007   2.586   3.525  1.2190 -1.2116  0.7586
 2897SOL    HW220325   2.040   2.735   3.530 -1.0139 -0.5879 -1.6576
 2898SOL     OW20326   0.385   0.503   3.400  0.9829  0.1565  0.0239
 2898SOL    HW120327   0.455   0.507   3.466  2.1900  1.2208 -1.3147
 2898SOL    HW220328   0.333   0.438   3.446  0.4881 -0.2331 -1.0874
 2899SOL     OW20329   2.777   3.292  15.561 -0.1400  0.4203 -0.1605
 2899SOL    HW120330   2.817   3.243  15.490  2.1400  0.9357  0.7376
 2899SOL    HW220331   2.691   3.252  15.565  0.1998 -0.4096 -1.5489
 2900SOL     OW20332   0.320   3.832  10.149 -0.8368  0.2032  0.0562
 2900SOL    HW120333   0.312   3.759  10.087 -1.9503  0.2818  0.1105
 2900SOL    HW220334   0.252   3.802  10.210 -0.9422  1.0757  0.3684
 2901SOL     OW20335   0.625   3.884   0.604 -0.3007  0.6120 -0.2770
 2901SOL    HW120336   0.553   3.825   0.622  0.8697 -0.3048  1.4704
 2901SOL    HW220337   0.584   3.941   0.539 -1.3632 -0.1527 -0.2747
 2902SOL     OW20338   3.942   4.102   3.989 -0.1810  0.0432  0.1322
 2902SOL    HW120339   4.032   4.121   3.962  0.4158 -0.1256  1.9969
 2902SOL    HW220340   3.904   4.063   3.911  0.2928  1.7160 -0.9401
 2903SOL     OW20341   2.518   4.362   5.846  0.7231 -0.1070 -0.8460
 2903SOL    HW120342   2.539   4.372   5.753  0.2796  1.6946 -0.7513
 2903SOL    HW220343   2.425   4.376   5.827  0.6872  0.9803  0.1163
 2904SOL     OW20344   0.462   0.241  11.913  0.0534  0.0511 -0.7315
 2904SOL    HW120345   0.389   0.274  11.966  1.0181  1.4694 -0.3081
 2904SOL    HW220346   0.472   0.305  11.842  0.0882  1.4843  0.5818
 2905SOL     OW20347   1.031   2.354   8.117  0.4875 -0.1930  0.1011
 2905SOL    HW120348   1.118   2.363   8.156  0.7888 -0.5767 -0.4991
 2905SOL    HW220349   0.990   2.441   8.109  0.1104 -0.3429  0.4009
 2906SOL     OW20350   1.106   0.939   3.481 -0.0557  0.4934  0.1358
 2906SOL    HW120351   1.013   0.936   3.504 -0.1450 -0.0013 -0.2797
 2906SOL    HW220352   1.109   1.000   3.406  3.4968  0.4018  0.2236
 2907SOL     OW20353   2.426   3.586   9.348  0.1251 -0.1092 -0.3792
 2907SOL    HW120354   2.385   3.520   9.403 -1.4214  1.8355  0.8060
 2907SOL    HW220355   2.514   3.552   9.334  0.5931  0.3722  1.3581
 2908SOL     OW20356   4.202   1.965   6.965 -0.2120 -0.5759 -0.0483
 2908SOL    HW120357   4.188   1.969   7.060  0.7371  1.7081  0.0095
 2908SOL    HW220358   4.220   1.871   6.960  0.0953 -0.5774  1.0461
 2909SOL     OW20359   4.558   3.650   1.790  0.0414 -0.2366  0.4323
 2909SOL    HW120360   4.510   3.600   1.856 -0.2912  2.1895  2.0191
 2909SOL    HW220361   4.601   3.577   1.747  2.6999  2.2885 -1.1918
 2910SOL     OW20362   1.520   2.953  14.459 -0.5238  0.3404  0.0189
 2910SOL    HW120363   1.473   3.025  14.502  2.5205  1.8432  0.7768
 2910SOL    HW220364   1.446   2.898  14.432  0.2979 -0.4407 -0.5901
 2911SOL     OW20365   0.562   1.902   2.025  0.3486  0.4339  0.2691
 2911SOL    HW120366   0.516   1.889   1.942  3.1609 -0.3895 -1.1554
 2911SOL    HW220367   0.528   1.828   2.075  0.8169 -0.4583 -0.7419
 2912SOL     OW20368   4.264   3.275   7.777 -0.5576  0.5687  0.3038
 2912SOL    HW120369   4.331   3.275   7.708 -0.7495  1.1564  0.1226
 2912SOL    HW220370   4.317   3.309   7.849 -1.6589  2.6686  0.1055
 2913SOL     OW20371   0.775   3.650   0.750 -0.1126 -0.6164  0.4360
 2913SOL    HW120372   0.863   3.621   0.728 -0.8199 -1.0729 -1.7834
 2913SOL    HW220373   0.753   3.721   0.689 -0.0861  0.8042  2.0862
 2914SOL     OW20374   1.990   1.279   7.463 -0.2678  0.3480  0.0312
 2914SOL    HW120375   1.908   1.237   7.490 -0.8606 -0.0576 -2.3676
 2914SOL    HW220376   2.033   1.295   7.547  0.5900  1.9350 -0.7137
 2915SOL     OW20377   1.008   3.005   0.945 -0.1716  0.1572 -0.5363
 2915SOL    HW120378   1.039   2.974   0.860  0.7802 -0.6542  0.1143
 2915SOL    HW220379   1.011   2.925   0.997  1.0241  0.4009 -0.2512
 2916SOL     OW20380   2.863   2.578   8.626 -0.2297 -0.1731  0.2087
 2916SOL    HW120381   2.793   2.582   8.561  0.0030 -0.1005 -0.0372
 2916SOL    HW220382   2.864   2.655   8.682 -0.8277 -0.3363  0.4413
 2917SOL     OW20383   1.203   2.575   7.508 -0.2266 -0.1973  0.1205
 2917SOL    HW120384   1.157   2.611   7.585 -0.7148  1.1022 -0.7816
 2917SOL    HW220385   1.264   2.511   7.545  0.3270 -0.0461 -0.5322
 2918SOL     OW20386   1.267   2.288   2.453  0.2831 -0.3752  0.2405
 2918SOL    HW120387   1.338   2.226   2.438  0.5765 -0.7135  2.9483
 2918SOL    HW220388   1.298   2.321   2.538  1.1057 -1.7797  0.4775
 2919SOL     OW20389   1.647   4.261   4.332 -0.2342 -0.1026  0.0898
 2919SOL    HW120390   1.696   4.217   4.402 -0.6675  1.1462  1.1675
 2919SOL    HW220391   1.716   4.319   4.298 -2.7858  3.3343  0.7642
 2920SOL     OW20392   0.043   2.410   4.102 -0.1185  0.1192 -0.0683
 2920SOL    HW120393   4.686   2.431   4.100 -0.4378 -1.2791  0.1391
 2920SOL    HW220394   0.045   2.350   4.028  0.6241  2.1552 -1.6918
 2921SOL     OW20395   3.288   1.541   5.585  0.1564 -0.4043  0.1731
 2921SOL    HW120396   3.274   1.543   5.680  1.4010  0.2769  0.3423
 2921SOL    HW220397   3.345   1.467   5.568  0.5959 -0.2331  0.9281
 2922SOL     OW20398   0.960   4.393  17.713  0.2340  0.2499  0.2235
 2922SOL    HW120399   0.878   4.356  17.681  0.3860 -0.9894  1.2710
 2922SOL    HW220400   0.976   4.457  17.643  0.8716 -1.5760 -1.3022
 2923SOL     OW20401   2.870   1.875  10.977 -0.8778  0.0040  0.3937
 2923SOL    HW120402   2.924   1.817  11.030 -3.1957 -0.7372  1.9518
 2923SOL    HW220403   2.836   1.811  10.915  1.2782 -0.9300  0.1602
 2924SOL     OW20404   2.231   1.111   8.529 -0.1283 -0.0802 -0.3078
 2924SOL    HW120405   2.144   1.101   8.492  0.6758  2.6586 -3.0252
 2924SOL    HW220406   2.278   1.183   8.485  1.5850  0.7340  2.8733
 2925SOL     OW20407   4.239   2.386  14.016 -0.1850 -0.1239 -0.2411
 2925SOL    HW120408   4.176   2.442  13.970  0.6606  0.6892 -0.4014
 2925SOL    HW220409   4.304   2.363  13.950  1.1494 -0.9829  1.3747
 2926SOL     OW20410   3.368   3.680   5.711 -0.3593 -0.3050 -0.7553
 2926SOL    HW120411   3.308   3.745   5.748  1.5670  1.4537 -0.6667
 2926SOL    HW220412   3.443   3.699   5.767 -0.8327 -1.4183  0.2501
 2927SOL     OW20413   2.939   2.323   8.400 -0.3688  0.2732  0.2183
 2927SOL    HW120414   2.961   2.230   8.391 -0.2551  0.1567  1.6056
 2927SOL    HW220415   2.912   2.325   8.492 -0.3683 -1.6545  0.2551
 2928SOL     OW20416   3.587   0.908   4.152  0.2184 -0.1611  0.1949
 2928SOL    HW120417   3.593   0.951   4.237  0.8878 -1.5306  0.8301
 2928SOL    HW220418   3.627   0.822   4.165  1.1014 -0.3180 -3.3713
 2929SOL     OW20419   0.048   1.368  15.344 -0.8555  0.1069 -0.0982
 2929SOL    HW120420   0.011   1.394  15.259  0.4234 -1.6302 -1.1846
 2929SOL    HW220421   0.032   1.438  15.408 -1.5829  0.8885 -1.1117
 2930SOL     OW20422   0.627   1.593   3.526 -0.3477  0.1699  0.0578
 2930SOL    HW120423   0.553   1.613   3.584  0.1164 -0.6044  0.9253
 2930SOL    HW220424   0.594   1.616   3.439  0.8603  0.8476 -0.2252
 2931SOL     OW20425   2.053   3.300   9.898  0.0326 -0.1524  0.8057
 2931SOL    HW120426   1.966   3.275   9.866 -0.9039  1.8662  1.7621
 2931SOL    HW220427   2.056   3.387   9.859 -0.3122 -0.5345 -0.0953
 2932SOL     OW20428   0.116   0.132   6.900 -0.8389 -0.0370  0.1614
 2932SOL    HW120429   0.101   0.226   6.905 -1.9297 -0.2869  1.4562
 2932SOL    HW220430   0.023   0.115   6.882 -0.7553 -1.0404  0.6814
 2933SOL     OW20431   1.267   4.137   5.942  0.0046 -0.0699 -0.2430
 2933SOL    HW120432   1.354   4.156   5.906 -0.4592  1.6947 -0.4405
 2933SOL    HW220433   1.239   4.227   5.960  2.4669 -0.0613  3.5239
 2934SOL     OW20434   0.469   1.588   5.065 -0.0632  0.2726  0.7346
 2934SOL    HW120435   0.507   1.646   5.000  1.3272 -0.5919  0.7894
 2934SOL    HW220436   0.503   1.503   5.036 -0.6480 -0.0304  0.9264
 2935SOL     OW20437   0.913   0.209   0.074 -0.1754 -0.6368 -0.2875
 2935SOL    HW120438   0.858   0.286   0.055  0.9295  0.3078  0.3324
 2935SOL    HW220439   0.994   0.241   0.034  0.4089 -0.0958  1.3410
 2936SOL     OW20440   0.774   4.157   6.964  0.3452 -0.8189 -0.0581
 2936SOL    HW120441   0.755   4.219   6.892 -0.6405  0.1673  1.0428
 2936SOL    HW220442   0.691   4.109   6.963  0.3607 -0.8418 -0.2883
 2937SOL     OW20443   1.213   4.431   7.084  0.0170 -0.1276 -0.1674
 2937SOL    HW120444   1.258   4.371   7.144  2.0830  1.5626 -0.0372
 2937SOL    HW220445   1.139   4.462   7.135 -0.0542  1.6693 -1.3656
 2938SOL     OW20446   4.131   2.930  10.679 -0.2163 -0.0973  0.2973
 2938SOL    HW120447   4.208   2.900  10.727 -1.3960 -3.6143 -0.0016
 2938SOL    HW220448   4.166   2.927  10.590 -1.1709 -0.5663 -0.0637
 2939SOL     OW20449   0.730   2.161  17.634 -0.0767 -0.0720 -0.4470
 2939SOL    HW120450   0.658   2.203  17.587  1.4670  1.9573 -1.0010
 2939SOL    HW220451   0.691   2.119  17.711 -0.2334  1.9995  0.6172
 2940SOL     OW20452   0.400   0.626   7.569 -0.1575  0.9667 -0.3209
 2940SOL    HW120453   0.309   0.600   7.583  0.4107 -1.0062 -0.3224
 2940SOL    HW220454   0.427   0.614   7.660  0.4769 -1.1739 -0.7914
 2941SOL     OW20455   2.967   4.443   5.533  0.1295  0.2061  0.1755
 2941SOL    HW120456   2.950   4.367   5.478 -0.6675 -0.1738  0.9379
 2941SOL    HW220457   2.969   4.521   5.477  0.8811  1.0473  1.3769
 2942SOL     OW20458   3.723   4.161  11.930  0.8358 -0.0087  0.7664
 2942SOL    HW120459   3.699   4.244  11.971 -1.2790 -1.1919  1.9359
 2942SOL    HW220460   3.661   4.098  11.968 -0.4233  1.7928  1.7224
 2943SOL     OW20461   0.680   0.075   6.526 -0.3439 -0.2264  0.3346
 2943SOL    HW120462   0.612   0.031   6.577 -1.0107 -0.8820 -1.1128
 2943SOL    HW220463   0.742   0.002   6.521 -1.7964 -1.2682 -2.4016
 2944SOL     OW20464   1.716   0.435  12.241  0.1043 -0.3235  0.4089
 2944SOL    HW120465   1.668   0.353  12.248 -1.9965  0.8851  0.0499
 2944SOL    HW220466   1.692   0.468  12.154  0.0285  0.1821  0.6225
 2945SOL     OW20467   2.404   0.042   1.656  0.2268  0.6936  0.2078
 2945SOL    HW120468   2.358   0.007   1.732  1.9463 -1.7195  0.1456
 2945SOL    HW220469   2.441   0.121   1.696 -0.5778  0.6360  1.0621
 2946SOL     OW20470   1.740   1.624   8.632 -0.1584  0.6388  0.3591
 2946SOL    HW120471   1.735   1.583   8.545 -2.8354 -1.4514  1.5226
 2946SOL    HW220472   1.820   1.579   8.658 -0.3692  0.1209  0.1044
 2947SOL     OW20473   1.360   1.097  15.718 -0.0869  0.4543  0.1942
 2947SOL    HW120474   1.437   1.069  15.768 -0.7007  0.9550  1.4041
 2947SOL    HW220475   1.400   1.167  15.664 -0.4352  0.7990  0.3862
 2948SOL     OW20476   0.329   4.363   7.295  0.1752 -0.8054 -0.6730
 2948SOL    HW120477   0.363   4.326   7.214  1.2990  3.0398 -1.9680
 2948SOL    HW220478   0.244   4.376   7.253  0.8548  0.3899 -1.6976
 2949SOL     OW20479   1.553   1.475   3.246 -0.6513  0.1487 -0.2644
 2949SOL    HW120480   1.497   1.540   3.289 -0.1383 -1.4229  2.8115
 2949SOL    HW220481   1.485   1.422   3.206 -1.3677  1.8341 -1.2727
 2950SOL     OW20482   1.860   2.679   1.257  0.1659  0.1717  0.6761
 2950SOL    HW120483   1.944   2.633   1.261 -1.6714 -3.3111 -0.8152
 2950SOL    HW220484   1.873   2.773   1.261  1.6244 -0.0244  0.6306
 2951SOL     OW20485   3.022   4.484   7.375 -0.3493  0.2241 -0.7508
 2951SOL    HW120486   3.010   4.552   7.441 -1.4322 -0.1573 -0.5427
 2951SOL    HW220487   2.953   4.506   7.312 -2.7299  0.6800  2.0194
 2952SOL     OW20488   3.074   0.064   5.850  0.4955  0.4932 -0.0216
 2952SOL    HW120489   3.115   0.028   5.929 -0.1058  0.9778  0.5090
 2952SOL    HW220490   3.014   4.729   5.829  0.4080  0.2961  0.8777
 2953SOL     OW20491   3.732   1.557   6.181  0.1212  0.8508 -0.9222
 2953SOL    HW120492   3.810   1.583   6.231  0.8881 -2.1002 -0.6036
 2953SOL    HW220493   3.674   1.559   6.257  0.7314 -1.0579 -0.4017
 2954SOL     OW20494   3.216   2.175  13.025 -0.1850 -0.0985  0.1063
 2954SOL    HW120495   3.262   2.159  12.943  0.3173 -0.2514  0.4199
 2954SOL    HW220496   3.250   2.103  13.078 -1.7519 -1.6299 -0.9649
 2955SOL     OW20497   0.768   0.209  15.497  0.1320 -0.1036  0.8109
 2955SOL    HW120498   0.779   0.239  15.587 -1.1388 -0.1461  0.9880
 2955SOL    HW220499   0.819   0.272  15.445  0.3918 -0.1800  0.9768
 2956SOL     OW20500   0.751   3.079   2.960  0.0073 -0.4953 -0.4089
 2956SOL    HW120501   0.679   3.131   2.926 -0.2818  0.2569  1.3401
 2956SOL    HW220502   0.703   3.007   3.002  0.4537  1.2076  2.9805
 2957SOL     OW20503   1.548   0.357   9.552 -0.2321  0.0348  0.3582
 2957SOL    HW120504   1.528   0.450   9.564  2.9281  0.9563 -1.5946
 2957SOL    HW220505   1.470   0.321   9.510 -1.0625 -0.2913  2.1534
 2958SOL     OW20506   1.222   3.147  16.061  0.3041  0.2915 -0.5750
 2958SOL    HW120507   1.263   3.073  16.015  0.2826 -0.6416  0.9166
 2958SOL    HW220508   1.167   3.102  16.125 -0.6917  1.8595 -0.3321
 2959SOL     OW20509   3.782   2.137   7.247  0.9225 -0.1997 -0.7045
 2959SOL    HW120510   3.821   2.198   7.184  0.5615  1.1862  0.4104
 2959SOL    HW220511   3.710   2.115   7.188 -1.0943  0.7480  1.3965
 2960SOL     OW20512   3.983   0.569   2.788  0.1388  0.3731  0.5315
 2960SOL    HW120513   3.955   0.583   2.879  1.6191 -0.3166  1.0829
 2960SOL    HW220514   3.976   0.474   2.783 -0.4376  0.1809  4.5189
 2961SOL     OW20515   1.966   2.754   8.785  0.7313 -0.1722 -0.1864
 2961SOL    HW120516   1.899   2.707   8.735 -0.8053  0.9548  0.8129
 2961SOL    HW220517   1.960   2.716   8.873  0.4318 -0.4283 -0.3172
 2962SOL     OW20518   0.301   0.867   7.395 -0.3899 -0.1735 -0.6434
 2962SOL    HW120519   0.251   0.877   7.476  0.5381  0.3849 -0.1418
 2962SOL    HW220520   0.312   0.773   7.386  0.0369 -0.0610 -1.2984
 2963SOL     OW20521   0.967   2.505  17.249 -0.3782  0.2133 -0.4351
 2963SOL    HW120522   1.008   2.443  17.309  1.0304 -0.1218 -1.7581
 2963SOL    HW220523   0.892   2.534  17.301  0.5240  0.8778  0.4827
 2964SOL     OW20524   0.960   1.247  11.313  0.0982 -0.5881  0.4588
 2964SOL    HW120525   1.023   1.304  11.356 -0.8721  1.0688 -0.3319
 2964SOL    HW220526   0.985   1.254  11.221  4.4198 -3.3511  1.4510
 2965SOL     OW20527   0.111   0.097   0.617  0.0284 -0.4882  0.2881
 2965SOL    HW120528   0.173   0.090   0.689  1.1723 -0.2423 -0.6569
 2965SOL    HW220529   0.087   0.190   0.615  1.2057 -0.1906 -0.0645
 2966SOL     OW20530   3.564   0.369   5.976  0.2191  0.0566  0.0475
 2966SOL    HW120531   3.540   0.435   5.910 -1.0589  1.2447  1.6954
 2966SOL    HW220532   3.657   0.385   5.992 -0.0297  1.5902 -0.0358
 2967SOL     OW20533   1.329   0.171  16.862 -0.5797  0.1590 -0.0081
 2967SOL    HW120534   1.279   0.252  16.860  1.7631  1.5884 -0.9557
 2967SOL    HW220535   1.345   0.168  16.768  0.2495 -0.2778  0.1451
 2968SOL     OW20536   1.545   0.151   0.596 -0.0197  0.7668 -0.0030
 2968SOL    HW120537   1.548   0.242   0.568  0.6551  0.3320 -1.3654
 2968SOL    HW220538   1.639   0.135   0.609 -0.2136 -1.6708 -1.4787
 2969SOL     OW20539   1.693   0.600   3.453  0.7717  0.5125  0.1823
 2969SOL    HW120540   1.632   0.555   3.395  0.8990 -1.1613  1.3620
 2969SOL    HW220541   1.634   0.648   3.511 -0.8198  0.6180 -1.5502
 2970SOL     OW20542   0.279   3.093   5.833 -1.0134  0.2262  0.1825
 2970SOL    HW120543   0.240   3.050   5.757 -0.6418 -0.5831  0.4558
 2970SOL    HW220544   0.290   3.178   5.790 -0.1386  0.9581  1.8706
 2971SOL     OW20545   0.725   1.897   3.763  0.5466 -0.1323 -0.6114
 2971SOL    HW120546   0.733   1.812   3.807 -1.3993 -0.4121 -0.8093
 2971SOL    HW220547   0.646   1.871   3.717 -1.6056  1.8769  1.9359
 2972SOL     OW20548   0.067   0.609   7.304  0.2910 -0.3203 -0.5311
 2972SOL    HW120549   0.103   0.597   7.391 -2.3122  1.5405  0.7868
 2972SOL    HW220550   4.732   0.661   7.340  0.0598  0.2846 -1.8590
 2973SOL     OW20551   1.093   0.102   3.677 -0.1447 -0.4519 -0.1814
 2973SOL    HW120552   1.008   0.143   3.664  0.4988  0.7848 -0.5623
 2973SOL    HW220553   1.089   0.014   3.639 -1.4057  0.1058 -1.3285
 2974SOL     OW20554   0.472   0.443  13.940 -0.3245 -0.6799 -0.7386
 2974SOL    HW120555   0.499   0.401  14.022 -1.3850  2.2707  1.1212
 2974SOL    HW220556   0.562   0.461  13.913 -0.4973 -1.7008 -1.9870
 2975SOL     OW20557   3.218   0.752   4.700  0.2790 -0.0175 -0.1125
 2975SOL    HW120558   3.276   0.683   4.732  0.5768  0.1299 -0.3400
 2975SOL    HW220559   3.220   0.813   4.774  2.3477  1.8153 -1.6968
 2976SOL     OW20560   2.554   3.599  15.281  0.1841  0.4936  0.0312
 2976SOL    HW120561   2.617   3.531  15.259  1.4209  1.2896  1.0588
 2976SOL    HW220562   2.492   3.546  15.332 -0.5365 -1.1389 -2.5713
 2977SOL     OW20563   4.198   0.493   7.635 -0.4255  0.4712  0.0259
 2977SOL    HW120564   4.279   0.475   7.587 -0.3300 -0.1122  0.4037
 2977SOL    HW220565   4.198   0.430   7.707 -0.5022  0.2200 -0.1943
 2978SOL     OW20566   2.816   1.571  13.472  0.2657 -0.2733  0.5672
 2978SOL    HW120567   2.743   1.528  13.428  0.5196 -0.1000 -0.0136
 2978SOL    HW220568   2.770   1.617  13.542  1.5789  0.8285  0.6996
 2979SOL     OW20569   0.129   1.646   1.663  0.7837  0.0351  0.3040
 2979SOL    HW120570   0.198   1.584   1.639  2.5923  2.1751 -0.0185
 2979SOL    HW220571   0.097   1.618   1.749 -0.1675 -1.4867 -0.5398
 2980SOL     OW20572   2.618   3.271   1.425 -0.0342  0.2172  0.3323
 2980SOL    HW120573   2.667   3.344   1.462 -1.1343  0.0893  2.0494
 2980SOL    HW220574   2.638   3.209   1.494  0.3470  2.7254  2.4802
 2981SOL     OW20575   0.007   0.143   7.855 -0.5229 -0.1689 -0.1638
 2981SOL    HW120576   4.648   0.135   7.863 -0.4426 -0.0582  0.8869
 2981SOL    HW220577   0.039   0.175   7.940  0.8644 -1.4321 -0.2060
 2982SOL     OW20578   1.537   0.532   4.365 -1.1896 -0.1449 -0.2635
 2982SOL    HW120579   1.460   0.567   4.321 -1.0368  1.0754  0.4252
 2982SOL    HW220580   1.559   0.458   4.309  0.5112 -0.3855  0.6989
 2983SOL     OW20581   1.684   0.499   6.835 -0.5229  0.5702 -0.6940
 2983SOL    HW120582   1.607   0.454   6.870  1.5138 -1.4257  1.2041
 2983SOL    HW220583   1.684   0.557   6.912  0.5550 -0.8021  0.3529
 2984SOL     OW20584   4.181   0.946   7.134  0.0265 -0.5123  0.1459
 2984SOL    HW120585   4.238   1.000   7.080 -2.5443  1.6667 -0.3801
 2984SOL    HW220586   4.246   0.909   7.193  1.2556  1.0386 -0.2644
 2985SOL     OW20587   0.511   1.760   7.665 -0.5810  0.0501 -0.9224
 2985SOL    HW120588   0.557   1.678   7.650  1.3099  1.6402 -3.7276
 2985SOL    HW220589   0.549   1.794   7.746 -0.6007 -2.4128  0.1098
 2986SOL     OW20590   2.454   0.792   1.163  0.1788  0.2202 -0.1283
 2986SOL    HW120591   2.380   0.847   1.188  0.4861  0.3286  0.5660
 2986SOL    HW220592   2.483   0.841   1.086 -2.5088 -1.8656 -2.4216
 2987SOL     OW20593   3.307   0.340   4.777 -0.3457 -0.1334  0.2268
 2987SOL    HW120594   3.277   0.328   4.687 -1.8017  1.8429  0.4501
 2987SOL    HW220595   3.375   0.273   4.783 -1.4472 -1.1488  1.1607
 2988SOL     OW20596   2.011   0.355   6.361 -0.4008  0.2154  0.2449
 2988SOL    HW120597   2.044   0.382   6.276  2.9591 -0.1512  1.4489
 2988SOL    HW220598   1.935   0.303   6.335  0.8941 -1.3661 -0.4249
 2989SOL     OW20599   2.453   0.466   4.164 -0.1047 -0.0946 -0.0298
 2989SOL    HW120600   2.507   0.394   4.133 -0.5285 -0.5322  0.2509
 2989SOL    HW220601   2.423   0.497   4.078  2.0031 -0.0202 -0.7457
 2990SOL     OW20602   4.248   0.480  13.814 -0.0651 -0.1890  0.1643
 2990SOL    HW120603   4.293   0.549  13.863  0.9735 -1.1786  0.5895
 2990SOL    HW220604   4.316   0.433  13.767  0.5030  0.0492  0.7512
 2991SOL     OW20605   0.716   0.410  10.997  0.1594  0.0786 -0.2619
 2991SOL    HW120606   0.744   0.354  10.925 -1.0037 -0.2949 -0.4265
 2991SOL    HW220607   0.802   0.447  11.017  0.3636  0.0366 -1.0834
 2992SOL     OW20608   2.431   3.728   5.356  0.0403  0.3306 -0.4095
 2992SOL    HW120609   2.404   3.649   5.309  0.9929 -1.6798  2.4570
 2992SOL    HW220610   2.463   3.690   5.438 -3.1646 -0.1984  0.5859
 2993SOL     OW20611   1.638   4.564   3.215  0.4100  0.3153 -0.0866
 2993SOL    HW120612   1.725   4.537   3.243 -0.1784 -1.1561  0.3306
 2993SOL    HW220613   1.614   4.491   3.159  2.3228 -0.2818 -0.1191
 2994SOL     OW20614   4.446   1.237   9.968  0.4655 -0.0822  0.5042
 2994SOL    HW120615   4.386   1.165   9.987 -1.9069  1.3149 -1.6002
 2994SOL    HW220616   4.486   1.196   9.891  1.0935 -1.6539  1.6709
 2995SOL     OW20617   2.623   4.048   2.914  0.4884  0.0092  0.5694
 2995SOL    HW120618   2.678   4.032   2.991 -1.3369 -0.7206  1.7292
 2995SOL    HW220619   2.538   4.041   2.958  1.7141 -1.3476  2.7532
 2996SOL     OW20620   0.404   1.399  10.139  0.5286 -0.4103 -0.2036
 2996SOL    HW120621   0.491   1.439  10.144  0.1425  0.8254 -2.9338
 2996SOL    HW220622   0.396   1.355  10.223 -0.6056  1.0595  0.4528
 2997SOL     OW20623   3.481   3.703   7.869 -0.5285 -0.3248 -0.3808
 2997SOL    HW120624   3.429   3.775   7.832 -1.3881 -2.1033 -2.6188
 2997SOL    HW220625   3.459   3.631   7.810  2.2064 -2.6624  1.4519
 2998SOL     OW20626   2.842   1.334   8.507  0.5106 -0.1548  0.0744
 2998SOL    HW120627   2.803   1.256   8.548  0.1209 -0.6986 -1.3076
 2998SOL    HW220628   2.762   1.386   8.519  1.1383  1.0589 -0.9996
 2999SOL     OW20629   1.606   0.670   3.179 -0.2910 -0.0454  0.0197
 2999SOL    HW120630   1.544   0.626   3.237  1.4777 -2.1659  0.3055
 2999SOL    HW220631   1.595   0.757   3.216  0.2461 -0.9238  2.2594
 3000SOL     OW20632   1.099   1.933   5.044  0.4060 -0.0466  0.0383
 3000SOL    HW120633   1.044   1.996   5.090  1.3527  0.8620 -0.0531
 3000SOL    HW220634   1.058   1.858   5.087  1.3002  0.4051  1.6872
 3001SOL     OW20635   1.337   2.347   7.549  0.5524 -0.2341 -0.6787
 3001SOL    HW120636   1.414   2.330   7.494  0.7127  2.1115 -1.1853
 3001SOL    HW220637   1.315   2.255   7.561 -1.3847 -0.2317 -4.0871
 3002SOL     OW20638   3.054   2.824   6.695 -0.0596  0.2429 -0.0081
 3002SOL    HW120639   3.057   2.879   6.773  1.1989 -0.1716  0.2329
 3002SOL    HW220640   3.116   2.868   6.637 -1.0821  1.2031 -0.3828
 3003SOL     OW20641   2.910   2.183   5.025  0.0602 -0.7473 -0.6431
 3003SOL    HW120642   2.986   2.199   5.080 -0.9390  0.1452  0.4937
 3003SOL    HW220643   2.873   2.107   5.070 -1.1026  0.2996  0.1637
 3004SOL     OW20644   2.259   3.457   6.779  0.6359 -0.1944  0.8761
 3004SOL    HW120645   2.210   3.375   6.774  0.3213 -0.0432  1.5255
 3004SOL    HW220646   2.251   3.504   6.696 -3.3731 -0.1585  1.2909
 3005SOL     OW20647   3.444   0.971   6.111 -0.1470 -0.3126  0.7465
 3005SOL    HW120648   3.485   0.930   6.035 -0.4269  0.1767  0.3303
 3005SOL    HW220649   3.418   0.890   6.154 -1.7381 -0.3941 -0.3860
 3006SOL     OW20650   2.308   1.102   7.094  0.8431 -0.7864 -0.2855
 3006SOL    HW120651   2.236   1.114   7.032 -1.2408  0.8962  2.4289
 3006SOL    HW220652   2.382   1.143   7.049  0.0976  2.8258  1.7547
 3007SOL     OW20653   0.292   3.213   3.937 -0.3910 -0.4405  0.4032
 3007SOL    HW120654   0.358   3.148   3.962  1.2259  1.1555  0.2834
 3007SOL    HW220655   0.213   3.160   3.950 -1.3965  0.4535 -1.9636
 3008SOL     OW20656   3.079   3.193   1.374  0.0527  0.0148 -0.2290
 3008SOL    HW120657   3.151   3.251   1.348 -1.8908  2.4498 -0.2236
 3008SOL    HW220658   3.106   3.109   1.337  0.1666 -1.2884  2.7769
 3009SOL     OW20659   0.571   4.464   2.813 -0.1109 -0.0929  0.8729
 3009SOL    HW120660   0.577   4.382   2.765 -1.5034  0.7734 -0.7817
 3009SOL    HW220661   0.655   4.454   2.858  0.5997 -3.0891 -1.1781
 3010SOL     OW20662   1.653   0.182   7.612  0.4354  0.4357 -0.5122
 3010SOL    HW120663   1.647   0.144   7.524  1.3663 -2.7939  0.7881
 3010SOL    HW220664   1.595   0.258   7.617  1.4813  1.2707 -1.0427
 3011SOL     OW20665   3.818   0.999  12.317 -0.4799 -0.3524  0.3671
 3011SOL    HW120666   3.882   1.071  12.313 -0.1919 -0.6492 -0.3118
 3011SOL    HW220667   3.880   0.927  12.317 -0.6833 -0.5229 -0.6860
 3012SOL     OW20668   1.766   2.144   3.282  0.0850  0.0936  0.2503
 3012SOL    HW120669   1.816   2.101   3.351  1.0981 -0.5095 -0.8738
 3012SOL    HW220670   1.826   2.130   3.209  0.8723  0.7261  0.7815
 3013SOL     OW20671   2.857   4.215   5.408  0.2251 -0.1530 -0.1789
 3013SOL    HW120672   2.930   4.179   5.358 -1.1154 -2.5295 -0.3959
 3013SOL    HW220673   2.802   4.241   5.334  0.0171 -1.4693 -0.4856
 3014SOL     OW20674   2.264   0.441   0.630 -0.7505 -0.1878 -0.3244
 3014SOL    HW120675   2.184   0.406   0.594 -0.8251  0.4621 -0.7924
 3014SOL    HW220676   2.250   0.536   0.632 -1.0812 -0.2478  0.2457
 3015SOL     OW20677   3.421   2.819   8.030  0.0267 -0.1040  0.2693
 3015SOL    HW120678   3.510   2.783   8.034 -0.1114 -0.3556  1.0465
 3015SOL    HW220679   3.415   2.876   7.953 -1.2181 -0.2013  0.2924
 3016SOL     OW20680   1.609   3.944   5.603  0.4522  0.0124 -0.3502
 3016SOL    HW120681   1.698   3.907   5.596  0.3805 -1.0673  4.4521
 3016SOL    HW220682   1.632   4.033   5.629 -0.0600 -0.4418  1.5921
 3017SOL     OW20683   3.417   4.582   4.690  0.1161 -0.3909  0.0580
 3017SOL    HW120684   3.435   4.525   4.616 -0.6587 -0.2072 -0.2718
 3017SOL    HW220685   3.438   4.527   4.766  1.1734 -1.7249 -1.2208
 3018SOL     OW20686   1.305   0.607  11.605 -0.7492  0.3325  0.2731
 3018SOL    HW120687   1.221   0.653  11.602 -1.2488 -0.5797  0.2162
 3018SOL    HW220688   1.321   0.586  11.513 -0.6360 -1.2302  0.6474
 3019SOL     OW20689   3.752   3.438   5.777  0.2607  0.1659  0.2884
 3019SOL    HW120690   3.717   3.444   5.866 -1.1223  0.0307 -0.2334
 3019SOL    HW220691   3.815   3.367   5.787  0.1508  0.0275 -0.0155
 3020SOL     OW20692   1.389   0.805   2.745 -0.2234 -0.4480 -0.2480
 3020SOL    HW120693   1.437   0.810   2.828  0.2210 -1.5682 -0.4499
 3020SOL    HW220694   1.304   0.836   2.778  1.0677  1.0022  1.7863
 3021SOL     OW20695   2.929   2.656   6.998  0.6193  0.2322 -0.2562
 3021SOL    HW120696   3.020   2.648   6.969  0.9327 -1.3323  1.1613
 3021SOL    HW220697   2.941   2.665   7.092 -0.3183 -0.4227 -0.0656
 3022SOL     OW20698   4.173   2.501   3.127 -0.4029 -0.5294  0.7942
 3022SOL    HW120699   4.124   2.501   3.044 -0.6046  0.2457  0.9140
 3022SOL    HW220700   4.254   2.549   3.109 -1.6569  0.9343 -0.9561
 3023SOL     OW20701   3.207   0.541  11.579 -0.0937 -0.2057 -0.4510
 3023SOL    HW120702   3.240   0.581  11.498 -3.3397  0.3117 -1.5492
 3023SOL    HW220703   3.114   0.537  11.556 -0.0862 -2.1018 -0.1352
 3024SOL     OW20704   3.744   3.123   4.168  0.1266  0.3093 -0.0747
 3024SOL    HW120705   3.822   3.096   4.120 -0.2090 -0.6430 -0.0886
 3024SOL    HW220706   3.776   3.191   4.226  0.0293 -1.2587  1.8104
 3025SOL     OW20707   1.769   4.101   4.520  0.3193 -0.2342 -0.4796
 3025SOL    HW120708   1.862   4.093   4.497  0.4898  0.3449  0.0137
 3025SOL    HW220709   1.768   4.033   4.588  1.2816 -0.6354 -0.8546
 3026SOL     OW20710   1.290   0.628   7.131 -0.3249 -0.0044 -0.2246
 3026SOL    HW120711   1.240   0.556   7.094  1.4443 -0.6983 -1.2821
 3026SOL    HW220712   1.379   0.592   7.132  0.7019  2.5305 -0.8498
 3027SOL     OW20713   2.403   1.299   3.089  0.3162 -0.1311 -0.1227
 3027SOL    HW120714   2.481   1.354   3.088  0.4088 -0.2902 -1.5412
 3027SOL    HW220715   2.336   1.355   3.051  3.1508  2.3408 -1.4256
 3028SOL     OW20716   1.591   0.176   4.601  0.2638  0.0560  0.3233
 3028SOL    HW120717   1.513   0.124   4.622 -0.8048  1.0928 -1.0053
 3028SOL    HW220718   1.653   0.104   4.613  0.4241 -0.1496 -1.7561
 3029SOL     OW20719   1.409   0.612  13.923 -0.2891  0.4221 -0.5930
 3029SOL    HW120720   1.457   0.689  13.892  0.3497  0.3280  0.1716
 3029SOL    HW220721   1.393   0.567  13.840  0.6618 -2.0020  0.5280
 3030SOL     OW20722   1.667   4.562   4.259 -0.2967  0.3285  0.4098
 3030SOL    HW120723   1.654   4.519   4.344  1.5134 -1.2604 -0.1132
 3030SOL    HW220724   1.582   4.606   4.250 -0.6618 -0.0809  1.6958
 3031SOL     OW20725   4.624   2.565   0.907  0.0895  0.2968 -0.2525
 3031SOL    HW120726   4.703   2.608   0.876 -0.5209  0.7721 -1.1499
 3031SOL    HW220727   4.639   2.542   0.999 -2.1196 -0.1176  0.0150
 3032SOL     OW20728   0.611   2.183   0.393  0.3158  0.3190  0.0737
 3032SOL    HW120729   0.703   2.204   0.376 -0.5017  3.4007 -0.4401
 3032SOL    HW220730   0.584   2.116   0.330  3.1378  1.1980 -2.0671
 3033SOL     OW20731   0.630   2.232  16.754 -0.0956 -0.2148 -0.2389
 3033SOL    HW120732   0.720   2.208  16.734  0.1706 -0.9102  1.8348
 3033SOL    HW220733   0.648   2.301  16.817 -0.6243  0.6502 -1.0235
 3034SOL     OW20734   3.500   3.657  14.534 -0.2053  0.1475  0.2609
 3034SOL    HW120735   3.593   3.664  14.510  0.0145 -0.9460  0.7476
 3034SOL    HW220736   3.501   3.710  14.614  0.5337  1.0955 -0.3773
 3035SOL     OW20737   0.973   0.587  10.501  1.0248  0.1163  0.6812
 3035SOL    HW120738   1.054   0.561  10.457  0.2183 -0.9210 -0.1959
 3035SOL    HW220739   0.983   0.547  10.588 -1.4091  0.7791  1.2790
 3036SOL     OW20740   4.547   3.696   1.344 -0.4231  0.4453 -0.6189
 3036SOL    HW120741   4.584   3.640   1.276  1.0892  2.1930 -1.2349
 3036SOL    HW220742   4.533   3.630   1.412  0.8444 -0.6580 -1.4137
 3037SOL     OW20743   2.802   0.823   0.567  0.2795  0.3188  0.4081
 3037SOL    HW120744   2.792   0.823   0.662  2.6996  3.8981  0.6738
 3037SOL    HW220745   2.728   0.767   0.548 -1.3149  1.1664  4.0944
 3038SOL     OW20746   2.354   4.344   6.912 -0.0321 -0.6951  0.2740
 3038SOL    HW120747   2.436   4.304   6.939 -0.3909 -1.3047  0.4602
 3038SOL    HW220748   2.306   4.364   6.992 -0.2864  0.3494 -0.1364
 3039SOL     OW20749   4.267   0.137   1.068 -0.0411  0.4027 -0.4160
 3039SOL    HW120750   4.255   0.058   1.015  1.0252  0.1001 -0.2087
 3039SOL    HW220751   4.182   0.180   1.074  0.0076  0.4954 -0.3869
 3040SOL     OW20752   3.942   4.174   6.032 -0.0769 -0.2748 -0.1181
 3040SOL    HW120753   4.007   4.231   5.990 -1.8499  1.1396 -0.9916
 3040SOL    HW220754   3.870   4.178   5.969 -0.5199 -1.0918  0.3451
 3041SOL     OW20755   1.600   3.533   5.200 -0.4355  0.1543  0.3426
 3041SOL    HW120756   1.640   3.609   5.157 -0.4948 -0.0968 -0.1637
 3041SOL    HW220757   1.631   3.541   5.290 -0.6435 -0.4751  0.4707
 3042SOL     OW20758   3.822   3.451   8.646  0.0207  0.0136 -0.1919
 3042SOL    HW120759   3.825   3.457   8.550  0.3941 -1.0401 -0.2375
 3042SOL    HW220760   3.913   3.422   8.649 -0.0390 -0.4359 -2.7356
 3043SOL     OW20761   4.582   1.939   9.067  0.4451  0.0544 -0.1455
 3043SOL    HW120762   4.522   1.985   9.008 -0.0988  0.7650  0.9570
 3043SOL    HW220763   4.521   1.926   9.140  1.0244 -3.4154 -0.3051
 3044SOL     OW20764   1.172   2.570   1.318 -0.6882  0.3600  0.6525
 3044SOL    HW120765   1.121   2.504   1.366 -0.6262  0.9235  1.4874
 3044SOL    HW220766   1.112   2.644   1.309 -1.3448 -0.1368  0.8857
 3045SOL     OW20767   0.375   1.386   1.891 -0.4332  0.9601  0.5404
 3045SOL    HW120768   0.286   1.394   1.858  0.0656 -1.8213 -1.4346
 3045SOL    HW220769   0.370   1.417   1.981  3.8171  1.2968  0.6795
 3046SOL     OW20770   0.324   0.312  17.179  0.4757 -0.1809 -0.2042
 3046SOL    HW120771   0.334   0.342  17.089  3.4625  1.0330  0.5432
 3046SOL    HW220772   0.228   0.312  17.188  0.5752  0.2455  0.8745
 3047SOL     OW20773   1.333   1.912   0.845  0.1596  0.7082 -0.6476
 3047SOL    HW120774   1.248   1.873   0.828  0.0660  0.9588 -0.7526
 3047SOL    HW220775   1.396   1.841   0.837 -0.3351  0.1382  0.5582
 3048SOL     OW20776   3.730   0.657   3.194 -0.1721 -0.3426 -0.3332
 3048SOL    HW120777   3.704   0.746   3.221 -2.6784 -1.3512  0.6232
 3048SOL    HW220778   3.660   0.604   3.233 -0.6685  0.2277 -0.4432
 3049SOL     OW20779   3.205   4.451   6.152  0.4497  0.4133  0.3271
 3049SOL    HW120780   3.177   4.468   6.242  0.8212  0.4213  0.4409
 3049SOL    HW220781   3.205   4.544   6.129 -0.8707  0.7471  1.6733
 3050SOL     OW20782   2.185   0.438  14.490  0.4048 -0.2420 -0.1522
 3050SOL    HW120783   2.102   0.473  14.458  0.6657 -0.1311 -0.7037
 3050SOL    HW220784   2.241   0.446  14.413  1.7281  3.3057  1.1769
 3051SOL     OW20785   3.203   0.451   3.478 -0.0501  0.0214 -0.7089
 3051SOL    HW120786   3.157   0.505   3.544 -0.3075 -2.0434  0.7862
 3051SOL    HW220787   3.196   0.501   3.397  0.3946 -0.8757 -1.2963
 3052SOL     OW20788   3.545   0.068   6.083 -0.1602 -0.2179 -0.3407
 3052SOL    HW120789   3.530   0.038   5.993 -0.3920 -0.3077 -0.2726
 3052SOL    HW220790   3.640   0.070   6.097 -0.1973 -0.6608 -0.0483
 3053SOL     OW20791   3.297   4.261   7.391 -0.0545  0.3383 -0.5711
 3053SOL    HW120792   3.237   4.326   7.355  0.4934  0.5620 -1.0827
 3053SOL    HW220793   3.371   4.273   7.332  0.0939 -1.0722 -0.6581
 3054SOL     OW20794   1.217   2.010  15.908 -0.6803  0.6158  0.1438
 3054SOL    HW120795   1.185   1.921  15.921 -1.0328  0.4346 -2.0445
 3054SOL    HW220796   1.306   2.001  15.874 -1.4825 -2.7619 -1.0576
 3055SOL     OW20797   4.026   0.105   3.639  0.0781  0.0123  0.6643
 3055SOL    HW120798   4.117   0.083   3.615  0.0828  0.3144  0.4049
 3055SOL    HW220799   4.042   0.152   3.721 -1.3014 -0.9072  1.4459
 3056SOL     OW20800   4.282   4.309   1.822  0.1172 -0.4039 -0.7162
 3056SOL    HW120801   4.266   4.402   1.839  1.5667 -0.1493 -0.7030
 3056SOL    HW220802   4.376   4.317   1.837 -0.4891 -0.8886  3.3587
 3057SOL     OW20803   1.463   0.483   3.336  0.0143 -0.0020 -0.1343
 3057SOL    HW120804   1.369   0.477   3.353  0.1704 -1.0906  0.3570
 3057SOL    HW220805   1.461   0.407   3.279  0.4335 -0.0338 -0.1097
 3058SOL     OW20806   1.633   2.981   9.996  0.2372  0.2644 -0.3694
 3058SOL    HW120807   1.679   3.028  10.065  1.9404 -0.3382 -1.0778
 3058SOL    HW220808   1.540   2.985  10.017  0.2021  1.1586 -0.7019
 3059SOL     OW20809   4.693   4.429   8.280 -0.3015 -0.2119 -0.1009
 3059SOL    HW120810   4.654   4.465   8.201  1.6683 -1.9409 -1.8679
 3059SOL    HW220811   0.018   4.499   8.303 -3.0983  1.9628  0.6853
 3060SOL     OW20812   2.866   0.659  12.964 -0.4379  0.3450 -0.0394
 3060SOL    HW120813   2.933   0.612  13.013 -0.3646 -0.9548 -1.3608
 3060SOL    HW220814   2.795   0.594  12.966  0.9498 -1.1992 -1.1330
 3061SOL     OW20815   4.028   2.452   2.075 -0.2489 -0.0461 -0.6142
 3061SOL    HW120816   4.097   2.500   2.121  0.1973  0.7327 -2.1168
 3061SOL    HW220817   3.977   2.526   2.044 -0.5244 -0.3250 -0.8260
 3062SOL     OW20818   4.164   2.596   1.859  0.1777  0.0929 -0.1618
 3062SOL    HW120819   4.185   2.641   1.777 -0.0362 -1.2012 -0.9360
 3062SOL    HW220820   4.187   2.665   1.921  2.9256 -1.1339  0.2027
 3063SOL     OW20821   3.646   2.230  16.441 -0.0166 -0.3734  0.4193
 3063SOL    HW120822   3.592   2.300  16.477  1.5833  1.4622 -0.8122
 3063SOL    HW220823   3.681   2.196  16.524  3.0079  2.8053  0.4325
 3064SOL     OW20824   2.042   1.291   2.680 -0.3114 -0.4816  0.3280
 3064SOL    HW120825   1.962   1.291   2.628 -0.8918  0.4451  1.2135
 3064SOL    HW220826   2.011   1.308   2.769  1.3356  0.1724  0.7949
 3065SOL     OW20827   1.040   3.188   3.389  0.2113 -0.6654 -0.1981
 3065SOL    HW120828   1.011   3.115   3.334 -0.2117 -0.9464  0.3931
 3065SOL    HW220829   0.965   3.248   3.383  0.5667 -0.1473  0.4558
 3066SOL     OW20830   1.248   3.184   1.263 -0.0631  0.1122  0.5804
 3066SOL    HW120831   1.305   3.108   1.256 -1.7650 -0.7640 -3.4075
 3066SOL    HW220832   1.298   3.237   1.326  1.7942  0.3613 -1.1245
 3067SOL     OW20833   2.541   2.844   8.174  0.5389  0.2587  0.0545
 3067SOL    HW120834   2.582   2.817   8.092 -3.6563 -1.4124 -1.5308
 3067SOL    HW220835   2.616   2.884   8.218  0.2438  1.0775 -0.1930
 3068SOL     OW20836   0.224   2.040   8.883 -0.5647 -0.1319  0.0376
 3068SOL    HW120837   0.276   2.090   8.947  1.5305 -1.7571 -0.4099
 3068SOL    HW220838   0.167   1.996   8.946  0.1139  0.1379  0.8413
 3069SOL     OW20839   4.709   2.165   5.453  0.1044  0.1497  0.3442
 3069SOL    HW120840   4.686   2.074   5.473  1.8061 -0.3756 -0.0868
 3069SOL    HW220841   0.057   2.152   5.409  0.4251  0.7224  0.7892
 3070SOL     OW20842   0.133   2.008   0.714  0.3644  0.0239  0.4402
 3070SOL    HW120843   0.053   2.055   0.740  0.0073 -0.0164 -0.5755
 3070SOL    HW220844   0.175   2.072   0.657  1.7386 -1.3799 -0.1072
 3071SOL     OW20845   4.296   2.605  13.118  0.1278 -0.3049  0.6578
 3071SOL    HW120846   4.315   2.694  13.090 -0.7906  0.3170  2.0147
 3071SOL    HW220847   4.278   2.567  13.032  0.0600 -0.4152  0.7194
 3072SOL     OW20848   0.106   1.419   8.825 -0.2076 -0.6821  0.1186
 3072SOL    HW120849   0.040   1.486   8.807 -0.9607 -1.9525 -1.8405
 3072SOL    HW220850   0.056   1.353   8.873 -1.7891 -0.1313 -0.7459
 3073SOL     OW20851   1.356   4.069  14.975  0.1656  0.0941  0.5104
 3073SOL    HW120852   1.290   4.039  14.913  0.1665 -0.1267  0.6144
 3073SOL    HW220853   1.418   4.110  14.914  0.1681 -2.8597 -1.4642
 3074SOL     OW20854   1.193   4.564   4.274 -0.0451  0.0858 -0.1269
 3074SOL    HW120855   1.257   4.495   4.291 -0.8569 -0.7254 -0.3529
 3074SOL    HW220856   1.192   4.604   4.361 -0.5765 -0.0156 -0.0866
 3075SOL     OW20857   0.854   4.010  15.610  0.0186 -1.2027  0.0202
 3075SOL    HW120858   0.815   3.942  15.554 -1.8797  1.0544 -1.4083
 3075SOL    HW220859   0.794   4.080  15.584  1.7570  0.8181  1.4228
 3076SOL     OW20860   3.340   2.265  11.744  0.0506  0.1712  0.0158
 3076SOL    HW120861   3.259   2.316  11.741  1.5971  2.7392  1.7688
 3076SOL    HW220862   3.325   2.192  11.684 -0.7837  2.4471 -2.5639
 3077SOL     OW20863   1.775   3.451  16.698  0.3638  0.0378  0.2437
 3077SOL    HW120864   1.713   3.510  16.655 -0.9791 -1.0353  0.7144
 3077SOL    HW220865   1.823   3.413  16.624  0.7326  0.4940  0.2504
 3078SOL     OW20866   3.445   3.071   1.980  0.1509  0.7398 -1.0699
 3078SOL    HW120867   3.355   3.102   1.985  0.4968  1.2294  1.8977
 3078SOL    HW220868   3.427   2.980   1.956  0.0446 -0.2448  2.8481
 3079SOL     OW20869   0.901   2.363   9.143 -0.3667 -0.4413  0.8110
 3079SOL    HW120870   0.962   2.427   9.181 -0.6598 -0.8263  1.9429
 3079SOL    HW220871   0.951   2.282   9.141  0.8804  0.3139  1.3278
 3080SOL     OW20872   0.754   3.406  15.236  0.0989  0.0547 -0.1715
 3080SOL    HW120873   0.812   3.387  15.162  0.2462 -0.7701  0.1499
 3080SOL    HW220874   0.740   3.315  15.264 -1.6707  0.5735  0.6205
 3081SOL     OW20875   1.091   2.409   7.749 -0.2609  0.3362  0.6565
 3081SOL    HW120876   1.161   2.468   7.777 -0.0141 -0.3623  1.5414
 3081SOL    HW220877   1.019   2.471   7.746 -0.2727  0.2522 -0.9050
 3082SOL     OW20878   0.734   4.179  14.946 -0.0926 -0.0017 -0.5634
 3082SOL    HW120879   0.778   4.260  14.974 -0.0432 -0.6622  1.2982
 3082SOL    HW220880   0.685   4.162  15.027  2.6341 -0.8570  0.9122
 3083SOL     OW20881   0.560   2.305  10.682 -0.5354 -0.3368 -0.3391
 3083SOL    HW120882   0.544   2.289  10.589 -0.3537 -2.7664  0.0299
 3083SOL    HW220883   0.561   2.211  10.700  0.6764 -0.1691  0.4799
 3084SOL     OW20884   0.485   1.037   5.873 -0.2153 -0.0749  0.6976
 3084SOL    HW120885   0.443   1.085   5.944  0.7475  2.7808 -0.6311
 3084SOL    HW220886   0.415   1.048   5.808  1.8374  0.1981 -1.4691
 3085SOL     OW20887   2.739   2.009  13.594 -0.0267  0.3961 -0.0509
 3085SOL    HW120888   2.809   2.005  13.659  0.8036 -1.6152 -1.0785
 3085SOL    HW220889   2.746   2.102  13.574 -1.8866  0.9456  1.8782
 3086SOL     OW20890   1.325   3.800   6.586  0.1497 -0.5416  0.1914
 3086SOL    HW120891   1.283   3.799   6.673  2.7762  2.6893  1.4913
 3086SOL    HW220892   1.344   3.893   6.574  0.4078 -0.6361 -0.1093
 3087SOL     OW20893   1.734   1.131   5.043 -0.2554  0.3187  0.7571
 3087SOL    HW120894   1.666   1.065   5.056  0.0075 -0.1450 -0.2166
 3087SOL    HW220895   1.722   1.151   4.950  1.9344  1.3833  0.7034
 3088SOL     OW20896   1.281   0.192   0.733  0.5787 -0.5433  0.2938
 3088SOL    HW120897   1.239   0.155   0.655  0.9181  0.7156 -0.4775
 3088SOL    HW220898   1.359   0.215   0.683 -0.1973 -2.3055 -1.7637
 3089SOL     OW20899   1.715   3.223   7.930 -0.6511  0.6416  0.7528
 3089SOL    HW120900   1.752   3.140   7.960 -1.9466 -0.1613  0.0930
 3089SOL    HW220901   1.757   3.239   7.845 -1.3213  0.8746  0.4668
 3090SOL     OW20902   2.845   1.304   0.181 -0.0771 -0.2074 -0.0859
 3090SOL    HW120903   2.921   1.307   0.238 -0.0635 -0.0945 -0.1102
 3090SOL    HW220904   2.813   1.216   0.201 -1.5753  0.3897  0.1501
 3091SOL     OW20905   0.928   2.486   2.321 -0.7587  0.1234  0.0039
 3091SOL    HW120906   0.923   2.419   2.389  1.6798 -0.7490 -0.6942
 3091SOL    HW220907   0.863   2.459   2.256 -0.4376  1.1042 -0.7248
 3092SOL     OW20908   4.012   0.768   5.620 -0.2297 -0.1866 -0.8110
 3092SOL    HW120909   3.970   0.853   5.615 -2.1572 -1.0519  0.4858
 3092SOL    HW220910   4.076   0.790   5.688 -0.3641 -0.7479 -0.5018
 3093SOL     OW20911   3.484   0.028   1.865 -0.1175  0.3890  0.1588
 3093SOL    HW120912   3.577   0.010   1.849 -0.4346 -0.8600 -0.2028
 3093SOL    HW220913   3.458   4.674   1.850  1.0349  0.1112 -0.2286
 3094SOL     OW20914   1.849   0.136   2.714  0.1339  0.5083 -0.7767
 3094SOL    HW120915   1.833   0.203   2.648 -1.2871  0.3516 -0.5920
 3094SOL    HW220916   1.888   0.194   2.779 -0.7708 -0.6148  0.7785
 3095SOL     OW20917   2.504   4.164  14.326  0.2434  0.4742 -0.3854
 3095SOL    HW120918   2.583   4.111  14.318 -1.1827 -1.8024  0.7098
 3095SOL    HW220919   2.468   4.126  14.406 -0.4689  0.6900 -0.6068
 3096SOL     OW20920   4.637   0.168   2.016  0.6221  0.0174 -0.0757
 3096SOL    HW120921   4.555   0.206   2.046  2.6157  2.2720  2.5115
 3096SOL    HW220922   4.668   0.130   2.098 -1.8915  1.9113  1.7566
 3097SOL     OW20923   4.048   1.459   6.890  0.0630  0.1598  0.5082
 3097SOL    HW120924   4.054   1.454   6.985 -1.3372  1.3910  0.6750
 3097SOL    HW220925   3.961   1.499   6.889  0.9804  2.1887  1.1025
 3098SOL     OW20926   2.171   2.714  10.743  0.9621  0.2826  0.1944
 3098SOL    HW120927   2.110   2.666  10.799  0.0598  0.4812 -0.6172
 3098SOL    HW220928   2.121   2.725  10.662  1.0126 -2.1878 -0.1727
 3099SOL     OW20929   1.108   0.361   6.197 -0.3380  0.0011 -0.0944
 3099SOL    HW120930   1.055   0.299   6.147 -0.9929 -1.1957  2.0739
 3099SOL    HW220931   1.187   0.310   6.212 -0.8374 -1.1137 -1.2249
 3100SOL     OW20932   1.955   0.751   6.012 -0.1828  0.4127 -0.5948
 3100SOL    HW120933   1.916   0.809   5.946 -0.5384  2.5009  1.4252
 3100SOL    HW220934   2.042   0.789   6.010  0.0118  0.0648  0.7454
 3101SOL     OW20935   0.905   3.778   5.427 -0.4542  0.0274  0.8298
 3101SOL    HW120936   0.919   3.686   5.403 -0.7267 -0.2064  1.5693
 3101SOL    HW220937   0.822   3.809   5.392  0.7833  1.7632 -0.5937
 3102SOL     OW20938   2.891   2.091   6.457 -0.5118 -0.5292  0.0609
 3102SOL    HW120939   2.847   2.161   6.505 -3.0392 -3.3349  1.8560
 3102SOL    HW220940   2.819   2.049   6.411 -0.3046 -0.3419 -0.4286
 3103SOL     OW20941   1.474   0.924   6.619 -0.6682 -0.0104  0.2345
 3103SOL    HW120942   1.478   0.829   6.618 -1.0204 -0.0222 -0.3414
 3103SOL    HW220943   1.390   0.932   6.573 -0.8996 -1.6822  0.3800
 3104SOL     OW20944   1.475   1.349  15.974 -0.3786  0.4876 -0.0973
 3104SOL    HW120945   1.487   1.356  15.879 -1.0362  1.9090 -0.0764
 3104SOL    HW220946   1.550   1.294  15.998 -1.3624 -0.3748  0.9759
 3105SOL     OW20947   1.043   1.133   9.085  0.0986 -0.2299 -0.2294
 3105SOL    HW120948   1.078   1.194   9.150  3.4228  0.1787 -2.4002
 3105SOL    HW220949   1.075   1.049   9.119  1.1632 -0.8290 -2.6952
 3106SOL     OW20950   1.736   4.099   5.031 -0.1622  0.3693 -0.1288
 3106SOL    HW120951   1.654   4.109   4.983 -0.7543  0.2517  0.8605
 3106SOL    HW220952   1.713   4.123   5.120 -2.6130  1.2559 -1.0044
 3107SOL     OW20953   3.931   4.677   7.292  0.0492 -0.1249 -0.4389
 3107SOL    HW120954   3.873   4.681   7.215 -0.6772 -0.9267  0.0664
 3107SOL    HW220955   3.932   4.582   7.302 -2.6196 -0.2782 -1.4933
 3108SOL     OW20956   3.222   1.307   8.028  0.2038  0.3925 -0.2338
 3108SOL    HW120957   3.215   1.360   8.107 -0.9420  1.8599 -1.3145
 3108SOL    HW220958   3.314   1.315   8.004  0.3086 -1.9831 -0.6275
 3109SOL     OW20959   1.321   2.076   9.101 -0.5212 -0.4933 -0.1553
 3109SOL    HW120960   1.262   2.002   9.084  1.2788 -1.9825  0.0773
 3109SOL    HW220961   1.342   2.088   9.008  1.9546 -0.6364  0.3931
 3110SOL     OW20962   1.230   0.799   4.852  0.1147 -0.5457  0.2454
 3110SOL    HW120963   1.194   0.718   4.817 -3.1708  0.5323  1.1824
 3110SOL    HW220964   1.300   0.818   4.790 -1.5637  0.8574 -1.2069
 3111SOL     OW20965   2.771   3.788   6.901 -0.2579 -0.1073  0.0266
 3111SOL    HW120966   2.680   3.814   6.916 -0.4627 -0.6066 -0.3588
 3111SOL    HW220967   2.770   3.758   6.810 -1.8851 -1.0090  0.3360
 3112SOL     OW20968   3.187   1.445   4.326  0.7994 -0.1598 -0.1673
 3112SOL    HW120969   3.133   1.501   4.382 -1.7557 -2.3815 -0.4163
 3112SOL    HW220970   3.142   1.363   4.342 -0.7516  1.0102  1.4528
 3113SOL     OW20971   2.079   2.447  10.588 -0.4574  0.4521  0.1424
 3113SOL    HW120972   2.002   2.395  10.566  1.0491  0.4478 -5.0749
 3113SOL    HW220973   2.106   2.396  10.664  0.9283 -0.3672 -0.9158
 3114SOL     OW20974   0.591   3.463   9.613  0.0215  0.0004  0.1717
 3114SOL    HW120975   0.526   3.420   9.669  0.5702 -0.7431  0.2498
 3114SOL    HW220976   0.602   3.530   9.679 -1.7596 -0.1716  0.6590
 3115SOL     OW20977   4.257   2.712   1.395  0.5806  0.6018 -0.2275
 3115SOL    HW120978   4.316   2.736   1.324 -0.1672 -0.0374 -1.0663
 3115SOL    HW220979   4.267   2.617   1.390 -3.0935  0.0824  2.2631
 3116SOL     OW20980   3.795   0.570   6.859  0.6132  0.2205  0.4323
 3116SOL    HW120981   3.721   0.624   6.830  2.3326  1.4231 -1.6712
 3116SOL    HW220982   3.869   0.620   6.826  0.0822  0.8728  0.2241
 3117SOL     OW20983   1.667   1.279  12.679 -0.0671  0.1135 -0.2141
 3117SOL    HW120984   1.714   1.218  12.622 -2.4764 -1.2488 -0.7400
 3117SOL    HW220985   1.618   1.211  12.725  0.3665  0.4395  0.7338
 3118SOL     OW20986   1.874   3.399  13.228 -0.2610  0.5567  0.1057
 3118SOL    HW120987   1.949   3.456  13.214 -0.9798  1.7171  0.9148
 3118SOL    HW220988   1.836   3.388  13.141 -0.9940 -1.4894  0.6756
 3119SOL     OW20989   0.774   0.755   3.902  0.1145 -0.6265  0.0567
 3119SOL    HW120990   0.689   0.717   3.926 -0.2894  0.5965  0.5731
 3119SOL    HW220991   0.839   0.687   3.921  0.3111 -0.3153  0.5047
 3120SOL     OW20992   2.986   0.470  13.159 -0.2472  0.1733  0.4430
 3120SOL    HW120993   2.974   0.515  13.242  2.2885 -1.0630  1.4606
 3120SOL    HW220994   2.909   0.413  13.156 -0.0039 -0.2052  1.4592
 3121SOL     OW20995   3.504   3.998   9.546 -0.7489 -0.0383  0.2073
 3121SOL    HW120996   3.578   3.951   9.506 -1.3525 -1.5666  0.9004
 3121SOL    HW220997   3.456   4.027   9.468 -1.7320  0.4117  0.9939
 3122SOL     OW20998   4.501   2.351   7.443 -0.3814 -0.3456  0.2864
 3122SOL    HW120999   4.553   2.349   7.523 -0.2841 -0.9074  0.2076
 3122SOL    HW221000   4.452   2.432   7.452  0.8205  0.4454 -0.1613
 3123SOL     OW21001   0.237   3.888   6.171  0.1655 -0.0821  0.1936
 3123SOL    HW121002   0.290   3.967   6.161 -0.5163  0.4799  1.0337
 3123SOL    HW221003   0.150   3.914   6.143  0.2802 -0.2169 -0.2817
 3124SOL     OW21004   2.019   0.454   0.770  0.1093  0.0537  0.2654
 3124SOL    HW121005   2.025   0.404   0.852 -0.0219 -0.0446  0.2156
 3124SOL    HW221006   2.038   0.543   0.798 -0.1741 -0.0370  0.7490
 3125SOL     OW21007   1.753   4.338   4.657  0.0904  0.2533 -0.2607
 3125SOL    HW121008   1.801   4.312   4.736  0.2061 -1.1617 -0.7875
 3125SOL    HW221009   1.754   4.261   4.600 -2.5997  0.9691 -1.2556
 3126SOL     OW21010   0.554   3.447   8.159  0.1471  0.6236 -0.2919
 3126SOL    HW121011   0.516   3.531   8.185 -0.5455 -0.4183  2.0380
 3126SOL    HW221012   0.645   3.463   8.187  0.0940  2.7926 -1.3734
 3127SOL     OW21013   4.090   0.831   6.193  0.4190 -0.3474 -0.0718
 3127SOL    HW121014   4.020   0.896   6.185  0.0196 -0.6106  1.1783
 3127SOL    HW221015   4.168   0.885   6.200  1.0378 -1.5237  2.0761
 3128SOL     OW21016   0.250   2.455   5.920 -0.0846 -0.4118  0.5642
 3128SOL    HW121017   0.243   2.383   5.982 -2.2918 -1.4146 -0.8474
 3128SOL    HW221018   0.204   2.523   5.970  0.0275 -0.5085  0.7972
 3129SOL     OW21019   2.150   0.357   2.671 -0.0628 -0.1439 -0.2451
 3129SOL    HW121020   2.101   0.404   2.604  0.7145  2.1160  0.7906
 3129SOL    HW221021   2.087   0.348   2.743 -2.0841 -0.1481 -2.0258
 3130SOL     OW21022   0.074   1.059  11.477 -0.2367  0.3471  0.0278
 3130SOL    HW121023   0.108   0.973  11.504  0.1006  0.4117 -0.1918
 3130SOL    HW221024   0.002   1.026  11.423 -0.5103 -4.1343  3.0843
 3131SOL     OW21025   1.910   2.276   9.660 -0.4024 -0.2680  0.3366
 3131SOL    HW121026   1.944   2.364   9.672 -0.4116 -0.3266  0.7606
 3131SOL    HW221027   1.946   2.239   9.740 -1.6495 -0.4087  0.8336
 3132SOL     OW21028   3.823   2.186   6.466 -0.5498  0.0839 -0.1770
 3132SOL    HW121029   3.739   2.231   6.463 -0.7451 -0.3103 -0.6846
 3132SOL    HW221030   3.863   2.252   6.522 -1.3651  0.1396  0.3366
 3133SOL     OW21031   2.083   2.188   5.993  0.1062  0.6321 -0.0055
 3133SOL    HW121032   2.119   2.114   5.944  0.0502  2.2566 -2.4812
 3133SOL    HW221033   2.075   2.140   6.076  2.1915 -0.5829 -0.5126
 3134SOL     OW21034   2.154   4.538   9.252  0.1286  0.1092  0.0755
 3134SOL    HW121035   2.133   4.459   9.201 -1.0705 -0.2788  1.1653
 3134SOL    HW221036   2.173   4.591   9.176 -2.1687 -0.3320 -0.8284
 3135SOL     OW21037   4.592   3.737  10.597 -0.1503 -0.2783 -0.3106
 3135SOL    HW121038   4.666   3.797  10.582  0.3094 -0.2536  2.0987
 3135SOL    HW221039   4.522   3.790  10.635  0.0337  0.0541 -0.4350
 3136SOL     OW21040   0.626   3.223   1.864 -0.7048  0.0449  0.3304
 3136SOL    HW121041   0.670   3.210   1.780 -0.8834  2.2503 -0.0929
 3136SOL    HW221042   0.570   3.299   1.848  1.6386  1.6658 -0.0544
 3137SOL     OW21043   1.512   4.661   5.560  0.1107  0.2977 -0.4068
 3137SOL    HW121044   1.471   4.575   5.561  1.1526 -0.2092 -0.8893
 3137SOL    HW221045   1.443   4.717   5.524 -1.3686 -0.9231  0.5499
 3138SOL     OW21046   2.211   0.140   7.995  0.1474  0.2083  0.3317
 3138SOL    HW121047   2.210   0.218   8.051 -0.4373  1.3106 -1.2230
 3138SOL    HW221048   2.119   0.115   7.989  0.2129 -0.2204  1.1280
 3139SOL     OW21049   1.795   3.740   2.146  0.0060  0.2282 -0.3472
 3139SOL    HW121050   1.708   3.779   2.144  0.3401  1.0216  0.6506
 3139SOL    HW221051   1.820   3.722   2.055  0.7643  0.9943 -0.2909
 3140SOL     OW21052   1.016   2.606   9.257  0.0786 -0.0909 -0.5850
 3140SOL    HW121053   0.986   2.581   9.344 -3.2256  1.0225 -1.3978
 3140SOL    HW221054   1.041   2.698   9.266  0.5475 -0.1083 -1.7032
 3141SOL     OW21055   2.138   2.233   1.348 -0.1160  0.3430  0.3472
 3141SOL    HW121056   2.182   2.202   1.269  1.9819  0.8996  1.3105
 3141SOL    HW221057   2.055   2.184   1.353 -0.1451  0.5117  1.5732
 3142SOL     OW21058   1.105   0.668   2.386  0.0689  0.3665 -0.0763
 3142SOL    HW121059   1.143   0.719   2.458  1.4835 -1.7667  0.6964
 3142SOL    HW221060   1.065   0.596   2.436  1.9451 -1.0763 -0.6564
 3143SOL     OW21061   4.138   4.511   3.762 -0.0015 -0.3431  0.0104
 3143SOL    HW121062   4.198   4.546   3.828  0.5208 -0.1813 -0.5555
 3143SOL    HW221063   4.199   4.494   3.690  0.3657 -0.0544  0.2535
 3144SOL     OW21064   1.486   3.668  17.703 -0.2535  0.8833  0.1393
 3144SOL    HW121065   1.430   3.617  17.644 -2.0056  1.4759  1.2746
 3144SOL    HW221066   1.428   3.741  17.726  0.4086  1.3403  0.3466
 3145SOL     OW21067   3.804   2.390  16.281  0.3796 -0.0491 -0.1200
 3145SOL    HW121068   3.778   2.330  16.352 -1.2718  0.2918 -0.4388
 3145SOL    HW221069   3.726   2.384  16.226  0.7120 -0.9526 -0.5039
 3146SOL     OW21070   0.185   1.165   7.239  0.5277  0.5059 -0.4756
 3146SOL    HW121071   0.166   1.143   7.148 -2.1504 -0.6400  0.3706
 3146SOL    HW221072   0.258   1.104   7.251  0.6042  0.2801 -2.0987
 3147SOL     OW21073   2.789   3.375   7.349  0.2601 -0.1142  0.1758
 3147SOL    HW121074   2.863   3.355   7.406  0.3585  0.3451  0.2062
 3147SOL    HW221075   2.774   3.468   7.368 -0.7902 -0.3231  0.4130
 3148SOL     OW21076   3.577   3.429   5.550 -0.1817  0.1208 -0.2641
 3148SOL    HW121077   3.533   3.344   5.551 -0.9296  0.4959 -0.8477
 3148SOL    HW221078   3.628   3.439   5.630  1.0118  0.0130 -1.0193
 3149SOL     OW21079   0.915   2.054   7.495  0.1918  0.1844 -0.2372
 3149SOL    HW121080   0.876   2.035   7.580 -1.5185  0.2656 -0.9904
 3149SOL    HW221081   0.836   2.090   7.454  0.3576 -0.0980 -0.8088
 3150SOL     OW21082   4.162   2.582   4.542 -0.2482  0.6015 -0.0382
 3150SOL    HW121083   4.149   2.529   4.620  0.2990  0.2005 -0.2193
 3150SOL    HW221084   4.251   2.611   4.559  0.8170 -0.9542 -2.9109
 3151SOL     OW21085   2.740   1.120   9.545 -0.9511 -0.0758  0.2358
 3151SOL    HW121086   2.649   1.136   9.520 -0.3895 -1.5558 -2.6665
 3151SOL    HW221087   2.782   1.184   9.488  1.3791 -1.2633  0.6109
 3152SOL     OW21088   0.552   1.351   6.092 -0.8848 -0.0550 -0.6379
 3152SOL    HW121089   0.465   1.315   6.075  0.2402 -2.4307 -1.3832
 3152SOL    HW221090   0.594   1.277   6.135 -1.8796  0.2224  0.8142
 3153SOL     OW21091   4.048   4.215   4.925 -0.5535  0.0074 -0.5083
 3153SOL    HW121092   3.989   4.266   4.980 -0.4890 -0.6166  0.1431
 3153SOL    HW221093   4.070   4.146   4.988 -0.9402  0.0207 -0.3608
 3154SOL     OW21094   2.358   1.632  17.635  0.1721  0.9676  0.1296
 3154SOL    HW121095   2.366   1.643  17.540  0.9889  0.9862  0.2063
 3154SOL    HW221096   2.430   1.570  17.645 -1.1614 -0.8488 -1.4970
 3155SOL     OW21097   3.622   0.090   1.169 -0.1387 -0.2232 -0.0012
 3155SOL    HW121098   3.632   0.027   1.240  0.0405 -0.0814  0.1005
 3155SOL    HW221099   3.696   0.068   1.112 -1.5824 -1.3329 -1.4507
 3156SOL     OW21100   3.198   2.498   7.631  0.7074  0.3293 -0.0437
 3156SOL    HW121101   3.269   2.484   7.694  1.4826 -0.8631 -1.1863
 3156SOL    HW221102   3.121   2.457   7.670  0.1109  0.0628 -1.5026
 3157SOL     OW21103   4.556   0.833   3.175  0.4310  0.2159 -0.5941
 3157SOL    HW121104   4.568   0.761   3.112  0.1682  0.5565 -1.0294
 3157SOL    HW221105   4.463   0.855   3.174  0.7197  1.4550  0.7475
 3158SOL     OW21106   1.337   2.084  10.683  0.2295 -0.0175 -0.2721
 3158SOL    HW121107   1.350   2.166  10.730 -1.8474  0.7517 -1.0130
 3158SOL    HW221108   1.261   2.108  10.629  0.5327  0.3039 -0.5537
 3159SOL     OW21109   0.019   0.139   8.387  0.2841  0.3597 -0.3533
 3159SOL    HW121110   4.670   0.113   8.352  0.3115  1.8687 -1.5323
 3159SOL    HW221111   0.014   0.122   8.481 -0.3795 -1.9031 -0.7987
 3160SOL     OW21112   1.169   0.559   3.567  0.7005 -0.0989 -0.0353
 3160SOL    HW121113   1.174   0.653   3.586 -0.1567  0.3362 -2.0512
 3160SOL    HW221114   1.075   0.559   3.553  0.7677  0.4414 -0.4872
 3161SOL     OW21115   3.596   2.661   2.048 -0.0193 -0.0449 -0.2378
 3161SOL    HW121116   3.662   2.603   2.009  0.3926  0.3102 -0.0722
 3161SOL    HW221117   3.631   2.750   2.043 -0.2802  0.0266 -0.7712
 3162SOL     OW21118   0.350   3.225   0.385 -0.1704  0.0568 -0.4863
 3162SOL    HW121119   0.289   3.196   0.453  0.4626  3.1361  1.3805
 3162SOL    HW221120   0.288   3.219   0.312  0.0203 -0.3760 -0.6125
 3163SOL     OW21121   4.539   1.697   6.351  0.0551  0.3741  1.1572
 3163SOL    HW121122   4.626   1.712   6.389  0.4216  1.2756 -0.0446
 3163SOL    HW221123   4.487   1.768   6.387 -0.6494  0.7902 -0.7247
 3164SOL     OW21124   4.720   3.169   7.637  0.1539  0.5884 -0.5547
 3164SOL    HW121125   4.734   3.077   7.617  2.6295  0.8656 -0.0899
 3164SOL    HW221126   0.069   3.205   7.610  1.3494 -0.6080  1.6186
 3165SOL     OW21127   0.770   0.411  13.006  0.4481 -0.2930 -0.4888
 3165SOL    HW121128   0.864   0.414  13.020  0.2520 -2.4996  1.1665
 3165SOL    HW221129   0.765   0.339  12.942  0.8867 -0.7672  0.0183
 3166SOL     OW21130   4.199   4.391   8.464 -0.3959  0.6941 -0.1666
 3166SOL    HW121131   4.255   4.404   8.388  1.7613  0.0452  1.3168
 3166SOL    HW221132   4.239   4.446   8.530 -0.8409 -0.9952  1.5106
 3167SOL     OW21133   0.870   3.792  16.612 -0.4262  0.3833  0.2584
 3167SOL    HW121134   0.911   3.769  16.528  1.1441  1.7756  0.6300
 3167SOL    HW221135   0.779   3.810  16.588 -0.8875  0.3379  2.0229
 3168SOL     OW21136   4.156   2.401   4.797 -0.7851  0.2368 -0.4012
 3168SOL    HW121137   4.217   2.339   4.837 -1.3476  0.2415  0.4594
 3168SOL    HW221138   4.155   2.474   4.859 -1.6230 -0.2201  0.1068
 3169SOL     OW21139   2.923   3.140  15.714 -0.4255  0.6784 -0.6547
 3169SOL    HW121140   2.915   3.144  15.809  1.4813 -2.5083 -0.3818
 3169SOL    HW221141   2.849   3.190  15.679  0.6128  0.4116 -3.2082
 3170SOL     OW21142   2.733   0.075   5.818 -0.1639 -0.0001  0.2063
 3170SOL    HW121143   2.794   0.002   5.812  0.9635  0.9584  0.0651
 3170SOL    HW221144   2.744   0.129   5.740  0.7450  1.7761  1.5411
 3171SOL     OW21145   2.102   3.287  15.902  0.0256  0.1632 -0.4292
 3171SOL    HW121146   2.143   3.319  15.821  0.6339  2.5956  0.8728
 3171SOL    HW221147   2.061   3.203  15.881 -1.0015  0.9198 -1.4296
 3172SOL     OW21148   3.989   2.908   1.748  0.1349  0.0660 -0.7120
 3172SOL    HW121149   4.058   2.871   1.694 -0.8542 -0.6698 -1.4747
 3172SOL    HW221150   4.027   2.911   1.836  0.3606  0.9630 -0.8460
 3173SOL     OW21151   4.005   4.412   6.894 -0.4404 -0.0376  0.2612
 3173SOL    HW121152   4.070   4.346   6.917  0.6942  1.1999  0.5741
 3173SOL    HW221153   3.965   4.379   6.813  0.7229  0.0130 -0.3296
 3174SOL     OW21154   0.649   3.006   5.282  0.3237  0.1166  0.0852
 3174SOL    HW121155   0.572   3.060   5.296  1.8451  2.3033  0.0752
 3174SOL    HW221156   0.640   2.975   5.192  2.1760  2.0770 -0.7744
 3175SOL     OW21157   1.731   4.642   1.667 -0.3864  0.1333  0.3537
 3175SOL    HW121158   1.720   4.657   1.761 -2.4927  3.4135 -0.4209
 3175SOL    HW221159   1.798   4.706   1.644  1.1717 -0.9117  1.9196
 3176SOL     OW21160   3.583   1.795   0.652 -0.3055  0.3334 -0.4293
 3176SOL    HW121161   3.508   1.845   0.621 -0.0846 -0.1395 -1.7130
 3176SOL    HW221162   3.571   1.810   0.746  0.9867 -2.3940  0.1637
 3177SOL     OW21163   3.166   1.884   3.006 -0.0496 -0.0314 -0.8124
 3177SOL    HW121164   3.210   1.804   2.977  1.2610 -0.7362  3.0240
 3177SOL    HW221165   3.221   1.952   2.967  0.4402  1.2343  2.0880
 3178SOL     OW21166   4.458   0.501   6.928  0.7830 -0.2714  0.0627
 3178SOL    HW121167   4.440   0.570   6.865  0.8462 -0.8153 -0.5474
 3178SOL    HW221168   4.432   0.539   7.012  1.4277  2.2737 -0.9105
 3179SOL     OW21169   4.161   2.581   4.996  0.4221 -0.1486 -0.7992
 3179SOL    HW121170   4.256   2.573   4.999  0.4047 -0.2719 -0.5403
 3179SOL    HW221171   4.149   2.669   5.033  1.1213  0.2980 -1.6164
 3180SOL     OW21172   2.170   3.938   4.998  0.0026 -0.7902  0.1520
 3180SOL    HW121173   2.163   3.893   5.082 -1.6172  1.5248  1.2486
 3180SOL    HW221174   2.182   3.870   4.932 -0.8380  0.2572 -1.0975
 3181SOL     OW21175   0.888   4.370   8.091 -0.7749 -0.2704 -0.1445
 3181SOL    HW121176   0.885   4.302   8.024  1.5606  1.0631 -1.6072
 3181SOL    HW221177   0.809   4.352   8.143 -1.1613  2.1350  0.1047
 3182SOL     OW21178   1.430   3.003   6.510 -0.2130 -0.0083  0.3264
 3182SOL    HW121179   1.486   2.927   6.492 -0.9935 -0.5664  0.2745
 3182SOL    HW221180   1.373   2.975   6.582  3.0164  0.7576  3.2173
 3183SOL     OW21181   1.011   4.692   7.183  0.4477  0.2376 -0.1405
 3183SOL    HW121182   1.064   4.708   7.261  0.6497 -1.8746  0.1558
 3183SOL    HW221183   0.945   4.636   7.224 -0.1262  0.7493 -0.3783
 3184SOL     OW21184   4.510   1.477   2.222  0.5223  0.6197  0.4148
 3184SOL    HW121185   4.430   1.426   2.231  0.1429  1.5028  2.0979
 3184SOL    HW221186   4.487   1.528   2.145 -0.9415  0.6547  0.8721
 3185SOL     OW21187   3.883   1.406   3.837 -0.1195 -0.2547  0.0972
 3185SOL    HW121188   3.906   1.460   3.762  3.3929  1.1928  2.1727
 3185SOL    HW221189   3.868   1.326   3.787 -0.5113 -1.0708  1.5285
 3186SOL     OW21190   4.638   3.651   8.969  0.4932  0.6033 -0.5726
 3186SOL    HW121191   4.571   3.674   8.904 -0.9061 -0.8481  0.3699
 3186SOL    HW221192   4.588   3.669   9.048  1.2666 -0.1523  0.0855
 3187SOL     OW21193   3.235   4.106   7.050  0.1284  0.1207  0.2569
 3187SOL    HW121194   3.295   4.079   7.120 -0.4855 -4.1629 -0.8866
 3187SOL    HW221195   3.290   4.139   6.978 -1.4869  0.1182 -0.9666
 3188SOL     OW21196   2.148   0.713   6.973  0.1655  0.3241  0.3927
 3188SOL    HW121197   2.226   0.750   7.014 -0.3403  0.8495  0.8833
 3188SOL    HW221198   2.071   0.761   7.002  0.6865  1.7001 -0.4885
 3189SOL     OW21199   2.399   4.464   0.450 -0.1222  0.0937  0.0455
 3189SOL    HW121200   2.440   4.541   0.409  2.8839 -1.4689  0.1639
 3189SOL    HW221201   2.313   4.496   0.423  0.4475  0.8686 -0.8781
 3190SOL     OW21202   3.887   3.995  14.843  0.2308  0.7626  0.2971
 3190SOL    HW121203   3.806   4.044  14.827  0.9115  1.9899  0.6611
 3190SOL    HW221204   3.905   3.957  14.757  1.4175  1.5913  0.1943
 3191SOL     OW21205   3.254   0.369  13.299 -0.4347  0.1437 -0.2954
 3191SOL    HW121206   3.186   0.304  13.286 -2.1258  1.4111  2.1890
 3191SOL    HW221207   3.208   0.446  13.266  2.7102  2.4050  0.5462
 3192SOL     OW21208   1.470   0.243   2.249 -0.2936  0.6774 -0.2260
 3192SOL    HW121209   1.545   0.296   2.276  0.3309  1.2737 -3.1406
 3192SOL    HW221210   1.511   0.161   2.222 -0.8066 -0.0280  1.1307
 3193SOL     OW21211   2.615   1.458   3.080 -0.5958  0.3265  0.3567
 3193SOL    HW121212   2.666   1.500   3.010  2.8055 -1.0306  2.0125
 3193SOL    HW221213   2.671   1.387   3.110 -0.5767  0.8716  1.6038
 3194SOL     OW21214   0.048   1.981  10.275 -0.4425  0.1588 -0.4908
 3194SOL    HW121215   0.003   1.984  10.359 -1.7875  0.3457 -1.2222
 3194SOL    HW221216   0.108   2.048  10.309 -0.3413  1.0514 -2.3828
 3195SOL     OW21217   2.292   2.920   6.157 -0.2718  0.3942 -0.4546
 3195SOL    HW121218   2.385   2.897   6.168 -0.4895  1.1388  3.1244
 3195SOL    HW221219   2.256   2.841   6.118  1.8954 -0.5220 -0.5942
 3196SOL     OW21220   1.279   2.157   4.088  0.2066  0.1723 -0.1195
 3196SOL    HW121221   1.362   2.203   4.071  0.6978 -1.2324 -1.6048
 3196SOL    HW221222   1.221   2.219   4.132  0.1020 -0.4519  0.6193
 3197SOL     OW21223   4.300   2.402   3.768 -0.1813  0.0291 -0.3708
 3197SOL    HW121224   4.292   2.452   3.687  0.0665 -0.9894 -1.0198
 3197SOL    HW221225   4.273   2.470   3.830 -1.6927 -0.9250  0.0057
 3198SOL     OW21226   1.846   2.486  14.444 -0.1399  0.3103 -0.3908
 3198SOL    HW121227   1.832   2.512  14.353  0.3139 -0.0758 -0.5713
 3198SOL    HW221228   1.769   2.521  14.489  0.5019  1.7335 -0.4264
 3199SOL     OW21229   0.518   3.140   7.988 -0.0312  0.1432  0.4576
 3199SOL    HW121230   0.448   3.162   8.049  1.2017  0.4160  1.8002
 3199SOL    HW221231   0.463   3.115   7.914 -0.5813 -0.2540  1.0008
 3200SOL     OW21232   3.439   0.174   9.510 -0.6353 -0.1248  0.2632
 3200SOL    HW121233   3.413   0.167   9.602 -0.7819  0.1444  0.2431
 3200SOL    HW221234   3.357   0.172   9.460 -0.0991 -0.7182 -0.5807
 3201SOL     OW21235   2.336   4.621   0.668 -0.2881  0.9730 -0.1478
 3201SOL    HW121236   2.381   4.573   0.598  0.1730  2.2964 -0.7455
 3201SOL    HW221237   2.319   4.549   0.730  2.7163 -1.5386 -2.2420
 3202SOL     OW21238   0.244   3.603  10.026 -0.4129 -0.6614  0.0279
 3202SOL    HW121239   0.185   3.662   9.980  0.5113  1.2116  1.2441
 3202SOL    HW221240   0.189   3.574  10.099 -2.0901  1.8305 -0.2447
 3203SOL     OW21241   1.824   1.535   3.640 -0.1249  0.5090 -0.2393
 3203SOL    HW121242   1.908   1.548   3.595 -0.9408  0.3851 -1.7908
 3203SOL    HW221243   1.773   1.596   3.588 -2.0199 -0.6092  0.2915
 3204SOL     OW21244   3.125   4.678   4.592 -0.5729  0.7005  0.7962
 3204SOL    HW121245   3.220   4.664   4.588 -0.7614 -0.0195 -0.9300
 3204SOL    HW221246   3.103   0.028   4.629 -0.7489  1.4413 -1.0606
 3205SOL     OW21247   4.359   4.702   4.993 -0.5494 -0.3685  0.2852
 3205SOL    HW121248   4.325   4.630   5.047 -3.5907  1.8017  1.2405
 3205SOL    HW221249   4.427   4.651   4.949 -0.1506  1.0425 -0.6996
 3206SOL     OW21250   4.184   1.553  13.547 -0.5753  0.3496 -0.1302
 3206SOL    HW121251   4.258   1.612  13.561 -0.5214  0.6814 -1.8004
 3206SOL    HW221252   4.107   1.597  13.585 -0.9966  0.5796 -1.2276
 3207SOL     OW21253   0.282   0.783   2.574 -0.0930  0.4357 -0.5729
 3207SOL    HW121254   0.242   0.771   2.660  0.2364  2.4259 -0.1422
 3207SOL    HW221255   0.218   0.837   2.527  0.7820  0.7640 -1.3690
 3208SOL     OW21256   3.502   1.370   7.998 -0.0988  0.5496  0.0275
 3208SOL    HW121257   3.519   1.276   8.006  3.1906  1.1808  0.6733
 3208SOL    HW221258   3.554   1.403   8.072 -1.7814  1.1596  0.9452
 3209SOL     OW21259   4.080   3.867   6.210  0.0333 -0.1362 -0.6751
 3209SOL    HW121260   3.998   3.886   6.164 -0.3313 -1.7126 -0.6634
 3209SOL    HW221261   4.117   3.785   6.177  2.5524  1.1742 -1.0842
 3210SOL     OW21262   1.980   3.046   8.714  0.5058 -0.1890  0.1584
 3210SOL    HW121263   1.908   3.092   8.758 -1.3205  0.6134 -3.6646
 3210SOL    HW221264   1.970   2.956   8.746  2.1766 -0.1864  0.6508
 3211SOL     OW21265   1.351   1.194   1.674  0.4666 -0.1036 -0.0916
 3211SOL    HW121266   1.313   1.158   1.755  0.1103 -3.3334 -1.6945
 3211SOL    HW221267   1.359   1.286   1.700  0.1015  0.3175 -1.4647
 3212SOL     OW21268   2.914   1.248   4.285 -0.1508  0.4529  0.0988
 3212SOL    HW121269   2.865   1.250   4.367 -1.7086  0.4590 -0.8263
 3212SOL    HW221270   2.840   1.257   4.226  0.6738 -0.0061 -0.9999
 3213SOL     OW21271   4.701   0.421   9.543  0.0377  0.1490  0.3338
 3213SOL    HW121272   4.690   0.434   9.637 -0.8012  0.7215  0.1538
 3213SOL    HW221273   0.058   0.403   9.557  0.5255 -0.3772 -3.6064
 3214SOL     OW21274   4.708   0.719   0.885  0.4103  0.1053 -0.1062
 3214SOL    HW121275   0.067   0.722   0.890  0.6101 -2.1346 -2.2841
 3214SOL    HW221276   4.682   0.644   0.938  0.9954 -0.3734 -0.4933
 3215SOL     OW21277   2.071   4.292   0.705  0.3131 -0.2046  0.0928
 3215SOL    HW121278   2.091   4.215   0.652 -1.0947  1.0655 -2.2941
 3215SOL    HW221279   2.136   4.287   0.776 -2.1491 -1.2364  2.3002
 3216SOL     OW21280   2.848   3.472   1.689 -0.1605 -0.8953  0.5409
 3216SOL    HW121281   2.881   3.387   1.719  0.4800 -0.7513  0.2335
 3216SOL    HW221282   2.903   3.534   1.738 -3.4526  1.3717  1.3663
 3217SOL     OW21283   3.702   1.998   8.164 -0.0054 -0.0688  0.4688
 3217SOL    HW121284   3.700   2.073   8.104 -1.7564 -0.3081  0.2254
 3217SOL    HW221285   3.782   1.957   8.134 -0.7913 -0.0729 -1.5685
 3218SOL     OW21286   1.720   3.105   6.751  0.0221  0.0165 -0.1693
 3218SOL    HW121287   1.642   3.128   6.803  1.2291 -0.0255  1.6656
 3218SOL    HW221288   1.781   3.100   6.825 -3.0464  1.8810  2.5418
 3219SOL     OW21289   3.750   4.502   6.777 -0.0382 -0.4372 -0.1253
 3219SOL    HW121290   3.822   4.467   6.724  0.3839  1.2968 -0.6998
 3219SOL    HW221291   3.738   4.587   6.734  0.0605 -0.2899  0.1400
 3220SOL     OW21292   4.109   4.448   0.259  0.2103  0.1889 -0.5517
 3220SOL    HW121293   4.135   4.377   0.200  1.2028  2.7582 -3.2756
 3220SOL    HW221294   4.183   4.464   0.316  0.0503  1.4540 -0.6993
 3221SOL     OW21295   1.252   1.899   5.751  0.3226 -0.4641  0.0350
 3221SOL    HW121296   1.318   1.832   5.731 -0.1234 -0.8263 -0.2304
 3221SOL    HW221297   1.206   1.852   5.821 -0.7024  1.7736  0.8693
 3222SOL     OW21298   1.491   4.061   4.226 -0.5853 -0.3434  0.4655
 3222SOL    HW121299   1.553   4.128   4.256 -1.1700  0.4631 -0.1156
 3222SOL    HW221300   1.509   4.064   4.132 -1.4011 -0.7388  0.2962
 3223SOL     OW21301   1.802   2.098  12.676  0.7642  0.1228  0.1574
 3223SOL    HW121302   1.787   2.125  12.766  0.9621  0.4467  0.0946
 3223SOL    HW221303   1.775   2.006  12.681  1.1974  0.1038  2.0484
 3224SOL     OW21304   3.604   4.393   9.416  0.3366 -0.4158  0.9285
 3224SOL    HW121305   3.662   4.360   9.348  2.5111  0.2648  2.4603
 3224SOL    HW221306   3.520   4.407   9.373  0.6654 -0.1550  0.3760
 3225SOL     OW21307   0.576   1.233   2.210  0.0199 -0.2209 -0.5199
 3225SOL    HW121308   0.522   1.203   2.284 -0.0182 -1.2604 -0.9599
 3225SOL    HW221309   0.655   1.179   2.222  1.4191  1.4288 -2.3595
 3226SOL     OW21310   4.087   1.040   5.059  0.3502 -0.2482 -0.5364
 3226SOL    HW121311   4.024   1.026   5.130  1.8887  2.0007  1.2543
 3226SOL    HW221312   4.048   1.120   5.025 -3.2428 -1.5764  0.4486
 3227SOL     OW21313   3.327   1.984  16.077  0.0939 -0.1787 -0.0361
 3227SOL    HW121314   3.409   2.006  16.121  0.1544 -0.1858 -0.1479
 3227SOL    HW221315   3.266   1.998  16.149 -0.2992  0.1096 -0.4277
 3228SOL     OW21316   1.034   4.434   6.275 -0.6521 -0.8537 -0.0343
 3228SOL    HW121317   1.018   4.445   6.369  0.8934  0.4645  0.0665
 3228SOL    HW221318   1.126   4.457   6.264 -0.4181 -1.7309  0.1021
 3229SOL     OW21319   2.874   0.911   5.087  0.8090  0.1558  0.0709
 3229SOL    HW121320   2.909   0.863   5.012 -1.1305  0.1392 -0.8336
 3229SOL    HW221321   2.872   0.840   5.152 -1.3067 -0.4339 -0.6343
 3230SOL     OW21322   4.293   0.776   1.523 -0.2913  0.8864  0.7453
 3230SOL    HW121323   4.237   0.749   1.595 -0.6381 -0.8120 -0.1817
 3230SOL    HW221324   4.308   0.868   1.545 -0.6314  0.4574  2.8070
 3231SOL     OW21325   3.652   0.316   8.794 -0.1432 -0.1694  0.4847
 3231SOL    HW121326   3.619   0.402   8.820  1.6240  0.6810 -0.0752
 3231SOL    HW221327   3.592   0.286   8.725 -0.2017  2.5305 -0.6418
 3232SOL     OW21328   4.538   3.723  10.268 -0.1388  0.5697  0.3606
 3232SOL    HW121329   4.552   3.742  10.361 -1.3011 -1.3945  0.9444
 3232SOL    HW221330   4.445   3.698  10.267  0.7479 -2.7689  2.7828
 3233SOL     OW21331   2.253   2.954  14.459 -0.1583  0.3594  0.1592
 3233SOL    HW121332   2.186   3.002  14.508 -0.6974  0.1267 -0.3474
 3233SOL    HW221333   2.323   2.948  14.523  0.1003 -0.4914 -0.2010
 3234SOL     OW21334   4.213   4.450  13.552  0.3199 -0.3259 -0.2890
 3234SOL    HW121335   4.230   4.427  13.460 -0.2210 -0.2489 -0.4041
 3234SOL    HW221336   4.292   4.414  13.593  0.0089 -1.4143 -0.6316
 3235SOL     OW21337   3.016   0.567   0.413 -0.3146 -0.6281  0.2009
 3235SOL    HW121338   3.031   0.638   0.475 -0.1988 -0.0882 -0.4528
 3235SOL    HW221339   2.929   0.535   0.437 -0.6998 -0.8636 -1.4622
 3236SOL     OW21340   3.149   4.244  13.173  0.1284 -0.0697  0.2472
 3236SOL    HW121341   3.159   4.316  13.110 -0.6974  0.3855  0.6419
 3236SOL    HW221342   3.240   4.216  13.158  0.3783 -0.7586  3.0756
 3237SOL     OW21343   0.495   4.040   6.566 -0.1166 -0.3244 -0.1622
 3237SOL    HW121344   0.400   4.043   6.550 -0.0789 -0.9089 -0.5055
 3237SOL    HW221345   0.523   4.120   6.521  0.4500 -1.3213 -1.6031
 3238SOL     OW21346   0.015   3.750   4.766  0.7182 -0.1768  1.7453
 3238SOL    HW121347   0.106   3.743   4.794  1.4001  1.2434 -0.0933
 3238SOL    HW221348   4.728   3.660   4.791  0.6396 -0.5425  0.3789
 3239SOL     OW21349   1.675   2.419   9.776 -0.0503 -0.3081 -0.1753
 3239SOL    HW121350   1.684   2.487   9.709 -3.1690 -1.1725 -1.4672
 3239SOL    HW221351   1.651   2.338   9.732  1.5476 -0.5696 -0.5590
 3240SOL     OW21352   3.822   1.295   2.079  0.3300  0.5642  0.8122
 3240SOL    HW121353   3.854   1.283   1.990 -2.1493  0.1564 -0.0348
 3240SOL    HW221354   3.864   1.226   2.131 -1.2888  0.3959  1.9011
 3241SOL     OW21355   3.259   3.867   4.809  0.2672 -0.3074  0.0695
 3241SOL    HW121356   3.323   3.938   4.819  2.2914 -1.9276 -1.5044
 3241SOL    HW221357   3.218   3.888   4.726  2.2839 -2.2150 -1.4175
 3242SOL     OW21358   0.379   3.497  11.230  0.2684 -0.7607  0.3231
 3242SOL    HW121359   0.323   3.425  11.259 -1.3485 -0.0246 -1.0006
 3242SOL    HW221360   0.470   3.470  11.225  0.9869  1.5386  0.8921
 3243SOL     OW21361   2.557   2.358   5.806  0.2616  0.3514 -0.1830
 3243SOL    HW121362   2.496   2.389   5.873 -2.1095  0.6776 -2.4936
 3243SOL    HW221363   2.632   2.418   5.813  0.6965 -0.1211 -0.7272
 3244SOL     OW21364   1.748   3.186  15.751 -0.1998 -0.3632 -0.4769
 3244SOL    HW121365   1.715   3.271  15.781 -0.9952 -0.0268 -2.3243
 3244SOL    HW221366   1.676   3.140  15.707  1.1820 -3.2916  0.3177
 3245SOL     OW21367   2.586   2.586   4.119 -0.4449  0.1159 -0.2486
 3245SOL    HW121368   2.573   2.666   4.168  2.3554 -0.3646  1.2902
 3245SOL    HW221369   2.577   2.626   4.033 -0.0761  1.2294  0.2410
 3246SOL     OW21370   0.415   3.423  10.133 -0.6966 -0.3324 -0.1516
 3246SOL    HW121371   0.432   3.459  10.220 -1.7301 -0.6201  0.1774
 3246SOL    HW221372   0.356   3.491  10.097 -2.9828 -1.0471  2.2354
 3247SOL     OW21373   1.353   2.931   5.427 -0.3049  0.1339 -0.3264
 3247SOL    HW121374   1.336   2.857   5.369  0.5593 -0.1673 -0.1967
 3247SOL    HW221375   1.415   2.976   5.371  1.1171  2.1773  2.9299
 3248SOL     OW21376   0.638   0.154   1.631  0.3433 -0.4894 -0.0351
 3248SOL    HW121377   0.587   0.187   1.704 -1.5486 -1.6821 -0.8192
 3248SOL    HW221378   0.607   0.217   1.565  0.2690  0.2911  0.7464
 3249SOL     OW21379   1.074   2.722  15.949  0.5488 -0.0956  0.3734
 3249SOL    HW121380   1.103   2.688  15.864 -3.3578 -2.2610 -0.0720
 3249SOL    HW221381   1.001   2.782  15.934 -0.3519 -1.2480  0.1474
 3250SOL     OW21382   0.071   0.502   7.824  0.1059 -0.1156  0.3686
 3250SOL    HW121383   0.054   0.522   7.916  0.2315 -0.9507  0.5761
 3250SOL    HW221384   0.005   0.434   7.808 -0.4023  0.4769 -0.0266
 3251SOL     OW21385   3.291   2.170   4.597 -0.5682  0.5952 -0.5079
 3251SOL    HW121386   3.264   2.173   4.689  2.7004  0.3778  0.4373
 3251SOL    HW221387   3.235   2.095   4.578 -0.0281  0.1761 -0.4564
 3252SOL     OW21388   1.453   0.796  11.105 -0.0302  0.1638 -0.0959
 3252SOL    HW121389   1.459   0.881  11.150 -0.1140  1.0302 -1.6867
 3252SOL    HW221390   1.542   0.780  11.074  0.2530  1.0547  0.2522
 3253SOL     OW21391   4.349   1.695  10.388 -0.4275  0.1641 -0.3200
 3253SOL    HW121392   4.295   1.698  10.467 -0.2036 -1.7877 -0.1141
 3253SOL    HW221393   4.315   1.774  10.344  0.4195 -0.1082 -1.4568
 3254SOL     OW21394   4.535   3.845   0.624  0.4538  0.1181 -0.0928
 3254SOL    HW121395   4.455   3.867   0.672  2.2931  0.7591  2.7042
 3254SOL    HW221396   4.581   3.927   0.604 -1.1152  0.7457 -1.1512
 3255SOL     OW21397   1.163   1.223   8.835  0.1006  0.3483 -0.0893
 3255SOL    HW121398   1.214   1.286   8.885 -1.0976  1.7446 -0.6216
 3255SOL    HW221399   1.119   1.174   8.905  1.0946  0.2668  0.4807
 3256SOL     OW21400   0.806   2.439  16.843  0.1720  0.1496  0.5673
 3256SOL    HW121401   0.781   2.432  16.751  0.4268 -1.4809  0.6115
 3256SOL    HW221402   0.748   2.503  16.883  1.7812  1.1883  1.2454
 3257SOL     OW21403   4.691   2.180   9.783 -0.3332 -0.2891 -0.5922
 3257SOL    HW121404   4.630   2.252   9.764 -0.9321 -0.4119  0.7990
 3257SOL    HW221405   4.648   2.143   9.860 -0.6859  0.2537 -0.5247
 3258SOL     OW21406   4.645   2.835   4.303  0.0879  0.3984  0.4561
 3258SOL    HW121407   4.696   2.818   4.224  0.0588 -1.4396  0.8359
 3258SOL    HW221408   4.654   2.749   4.344  1.2150  0.9037  1.3045
 3259SOL     OW21409   0.171   1.293   0.381  0.0840  0.1417 -0.0501
 3259SOL    HW121410   0.160   1.206   0.419 -0.5686  0.6837  1.0164
 3259SOL    HW221411   0.090   1.339   0.400  1.1294  1.9448  0.0159
 3260SOL     OW21412   2.680   3.750  14.608  0.3033 -0.5080 -0.2781
 3260SOL    HW121413   2.633   3.670  14.629  0.7259 -0.6600  0.0929
 3260SOL    HW221414   2.665   3.754  14.514 -0.4433 -0.7232 -0.1649
 3261SOL     OW21415   1.134   0.560   4.718 -0.0554 -0.6589 -0.4526
 3261SOL    HW121416   1.061   0.511   4.755 -0.7502 -0.0899 -1.0881
 3261SOL    HW221417   1.115   0.584   4.627 -0.6752 -0.5556 -0.2934
 3262SOL     OW21418   2.735   0.653   7.816 -0.7838  0.5778  0.2710
 3262SOL    HW121419   2.692   0.569   7.797  1.4242 -0.5182  0.1250
 3262SOL    HW221420   2.825   0.627   7.837 -0.4640  1.3076 -0.2219
 3263SOL     OW21421   3.902   3.624  15.143 -0.0459 -0.2148  0.1512
 3263SOL    HW121422   3.848   3.653  15.217 -0.6359 -0.0562 -0.3407
 3263SOL    HW221423   3.878   3.531  15.139  1.9230 -0.6092 -2.1437
 3264SOL     OW21424   0.412   3.847   4.357 -0.8917  0.0056  0.0354
 3264SOL    HW121425   0.392   3.816   4.269 -2.0310  1.3180 -0.1760
 3264SOL    HW221426   0.327   3.829   4.398 -1.2510 -0.4951 -0.9274
 3265SOL     OW21427   4.021   1.266   8.608 -0.0758  0.0939  0.5217
 3265SOL    HW121428   3.939   1.223   8.584 -0.5683  0.0786  2.2809
 3265SOL    HW221429   4.078   1.192   8.588 -1.0545 -0.1026 -1.5344
 3266SOL     OW21430   0.039   0.536   9.031  0.2490 -0.1290  0.1251
 3266SOL    HW121431   0.003   0.603   9.089  0.4046 -0.3741  0.5023
 3266SOL    HW221432   0.129   0.567   9.016  0.1242 -0.2638 -0.9431
 3267SOL     OW21433   0.274   0.906   3.818 -0.3307  1.0159  0.1745
 3267SOL    HW121434   0.199   0.885   3.874 -0.8455 -0.6470 -1.1277
 3267SOL    HW221435   0.301   0.990   3.855  2.4301  0.7308 -1.2536
 3268SOL     OW21436   1.003   4.686   6.143  0.1595  0.0874  0.1137
 3268SOL    HW121437   1.016   4.601   6.185  3.3598  0.9932  0.9395
 3268SOL    HW221438   1.023   0.004   6.219  0.2005 -1.1354  0.9871
 3269SOL     OW21439   3.272   3.509   2.621 -0.6144 -0.5241  0.0579
 3269SOL    HW121440   3.363   3.534   2.606 -0.5630 -0.9580 -0.3342
 3269SOL    HW221441   3.277   3.519   2.716  1.6286  2.2232 -0.3335
 3270SOL     OW21442   4.403   2.541   2.086 -0.6392  0.3307  0.2144
 3270SOL    HW121443   4.418   2.501   2.000  0.0324 -2.2615  1.5021
 3270SOL    HW221444   4.492   2.546   2.122 -0.6167 -1.1330  0.3908
 3271SOL     OW21445   3.354   2.335  10.797 -0.4211  0.3980 -0.4765
 3271SOL    HW121446   3.403   2.339  10.879 -1.6911  0.0454  0.3142
 3271SOL    HW221447   3.266   2.327  10.835 -0.5481  0.9525 -0.6552
 3272SOL     OW21448   2.044   1.788   8.078 -0.1701  0.4071 -0.2366
 3272SOL    HW121449   2.077   1.813   7.992 -2.3472  2.0141 -0.6145
 3272SOL    HW221450   1.953   1.814   8.066  0.3679  1.2168 -2.6197
 3273SOL     OW21451   2.329   0.536   8.736 -0.2060 -0.9181  0.2512
 3273SOL    HW121452   2.234   0.546   8.733  0.3274  2.9485 -2.0604
 3273SOL    HW221453   2.342   0.465   8.673 -1.3350 -2.2181  1.4780
 3274SOL     OW21454   3.741   1.082   3.466  0.6133  0.0201 -0.3525
 3274SOL    HW121455   3.821   1.134   3.479 -1.6108  3.2296  0.6070
 3274SOL    HW221456   3.687   1.117   3.537 -3.2583 -2.1611 -2.2817
 3275SOL     OW21457   0.476   2.325   6.171 -0.2347 -0.3550  0.0750
 3275SOL    HW121458   0.445   2.401   6.221  1.1162 -0.7877  1.5785
 3275SOL    HW221459   0.568   2.351   6.162 -0.8014  0.7149 -2.7487
 3276SOL     OW21460   4.414   3.089   1.559  0.0495  0.0967 -0.2372
 3276SOL    HW121461   4.497   3.115   1.599 -0.0861 -0.0827  0.1518
 3276SOL    HW221462   4.407   3.004   1.603  1.4375  0.5856  0.9368
 3277SOL     OW21463   3.108   2.435  11.875  0.2811 -0.1275  0.2923
 3277SOL    HW121464   3.095   2.351  11.918 -3.9008  0.8905  1.0172
 3277SOL    HW221465   3.080   2.496  11.943 -0.2804 -0.2703  0.1875
 3278SOL     OW21466   4.398   2.385  13.241  0.0638  0.2483  0.6381
 3278SOL    HW121467   4.378   2.461  13.187 -0.5957 -1.1307 -1.0482
 3278SOL    HW221468   4.487   2.399  13.272 -0.5074  0.3365  2.2856
 3279SOL     OW21469   2.663   4.374   3.545 -0.0382  0.0933  0.1150
 3279SOL    HW121470   2.757   4.387   3.558 -0.3191 -0.0473  2.2666
 3279SOL    HW221471   2.627   4.398   3.630 -0.6796 -2.0618  0.4609
 3280SOL     OW21472   0.383   2.486   1.875 -0.1212 -0.0255 -0.5607
 3280SOL    HW121473   0.476   2.485   1.849 -0.1902 -2.1394 -0.6722
 3280SOL    HW221474   0.347   2.519   1.793  1.8973 -0.5164 -1.6633
 3281SOL     OW21475   4.034   2.436  16.399 -0.1137 -0.6269 -0.0072
 3281SOL    HW121476   4.048   2.523  16.361 -0.6423 -0.0358  1.1594
 3281SOL    HW221477   3.956   2.419  16.345 -0.4205 -0.5063  0.3986
 3282SOL     OW21478   0.479   2.752   9.869 -0.0381 -0.0922  0.5133
 3282SOL    HW121479   0.544   2.689   9.838  0.1845 -0.4112  1.6343
 3282SOL    HW221480   0.538   2.827   9.881 -1.3665  1.3803 -2.1249
 3283SOL     OW21481   1.506   1.084   8.899  0.4037 -0.1615 -0.1577
 3283SOL    HW121482   1.591   1.040   8.897  0.4951  0.0475 -1.0041
 3283SOL    HW221483   1.516   1.148   8.828  1.3642 -1.0431 -0.8206
 3284SOL     OW21484   0.661   1.099   6.157 -0.0793 -0.7914 -0.1269
 3284SOL    HW121485   0.636   1.069   6.244  0.5089  0.0690  0.3306
 3284SOL    HW221486   0.667   1.011   6.118  2.4006 -1.1864  1.1796
 3285SOL     OW21487   4.641   1.978   2.061 -0.3254  0.3046 -0.0157
 3285SOL    HW121488   4.625   1.970   1.967 -1.1651  1.8506  0.0073
 3285SOL    HW221489   4.736   1.971   2.055 -0.7087 -5.2134 -0.1417
 3286SOL     OW21490   4.128   2.886   5.505  0.0595  0.1802  0.8238
 3286SOL    HW121491   4.136   2.794   5.480 -1.3972  0.6334 -1.3484
 3286SOL    HW221492   4.197   2.893   5.571  1.2613 -0.2927 -0.3777
 3287SOL     OW21493   2.743   2.036   3.373 -0.5557  0.1661  0.1103
 3287SOL    HW121494   2.741   2.091   3.452 -0.8621 -0.6831  0.6972
 3287SOL    HW221495   2.775   1.953   3.408  0.3188  0.8465  0.9220
 3288SOL     OW21496   1.703   3.011  13.918  0.2297 -0.5334  0.7729
 3288SOL    HW121497   1.787   2.975  13.947  0.1847 -0.3298  1.1469
 3288SOL    HW221498   1.727   3.101  13.895  0.6056 -0.4822  1.3654
 3289SOL     OW21499   3.344   0.478   1.418 -0.0945 -0.4242  0.3742
 3289SOL    HW121500   3.370   0.389   1.394 -1.8451 -0.8045 -0.1686
 3289SOL    HW221501   3.305   0.508   1.336 -1.6076 -2.6111  0.2720
 3290SOL     OW21502   1.785   0.067   7.123  0.4585 -0.4096 -0.3402
 3290SOL    HW121503   1.856   0.130   7.114  0.4005 -0.2318  0.5238
 3290SOL    HW221504   1.836   4.728   7.154 -2.0073 -2.1935 -0.6217
 3291SOL     OW21505   0.269   0.411   5.260  0.4432  0.0952  0.1718
 3291SOL    HW121506   0.361   0.433   5.279  0.7704  1.2488 -2.7331
 3291SOL    HW221507   0.241   0.472   5.192 -1.0668  0.0885  0.7903
 3292SOL     OW21508   3.313   0.989   1.901 -0.2519 -0.3220 -0.5467
 3292SOL    HW121509   3.281   0.972   1.989 -3.0146 -2.6117 -2.0104
 3292SOL    HW221510   3.239   0.969   1.844 -0.7181 -0.3180  0.0576
 3293SOL     OW21511   2.269   3.327   7.692  0.3650  0.4730 -0.2012
 3293SOL    HW121512   2.207   3.401   7.691 -2.1496 -1.5918  2.8888
 3293SOL    HW221513   2.354   3.360   7.664  0.6791  1.5291  1.9646
 3294SOL     OW21514   1.400   0.620  13.137  0.1305  0.7432 -0.0452
 3294SOL    HW121515   1.316   0.661  13.117  1.6409  3.2627 -1.1416
 3294SOL    HW221516   1.429   0.605  13.047 -3.0154  1.3057 -1.1277
 3295SOL     OW21517   0.983   1.365   5.708 -0.1263  0.3761 -0.7203
 3295SOL    HW121518   1.001   1.296   5.772 -0.9827  1.7388  1.0274
 3295SOL    HW221519   0.888   1.354   5.695 -0.3757  0.8312  0.6558
 3296SOL     OW21520   0.209   0.990   8.737 -0.0478  0.0571  0.4631
 3296SOL    HW121521   0.284   1.029   8.782  0.1663  1.1744 -0.8749
 3296SOL    HW221522   0.256   0.932   8.677 -0.8371 -1.2737  1.1296
 3297SOL     OW21523   0.203   1.912  12.667 -0.2571  0.5794 -0.2058
 3297SOL    HW121524   0.187   1.995  12.713  2.0822  0.2907  1.1212
 3297SOL    HW221525   0.163   1.931  12.582  0.9607  2.2359 -0.3966
 3298SOL     OW21526   3.080   0.108   5.514  0.3251  0.3574 -0.2476
 3298SOL    HW121527   3.031   0.071   5.587 -0.5649  0.6723 -0.6827
 3298SOL    HW221528   3.066   0.043   5.445 -0.4397  1.1273 -0.8192
 3299SOL     OW21529   1.598   1.320   2.481 -0.4788  0.4727  0.0599
 3299SOL    HW121530   1.633   1.391   2.535  0.5482  0.1775 -0.2183
 3299SOL    HW221531   1.545   1.364   2.415 -0.4235 -1.1387 -1.0561
 3300SOL     OW21532   2.199   2.466   8.664  0.2279 -0.2239  0.4078
 3300SOL    HW121533   2.155   2.531   8.609 -0.5212 -0.6031  0.5561
 3300SOL    HW221534   2.274   2.520   8.688 -1.7903  2.2595  1.1314
 3301SOL     OW21535   2.758   1.437   7.288 -0.6420  0.1858  0.5445
 3301SOL    HW121536   2.685   1.442   7.227  0.4723  1.8430 -0.6619
 3301SOL    HW221537   2.726   1.363   7.340 -2.2465  2.0193  2.1277
 3302SOL     OW21538   0.717   0.316  12.041 -0.1377  0.2389 -0.1713
 3302SOL    HW121539   0.633   0.295  11.999  0.2338 -1.9910  0.2182
 3302SOL    HW221540   0.747   0.391  11.989 -0.0224 -0.8181 -1.6230
 3303SOL     OW21541   1.065   3.435   4.535 -0.6199 -0.3071 -0.4036
 3303SOL    HW121542   1.114   3.510   4.568 -1.1822  0.4975 -1.4240
 3303SOL    HW221543   1.111   3.362   4.578  0.3402 -0.8990 -2.4055
 3304SOL     OW21544   0.838   1.731   7.486  0.1451 -0.0280  0.7353
 3304SOL    HW121545   0.841   1.741   7.581  0.2476  0.9767  0.6242
 3304SOL    HW221546   0.910   1.671   7.470  0.0005 -0.3649  1.3799
 3305SOL     OW21547   2.003   0.156   4.683  0.1442 -0.3226 -0.3449
 3305SOL    HW121548   2.029   0.136   4.773 -0.1749  2.5965  0.3745
 3305SOL    HW221549   2.087   0.140   4.640  0.2020 -0.6889 -0.0987
 3306SOL     OW21550   2.293   4.285  11.352  0.7098  0.6009  0.0827
 3306SOL    HW121551   2.261   4.343  11.282  1.8155 -0.8114 -1.6072
 3306SOL    HW221552   2.341   4.220  11.300  2.0669  1.2623  0.5141
 3307SOL     OW21553   2.689   4.455   3.208  0.0878 -0.8867  0.1559
 3307SOL    HW121554   2.770   4.405   3.218  1.0848  0.7401  0.1947
 3307SOL    HW221555   2.660   4.412   3.127 -0.8952 -1.0322  0.5782
 3308SOL     OW21556   2.442   1.353   4.763  0.4473  0.0484  0.0846
 3308SOL    HW121557   2.478   1.399   4.688  3.6082 -0.7002  1.1352
 3308SOL    HW221558   2.367   1.404   4.793  0.8323  0.1018  0.9545
 3309SOL     OW21559   2.243   0.166  10.787 -0.1053  0.6681  0.8029
 3309SOL    HW121560   2.284   0.119  10.715 -0.6560  0.7957  0.4043
 3309SOL    HW221561   2.287   0.251  10.782  1.9953 -0.5703 -1.6231
 3310SOL     OW21562   0.360   2.936   3.993  0.4718  0.1266 -0.0474
 3310SOL    HW121563   0.356   2.852   3.948  2.2669 -0.0090  0.0575
 3310SOL    HW221564   0.268   2.948   4.017  0.7482  0.8805  0.6233
 3311SOL     OW21565   0.672   3.905   4.760  0.2162 -0.1912 -0.1939
 3311SOL    HW121566   0.763   3.925   4.739 -0.1322  0.5466 -1.0071
 3311SOL    HW221567   0.674   3.968   4.833  0.2089  1.6806 -1.7993
 3312SOL     OW21568   1.411   2.525   1.042 -0.4841 -0.5094 -0.3923
 3312SOL    HW121569   1.361   2.575   0.977  2.3519  2.0126 -0.6064
 3312SOL    HW221570   1.484   2.495   0.988  1.5712  1.2793  1.4238
 3313SOL     OW21571   3.217   1.701   8.857  0.2529  0.0261  0.2237
 3313SOL    HW121572   3.221   1.762   8.783  0.6856 -0.0788  0.1593
 3313SOL    HW221573   3.243   1.626   8.804  2.5174  0.1645  1.1308
 3314SOL     OW21574   2.821   3.872   3.821  0.6206  0.3452 -0.2752
 3314SOL    HW121575   2.786   3.840   3.904  1.3976 -0.9443 -0.4438
 3314SOL    HW221576   2.841   3.791   3.774 -0.1768 -0.5698  0.9798
 3315SOL     OW21577   3.236   3.209  13.927 -0.1658 -0.2942  0.6106
 3315SOL    HW121578   3.251   3.201  13.833 -0.9095 -1.0416  0.5614
 3315SOL    HW221579   3.243   3.303  13.946  2.8663 -0.9020  2.5127
 3316SOL     OW21580   3.180   0.917   8.011 -0.3584  0.5979  0.0073
 3316SOL    HW121581   3.144   0.832   7.985  1.8778 -0.3432 -0.0316
 3316SOL    HW221582   3.226   0.947   7.934 -1.7821  1.5567 -0.4656
 3317SOL     OW21583   0.394   0.531   8.152  0.6030  0.6432 -0.1275
 3317SOL    HW121584   0.448   0.562   8.080 -0.9311 -0.0768 -1.5948
 3317SOL    HW221585   0.309   0.562   8.122  0.2743 -0.3740 -0.2632
 3318SOL     OW21586   3.403   2.120   3.583 -0.2490  0.0225 -0.2319
 3318SOL    HW121587   3.331   2.059   3.563  0.3703 -0.7878 -0.0042
 3318SOL    HW221588   3.448   2.148   3.503  0.5222 -0.1945  0.1256
 3319SOL     OW21589   4.430   4.005   7.245 -0.1713 -0.0941 -0.1007
 3319SOL    HW121590   4.431   3.928   7.189  0.8362 -1.9165  2.4499
 3319SOL    HW221591   4.439   3.958   7.328 -0.3599 -1.2373 -0.7417
 3320SOL     OW21592   1.068   1.796   3.873 -0.2739 -0.0952  0.2788
 3320SOL    HW121593   1.021   1.852   3.812  0.8058  0.9793  0.4330
 3320SOL    HW221594   1.071   1.861   3.944  1.0563  0.7943 -0.5878
 3321SOL     OW21595   3.955   0.019   4.225 -0.3278  0.7327 -0.1385
 3321SOL    HW121596   4.045   0.052   4.230  0.2119 -0.8771  0.7086
 3321SOL    HW221597   3.951   4.669   4.266 -0.5137  0.7476 -0.1240
 3322SOL     OW21598   1.895   1.200   0.302  0.0839  0.1101 -0.8199
 3322SOL    HW121599   1.977   1.216   0.255  1.4195 -1.8079  0.8131
 3322SOL    HW221600   1.905   1.254   0.380  0.0653  0.3958 -1.0173
 3323SOL     OW21601   3.022   3.843   5.469  0.2756  0.0311  0.2083
 3323SOL    HW121602   3.095   3.856   5.407 -1.2397 -1.8082 -1.9804
 3323SOL    HW221603   3.056   3.870   5.554  1.8377 -3.1827  0.6252
 3324SOL     OW21604   2.439   2.195   7.174 -0.0374  0.2745 -0.5755
 3324SOL    HW121605   2.488   2.116   7.198 -0.3389 -0.3854 -2.1477
 3324SOL    HW221606   2.466   2.257   7.243 -2.3309  1.2587 -0.5791
 3325SOL     OW21607   3.781   2.936  15.398  0.6775 -0.2368  0.1430
 3325SOL    HW121608   3.752   2.908  15.311  0.7769 -0.7404  0.2722
 3325SOL    HW221609   3.738   3.021  15.412  1.3687 -0.1842  1.9564
 3326SOL     OW21610   0.602   2.810   7.344  0.4919 -0.0447  0.1444
 3326SOL    HW121611   0.528   2.853   7.387 -1.1636 -4.0687  1.2734
 3326SOL    HW221612   0.587   2.716   7.344 -0.4672  0.1083 -0.5777
 3327SOL     OW21613   1.406   1.018   6.912  0.2661  0.2358 -0.0984
 3327SOL    HW121614   1.439   1.090   6.966 -1.1962  0.5230  0.3945
 3327SOL    HW221615   1.332   0.989   6.965 -1.2533  1.8491 -1.3680
 3328SOL     OW21616   3.206   1.755  13.811 -0.4691 -0.4136  0.6114
 3328SOL    HW121617   3.221   1.793  13.898  1.5202 -0.1733  0.1537
 3328SOL    HW221618   3.231   1.666  13.838 -0.7092 -0.3862  0.9270
 3329SOL     OW21619   2.061   0.618   7.244 -0.1375  0.0551  0.0946
 3329SOL    HW121620   2.057   0.662   7.329 -0.4690  0.5963 -0.2035
 3329SOL    HW221621   2.000   0.545   7.245 -0.5088  0.3575 -0.6956
 3330SOL     OW21622   2.034   3.516   5.329  0.4749 -0.2905 -0.2702
 3330SOL    HW121623   2.059   3.540   5.418  0.2196 -0.5251 -0.1345
 3330SOL    HW221624   2.051   3.422   5.315 -0.3778 -0.4409 -0.3147
 3331SOL     OW21625   2.775   1.846   5.647 -0.2428  0.4760  0.5479
 3331SOL    HW121626   2.802   1.776   5.707 -1.0134 -1.6696 -1.6112
 3331SOL    HW221627   2.753   1.796   5.569  2.2486  1.9605 -1.1021
 3332SOL     OW21628   1.546   1.744   2.587  0.3537 -0.1044  0.4534
 3332SOL    HW121629   1.599   1.793   2.649 -0.1237  0.1914  0.6234
 3332SOL    HW221630   1.471   1.738   2.646  0.3559  2.3762  0.6868
 3333SOL     OW21631   3.121   0.096   2.195 -0.3002 -0.4923  0.0951
 3333SOL    HW121632   3.211   0.067   2.177  0.1291  0.2333  1.0800
 3333SOL    HW221633   3.082   0.104   2.108 -1.8697 -0.2069  0.8256
 3334SOL     OW21634   4.463   2.639   8.275  0.1543 -0.2966  0.1182
 3334SOL    HW121635   4.372   2.659   8.296 -0.4755 -2.3701 -0.6486
 3334SOL    HW221636   4.511   2.691   8.340  0.1341  0.8255 -0.7651
 3335SOL     OW21637   0.595   3.808   8.796  0.3855 -0.0813  0.0260
 3335SOL    HW121638   0.674   3.827   8.745  0.0397 -0.5311 -0.6777
 3335SOL    HW221639   0.630   3.771   8.877 -1.3568 -0.5041  0.5803
 3336SOL     OW21640   3.230   1.042  16.899  0.1838 -0.2589 -0.4791
 3336SOL    HW121641   3.170   1.117  16.901  2.2462  1.3803  0.6144
 3336SOL    HW221642   3.312   1.091  16.909 -0.6464  0.8875  0.7955
 3337SOL     OW21643   2.328   1.417  14.077  0.2852  0.0128  0.4171
 3337SOL    HW121644   2.313   1.500  14.122 -1.2150 -0.8498  1.5234
 3337SOL    HW221645   2.248   1.369  14.100  0.1099 -0.6812 -1.6795
 3338SOL     OW21646   2.645   0.292   0.873 -1.0219  0.0227  0.1557
 3338SOL    HW121647   2.555   0.312   0.845 -0.5029  0.7217 -1.0470
 3338SOL    HW221648   2.698   0.334   0.805  0.2841  0.3517  1.3908
 3339SOL     OW21649   2.967   3.945   4.317  0.4320 -0.2982  0.4028
 3339SOL    HW121650   2.997   4.007   4.251  1.2309  0.3652  1.3880
 3339SOL    HW221651   2.970   3.871   4.256 -0.0241  0.7808 -0.9278
 3340SOL     OW21652   4.621   2.635   5.144  0.0652 -0.1874 -0.1712
 3340SOL    HW121653   4.705   2.619   5.100 -0.3187  2.1792 -1.7967
 3340SOL    HW221654   4.636   2.598   5.230 -0.0818 -0.6207 -0.3321
 3341SOL     OW21655   1.607   2.829   2.392 -0.0530  0.0019  0.0824
 3341SOL    HW121656   1.524   2.818   2.439 -0.7449 -1.0989 -1.4034
 3341SOL    HW221657   1.580   2.811   2.302 -0.8835  2.1404 -0.1013
 3342SOL     OW21658   2.629   3.234   9.407 -0.1636  0.0139  0.1186
 3342SOL    HW121659   2.694   3.281   9.356 -1.8694  0.7286 -1.4227
 3342SOL    HW221660   2.639   3.284   9.488 -3.4818 -0.4773  0.8373
 3343SOL     OW21661   3.744   1.494   5.930  0.5447  0.1621  0.0282
 3343SOL    HW121662   3.654   1.465   5.916  1.3825 -1.9970 -0.8756
 3343SOL    HW221663   3.727   1.515   6.022  1.7394 -0.8583  0.4781
 3344SOL     OW21664   0.720   0.352   3.024  0.3140 -0.2418 -0.0287
 3344SOL    HW121665   0.637   0.396   3.043 -0.0168  0.8113 -4.0546
 3344SOL    HW221666   0.782   0.423   3.012 -1.5522  1.4906  0.4882
 3345SOL     OW21667   0.504   0.334   7.569  0.5240 -0.2589 -0.3050
 3345SOL    HW121668   0.498   0.300   7.479 -0.8973 -4.4646  1.3618
 3345SOL    HW221669   0.412   0.328   7.597  1.0369 -0.6518  1.2547
 3346SOL     OW21670   3.239   0.081  16.879  0.0707  0.5117 -0.0867
 3346SOL    HW121671   3.318   0.035  16.908  0.2198 -0.6201 -2.2896
 3346SOL    HW221672   3.190   0.004  16.848 -0.7310  1.2713 -0.7122
 3347SOL     OW21673   2.238   0.919   9.392  0.2730  0.4902  0.2855
 3347SOL    HW121674   2.303   0.849   9.405 -0.0554 -0.1757 -1.7187
 3347SOL    HW221675   2.295   0.988   9.355 -0.6499  1.7681  1.2597
 3348SOL     OW21676   2.619   0.570   5.571  0.4092 -0.1480  0.1380
 3348SOL    HW121677   2.595   0.632   5.640 -1.6061 -0.0572 -0.6539
 3348SOL    HW221678   2.708   0.546   5.598 -0.0447  2.1341  3.7741
 3349SOL     OW21679   4.488   1.081   2.438  0.4279  0.3655 -0.4841
 3349SOL    HW121680   4.431   1.106   2.366  0.2086  1.9468  0.2266
 3349SOL    HW221681   4.419   1.051   2.497 -0.4715 -0.0792 -1.7865
 3350SOL     OW21682   1.561   3.100   9.758  0.6940  0.6821 -0.0475
 3350SOL    HW121683   1.597   3.051   9.831  3.0250 -2.1120 -3.0864
 3350SOL    HW221684   1.483   3.139   9.798 -0.5857  0.3196 -2.1446
 3351SOL     OW21685   3.371   0.008  16.469  0.1423  0.0809 -0.2402
 3351SOL    HW121686   3.282   0.021  16.435 -0.1321  1.5857  1.0882
 3351SOL    HW221687   3.416   0.064  16.406 -1.6951  1.8622  0.0451
 3352SOL     OW21688   3.279   1.105  14.630  0.0168 -0.3452 -0.1587
 3352SOL    HW121689   3.302   1.043  14.560 -0.2701 -0.2894 -0.3028
 3352SOL    HW221690   3.236   1.044  14.689 -0.2025 -1.4026 -1.4110
 3353SOL     OW21691   1.195   2.453   7.298 -0.6015 -0.0592  0.4149
 3353SOL    HW121692   1.166   2.369   7.331  1.0325 -0.5879  0.5438
 3353SOL    HW221693   1.202   2.499   7.382 -0.5434  0.9559 -0.1357
 3354SOL     OW21694   4.228   4.480   9.844 -0.5920 -0.0606 -0.0459
 3354SOL    HW121695   4.306   4.433   9.815  0.9876  1.5293  1.6471
 3354SOL    HW221696   4.184   4.482   9.759 -0.0781 -1.4567 -0.3517
 3355SOL     OW21697   2.424   3.653   4.176  0.1582 -0.5943 -0.9371
 3355SOL    HW121698   2.391   3.603   4.250 -0.3220  0.4603 -0.4551
 3355SOL    HW221699   2.517   3.656   4.200 -0.2325 -1.2114  0.6576
 3356SOL     OW21700   3.508   0.924   7.276  0.0182 -0.3046  0.3394
 3356SOL    HW121701   3.557   0.842   7.282 -0.0834 -0.3529  0.5178
 3356SOL    HW221702   3.478   0.944   7.365  2.3261  1.9548  0.6072
 3357SOL     OW21703   2.993   0.185   7.743 -0.0348 -0.1898  0.5367
 3357SOL    HW121704   3.074   0.146   7.774 -1.0283 -0.6445  2.5136
 3357SOL    HW221705   2.938   0.116   7.780 -2.3953  0.6467 -1.3682
 3358SOL     OW21706   0.601   4.690  10.404 -0.1787  0.4108 -0.5504
 3358SOL    HW121707   0.520   4.728  10.439 -0.6191 -0.1686 -0.9553
 3358SOL    HW221708   0.571   4.619  10.348  1.8243  1.2897 -2.7036
 3359SOL     OW21709   1.603   0.936   3.311  0.2163 -0.1421 -0.2562
 3359SOL    HW121710   1.508   0.939   3.325  0.4454 -2.0052  1.6835
 3359SOL    HW221711   1.638   0.956   3.398  0.4584  3.9255 -1.3079
 3360SOL     OW21712   2.538   2.784   5.600 -0.2379 -0.2428  0.3632
 3360SOL    HW121713   2.553   2.689   5.608  0.2173 -0.2047 -0.1010
 3360SOL    HW221714   2.613   2.818   5.647 -0.7871  2.5057 -0.7817
 3361SOL     OW21715   4.285   2.220  13.429  0.1789  0.1564  0.7895
 3361SOL    HW121716   4.290   2.290  13.494  1.6925 -0.5425  1.4102
 3361SOL    HW221717   4.335   2.275  13.368 -1.1709  0.1902 -0.2878
 3362SOL     OW21718   0.191   1.979   8.169 -0.0416 -0.2597 -0.0301
 3362SOL    HW121719   0.225   1.892   8.184 -0.4548 -0.7087 -1.7362
 3362SOL    HW221720   0.103   1.953   8.142 -1.1630  2.3645  1.0402
 3363SOL     OW21721   0.227   1.925   7.779  0.1969 -1.1842  0.0629
 3363SOL    HW121722   0.170   1.876   7.840 -0.2549  1.0208  1.3953
 3363SOL    HW221723   0.180   2.008   7.789 -1.0728 -1.9590  0.5968
 3364SOL     OW21724   1.052   2.303   4.661 -0.2076  1.0256 -0.4527
 3364SOL    HW121725   1.047   2.295   4.756 -0.9065 -0.1682 -0.5931
 3364SOL    HW221726   0.968   2.346   4.644 -0.9748 -0.3876 -0.2268
 3365SOL     OW21727   0.810   4.577  14.403  0.5442  0.0460 -0.1160
 3365SOL    HW121728   0.806   4.624  14.486 -1.6778  0.2954 -0.3622
 3365SOL    HW221729   0.790   4.645  14.339 -0.3078 -0.8852 -0.8368
 3366SOL     OW21730   4.072   2.285   3.902  0.1593 -0.6262  0.0657
 3366SOL    HW121731   4.039   2.228   3.832 -0.0964 -0.5492  0.1209
 3366SOL    HW221732   4.156   2.311   3.864 -0.8883  0.0079 -1.8401
 3367SOL     OW21733   1.982   0.934   7.379  0.0650 -0.2016  0.1888
 3367SOL    HW121734   1.986   0.994   7.453  2.3482 -0.6487  0.4172
 3367SOL    HW221735   1.989   0.850   7.425 -1.4971 -1.5550 -2.0203
 3368SOL     OW21736   1.034   1.135   3.286 -0.2358  0.7693 -0.4241
 3368SOL    HW121737   0.954   1.130   3.339 -1.9195 -0.4861 -3.0988
 3368SOL    HW221738   1.004   1.198   3.221  0.2897  0.4605 -0.9534
 3369SOL     OW21739   2.626   1.458  16.364  0.2587 -0.2898  0.1819
 3369SOL    HW121740   2.697   1.522  16.369  0.7710 -0.6973 -2.0225
 3369SOL    HW221741   2.604   1.465  16.271 -2.2087 -1.6085  0.6753
 3370SOL     OW21742   4.386   2.062   7.698 -0.3439 -0.0933  0.0600
 3370SOL    HW121743   4.444   2.129   7.662 -0.0148 -1.4074 -1.8927
 3370SOL    HW221744   4.367   2.104   7.782  0.5097 -0.0562  0.2369
 3371SOL     OW21745   4.094   3.402  10.930  0.3869 -0.5054  0.2344
 3371SOL    HW121746   4.047   3.320  10.922  0.3073 -0.1411 -3.0550
 3371SOL    HW221747   4.114   3.418  11.022  0.6727 -0.8972  0.2399
 3372SOL     OW21748   3.396   1.371   8.376 -0.0345 -0.0517  0.2575
 3372SOL    HW121749   3.429   1.318   8.449  0.9691  2.0762  1.3262
 3372SOL    HW221750   3.309   1.330   8.366 -0.2210  0.4291 -0.1209
 3373SOL     OW21751   3.122   3.109  17.225 -0.3092  0.1011 -0.0611
 3373SOL    HW121752   3.054   3.130  17.289  0.7062  1.5141  0.5616
 3373SOL    HW221753   3.202   3.138  17.269  0.1031 -0.8409 -0.1974
 3374SOL     OW21754   2.318   2.996  16.435  0.1175  0.1228  0.3219
 3374SOL    HW121755   2.409   3.025  16.427 -0.1994  0.6964 -1.2409
 3374SOL    HW221756   2.293   2.982  16.344  1.0581  2.2977 -0.2747
 3375SOL     OW21757   2.809   3.214   4.149 -0.4541  0.1636  0.7357
 3375SOL    HW121758   2.862   3.248   4.076  0.1274 -0.3953  0.8907
 3375SOL    HW221759   2.880   3.183   4.205  1.4902  0.6552 -1.4400
 3376SOL     OW21760   2.890   2.157  10.933  0.4151 -0.2101 -0.5140
 3376SOL    HW121761   2.838   2.180  10.856 -2.1797 -0.8973  1.0394
 3376SOL    HW221762   2.877   2.063  10.949 -1.2393  0.4255  1.8381
 3377SOL     OW21763   3.370   4.241   6.130 -0.4230 -0.3190  0.1668
 3377SOL    HW121764   3.460   4.275   6.134 -0.1909 -1.0635  1.1871
 3377SOL    HW221765   3.312   4.310   6.161 -0.5849 -1.0312  1.4471
 3378SOL     OW21766   0.615   1.982  13.496 -0.3952 -0.1324  0.7000
 3378SOL    HW121767   0.662   1.963  13.414 -0.5935 -0.5007  0.6697
 3378SOL    HW221768   0.533   2.006  13.452 -0.1650  1.7940  1.3288
 3379SOL     OW21769   4.615   0.321   5.918  0.1515 -0.0225 -0.3420
 3379SOL    HW121770   4.632   0.373   5.839  3.0597 -1.2931 -0.5689
 3379SOL    HW221771   4.679   0.357   5.979 -2.0527  0.2228  1.8046
 3380SOL     OW21772   0.489   4.293  15.376  0.1889 -0.0284  0.0010
 3380SOL    HW121773   0.396   4.276  15.361 -0.0568 -0.3096  1.9030
 3380SOL    HW221774   0.503   4.380  15.339  1.2736 -0.4555 -0.5947
 3381SOL     OW21775   1.080   0.354  11.569  0.5346  0.1584 -0.3311
 3381SOL    HW121776   1.116   0.388  11.651  0.8643  0.5226 -0.6249
 3381SOL    HW221777   0.987   0.363  11.587  0.4018 -3.0865  0.6173
 3382SOL     OW21778   2.322   0.727   2.880  0.4184  0.1309  0.4518
 3382SOL    HW121779   2.273   0.733   2.963 -1.1301  1.4059 -0.5526
 3382SOL    HW221780   2.411   0.739   2.913 -0.2411  1.1571  1.8954
 3383SOL     OW21781   2.896   2.285   4.203 -0.2255  0.1893 -0.0413
 3383SOL    HW121782   2.890   2.381   4.202  0.4011  0.2198 -1.2292
 3383SOL    HW221783   2.969   2.279   4.141 -1.1755 -0.0280 -1.1477
 3384SOL     OW21784   4.023   2.130   2.565 -1.0743  0.3753  0.5269
 3384SOL    HW121785   3.977   2.191   2.507  1.9485  0.3375 -1.9285
 3384SOL    HW221786   4.105   2.121   2.516  0.3292  0.1381  2.9121
 3385SOL     OW21787   2.335   0.006   2.630  0.1852  0.1723  0.5216
 3385SOL    HW121788   2.263   0.038   2.684 -0.1093  1.3199 -0.5485
 3385SOL    HW221789   2.415   0.024   2.679  0.2436 -0.5030  0.6731
 3386SOL     OW21790   4.734   1.499   5.431 -0.1477 -0.2554  0.7524
 3386SOL    HW121791   0.001   1.434   5.361 -1.6338 -1.4449  1.7976
 3386SOL    HW221792   4.693   1.579   5.397  0.2322  0.0139  0.9162
 3387SOL     OW21793   3.463   2.290  11.983 -0.0438  0.3162 -0.4047
 3387SOL    HW121794   3.520   2.367  11.981 -0.5334  0.7229  1.1874
 3387SOL    HW221795   3.420   2.298  11.898 -1.0536  1.6659  0.2277
 3388SOL     OW21796   3.114   2.550   4.584 -0.3991  0.2168  0.0999
 3388SOL    HW121797   3.107   2.524   4.675 -0.9084  0.9066  0.2572
 3388SOL    HW221798   3.207   2.538   4.563 -0.6663  0.8960 -1.4536
 3389SOL     OW21799   2.703   1.291   1.742  0.1816 -0.2885 -0.1903
 3389SOL    HW121800   2.747   1.213   1.775  1.0185  0.7557  1.1451
 3389SOL    HW221801   2.673   1.325   1.826  1.0695 -0.5040  0.2073
 3390SOL     OW21802   4.112   4.594   2.070  0.9064  0.4633 -0.1851
 3390SOL    HW121803   4.180   4.544   2.115  2.5122  1.7509 -1.2089
 3390SOL    HW221804   4.148   4.598   1.981  1.8818  0.9472  0.2350
 3391SOL     OW21805   3.169   2.817  10.441  0.1543  0.1984  0.1441
 3391SOL    HW121806   3.231   2.815  10.368  1.6179 -0.9493  1.4044
 3391SOL    HW221807   3.093   2.770  10.408 -0.8683  0.8916  1.5177
 3392SOL     OW21808   1.156   3.436   6.784 -0.0858  0.3284  0.1181
 3392SOL    HW121809   1.089   3.390   6.733  0.0690 -0.1501  0.3515
 3392SOL    HW221810   1.106   3.517   6.796 -1.5716 -0.9415  2.5756
 3393SOL     OW21811   0.686   2.013   3.219 -0.1419 -0.1896  0.1219
 3393SOL    HW121812   0.670   1.938   3.161  0.8918  0.9841 -1.6794
 3393SOL    HW221813   0.781   2.017   3.204  0.0169 -1.6403  0.6790
 3394SOL     OW21814   2.580   2.691   3.874 -0.2808  0.5826  0.6074
 3394SOL    HW121815   2.656   2.749   3.879  0.7197 -0.7398  0.6150
 3394SOL    HW221816   2.503   2.745   3.854 -1.9502 -1.8930  0.3619
 3395SOL     OW21817   3.432   0.333   3.850 -0.2273 -0.3432 -0.2482
 3395SOL    HW121818   3.411   0.424   3.829  1.2972  0.5437  2.1110
 3395SOL    HW221819   3.527   0.344   3.839 -0.3315 -1.2100 -2.0853
 3396SOL     OW21820   3.177   3.583  14.192 -0.5441 -0.0499 -0.2437
 3396SOL    HW121821   3.250   3.644  14.196 -0.0832 -0.5906 -0.3833
 3396SOL    HW221822   3.234   3.510  14.168 -3.1688 -2.6233  1.2931
 3397SOL     OW21823   4.093   2.964   7.098 -0.0244 -0.2188 -0.4806
 3397SOL    HW121824   4.012   2.943   7.144  0.4812  0.0859  0.5355
 3397SOL    HW221825   4.069   3.050   7.065  0.7571  0.3580  0.4734
 3398SOL     OW21826   3.934   3.343  10.156 -0.0551 -0.5841  0.0042
 3398SOL    HW121827   3.885   3.400  10.215  0.6971 -1.6297  1.6515
 3398SOL    HW221828   3.891   3.258  10.167 -0.5571 -0.1677  1.2167
 3399SOL     OW21829   1.700   4.009   7.706  0.4842 -0.2744  0.3213
 3399SOL    HW121830   1.701   4.099   7.737  3.4281  0.0262 -0.6589
 3399SOL    HW221831   1.754   3.967   7.772  2.0364  3.6185  1.5251
 3400SOL     OW21832   1.072   4.479  10.673 -0.4003  0.0531 -0.5065
 3400SOL    HW121833   0.979   4.491  10.655 -0.2211  3.0248  0.5733
 3400SOL    HW221834   1.108   4.540  10.609  0.2563  0.9724  0.7294
 3401SOL     OW21835   0.501   3.040  14.069  0.3140  0.0611 -0.1135
 3401SOL    HW121836   0.461   2.998  14.146 -0.5613 -0.5035 -0.8826
 3401SOL    HW221837   0.514   3.126  14.109 -0.0037  0.8622 -1.7471
 3402SOL     OW21838   2.941   4.402   3.586 -0.2020 -0.1643  0.6953
 3402SOL    HW121839   3.033   4.386   3.564 -0.3265 -0.2727  0.2474
 3402SOL    HW221840   2.951   4.494   3.610 -0.8970  0.4018 -1.1934
 3403SOL     OW21841   3.290   2.769  15.947  0.2027 -0.2385 -0.1726
 3403SOL    HW121842   3.230   2.815  15.889 -0.2504 -2.4879 -1.4943
 3403SOL    HW221843   3.344   2.709  15.895 -1.6866  1.1072 -3.6909
 3404SOL     OW21844   1.186   0.423   7.919 -0.3225 -0.0258 -0.3308
 3404SOL    HW121845   1.107   0.437   7.971 -0.8232 -0.1747 -1.0644
 3404SOL    HW221846   1.259   0.442   7.978 -0.1808 -0.2605 -0.4323
 3405SOL     OW21847   2.528   0.820   6.304  0.1198 -0.0991 -1.0864
 3405SOL    HW121848   2.605   0.822   6.361 -1.2836 -1.7061  0.8740
 3405SOL    HW221849   2.487   0.894   6.351  0.6350 -0.6669  0.2690
 3406SOL     OW21850   2.354   0.618   4.357 -0.1530  0.2227  0.3090
 3406SOL    HW121851   2.269   0.576   4.349 -0.5231  1.0414 -0.0138
 3406SOL    HW221852   2.402   0.566   4.292 -2.2159 -1.2235 -0.0206
 3407SOL     OW21853   0.164   0.861   6.475 -0.0538  0.1042 -0.1074
 3407SOL    HW121854   0.171   0.951   6.508  1.1711  0.5610 -1.6249
 3407SOL    HW221855   0.089   0.862   6.415 -0.3939  0.3300  0.3204
 3408SOL     OW21856   3.214   4.205  11.008 -0.5251  0.1993 -0.1344
 3408SOL    HW121857   3.216   4.140  10.938  0.0370  0.1420 -0.0587
 3408SOL    HW221858   3.150   4.262  10.965 -0.9013 -0.2906 -0.2339
 3409SOL     OW21859   2.383   4.326   6.143  0.0763  0.4169  1.0077
 3409SOL    HW121860   2.345   4.400   6.189 -1.4260 -0.7019  1.5689
 3409SOL    HW221861   2.415   4.357   6.058 -0.5201  0.2288  0.7180
 3410SOL     OW21862   3.295   2.679   2.081 -0.3771 -0.5978  0.2457
 3410SOL    HW121863   3.300   2.624   2.160  1.3695 -0.4077  0.2654
 3410SOL    HW221864   3.273   2.614   2.015  2.2996 -2.3654  1.0770
 3411SOL     OW21865   1.718   1.430   6.452  0.0359 -0.3406  0.3378
 3411SOL    HW121866   1.737   1.401   6.542 -0.5440  1.9714  1.2151
 3411SOL    HW221867   1.637   1.480   6.465 -0.0905 -0.3133 -0.6121
 3412SOL     OW21868   1.140   2.321   5.645 -0.0501 -0.3771  0.1506
 3412SOL    HW121869   1.191   2.296   5.723  1.5192  0.4494 -0.5999
 3412SOL    HW221870   1.161   2.414   5.638 -1.9379 -0.0634 -1.1216
 3413SOL     OW21871   3.439   3.476   3.072 -0.2176 -0.1680  0.1401
 3413SOL    HW121872   3.404   3.401   3.121  1.3485  1.5903  3.9588
 3413SOL    HW221873   3.528   3.456   3.043 -0.5066 -0.0133 -0.8451
 3414SOL     OW21874   4.091   0.733   8.771 -0.1732  0.3255 -0.0354
 3414SOL    HW121875   4.062   0.669   8.835  1.6373 -0.1431  0.3263
 3414SOL    HW221876   4.006   0.772   8.751 -0.0770  0.3511 -0.3899
 3415SOL     OW21877   4.696   2.502  12.067 -0.2147 -0.6661 -0.3516
 3415SOL    HW121878   4.629   2.440  12.097 -0.1227 -0.6395 -0.0851
 3415SOL    HW221879   0.002   2.530  12.148  0.9774 -2.4977 -0.3574
 3416SOL     OW21880   3.668   0.402  10.571  0.2434  0.2796 -0.1276
 3416SOL    HW121881   3.714   0.380  10.652 -0.0418  0.6728  0.1421
 3416SOL    HW221882   3.600   0.336  10.581 -1.1554  1.9223  1.2929
 3417SOL     OW21883   3.520   0.239   1.452  0.6709  0.4242  0.3483
 3417SOL    HW121884   3.478   0.155   1.433 -0.4304  0.8159  1.0528
 3417SOL    HW221885   3.605   0.236   1.409  0.0865  0.0573 -0.7866
 3418SOL     OW21886   0.847   4.529  10.400 -0.1494 -0.3582  0.1183
 3418SOL    HW121887   0.775   4.591  10.389 -0.5444 -0.9665 -0.7430
 3418SOL    HW221888   0.819   4.487  10.481  0.9202 -0.6488  0.3363
 3419SOL     OW21889   0.781   0.506   6.469  0.4696  0.3775  0.0326
 3419SOL    HW121890   0.735   0.437   6.516 -1.1494  1.6485  0.3002
 3419SOL    HW221891   0.797   0.572   6.536 -1.1108  0.3933  0.3953
 3420SOL     OW21892   1.873   1.550   5.024 -0.1211 -0.5321  0.5995
 3420SOL    HW121893   1.930   1.473   5.027  0.2802 -0.3410 -1.5994
 3420SOL    HW221894   1.787   1.517   5.001  0.4632 -1.5821 -0.0715
 3421SOL     OW21895   2.084   0.721   9.052 -0.1575 -0.4661  0.1183
 3421SOL    HW121896   2.173   0.696   9.025 -0.3655 -2.6073  1.4156
 3421SOL    HW221897   2.052   0.772   8.978  1.1004 -0.0899 -0.1617
 3422SOL     OW21898   1.675   1.523   2.113 -0.0933 -0.3169  0.5840
 3422SOL    HW121899   1.706   1.578   2.185 -2.2170 -0.1291  1.3454
 3422SOL    HW221900   1.591   1.567   2.100  0.1924 -0.3950 -1.5005
 3423SOL     OW21901   4.713   4.558   5.675 -0.1445 -0.7484 -0.5482
 3423SOL    HW121902   4.701   4.628   5.740 -3.1008 -2.3706  0.6551
 3423SOL    HW221903   0.066   4.576   5.646  0.0990 -2.2659 -0.7280
 3424SOL     OW21904   1.250   0.032  11.054 -0.1842 -0.4534 -0.6205
 3424SOL    HW121905   1.205   0.017  11.136  1.4464 -1.2442  0.1368
 3424SOL    HW221906   1.203   4.706  10.998  0.9349 -1.2201 -0.7104
 3425SOL     OW21907   2.042   4.573  10.834  0.3077  0.1021  0.2126
 3425SOL    HW121908   2.080   4.588  10.921  1.4117  1.7459 -0.5550
 3425SOL    HW221909   2.120   4.539  10.789  1.1613 -1.4163  2.8293
 3426SOL     OW21910   3.620   2.369   6.435  0.4674  0.1789 -0.3605
 3426SOL    HW121911   3.630   2.463   6.445  0.8740  0.1983 -0.9044
 3426SOL    HW221912   3.528   2.358   6.455  0.3293  0.0032 -1.0787
 3427SOL     OW21913   2.552   3.515  14.506 -0.1240  0.0755 -0.1748
 3427SOL    HW121914   2.513   3.447  14.452  1.0245  0.1304 -1.0789
 3427SOL    HW221915   2.574   3.582  14.441  1.7360  0.8660  1.2465
 3428SOL     OW21916   2.000   3.103  13.180 -0.3566 -0.4833 -0.7541
 3428SOL    HW121917   1.948   3.109  13.260  1.1059  0.5938  0.1131
 3428SOL    HW221918   1.982   3.190  13.144 -1.2124  1.0753  3.4860
 3429SOL     OW21919   4.700   0.036   9.177  0.3186 -0.1996  0.4194
 3429SOL    HW121920   4.632   0.064   9.117 -0.0468 -2.1627 -0.0877
 3429SOL    HW221921   4.676   4.682   9.198 -0.1237  0.0500  0.9908
 3430SOL     OW21922   0.680   4.353   4.205 -0.9657 -0.1903 -0.4900
 3430SOL    HW121923   0.739   4.278   4.194 -0.2470  0.2898  0.0443
 3430SOL    HW221924   0.680   4.408   4.127 -2.7640  0.6370  0.0925
 3431SOL     OW21925   2.820   2.007   9.816  0.3750  0.2208  0.3147
 3431SOL    HW121926   2.828   2.085   9.761  0.1507 -0.3197 -0.4718
 3431SOL    HW221927   2.823   2.050   9.901  1.2449 -1.7899  1.3051
 3432SOL     OW21928   1.451   3.957  10.895  0.1981  0.5337  0.0343
 3432SOL    HW121929   1.444   3.974  10.801  1.2863  2.5931  0.3245
 3432SOL    HW221930   1.543   3.930  10.896 -0.2110 -0.7855  2.5650
 3433SOL     OW21931   4.257   4.193  14.571  0.0319 -0.0667  0.3419
 3433SOL    HW121932   4.322   4.202  14.641 -0.4225  0.6941  0.6776
 3433SOL    HW221933   4.312   4.175  14.495  1.0447  1.9736  0.5847
 3434SOL     OW21934   0.420   2.649   8.656  0.0867 -0.3513  0.1040
 3434SOL    HW121935   0.473   2.633   8.578 -0.2884 -1.2705  0.0337
 3434SOL    HW221936   0.487   2.692   8.710  1.1481 -0.0400 -1.4737
 3435SOL     OW21937   0.084   2.884   6.757 -0.7390  0.4010  0.1043
 3435SOL    HW121938   0.071   2.826   6.683 -0.7278  1.5606 -0.8072
 3435SOL    HW221939   0.118   2.964   6.716 -2.4972  1.9028  1.5515
 3436SOL     OW21940   0.355   1.803   6.199 -0.1682  0.0515 -0.0037
 3436SOL    HW121941   0.395   1.748   6.132 -0.9017 -0.4131 -0.0569
 3436SOL    HW221942   0.402   1.886   6.187  0.8686 -0.5755 -0.3049
 3437SOL     OW21943   4.109   0.519   5.980 -0.1466 -0.1431 -0.0344
 3437SOL    HW121944   4.074   0.507   6.068 -1.0298  0.5527 -0.2855
 3437SOL    HW221945   4.194   0.474   5.984  0.2819  0.6672  0.0177
 3438SOL     OW21946   3.970   0.372   3.418  0.3507  0.1215 -0.1235
 3438SOL    HW121947   3.944   0.415   3.500 -0.0765  1.0064 -0.7230
 3438SOL    HW221948   3.890   0.372   3.367  1.1180 -0.0898 -1.3212
 3439SOL     OW21949   0.670   4.596  11.417  0.1765  0.4660  0.5169
 3439SOL    HW121950   0.663   4.599  11.322 -1.1532  1.1805  0.6391
 3439SOL    HW221951   0.764   4.604  11.435  0.5314 -0.8470 -0.8052
 3440SOL     OW21952   2.271   4.515   8.376  0.1883  0.2029 -0.1098
 3440SOL    HW121953   2.195   4.470   8.337  1.0813 -1.1028 -0.3547
 3440SOL    HW221954   2.330   4.516   8.301  1.4830  0.4584  0.9231
 3441SOL     OW21955   0.567   2.159   0.680 -0.6437  1.1353  0.2205
 3441SOL    HW121956   0.614   2.183   0.601  0.5701 -0.7510  0.3741
 3441SOL    HW221957   0.593   2.067   0.683 -1.6642  0.7646 -2.3011
 3442SOL     OW21958   3.768   2.803   2.551  0.1161  0.0784  0.1087
 3442SOL    HW121959   3.790   2.744   2.622  0.9687  1.5403  1.0548
 3442SOL    HW221960   3.796   2.760   2.470 -2.2907  1.5226 -1.5084
 3443SOL     OW21961   3.691   1.567  14.899 -0.0248 -0.8839 -0.0527
 3443SOL    HW121962   3.711   1.655  14.929  2.2655 -1.2640 -0.5183
 3443SOL    HW221963   3.771   1.525  14.868  0.5545  0.0071  0.2367
 3444SOL     OW21964   2.697   0.902   6.954  0.6658  0.1734  0.4324
 3444SOL    HW121965   2.741   0.891   6.870 -0.1354 -0.1544  0.0542
 3444SOL    HW221966   2.768   0.881   7.015  0.7482  0.8370  0.5658
 3445SOL     OW21967   0.449   4.180   6.159  0.2955  0.2145 -0.7366
 3445SOL    HW121968   0.502   4.133   6.095  2.1955  1.2393  0.0762
 3445SOL    HW221969   0.404   4.238   6.099 -0.5048  0.2707 -0.0711
 3446SOL     OW21970   4.690   0.772   5.199  0.4993 -0.3593 -0.0810
 3446SOL    HW121971   0.034   0.767   5.252 -0.6233  1.0205  1.7527
 3446SOL    HW221972   4.721   0.813   5.118 -0.3654  1.3445  0.4336
 3447SOL     OW21973   0.600   3.741   7.785  0.0870  0.1473  0.2633
 3447SOL    HW121974   0.675   3.775   7.736 -0.4765 -1.1583 -1.4705
 3447SOL    HW221975   0.646   3.673   7.834 -0.7112 -0.1831  0.5550
 3448SOL     OW21976   2.999   4.682   1.459 -0.0060 -0.5074 -0.4869
 3448SOL    HW121977   3.052   4.605   1.479  0.0629 -0.6356 -1.1474
 3448SOL    HW221978   2.915   4.643   1.435 -1.6495  1.7229  1.6353
 3449SOL     OW21979   1.944   3.607   3.248  0.2791 -0.0790  0.0418
 3449SOL    HW121980   1.924   3.587   3.339  0.9510 -0.8169  0.0364
 3449SOL    HW221981   1.946   3.522   3.203 -0.5066 -0.8109  1.4029
 3450SOL     OW21982   0.169   2.514   5.356  0.1767  0.5609  0.0514
 3450SOL    HW121983   0.140   2.445   5.296 -0.1778  1.4672 -0.8193
 3450SOL    HW221984   0.237   2.463   5.400 -0.0311  0.1055 -0.1577
 3451SOL     OW21985   0.451   0.328   2.805 -0.0184  0.8431 -0.2279
 3451SOL    HW121986   0.498   0.322   2.889 -0.8714  0.9029  0.2564
 3451SOL    HW221987   0.484   0.407   2.763  0.6022 -0.4430 -2.1394
 3452SOL     OW21988   1.339   3.568   4.479  0.3304  0.3999 -0.4721
 3452SOL    HW121989   1.307   3.521   4.402 -1.1073 -0.5974  0.7489
 3452SOL    HW221990   1.372   3.497   4.534  0.3376  0.3148 -0.5877
 3453SOL     OW21991   1.709   0.162   6.770  0.8548 -0.0869  0.0537
 3453SOL    HW121992   1.675   0.233   6.824  4.1366  0.5938  1.1919
 3453SOL    HW221993   1.799   0.164   6.802  1.2994  3.5558 -1.3357
 3454SOL     OW21994   1.520   3.192   4.617 -0.1328  0.5597  0.2059
 3454SOL    HW121995   1.609   3.217   4.593 -0.5848  0.7547 -1.3023
 3454SOL    HW221996   1.522   3.196   4.712  1.5595 -2.3157  0.2803
 3455SOL     OW21997   3.701   3.287   7.667 -0.2387  0.1111 -0.3812
 3455SOL    HW121998   3.775   3.254   7.615 -0.8356 -0.2859 -0.9833
 3455SOL    HW221999   3.688   3.371   7.623 -1.8185 -0.4042 -0.8709
 3456SOL     OW22000   2.676   1.779  17.092  0.0590 -0.7569  0.1165
 3456SOL    HW122001   2.764   1.743  17.079  0.7590  0.9629  0.1154
 3456SOL    HW222002   2.633   1.727  17.023 -0.3525 -0.2856  0.0135
 3457SOL     OW22003   4.134   4.277   9.341 -0.8445  0.0877  0.1103
 3457SOL    HW122004   4.118   4.184   9.323  3.1158 -0.5792  0.0739
 3457SOL    HW222005   4.182   4.297   9.261 -0.1820 -1.1589  0.1889
 3458SOL     OW22006   1.528   4.363  10.593  0.1495 -0.0211  0.1881
 3458SOL    HW122007   1.593   4.332  10.656 -1.4267 -0.1332  1.7470
 3458SOL    HW222008   1.588   4.396  10.526 -0.0193  1.6966  0.8745
 3459SOL     OW22009   0.159   3.665   6.840  0.2589  0.4859  0.3344
 3459SOL    HW122010   0.194   3.580   6.814  0.3584  0.3250  0.9859
 3459SOL    HW222011   0.086   3.642   6.897  0.2367 -1.4759 -0.5148
 3460SOL     OW22012   3.262   3.198   4.282  0.4586 -0.3063  0.0195
 3460SOL    HW122013   3.225   3.284   4.304  0.1041 -0.7145  1.0694
 3460SOL    HW222014   3.356   3.203   4.297 -0.0288 -1.6544  3.5713
 3461SOL     OW22015   0.919   1.981   6.341  0.3549  0.1845  0.0221
 3461SOL    HW122016   0.975   2.015   6.411  2.0855 -0.3825 -1.0979
 3461SOL    HW222017   0.979   1.934   6.282 -0.4089 -0.4245 -0.2774
 3462SOL     OW22018   4.701   2.454  12.886 -0.7686  0.5243  0.3741
 3462SOL    HW122019   4.701   2.528  12.947 -0.0341 -0.1248  1.1542
 3462SOL    HW222020   4.642   2.478  12.815 -0.3500 -0.5394 -0.3378
 3463SOL     OW22021   1.781   1.710  14.270 -0.1533 -0.0839  0.6809
 3463SOL    HW122022   1.718   1.692  14.200  1.0660  0.5475 -0.5820
 3463SOL    HW222023   1.861   1.739  14.225  1.2577 -2.8385  1.4527
 3464SOL     OW22024   3.767   2.959   9.646 -0.6985 -0.0750  0.0473
 3464SOL    HW122025   3.817   2.912   9.579 -0.3928  0.0188  0.2084
 3464SOL    HW222026   3.681   2.963   9.604 -1.7522 -1.3961  2.1236
 3465SOL     OW22027   3.185   1.808   9.118  0.2710  0.3094 -0.8667
 3465SOL    HW122028   3.189   1.761   9.035 -1.2535  1.9635 -1.8726
 3465SOL    HW222029   3.203   1.898   9.090  2.9125 -0.2020 -0.8023
 3466SOL     OW22030   0.301   0.578   5.459 -0.2949 -0.0030 -0.4406
 3466SOL    HW122031   0.272   0.508   5.399  0.5615 -2.4951  2.0394
 3466SOL    HW222032   0.297   0.537   5.545  0.5724  3.3171  1.1528
 3467SOL     OW22033   2.472   4.237   6.617 -0.4409 -0.0752  0.1808
 3467SOL    HW122034   2.549   4.189   6.647 -1.1154  0.4836  2.7562
 3467SOL    HW222035   2.466   4.200   6.529  0.6666 -0.5969  0.3314
 3468SOL     OW22036   2.285   2.731   2.362  0.0234  0.4902  0.1679
 3468SOL    HW122037   2.211   2.760   2.415  0.4666  0.0589  1.0289
 3468SOL    HW222038   2.347   2.797   2.394  1.2375 -1.4966  1.9264
 3469SOL     OW22039   1.924   0.742   3.421 -0.3408 -0.2501 -0.1118
 3469SOL    HW122040   1.836   0.707   3.408  0.1863 -1.2305 -1.0953
 3469SOL    HW222041   1.941   0.797   3.345 -2.3783 -0.6312 -0.8258
 3470SOL     OW22042   1.527   4.696  17.551  0.2285 -0.4409 -0.1479
 3470SOL    HW122043   1.612   4.703  17.509  0.1259 -0.0610 -0.2972
 3470SOL    HW222044   1.539   4.639  17.627 -3.1361 -1.7204 -0.5694
 3471SOL     OW22045   3.327   4.636   8.182  0.6279 -0.0884 -0.3911
 3471SOL    HW122046   3.290   4.710   8.230  0.0759  0.2325 -1.3340
 3471SOL    HW222047   3.359   4.580   8.254 -1.6958  1.1523  1.6009
 3472SOL     OW22048   2.478   1.411  17.168  0.4704  0.2939  0.2434
 3472SOL    HW122049   2.553   1.351  17.164  0.4108  0.4283 -2.9813
 3472SOL    HW222050   2.493   1.463  17.089  0.7339 -0.3346 -0.1222
 3473SOL     OW22051   1.204   2.970  13.403 -0.9380  0.2015 -0.2585
 3473SOL    HW122052   1.236   2.993  13.490  1.1545 -1.7000 -0.5312
 3473SOL    HW222053   1.267   2.901  13.383 -1.6816 -0.4509 -0.3638
 3474SOL     OW22054   3.213   4.280  17.094 -0.7790  0.4865 -0.2678
 3474SOL    HW122055   3.150   4.352  17.085 -0.5652  0.3714 -2.7955
 3474SOL    HW222056   3.188   4.260  17.184 -0.7091 -0.5432 -0.4808
 3475SOL     OW22057   0.608   3.144  16.967  0.2892  0.0891 -0.8771
 3475SOL    HW122058   0.525   3.111  16.933  0.0743  1.5960 -1.8329
 3475SOL    HW222059   0.620   3.226  16.918  0.6010 -0.0348 -1.0048
 3476SOL     OW22060   1.443   1.439  11.525  0.4229 -0.1936  0.2341
 3476SOL    HW122061   1.465   1.379  11.597  0.1101 -0.6102 -0.0144
 3476SOL    HW222062   1.489   1.519  11.550  0.9401 -0.7021  0.9145
 3477SOL     OW22063   0.271   3.428  13.187  0.4761 -0.1983  0.4564
 3477SOL    HW122064   0.290   3.504  13.131  0.8496 -0.8330 -0.2707
 3477SOL    HW222065   0.318   3.356  13.145  0.1311 -0.6005  0.7630
 3478SOL     OW22066   3.621   2.136   3.369 -0.2425  0.0912  0.1555
 3478SOL    HW122067   3.710   2.156   3.339  0.2224 -0.7773  0.9294
 3478SOL    HW222068   3.609   2.068   3.303 -1.3036  0.9501 -0.5350
 3479SOL     OW22069   2.656   0.590   5.307  0.4500 -0.4501  0.1912
 3479SOL    HW122070   2.635   0.683   5.311 -2.0342 -0.9256 -1.9655
 3479SOL    HW222071   2.627   0.569   5.396  0.1857 -0.2890  0.1443
 3480SOL     OW22072   1.969   0.613  12.616  1.0774  0.5114 -0.6039
 3480SOL    HW122073   2.029   0.616  12.690  1.7239 -0.1171 -1.0992
 3480SOL    HW222074   2.001   0.532  12.575  1.4787  0.4487 -0.1607
 3481SOL     OW22075   0.299   1.348   6.490  0.4711 -0.1340  0.1920
 3481SOL    HW122076   0.256   1.426   6.455 -1.6144 -0.5155  1.9488
 3481SOL    HW222077   0.388   1.384   6.488 -0.9704  3.2297 -3.2724
 3482SOL     OW22078   2.032   3.741  14.359  0.4027  0.1310 -0.4807
 3482SOL    HW122079   1.996   3.661  14.399 -2.3293  1.1690 -0.8262
 3482SOL    HW222080   2.085   3.717  14.283  0.1007  1.6718 -1.1834
 3483SOL     OW22081   2.474   1.542   3.880 -0.0964 -0.5027 -0.6166
 3483SOL    HW122082   2.468   1.450   3.907  1.8877  0.4035  2.9913
 3483SOL    HW222083   2.560   1.571   3.910  0.1815 -0.1761 -1.7552
 3484SOL     OW22084   0.249   3.197   7.756 -0.0609 -0.1347 -0.1402
 3484SOL    HW122085   0.281   3.111   7.785 -1.4965 -0.7972 -0.4797
 3484SOL    HW222086   0.261   3.192   7.661 -1.9042  1.0433 -0.4281
 3485SOL     OW22087   1.996   4.677   7.981  0.1974  0.0760  0.2318
 3485SOL    HW122088   2.024   4.585   7.981  1.9568  0.5918 -1.0617
 3485SOL    HW222089   1.938   4.681   8.056  0.1305 -1.7614  0.2815
 3486SOL     OW22090   1.759   1.753  10.552  0.0878  0.4730 -0.6658
 3486SOL    HW122091   1.719   1.688  10.609 -2.0050  0.5935 -1.9761
 3486SOL    HW222092   1.846   1.747  10.590 -0.6710  2.0286  1.2935
 3487SOL     OW22093   0.392   4.607   3.946  0.5528  0.4401  0.3048
 3487SOL    HW122094   0.317   4.562   3.985  1.8359 -0.5793  1.6168
 3487SOL    HW222095   0.355   4.619   3.859 -1.9626 -0.1619  1.3170
 3488SOL     OW22096   3.528   4.511   1.469  0.6467  0.7769 -0.4321
 3488SOL    HW122097   3.615   4.552   1.477  0.6214  0.8730 -0.6759
 3488SOL    HW222098   3.516   4.526   1.376  0.6758 -1.2490 -0.7546
 3489SOL     OW22099   2.266   1.729   5.860  0.0501  0.1081  0.1210
 3489SOL    HW122100   2.311   1.662   5.808 -0.5784  0.0305 -0.3174
 3489SOL    HW222101   2.187   1.683   5.887  1.0977 -2.0872 -0.5665
 3490SOL     OW22102   1.422   3.993   5.366  0.1159 -0.0228 -0.5214
 3490SOL    HW122103   1.364   3.941   5.421 -0.5331  0.6070 -0.6128
 3490SOL    HW222104   1.419   3.937   5.288 -0.3650  0.2558 -0.7021
 3491SOL     OW22105   2.832   1.448   4.827  0.1171 -0.0119 -0.1431
 3491SOL    HW122106   2.894   1.495   4.882  1.6752 -0.7155 -1.2962
 3491SOL    HW222107   2.747   1.488   4.848 -0.6266 -1.4420 -0.3677
 3492SOL     OW22108   1.414   0.085   3.596 -0.3136 -0.5054 -0.1095
 3492SOL    HW122109   1.370   0.020   3.541 -1.7174  0.6828 -0.3849
 3492SOL    HW222110   1.355   0.156   3.571  0.1680 -0.3520 -0.8232
 3493SOL     OW22111   1.676   1.006   6.426 -0.4022  0.5264  0.0353
 3493SOL    HW122112   1.726   0.926   6.411  2.4374  2.4548 -0.7645
 3493SOL    HW222113   1.606   0.967   6.478  0.2097  0.7330  1.0161
 3494SOL     OW22114   1.355   3.515   7.301  0.1098 -0.1591 -0.4211
 3494SOL    HW122115   1.270   3.480   7.274 -0.2363  1.4640 -1.4137
 3494SOL    HW222116   1.374   3.446   7.365  1.0341 -1.1283 -1.7495
 3495SOL     OW22117   2.429   3.275   8.001  0.0813  0.0475 -0.0550
 3495SOL    HW122118   2.466   3.188   7.987 -1.4884 -0.8234  1.1414
 3495SOL    HW222119   2.478   3.300   8.079  0.8314 -0.2697 -0.4272
 3496SOL     OW22120   2.769   4.232   5.653  0.2731  0.0833 -0.0499
 3496SOL    HW122121   2.799   4.211   5.565  1.2516 -0.1287  0.3372
 3496SOL    HW222122   2.722   4.313   5.634  0.5953  0.5384  1.0575
 3497SOL     OW22123   0.411   2.976   2.047  0.3582  0.0023 -0.1676
 3497SOL    HW122124   0.484   3.014   2.097  0.8742 -2.3425  0.8377
 3497SOL    HW222125   0.372   3.042   1.990 -0.6906  0.6776  1.3366
 3498SOL     OW22126   0.997   2.645   2.539  0.2564 -0.1622  0.0183
 3498SOL    HW122127   1.082   2.674   2.506  0.9018 -1.3176  0.6674
 3498SOL    HW222128   0.967   2.615   2.453  2.9338 -1.3762 -0.4992
 3499SOL     OW22129   2.109   2.163   7.890 -0.3212  0.5245 -0.3876
 3499SOL    HW122130   2.017   2.167   7.913  0.2962 -0.4218  2.2609
 3499SOL    HW222131   2.118   2.070   7.869 -0.0881  0.9374 -2.1073
 3500SOL     OW22132   0.459   2.410  16.010 -0.2458 -0.6602  0.4966
 3500SOL    HW122133   0.458   2.326  16.054  1.0119 -0.3503  1.1237
 3500SOL    HW222134   0.424   2.388  15.923 -0.5687 -0.5399  0.5955
 3501SOL     OW22135   3.210   1.345   1.394  0.0799 -0.5372  0.0716
 3501SOL    HW122136   3.129   1.387   1.364  0.1827 -1.4922 -1.5243
 3501SOL    HW222137   3.265   1.357   1.317  1.3394 -0.2988  0.9993
 3502SOL     OW22138   4.487   0.687   4.544  0.5508 -0.1082  0.9216
 3502SOL    HW122139   4.419   0.732   4.494  1.7785  0.0698 -0.5991
 3502SOL    HW222140   4.526   0.767   4.577 -0.3107  1.2868 -1.4796
 3503SOL     OW22141   2.345   2.553   4.761  0.3134 -0.2841 -0.1704
 3503SOL    HW122142   2.403   2.536   4.687  1.5955 -0.3775  0.8688
 3503SOL    HW222143   2.333   2.466   4.798  3.1397 -0.9373 -0.8065
 3504SOL     OW22144   2.432   1.085   5.815 -0.1423 -0.2178 -0.2605
 3504SOL    HW122145   2.468   1.174   5.816  1.8572 -1.0286  0.5293
 3504SOL    HW222146   2.445   1.060   5.907  2.4616  2.8133  0.2103
 3505SOL     OW22147   2.192   4.192   5.065 -0.0690  0.2050  0.5912
 3505SOL    HW122148   2.264   4.223   5.010 -0.2164 -0.7996 -0.1635
 3505SOL    HW222149   2.173   4.103   5.036  0.3017  0.5237 -0.5968
 3506SOL     OW22150   2.279   1.939  17.494  0.2175  0.1459 -0.2342
 3506SOL    HW122151   2.315   1.882  17.426  1.2462  3.0051 -2.0930
 3506SOL    HW222152   2.206   1.968  17.439 -0.1366 -0.0383  0.1337
 3507SOL     OW22153   3.685   4.034   2.399  0.0314  0.4019  0.3752
 3507SOL    HW122154   3.592   4.048   2.416  0.1545  0.2913  1.1513
 3507SOL    HW222155   3.716   4.105   2.455  3.6012 -0.7153 -0.1273
 3508SOL     OW22156   1.198   1.384   3.270 -0.0375  0.5176 -0.7354
 3508SOL    HW122157   1.170   1.304   3.315 -0.6911  0.7543 -0.7261
 3508SOL    HW222158   1.119   1.408   3.221 -2.0261 -2.1125  1.2146
 3509SOL     OW22159   0.476   3.036   3.217 -0.1235  0.4657 -0.4180
 3509SOL    HW122160   0.503   3.083   3.295 -0.1059 -0.3408  0.0584
 3509SOL    HW222161   0.383   3.045   3.236  0.1414  2.0942  0.0881
 3510SOL     OW22162   2.320   1.304   9.992  0.0309 -0.0177 -0.1204
 3510SOL    HW122163   2.344   1.290  10.084 -0.6296 -0.1303  0.0316
 3510SOL    HW222164   2.389   1.365   9.965  0.3560 -0.9432 -1.3449
 3511SOL     OW22165   2.040   1.710   9.194 -0.9576 -0.2368 -0.1819
 3511SOL    HW122166   2.087   1.664   9.125 -1.5501 -0.3225 -0.5287
 3511SOL    HW222167   2.079   1.797   9.183  0.2319 -0.4726  2.2985
 3512SOL     OW22168   3.499   1.337   2.031 -0.0807  0.3528  0.3706
 3512SOL    HW122169   3.560   1.403   2.064 -0.0903  0.9840 -0.8863
 3512SOL    HW222170   3.412   1.374   2.045 -0.1223 -0.3334  1.8714
 3513SOL     OW22171   3.791   0.485   8.061 -0.4393 -0.1194  0.0564
 3513SOL    HW122172   3.781   0.427   8.136 -0.8907  0.1588  0.2113
 3513SOL    HW222173   3.846   0.552   8.102 -0.7539 -1.4024  2.5238
 3514SOL     OW22174   2.520   2.163  10.922 -0.2779 -0.3226  0.2901
 3514SOL    HW122175   2.562   2.104  10.984  2.5874  1.2367 -0.1336
 3514SOL    HW222176   2.430   2.149  10.951  0.0865 -1.4694  0.8661
 3515SOL     OW22177   2.405   2.266   1.599 -0.1746  0.0131  0.2944
 3515SOL    HW122178   2.459   2.311   1.664  1.6778  0.6867 -1.7328
 3515SOL    HW222179   2.321   2.265   1.646 -1.3087 -0.8514 -1.7496
 3516SOL     OW22180   1.794   1.181  14.339  0.0363  0.1018  0.4863
 3516SOL    HW122181   1.792   1.272  14.368 -1.0260  1.1172 -2.7604
 3516SOL    HW222182   1.862   1.145  14.395 -1.3828  0.8978  2.7199
 3517SOL     OW22183   2.121   3.299   7.976 -0.4602 -0.5421 -0.1155
 3517SOL    HW122184   2.215   3.298   7.992 -0.1495 -1.7941 -1.9809
 3517SOL    HW222185   2.117   3.276   7.883  0.2748 -1.7825  0.1684
 3518SOL     OW22186   2.692   2.765   7.966  0.2137 -0.2461  0.2905
 3518SOL    HW122187   2.663   2.676   7.949  1.5886 -0.4445 -0.9616
 3518SOL    HW222188   2.729   2.787   7.881 -1.7886 -0.3130 -0.5948
 3519SOL     OW22189   3.061   2.548  14.709  0.4390 -0.7589 -0.1595
 3519SOL    HW122190   3.083   2.567  14.618  0.9182 -0.8197 -0.0567
 3519SOL    HW222191   2.968   2.569  14.716  1.1557  2.0766  0.9904
 3520SOL     OW22192   2.701   2.859   6.982  0.0132 -0.5329  0.0553
 3520SOL    HW122193   2.768   2.894   7.040 -0.1809 -0.9320  0.5243
 3520SOL    HW222194   2.749   2.788   6.939 -0.6439 -0.8015 -0.2365
 3521SOL     OW22195   4.166   2.699  14.131 -0.3561  0.6072  0.4900
 3521SOL    HW122196   4.195   2.709  14.221 -0.4112 -1.6089  0.7539
 3521SOL    HW222197   4.238   2.655  14.088 -1.0529 -0.0605  0.0084
 3522SOL     OW22198   1.265   2.254   5.204 -0.3795  0.1818  0.0131
 3522SOL    HW122199   1.217   2.334   5.228  0.1079  0.5639 -0.2655
 3522SOL    HW222200   1.226   2.183   5.254 -1.2257  1.3446  0.9882
 3523SOL     OW22201   4.102   3.129   7.928 -0.1592  0.1115  0.2873
 3523SOL    HW122202   4.139   3.041   7.935 -1.8795 -0.5894  0.8007
 3523SOL    HW222203   4.162   3.180   7.875  0.2207  1.4755  2.0213
 3524SOL     OW22204   3.043   2.855  17.212 -0.1681 -0.0630 -0.1146
 3524SOL    HW122205   3.088   2.846  17.128 -0.8420  0.4735 -0.5390
 3524SOL    HW222206   3.061   2.946  17.238  3.5163 -0.9279  0.3331
 3525SOL     OW22207   0.340   2.729   4.234  0.2010  0.0780 -0.6353
 3525SOL    HW122208   0.280   2.654   4.229  2.0793 -1.5036  0.7658
 3525SOL    HW222209   0.393   2.703   4.309  0.4880 -0.1475 -0.9133
 3526SOL     OW22210   2.834   1.416   2.490  0.0100 -0.8138  0.0692
 3526SOL    HW122211   2.786   1.339   2.521  0.1463 -0.3919  1.3181
 3526SOL    HW222212   2.889   1.388   2.417 -0.7093  0.9481 -1.1378
 3527SOL     OW22213   0.973   0.190   5.603 -0.1282 -0.1582 -0.7553
 3527SOL    HW122214   0.929   0.271   5.630 -0.1167 -0.1370 -0.7997
 3527SOL    HW222215   1.061   0.206   5.636 -1.5020  1.6366  2.1199
 3528SOL     OW22216   1.997   2.088   6.674  0.2107  0.3128 -0.3311
 3528SOL    HW122217   1.991   2.180   6.647  1.0599  0.4607 -0.0083
 3528SOL    HW222218   2.088   2.078   6.702  0.5184  0.0743 -1.4190
 3529SOL     OW22219   0.329   1.200   6.029  0.5494 -0.8794  0.1490
 3529SOL    HW122220   0.249   1.251   6.043 -1.0144 -3.2270 -0.1723
 3529SOL    HW222221   0.318   1.137   6.100  1.0744 -0.8019  0.2955
 3530SOL     OW22222   1.696   1.507   3.888 -0.1186  0.6825  0.4837
 3530SOL    HW122223   1.738   1.512   3.802  2.2874 -2.1729  1.5124
 3530SOL    HW222224   1.691   1.601   3.903  0.7059  0.7844  0.1041
 3531SOL     OW22225   0.529   2.302   2.212 -0.0529 -0.7034 -0.3062
 3531SOL    HW122226   0.610   2.279   2.257 -0.4844 -2.8025 -0.6213
 3531SOL    HW222227   0.511   2.390   2.246 -0.2014 -0.5706 -0.7229
 3532SOL     OW22228   2.498   0.671  12.365 -0.0415 -0.6365 -0.4696
 3532SOL    HW122229   2.498   0.582  12.329 -0.6554 -0.2760 -1.3487
 3532SOL    HW222230   2.493   0.656  12.460  1.4805 -0.9630 -0.4432
 3533SOL     OW22231   3.245   1.761  12.415  0.1875  0.6050  0.2256
 3533SOL    HW122232   3.261   1.667  12.422  0.0176  0.6766  1.4387
 3533SOL    HW222233   3.312   1.776  12.347  0.5815 -0.9402  0.2829
 3534SOL     OW22234   3.783   0.775   8.962 -0.0854  0.6268 -0.3466
 3534SOL    HW122235   3.853   0.835   8.988  1.5039 -1.3419 -0.1145
 3534SOL    HW222236   3.791   0.797   8.870 -0.2961 -3.5062 -1.3498
 3535SOL     OW22237   0.949   0.419   3.377  0.0534 -0.0308 -0.2492
 3535SOL    HW122238   1.019   0.439   3.316  0.7366 -0.0580  0.5344
 3535SOL    HW222239   0.907   0.347   3.330 -0.1501  0.2231 -0.4573
 3536SOL     OW22240   4.252   2.941   9.914 -0.0849 -0.8214 -0.6100
 3536SOL    HW122241   4.229   2.893   9.994  0.1639 -3.0114 -1.8651
 3536SOL    HW222242   4.163   2.959   9.883  0.3001  0.5156 -0.9295
 3537SOL     OW22243   1.222   0.876   1.742 -0.2476 -0.1478 -0.1262
 3537SOL    HW122244   1.297   0.848   1.689 -0.4692 -0.1249 -0.4493
 3537SOL    HW222245   1.168   0.801   1.718 -0.8606 -0.8462  3.4372
 3538SOL     OW22246   4.684   4.319   6.237 -0.0028  0.0689 -0.3780
 3538SOL    HW122247   4.681   4.360   6.151  0.0109 -0.9206 -0.8577
 3538SOL    HW222248   4.620   4.249   6.221 -0.2786  0.5561 -1.3781
 3539SOL     OW22249   2.717   4.509   1.134 -0.6299  0.1883  0.1492
 3539SOL    HW122250   2.736   4.434   1.078 -0.5740 -1.2990  2.1368
 3539SOL    HW222251   2.755   4.575   1.076 -0.6777 -2.8384 -3.3255
 3540SOL     OW22252   1.881   3.351   4.028 -0.1320  0.1097  0.0219
 3540SOL    HW122253   1.799   3.401   4.028 -0.5361 -0.5639 -0.4939
 3540SOL    HW222254   1.868   3.302   3.947 -2.1880 -0.2632  0.5725
 3541SOL     OW22255   0.625   2.470   3.688  0.3241  0.3384 -0.3194
 3541SOL    HW122256   0.695   2.453   3.625  1.0903 -3.0427  1.3938
 3541SOL    HW222257   0.554   2.412   3.661 -0.0073  1.0340 -0.9422
 3542SOL     OW22258   1.166   2.690  17.276 -0.4213 -0.8627  0.0738
 3542SOL    HW122259   1.184   2.734  17.193 -1.2760 -2.6689 -1.0920
 3542SOL    HW222260   1.111   2.614  17.253 -2.3590  0.6642 -0.3480
 3543SOL     OW22261   3.164   3.782   3.058 -0.5381  0.7346  0.0567
 3543SOL    HW122262   3.075   3.769   3.089 -0.0971  0.2544  1.1316
 3543SOL    HW222263   3.200   3.839   3.127 -0.9239 -0.5472  1.3110
 3544SOL     OW22264   4.487   0.881   4.816  0.2220 -0.3895 -0.1227
 3544SOL    HW122265   4.469   0.850   4.905  0.4056 -1.8094 -0.5772
 3544SOL    HW222266   4.403   0.888   4.771  0.0800  2.3546  0.5200
 3545SOL     OW22267   1.316   4.272   6.575  0.4418 -0.8601 -0.1716
 3545SOL    HW122268   1.387   4.210   6.594  1.3061 -0.9260 -3.5537
 3545SOL    HW222269   1.253   4.265   6.647  0.2025  4.0868  0.0976
 3546SOL     OW22270   2.171   4.709  14.314  0.3830  0.0486 -0.8648
 3546SOL    HW122271   2.191   4.616  14.319 -0.5579 -0.1646 -0.9958
 3546SOL    HW222272   2.085   4.702  14.273 -0.0251 -1.2402  0.2072
 3547SOL     OW22273   4.535   1.738   4.688  0.1928 -0.4113  0.2509
 3547SOL    HW122274   4.582   1.745   4.771 -0.5471 -3.3196  0.9098
 3547SOL    HW222275   4.514   1.828   4.663 -0.3725 -0.5249  0.3174
 3548SOL     OW22276   3.585   0.693   9.489 -0.0013 -0.3375  0.0204
 3548SOL    HW122277   3.672   0.669   9.459 -0.5362  0.6364 -2.3258
 3548SOL    HW222278   3.552   0.746   9.416 -2.3808 -0.9218  0.6732
 3549SOL     OW22279   3.321   0.238   6.039  0.1438  0.1066 -0.6135
 3549SOL    HW122280   3.409   0.205   6.054 -0.3735 -1.0954 -0.1515
 3549SOL    HW222281   3.337   0.308   5.976 -0.9176  0.6907 -0.2477
 3550SOL     OW22282   0.786   4.047   3.453 -0.0246  0.5135 -0.2906
 3550SOL    HW122283   0.816   3.960   3.427 -1.1762 -0.6555  2.2750
 3550SOL    HW222284   0.794   4.038   3.548  1.1106 -0.0294 -0.4456
 3551SOL     OW22285   0.973   0.140   7.754  0.1804 -0.2505 -0.4338
 3551SOL    HW122286   1.007   0.073   7.813  2.3333  1.8744  0.7126
 3551SOL    HW222287   0.926   0.197   7.816  0.5110 -0.0985 -0.3258
 3552SOL     OW22288   3.583   2.358  16.122  0.0390 -0.0815  0.1322
 3552SOL    HW122289   3.502   2.386  16.079 -0.0840 -2.6067 -1.2978
 3552SOL    HW222290   3.579   2.264  16.104  2.1727 -0.5897  2.2923
 3553SOL     OW22291   2.119   3.972   7.724 -0.3841 -0.3668 -0.1985
 3553SOL    HW122292   2.065   3.924   7.661  0.3172 -0.1240 -0.9728
 3553SOL    HW222293   2.202   3.924   7.717 -0.6907 -0.9924  0.3970
 3554SOL     OW22294   4.393   2.373  13.796 -0.4903 -0.0700  0.5048
 3554SOL    HW122295   4.482   2.408  13.791 -1.2071  1.3580 -2.0826
 3554SOL    HW222296   4.359   2.394  13.710 -0.5777  2.0820  1.0632
 3555SOL     OW22297   0.445   4.191  15.839  0.2896  0.6701  0.1465
 3555SOL    HW122298   0.451   4.260  15.904 -0.1700  1.2824 -0.4622
 3555SOL    HW222299   0.356   4.206  15.808 -0.7743 -2.9713  1.3858
 3556SOL     OW22300   3.902   1.327   3.325 -0.1269  0.6513 -0.0034
 3556SOL    HW122301   3.883   1.318   3.232 -0.9463 -0.3913  0.2565
 3556SOL    HW222302   3.820   1.360   3.362 -1.1807 -0.7431 -1.0796
 3557SOL     OW22303   2.050   0.010   5.399  0.3981  0.6637 -0.1302
 3557SOL    HW122304   1.982   0.067   5.363 -0.5917  0.3209  1.1681
 3557SOL    HW222305   2.134   0.056   5.398  0.8707 -0.2180 -1.2470
 3558SOL     OW22306   3.932   0.725  17.425 -0.0901  0.1587 -0.0930
 3558SOL    HW122307   3.883   0.711  17.344  0.6388  1.4414 -0.7477
 3558SOL    HW222308   3.863   0.720  17.491  0.3418 -2.4530  0.1833
 3559SOL     OW22309   0.836   4.627  17.305 -0.0302  0.2910  0.1594
 3559SOL    HW122310   0.743   4.605  17.291 -0.0195  1.1144 -1.1391
 3559SOL    HW222311   0.884   4.575  17.241 -0.2929 -2.0598  1.8649
 3560SOL     OW22312   3.661   4.323   6.089 -0.3353  0.2292 -0.0594
 3560SOL    HW122313   3.693   4.253   6.146 -3.0613 -1.2819 -0.3725
 3560SOL    HW222314   3.699   4.397   6.135  2.7086 -1.9075  0.8773
 3561SOL     OW22315   4.201   0.392   4.117  0.3887 -0.5536 -0.1402
 3561SOL    HW122316   4.188   0.336   4.040  1.4725 -2.4213  1.0256
 3561SOL    HW222317   4.290   0.383   4.150  0.5848  2.1504  0.0291
 3562SOL     OW22318   2.588   0.943   5.629  0.0727  0.0633  0.2338
 3562SOL    HW122319   2.618   0.881   5.695 -1.1916 -0.3357  0.4258
 3562SOL    HW222320   2.549   1.012   5.684 -0.9421 -0.4447  0.1507
 3563SOL     OW22321   2.993   1.739   2.468 -0.4036  0.5496 -0.1197
 3563SOL    HW122322   2.907   1.772   2.443 -1.8038 -1.5214  1.8671
 3563SOL    HW222323   3.027   1.710   2.384 -1.3282  1.4389 -0.7911
 3564SOL     OW22324   1.851   0.448   1.238 -0.1608  0.6228  0.0518
 3564SOL    HW122325   1.910   0.499   1.293  1.8465 -1.5585 -0.0933
 3564SOL    HW222326   1.901   0.371   1.214 -0.8102 -0.0096  0.7191
 3565SOL     OW22327   0.522   1.474  15.648  0.0673  0.0511  0.1535
 3565SOL    HW122328   0.446   1.525  15.676  1.4568  1.7522  0.7700
 3565SOL    HW222329   0.563   1.456  15.732 -0.6190  3.4143  1.1956
 3566SOL     OW22330   1.217   3.586  14.402 -0.1098 -0.4037  0.2736
 3566SOL    HW122331   1.291   3.647  14.402  0.8851 -1.5933  1.6387
 3566SOL    HW222332   1.179   3.590  14.314  0.9807  0.1928 -0.1758
 3567SOL     OW22333   4.287   3.144   3.870 -0.0271  0.6406  0.3742
 3567SOL    HW122334   4.352   3.077   3.893 -0.1712  0.9707  1.7265
 3567SOL    HW222335   4.211   3.121   3.923 -0.2333  0.5360  0.0363
 3568SOL     OW22336   3.091   2.364  10.936  0.2963 -0.2069  0.5477
 3568SOL    HW122337   3.035   2.438  10.915 -0.4155 -1.2942 -1.4443
 3568SOL    HW222338   3.028   2.305  10.976 -1.6628  1.2587 -0.4002
 3569SOL     OW22339   2.233   0.395   8.103 -0.2347 -0.2089 -0.4436
 3569SOL    HW122340   2.296   0.429   8.039  1.7138 -4.1379 -0.5586
 3569SOL    HW222341   2.271   0.426   8.185 -1.9339 -2.0401  1.0376
 3570SOL     OW22342   3.391   2.950   5.732  0.0050 -0.1210 -0.6069
 3570SOL    HW122343   3.366   2.861   5.707  0.1832 -0.0131 -1.1753
 3570SOL    HW222344   3.437   2.940   5.816 -0.7269 -0.2737 -0.2292
 3571SOL     OW22345   2.742   1.434  15.693 -0.3100  1.1401  0.4872
 3571SOL    HW122346   2.778   1.434  15.605 -2.5625 -1.7190 -0.4651
 3571SOL    HW222347   2.707   1.522  15.703  0.2727  1.5728 -1.4339
 3572SOL     OW22348   0.282   4.203   9.579  0.5735  0.4109  0.1815
 3572SOL    HW122349   0.232   4.172   9.654 -3.0517  1.0240 -1.9921
 3572SOL    HW222350   0.209   4.226   9.521 -1.5481  0.0284  2.7264
 3573SOL     OW22351   2.006   0.041  11.474 -0.3689  0.4131  0.0662
 3573SOL    HW122352   1.944   0.009  11.408  0.4035 -0.9820  0.0236
 3573SOL    HW222353   2.087   0.036  11.423 -0.1264  0.5829  0.4328
 3574SOL     OW22354   0.237   2.103   6.843 -0.1915 -0.0526  0.0015
 3574SOL    HW122355   0.171   2.076   6.779  0.8409  1.6307 -1.7843
 3574SOL    HW222356   0.192   2.073   6.922 -2.1787 -0.8191 -1.4027
 3575SOL     OW22357   4.001   0.214   7.090 -0.2689 -0.6093  0.1655
 3575SOL    HW122358   3.971   0.125   7.079  0.5300 -1.2124  2.6955
 3575SOL    HW222359   3.955   0.269   7.027  0.7933 -1.8218 -1.6427
 3576SOL     OW22360   3.962   3.753   2.882 -0.4184  0.0311 -0.3947
 3576SOL    HW122361   4.032   3.689   2.893  0.3366  0.7684 -0.8801
 3576SOL    HW222362   3.986   3.800   2.802  1.6029 -1.2758 -0.5448
 3577SOL     OW22363   3.052   3.969  16.431  0.3583  0.3844  0.3316
 3577SOL    HW122364   3.008   3.922  16.502 -1.0950 -0.0277 -0.8294
 3577SOL    HW222365   3.130   3.996  16.479  0.5087 -0.0909  0.3593
 3578SOL     OW22366   4.464   2.126   2.548  0.9507  0.0728 -0.2419
 3578SOL    HW122367   4.378   2.114   2.507  1.1623 -1.0280 -0.3396
 3578SOL    HW222368   4.483   2.038   2.580 -0.8755  0.6839  2.5302
 3579SOL     OW22369   2.366   3.825  11.360 -0.9286 -0.3131  0.1296
 3579SOL    HW122370   2.340   3.916  11.351  0.5471 -0.0462 -1.4665
 3579SOL    HW222371   2.340   3.802  11.271 -0.8812  1.9705 -0.4708
 3580SOL     OW22372   2.212   3.224   2.832  0.4726  0.5907 -0.2199
 3580SOL    HW122373   2.207   3.268   2.748  0.0215 -0.8373 -0.9382
 3580SOL    HW222374   2.186   3.295   2.891 -0.6485  1.2485 -1.5127
 3581SOL     OW22375   0.532   1.565   5.330  0.3592  0.1641  0.0252
 3581SOL    HW122376   0.485   1.570   5.247  2.3129 -2.1461 -1.2162
 3581SOL    HW222377   0.610   1.610   5.299  1.4831 -0.5326  1.8089
 3582SOL     OW22378   3.842   4.595   7.759  0.3737  0.3613 -0.1186
 3582SOL    HW122379   3.858   4.665   7.822 -0.2666  0.2102  0.2204
 3582SOL    HW222380   3.873   4.634   7.677 -1.2716  1.5678 -0.1649
 3583SOL     OW22381   3.992   3.050   4.534 -0.0905  0.4292  0.0940
 3583SOL    HW122382   4.038   3.122   4.492  2.0438  0.1333  2.0039
 3583SOL    HW222383   4.040   3.034   4.615 -2.5431 -1.8088  1.1022
 3584SOL     OW22384   4.309   1.615   5.625  0.5295 -0.7149 -0.6061
 3584SOL    HW122385   4.378   1.553   5.601  0.7551 -0.6858 -0.0308
 3584SOL    HW222386   4.307   1.596   5.719  0.2443 -0.6837 -0.6065
 3585SOL     OW22387   1.866   0.565  11.745  0.0344  0.6799  0.2647
 3585SOL    HW122388   1.846   0.481  11.786  2.0179 -0.1117 -0.4161
 3585SOL    HW222389   1.797   0.627  11.772 -1.3481 -1.2086  1.0867
 3586SOL     OW22390   4.664   2.877   6.991  0.3963 -0.3056 -0.7369
 3586SOL    HW122391   4.707   2.854   6.908 -1.5449  1.2295 -2.1716
 3586SOL    HW222392   4.581   2.901   6.950 -0.9232  1.6174  3.1333
 3587SOL     OW22393   3.754   1.645  11.177  0.6015  0.3446  0.6887
 3587SOL    HW122394   3.825   1.705  11.155 -1.3529  2.3303 -0.0786
 3587SOL    HW222395   3.732   1.677  11.264  1.3558  1.3253  0.5137
 3588SOL     OW22396   3.614   0.716   5.530 -0.1980 -0.0451 -1.0090
 3588SOL    HW122397   3.578   0.714   5.441  0.6230 -1.0289 -1.3183
 3588SOL    HW222398   3.705   0.735   5.509 -0.0836  1.1055  0.5185
 3589SOL     OW22399   4.037   3.014   1.993 -0.4291 -0.5132 -0.2978
 3589SOL    HW122400   4.003   3.070   2.063  2.5625  0.0163  0.7307
 3589SOL    HW222401   4.037   3.077   1.922  0.4790 -0.3532 -0.1489
 3590SOL     OW22402   3.878   0.446   3.044  0.3806 -0.2014  0.8351
 3590SOL    HW122403   3.869   0.364   3.091 -0.0237  0.4842  1.9406
 3590SOL    HW222404   3.786   0.470   3.047 -0.0553 -1.8117  0.4410
 3591SOL     OW22405   1.267   0.304   9.436  0.0646 -0.0872  0.5555
 3591SOL    HW122406   1.248   0.384   9.387 -1.6213 -1.4741 -1.0392
 3591SOL    HW222407   1.288   0.241   9.368 -4.2340  1.2311 -1.9840
 3592SOL     OW22408   3.117   2.071   8.779  0.3755 -0.1184 -0.4068
 3592SOL    HW122409   3.150   2.154   8.744  1.3853  0.4256  1.8598
 3592SOL    HW222410   3.191   2.014   8.755  1.1622  0.9001 -0.4256
 3593SOL     OW22411   3.759   3.089   6.106 -0.1130  0.2736  0.1971
 3593SOL    HW122412   3.776   3.005   6.149 -2.7548 -0.7939 -0.8028
 3593SOL    HW222413   3.845   3.131   6.104  0.2258 -0.4569 -1.1835
 3594SOL     OW22414   4.262   4.159   4.769 -0.0930 -0.7944 -0.2270
 3594SOL    HW122415   4.181   4.172   4.818  0.3680 -1.3015  0.6730
 3594SOL    HW222416   4.300   4.090   4.824 -1.3231 -1.0092  0.3588
 3595SOL     OW22417   0.127   3.957   7.389  0.4118  0.0507 -0.2761
 3595SOL    HW122418   0.142   4.021   7.458  1.2531  0.6843 -1.0433
 3595SOL    HW222419   0.125   4.018   7.315 -0.4004  0.0163 -0.2857
 3596SOL     OW22420   3.105   1.327   8.924  1.1301  0.2348 -0.5377
 3596SOL    HW122421   3.077   1.236   8.938 -1.1164  0.9551 -0.3510
 3596SOL    HW222422   3.016   1.361   8.932  0.7105 -1.2753  1.3893
 3597SOL     OW22423   2.778   0.741   6.716  0.6207  0.1055  0.0064
 3597SOL    HW122424   2.813   0.802   6.651  1.6135  0.0956  0.5257
 3597SOL    HW222425   2.684   0.753   6.704  0.1821 -3.4273 -0.0991
 3598SOL     OW22426   2.185   1.097   5.154  0.4688 -0.2636 -0.0848
 3598SOL    HW122427   2.194   1.082   5.060 -0.7312  0.7830 -0.3565
 3598SOL    HW222428   2.277   1.119   5.173 -0.4662  3.8049 -0.2627
 3599SOL     OW22429   3.698   4.190   7.981 -1.0048  0.9120 -0.4280
 3599SOL    HW122430   3.645   4.128   8.029  1.1642 -2.3207 -2.2200
 3599SOL    HW222431   3.751   4.224   8.054 -1.3509  0.7315 -0.0975
 3600SOL     OW22432   0.414   2.634  17.223 -0.2141  0.2985  0.0643
 3600SOL    HW122433   0.422   2.636  17.318 -2.2174 -0.8343  0.2659
 3600SOL    HW222434   0.379   2.720  17.200  1.3778  1.0629  0.5036
 3601SOL     OW22435   3.171   2.894   1.493 -0.1166 -0.3785 -0.1517
 3601SOL    HW122436   3.216   2.875   1.410 -1.9271 -2.8593 -0.5549
 3601SOL    HW222437   3.226   2.851   1.558  0.3255  0.5587  0.0863
 3602SOL     OW22438   1.901   1.243   3.973 -0.4901  0.0076  0.0636
 3602SOL    HW122439   1.875   1.243   3.881  1.5748  0.8071 -0.5304
 3602SOL    HW222440   1.947   1.159   3.977  0.0729  0.1556 -2.7933
 3603SOL     OW22441   1.238   0.306   3.512 -0.6704 -0.5363  0.3042
 3603SOL    HW122442   1.162   0.292   3.456  0.9543 -0.7567 -1.8256
 3603SOL    HW222443   1.224   0.393   3.549  2.5784  1.1296 -2.3858
 3604SOL     OW22444   2.620   1.565   9.153 -0.4277 -0.6331  0.2100
 3604SOL    HW122445   2.667   1.612   9.222 -2.6338  0.3047  1.0816
 3604SOL    HW222446   2.559   1.635   9.128 -0.6913 -0.1295  2.2241
 3605SOL     OW22447   3.892   3.568   3.438 -0.6140  0.4256  0.1122
 3605SOL    HW122448   3.828   3.499   3.425 -0.4756  0.1005  1.2184
 3605SOL    HW222449   3.964   3.509   3.463 -1.6829 -1.2883 -0.8476
 3606SOL     OW22450   1.952   4.070   6.652  0.3574 -0.1555  0.5971
 3606SOL    HW122451   1.938   4.024   6.734 -1.4855 -1.2433 -0.3322
 3606SOL    HW222452   2.041   4.042   6.629 -0.5604 -1.6347 -1.1851
 3607SOL     OW22453   2.328   1.143  12.426 -0.3908  0.0346  0.4452
 3607SOL    HW122454   2.291   1.103  12.505  1.3449 -1.8824  0.2564
 3607SOL    HW222455   2.404   1.085  12.422 -1.8691 -1.8157 -0.6742
 3608SOL     OW22456   3.695   2.413   4.943 -0.3025  0.0721 -0.0304
 3608SOL    HW122457   3.762   2.365   4.992  1.6242  2.5296 -0.2729
 3608SOL    HW222458   3.737   2.419   4.857  2.2596  1.9737  1.3968
 3609SOL     OW22459   1.344   3.888   3.524  0.0145  0.0600 -0.3623
 3609SOL    HW122460   1.258   3.924   3.549 -0.4100 -0.7162 -0.7126
 3609SOL    HW222461   1.326   3.795   3.514  3.1451 -0.4077 -1.5506
 3610SOL     OW22462   1.617   4.359   8.352 -0.2068  1.0942 -0.3983
 3610SOL    HW122463   1.598   4.266   8.342  0.4564  1.0129 -0.9092
 3610SOL    HW222464   1.593   4.386   8.440  1.0584  0.3279  0.1869
 3611SOL     OW22465   3.827   1.318   0.051 -0.5779 -0.4604  0.3459
 3611SOL    HW122466   3.911   1.362   0.039 -0.7440 -0.6410 -1.4004
 3611SOL    HW222467   3.812   1.327   0.146 -0.4822 -2.5545  0.5554
 3612SOL     OW22468   1.661   4.409   6.271  0.2436  0.0767  0.3924
 3612SOL    HW122469   1.657   4.315   6.287 -0.1816  0.3287  1.7738
 3612SOL    HW222470   1.612   4.441   6.347 -0.7293  1.1832 -0.7078
 3613SOL     OW22471   1.918   1.009   0.590  0.2957  0.6332  0.5363
 3613SOL    HW122472   2.009   0.980   0.584 -0.2488 -1.2453  1.3005
 3613SOL    HW222473   1.905   1.081   0.528 -1.0309  1.0525  1.3020
 3614SOL     OW22474   1.769   0.142  17.506  0.1246  0.0873  0.4251
 3614SOL    HW122475   1.735   0.192  17.432  0.4836  2.2814  1.7342
 3614SOL    HW222476   1.739   0.207  17.571  1.3759 -0.9588  2.0494
 3615SOL     OW22477   2.853   1.522  16.180 -0.1838 -0.0049 -0.2628
 3615SOL    HW122478   2.799   1.520  16.101  0.3200  1.2295 -0.6379
 3615SOL    HW222479   2.882   1.431  16.181  4.0949  1.3662  0.2871
 3616SOL     OW22480   1.386   2.789  13.311 -0.3480 -0.9243  0.0828
 3616SOL    HW122481   1.373   2.700  13.279 -1.1597 -1.1877  1.1433
 3616SOL    HW222482   1.445   2.821  13.243  1.0130 -0.2023  1.5979
 3617SOL     OW22483   0.391   0.203   7.339 -0.6091  0.1847 -0.3869
 3617SOL    HW122484   0.356   0.202   7.250  0.1757  1.6377 -0.7118
 3617SOL    HW222485   0.346   0.126   7.374 -0.3851 -0.9919 -2.7535
 3618SOL     OW22486   2.967   0.821   1.543  0.3814  0.2872 -0.0639
 3618SOL    HW122487   2.941   0.743   1.592  0.6637  1.3857  1.7995
 3618SOL    HW222488   3.039   0.784   1.491  0.1272 -0.0527 -0.1739
 3619SOL     OW22489   4.060   1.848  10.842 -0.4325 -0.5188 -0.3358
 3619SOL    HW122490   4.079   1.942  10.839 -1.8282 -0.2243  0.0594
 3619SOL    HW222491   4.053   1.836  10.937 -0.6380  0.5165 -0.2230
 3620SOL     OW22492   1.244   4.124  17.166 -0.0406  0.1744 -0.6241
 3620SOL    HW122493   1.297   4.046  17.152 -0.3619  0.1915 -1.9419
 3620SOL    HW222494   1.180   4.133  17.096  1.3987  0.4740 -1.8981
 3621SOL     OW22495   4.274   3.982   1.989  0.2977 -0.4128  0.1204
 3621SOL    HW122496   4.256   4.026   1.906 -0.7672  0.7230  0.9587
 3621SOL    HW222497   4.367   3.963   1.976  0.4270  0.2496  0.0449
 3622SOL     OW22498   3.678   4.415   8.927  0.0103 -0.2066  0.0851
 3622SOL    HW122499   3.610   4.353   8.899 -0.1722  1.7891 -3.8315
 3622SOL    HW222500   3.730   4.355   8.979  0.4234 -2.1511 -2.5486
 3623SOL     OW22501   3.457   4.521   1.202 -0.0498 -0.7011  0.3172
 3623SOL    HW122502   3.416   4.484   1.124  0.3153 -0.0540 -0.1720
 3623SOL    HW222503   3.429   4.612   1.191 -0.4009 -0.6366  1.6610
 3624SOL     OW22504   1.054   0.696  11.680  0.1629  0.3069 -0.4199
 3624SOL    HW122505   1.063   0.685  11.775  0.2356 -1.0171 -0.5889
 3624SOL    HW222506   1.007   0.779  11.669 -0.4210  0.2886  1.8799
 3625SOL     OW22507   1.122   4.390   1.063  0.5589 -0.2312  0.3978
 3625SOL    HW122508   1.111   4.377   1.157 -2.4062 -0.1821  0.0436
 3625SOL    HW222509   1.115   4.298   1.036 -1.2312  0.1341 -0.3744
 3626SOL     OW22510   1.300   1.521   7.654  0.3748  0.4624 -0.0809
 3626SOL    HW122511   1.208   1.496   7.664  1.1663 -0.7718  3.8249
 3626SOL    HW222512   1.336   1.495   7.738  0.2645  0.6308  0.0177
 3627SOL     OW22513   1.399   0.163   1.330 -0.1370  0.1101 -0.0051
 3627SOL    HW122514   1.396   0.105   1.406 -2.3526 -1.7206 -1.4649
 3627SOL    HW222515   1.491   0.147   1.310 -0.6126  1.1948 -3.0614
 3628SOL     OW22516   3.528   1.658   9.168  0.6293 -0.5147  0.2281
 3628SOL    HW122517   3.601   1.607   9.203  0.2165 -2.4517 -1.7408
 3628SOL    HW222518   3.475   1.582   9.147 -0.1415 -0.3480  1.5672
 3629SOL     OW22519   1.991   0.550  10.348  0.0950  0.3844  0.9629
 3629SOL    HW122520   2.011   0.464  10.385 -2.3258  0.0248  1.4419
 3629SOL    HW222521   1.918   0.577  10.402 -1.3058  2.2413 -1.8526
 3630SOL     OW22522   2.405   2.399   6.718 -0.0744 -0.0263 -0.0361
 3630SOL    HW122523   2.456   2.358   6.788  2.8819  1.4586 -1.3519
 3630SOL    HW222524   2.418   2.332   6.651  0.0986 -0.9381  0.9032
 3631SOL     OW22525   1.957   4.098  12.693  0.7653 -0.3358  0.5650
 3631SOL    HW122526   1.878   4.104  12.747  0.3436 -0.2265 -0.0588
 3631SOL    HW222527   1.990   4.011  12.715 -0.9638 -1.4566 -1.2082
 3632SOL     OW22528   4.721   4.509   3.467 -0.6030  0.4071 -0.0766
 3632SOL    HW122529   0.068   4.492   3.510 -1.5844 -1.3745  1.0938
 3632SOL    HW222530   4.673   4.430   3.491 -1.3625  0.2627 -2.0293
 3633SOL     OW22531   3.840   0.881   8.712  0.2574  0.1918 -0.3458
 3633SOL    HW122532   3.874   0.920   8.631 -1.1668  0.0680 -1.0051
 3633SOL    HW222533   3.807   0.967   8.737  1.1483  0.4121  0.0511
 3634SOL     OW22534   1.961   3.052   9.375  0.1913 -0.2175 -0.1182
 3634SOL    HW122535   1.900   3.126   9.380  0.1817 -0.0990 -2.1159
 3634SOL    HW222536   1.900   2.983   9.403 -0.0109  0.5441  1.3288
 3635SOL     OW22537   0.559   2.668   7.611 -0.1760  0.0424  0.1159
 3635SOL    HW122538   0.609   2.737   7.655 -0.4643  0.1283  0.3117
 3635SOL    HW222539   0.471   2.705   7.619 -0.5198 -0.6840 -0.3971
 3636SOL     OW22540   4.210   4.354   7.599 -0.0270 -0.1248 -0.4342
 3636SOL    HW122541   4.183   4.425   7.540 -0.3342 -1.1833 -1.5805
 3636SOL    HW222542   4.286   4.315   7.556  0.4989 -1.3779  1.6716
 3637SOL     OW22543   3.176   2.284   5.112 -0.1507  0.4490 -0.4810
 3637SOL    HW122544   3.153   2.377   5.119 -0.2062  0.3211  1.0057
 3637SOL    HW222545   3.246   2.278   5.176 -0.5107  2.4870  0.1198
 3638SOL     OW22546   4.084   3.692  11.989 -0.1383 -0.0701  0.0405
 3638SOL    HW122547   4.117   3.640  11.915 -1.7610  1.1106 -1.5006
 3638SOL    HW222548   4.165   3.715  12.034  0.9772 -1.3322 -1.3133
 3639SOL     OW22549   4.466   0.120   5.221  0.3696 -0.1600 -0.4624
 3639SOL    HW122550   4.407   0.195   5.212 -0.3603 -0.3810  2.5588
 3639SOL    HW222551   4.459   0.100   5.128 -1.5951 -3.0788  0.3032
 3640SOL     OW22552   0.741   4.568   7.103  0.0500 -0.6690  0.4141
 3640SOL    HW122553   0.661   4.618   7.119  0.2014 -1.1961  2.7969
 3640SOL    HW222554   0.705   4.483   7.126 -0.0839 -0.5653  0.5865
 3641SOL     OW22555   2.110   4.727   1.140 -0.2076 -0.7262 -0.3971
 3641SOL    HW122556   2.158   4.646   1.159  1.7968  1.1844  2.6741
 3641SOL    HW222557   2.165   0.055   1.185 -0.9597  0.8062 -1.6759
 3642SOL     OW22558   0.737   1.726  13.827 -0.7850 -0.2302 -0.2982
 3642SOL    HW122559   0.735   1.632  13.809  1.1499 -0.2833 -0.2558
 3642SOL    HW222560   0.705   1.753  13.742 -1.3121 -0.9792 -0.3410
 3643SOL     OW22561   1.609   2.105   5.005  0.4484 -0.2213  0.0219
 3643SOL    HW122562   1.557   2.036   4.963  0.3856 -0.2116  0.0835
 3643SOL    HW222563   1.656   2.133   4.926  1.4840  0.5075  0.9041
 3644SOL     OW22564   3.813   1.644   4.409  0.4200 -0.2321 -0.0854
 3644SOL    HW122565   3.816   1.731   4.369 -1.0630  0.4414  1.2608
 3644SOL    HW222566   3.793   1.672   4.499  0.4642 -0.6626  0.0547
 3645SOL     OW22567   4.200   3.391   2.297  0.0839  0.3477 -0.0875
 3645SOL    HW122568   4.163   3.346   2.374 -0.5209 -0.8694 -1.0854
 3645SOL    HW222569   4.263   3.451   2.337 -1.8993  1.8922  0.7371
 3646SOL     OW22570   2.839   1.071   3.965 -0.3618  0.8351 -0.0572
 3646SOL    HW122571   2.818   0.988   4.007  0.7001  1.5717  1.9185
 3646SOL    HW222572   2.804   1.067   3.876  0.0245 -0.9936 -0.1218
 3647SOL     OW22573   2.219   2.010   4.020 -0.0134  0.0766  0.6977
 3647SOL    HW122574   2.180   2.086   3.976 -1.7020 -2.0999 -1.5828
 3647SOL    HW222575   2.275   1.969   3.954 -2.6921 -0.7113 -1.0789
 3648SOL     OW22576   0.882   1.278   1.996 -0.0122 -0.0981 -0.1082
 3648SOL    HW122577   0.822   1.322   1.936 -1.0879 -0.0917  0.9782
 3648SOL    HW222578   0.820   1.232   2.053  0.8145 -0.4498  0.5195
 3649SOL     OW22579   4.696   2.902   5.773  0.6010  0.8507  0.8095
 3649SOL    HW122580   4.661   2.879   5.687  0.6550 -0.8584  1.2306
 3649SOL    HW222581   4.629   2.967   5.792 -1.5020 -1.3099  0.9141
 3650SOL     OW22582   3.153   1.415   3.512 -0.1886 -0.0680 -0.5160
 3650SOL    HW122583   3.106   1.457   3.440 -1.3839  0.0389  0.3426
 3650SOL    HW222584   3.150   1.467   3.592  0.8584 -1.4220  0.4110
 3651SOL     OW22585   2.304   0.043   6.463 -0.2524  0.4170 -0.0500
 3651SOL    HW122586   2.396   0.058   6.485 -0.1048  1.2539 -1.2112
 3651SOL    HW222587   2.302   0.067   6.370 -1.0016 -0.3525 -0.2268
 3652SOL     OW22588   2.767   3.886   6.176  0.5818 -0.7070 -0.0433
 3652SOL    HW122589   2.705   3.947   6.137  0.2304  0.1950  1.8761
 3652SOL    HW222590   2.813   3.942   6.240 -2.5710 -0.4210  1.9865
 3653SOL     OW22591   4.496   0.891   0.895  0.2388 -0.3402  0.5727
 3653SOL    HW122592   4.473   0.809   0.851 -1.3334  0.8221 -0.7547
 3653SOL    HW222593   4.579   0.868   0.937 -0.5809 -1.0976  1.7784
 3654SOL     OW22594   0.580   2.023   2.842 -0.0255  0.2820  0.3582
 3654SOL    HW122595   0.524   1.960   2.796 -0.5459  1.2987 -0.4211
 3654SOL    HW222596   0.619   2.075   2.772 -3.2382  0.9777 -0.9611
 3655SOL     OW22597   1.567   1.869   2.136  0.7320  0.1578  0.4549
 3655SOL    HW122598   1.484   1.867   2.087 -0.2760 -0.7225  2.2085
 3655SOL    HW222599   1.535   1.835   2.219  1.9831 -1.7310  0.1557
 3656SOL     OW22600   3.593   1.285   3.933  0.8261  0.5023 -0.6863
 3656SOL    HW122601   3.621   1.256   4.020 -1.7038 -1.0629 -0.3807
 3656SOL    HW222602   3.499   1.296   3.947  1.3776  0.2658  3.2252
 3657SOL     OW22603   2.735   0.179   9.178 -0.2141 -0.5847  0.5063
 3657SOL    HW122604   2.669   0.145   9.239 -0.2213  1.9844  1.9260
 3657SOL    HW222605   2.732   0.271   9.206 -0.1012 -0.2218 -0.6639
 3658SOL     OW22606   3.747   0.908  15.130 -0.2582  0.0039 -0.2903
 3658SOL    HW122607   3.791   0.842  15.077 -0.3955 -1.0365  0.8825
 3658SOL    HW222608   3.801   0.986  15.119  0.8902 -0.7629 -0.1201
 3659SOL     OW22609   1.074   4.585   4.035  0.0898  0.0666 -0.4112
 3659SOL    HW122610   1.146   4.642   4.008  2.0531 -1.3064  1.9589
 3659SOL    HW222611   1.105   4.562   4.122 -0.5757 -0.2755 -0.2642
 3660SOL     OW22612   1.976   0.455   8.175  0.1823  0.1583  0.5224
 3660SOL    HW122613   1.953   0.362   8.175  0.2393  0.1714 -2.7478
 3660SOL    HW222614   2.063   0.440   8.138 -0.8923  0.2704 -2.0580
 3661SOL     OW22615   0.158   3.066  11.802 -0.0545  0.3005 -0.2564
 3661SOL    HW122616   0.224   3.127  11.835  0.2063 -0.1836  0.1053
 3661SOL    HW222617   0.090   3.054  11.869 -0.0336  1.0161 -0.1063
 3662SOL     OW22618   0.038   0.845   6.218 -0.3219  0.6848 -0.0233
 3662SOL    HW122619   0.061   0.850   6.125 -2.3279  2.1651 -0.4476
 3662SOL    HW222620   0.076   0.761   6.243 -2.5244 -0.0108  0.9351
 3663SOL     OW22621   0.029   3.956   7.045 -0.6559  0.3500 -0.1231
 3663SOL    HW122622   0.018   3.888   7.112 -0.7413  1.2728  0.7946
 3663SOL    HW222623   4.679   3.998   7.046  0.1764  2.0667  1.1600
 3664SOL     OW22624   2.877   0.528  17.641 -0.3269 -0.2104  0.6533
 3664SOL    HW122625   2.924   0.480  17.573  1.0144 -0.3309  1.6493
 3664SOL    HW222626   2.808   0.568  17.588  0.4742 -0.2052 -0.3780
 3665SOL     OW22627   3.368   0.883   0.847 -0.4226  0.1675 -0.3437
 3665SOL    HW122628   3.275   0.893   0.830 -1.2146 -2.1171  2.6452
 3665SOL    HW222629   3.374   0.837   0.931  0.8150  0.4492 -0.2676
 3666SOL     OW22630   1.950   1.093   8.425 -0.0664  0.8829  0.2029
 3666SOL    HW122631   1.904   1.130   8.501  0.2508 -0.1514  0.8997
 3666SOL    HW222632   1.896   1.018   8.398  1.9437 -0.7036  0.5565
 3667SOL     OW22633   0.433   4.623   3.304  0.3996  0.0761 -0.2553
 3667SOL    HW122634   0.381   4.650   3.379 -0.9039  0.2566 -1.2206
 3667SOL    HW222635   0.507   4.684   3.308 -2.0151  2.8322  1.8481
 3668SOL     OW22636   0.914   0.230   8.065 -0.5743 -0.2516 -0.1068
 3668SOL    HW122637   0.888   0.281   8.142  0.1474  0.5526 -0.3901
 3668SOL    HW222638   0.920   0.295   7.995  2.1069  0.8828  1.1591
 3669SOL     OW22639   1.534   0.417   7.664  0.3676  0.3177 -0.0484
 3669SOL    HW122640   1.546   0.446   7.755 -2.4661  1.2203  0.0269
 3669SOL    HW222641   1.476   0.486   7.632  1.5215  0.5879 -1.5650
 3670SOL     OW22642   3.107   2.843   8.658 -0.4857 -0.2835 -0.2960
 3670SOL    HW122643   3.047   2.848   8.732 -0.0826 -0.5327  0.0500
 3670SOL    HW222644   3.154   2.926   8.662 -1.6074  0.3605 -0.4030
 3671SOL     OW22645   2.488   1.951   8.406 -0.2226  0.0144  0.0193
 3671SOL    HW122646   2.481   2.010   8.481 -2.5796 -1.6218  1.1022
 3671SOL    HW222647   2.418   1.986   8.351  0.4364 -2.3011 -2.3078
 3672SOL     OW22648   2.003   1.250   1.355 -0.5698  0.1170 -0.2036
 3672SOL    HW122649   2.024   1.201   1.434 -0.9115  0.3400  0.0249
 3672SOL    HW222650   2.058   1.327   1.363  1.3169 -1.1697 -0.7836
 3673SOL     OW22651   2.825   0.293   5.293  0.1272 -0.3185  0.5669
 3673SOL    HW122652   2.893   0.292   5.226 -0.9898 -1.1360 -0.5639
 3673SOL    HW222653   2.783   0.378   5.283  1.6496  0.0475 -2.8293
 3674SOL     OW22654   2.379   3.557   2.236  0.1937  0.0164 -0.3231
 3674SOL    HW122655   2.390   3.532   2.144  0.6523 -4.1867  0.8953
 3674SOL    HW222656   2.287   3.534   2.251  0.1043  1.5295  1.4013
 3675SOL     OW22657   0.390   2.684  16.333  0.0470  0.0008 -0.1858
 3675SOL    HW122658   0.402   2.745  16.407  0.5204  0.3315 -0.5308
 3675SOL    HW222659   0.314   2.724  16.291 -0.9342 -1.2504  0.4058
 3676SOL     OW22660   0.269   3.484   7.401  0.3341  0.1870  0.7042
 3676SOL    HW122661   0.302   3.569   7.428 -1.0902  1.5870 -1.9453
 3676SOL    HW222662   0.333   3.452   7.338 -1.8064 -0.2493 -1.2341
 3677SOL     OW22663   0.877   3.017  15.213 -0.3024  0.3130 -0.4735
 3677SOL    HW122664   0.925   2.964  15.149 -1.7891 -0.4409 -0.9629
 3677SOL    HW222665   0.947   3.071  15.249  0.9320 -0.8138 -1.1731
 3678SOL     OW22666   2.230   2.405   7.792  0.1933  0.2547 -0.4195
 3678SOL    HW122667   2.323   2.421   7.808 -0.0552 -0.4274  1.6818
 3678SOL    HW222668   2.217   2.317   7.827  1.6635  0.3162  0.3132
 3679SOL     OW22669   1.732   0.433   5.530 -0.2988  0.5973  0.0598
 3679SOL    HW122670   1.651   0.398   5.567  0.1729  0.2726  0.7887
 3679SOL    HW222671   1.795   0.363   5.550 -2.0603 -1.1576 -0.5152
 3680SOL     OW22672   2.124   3.793   0.859  0.0371 -0.0237  0.5597
 3680SOL    HW122673   2.206   3.750   0.835 -0.7008 -1.2069  0.1624
 3680SOL    HW222674   2.135   3.817   0.952 -0.5124 -0.9335  0.8518
 3681SOL     OW22675   1.203   1.590  12.095  0.3839 -0.8697  0.1649
 3681SOL    HW122676   1.293   1.558  12.090  0.5828 -0.5433  1.7282
 3681SOL    HW222677   1.194   1.580  12.189 -2.0756  1.3309  0.1813
 3682SOL     OW22678   4.665   2.013  10.013 -0.1710 -0.3316 -0.2775
 3682SOL    HW122679   4.615   1.934   9.994  0.5190  0.0592 -3.7793
 3682SOL    HW222680   4.670   2.015  10.109  0.7045 -2.1630 -0.2927
 3683SOL     OW22681   2.604   3.581   5.502  0.0504  0.5137 -0.5397
 3683SOL    HW122682   2.627   3.509   5.443 -0.5971  0.1773 -0.3773
 3683SOL    HW222683   2.677   3.636   5.473  0.0601  0.4528 -0.6328
 3684SOL     OW22684   0.195   1.478   7.775  0.0824  0.2837 -0.2492
 3684SOL    HW122685   0.116   1.470   7.721  1.3357 -0.9093 -1.8730
 3684SOL    HW222686   0.167   1.524   7.855  1.0210  0.2664  0.0876
 3685SOL     OW22687   1.301   4.506   6.256  0.2381  0.0099 -0.2438
 3685SOL    HW122688   1.340   4.522   6.342  3.4126 -1.5094 -1.3874
 3685SOL    HW222689   1.351   4.566   6.201 -0.5706  1.1809  0.2871
 3686SOL     OW22690   0.605   0.755   8.850  0.1917  0.3231 -0.0001
 3686SOL    HW122691   0.518   0.780   8.820  1.0542  1.4537 -1.5567
 3686SOL    HW222692   0.621   0.797   8.935 -0.1797  0.5632 -0.0528
 3687SOL     OW22693   0.111   2.421   3.513 -0.5609  0.2407  0.2983
 3687SOL    HW122694   0.206   2.433   3.503 -0.2525 -2.1705  0.4014
 3687SOL    HW222695   0.084   2.510   3.488 -0.1335  0.4402  0.5438
 3688SOL     OW22696   4.083   1.090   6.835  0.3818  0.3552 -0.7678
 3688SOL    HW122697   4.147   1.145   6.881 -0.7135  1.6111 -0.7685
 3688SOL    HW222698   4.034   1.044   6.903  0.3988 -0.0033 -0.9968
 3689SOL     OW22699   4.418   3.705   0.914 -0.2468 -0.4412  0.5301
 3689SOL    HW122700   4.505   3.684   0.949 -0.4906 -1.0698  0.7730
 3689SOL    HW222701   4.441   3.768   0.846 -2.2595 -0.3646 -0.0826
 3690SOL     OW22702   0.011   2.417   6.435 -0.3433 -0.4151 -0.2019
 3690SOL    HW122703   4.735   2.435   6.342  1.4034  0.0748 -0.3197
 3690SOL    HW222704   4.678   2.352   6.448 -0.9309  0.0251 -1.1393
 3691SOL     OW22705   2.839   0.621   9.880  0.7288  0.1976  0.3553
 3691SOL    HW122706   2.782   0.591   9.809  1.8453 -2.0223  0.3862
 3691SOL    HW222707   2.826   0.561   9.954  1.4281 -1.2928 -0.7310
 3692SOL     OW22708   0.551   3.672   4.856 -0.1385 -0.0649  0.6103
 3692SOL    HW122709   0.612   3.600   4.839  0.5279  0.6664 -0.0838
 3692SOL    HW222710   0.602   3.750   4.836 -2.5141  1.3303  0.0387
 3693SOL     OW22711   2.994   1.620  12.331  0.5707  0.2135 -0.6953
 3693SOL    HW122712   2.916   1.578  12.366 -0.9272  2.1376 -1.7057
 3693SOL    HW222713   3.042   1.636  12.412 -1.0088  1.5790 -0.0412
 3694SOL     OW22714   4.181   1.718   6.414 -0.4498 -0.2410  0.1980
 3694SOL    HW122715   4.219   1.634   6.439  0.1338  0.7518  2.7303
 3694SOL    HW222716   4.202   1.778   6.485  0.0497  1.6742 -1.5685
 3695SOL     OW22717   1.176   4.541   4.544 -0.0359  0.0839  0.3252
 3695SOL    HW122718   1.154   4.460   4.590  0.4239  0.7064  1.6277
 3695SOL    HW222719   1.134   4.606   4.601  0.5617  0.8446 -0.0926
 3696SOL     OW22720   1.164   1.235   4.311 -0.0781  0.1990  0.2083
 3696SOL    HW122721   1.134   1.146   4.327  1.9914 -0.6365 -0.6127
 3696SOL    HW222722   1.247   1.211   4.270 -0.5446  0.2336 -0.7356
 3697SOL     OW22723   0.259   4.468   2.651 -0.1141  0.1477  0.0854
 3697SOL    HW122724   0.313   4.447   2.575  0.0692 -1.6882  0.7226
 3697SOL    HW222725   0.295   4.547   2.690 -0.5599  0.7274 -0.6872
 3698SOL     OW22726   1.512   1.629  11.909 -0.1388 -0.2954  0.1357
 3698SOL    HW122727   1.491   1.579  11.988 -0.9163  0.3039  0.2997
 3698SOL    HW222728   1.442   1.611  11.847  1.1412  2.5474 -2.1499
 3699SOL     OW22729   3.912   1.580   2.833  0.6300  0.4232 -0.4086
 3699SOL    HW122730   3.933   1.622   2.749 -0.1758 -0.5124 -1.0736
 3699SOL    HW222731   4.000   1.567   2.870  0.5695 -1.2433 -0.8368
 3700SOL     OW22732   3.340   2.361   6.428  0.5896 -0.4670  0.4566
 3700SOL    HW122733   3.273   2.402   6.483  0.9504 -0.8018  1.1467
 3700SOL    HW222734   3.280   2.304   6.380  0.9630  0.3897 -1.0489
 3701SOL     OW22735   0.420   0.102   9.541  0.2552 -0.0366  0.1491
 3701SOL    HW122736   0.476   0.170   9.580  0.0824  0.4973 -0.5281
 3701SOL    HW222737   0.413   0.134   9.451 -0.0296 -1.3370 -0.2916
 3702SOL     OW22738   2.583   2.890  15.528 -0.3835 -0.1849 -0.0126
 3702SOL    HW122739   2.561   2.831  15.601  1.1683  1.4512  1.7599
 3702SOL    HW222740   2.647   2.840  15.477  0.6929 -2.5262  3.6227
 3703SOL     OW22741   2.413   0.289  14.578 -0.0742  0.0052  0.1431
 3703SOL    HW122742   2.339   0.320  14.629 -0.2505 -2.2670  1.2474
 3703SOL    HW222743   2.369   0.232  14.515  2.2954  1.0914 -2.5186
 3704SOL     OW22744   2.492   3.016  12.449 -0.0255 -0.3222 -0.1107
 3704SOL    HW122745   2.454   3.078  12.386 -0.3267 -0.5531 -0.1579
 3704SOL    HW222746   2.575   2.994  12.407 -1.4994 -0.9408 -2.7359
 3705SOL     OW22747   2.071   4.446   5.480  0.8590 -0.1610 -1.0512
 3705SOL    HW122748   2.060   4.421   5.388  2.4121 -0.4706 -1.1656
 3705SOL    HW222749   2.026   4.530   5.483 -3.7699 -2.6514  0.0783
 3706SOL     OW22750   2.853   0.433   5.662  0.4003 -1.1007 -0.2742
 3706SOL    HW122751   2.871   0.359   5.721 -0.1582 -0.6476  0.4792
 3706SOL    HW222752   2.938   0.456   5.626 -0.6538  0.7067 -1.6210
 3707SOL     OW22753   3.869   3.372  15.072  0.4331  0.5220 -0.1713
 3707SOL    HW122754   3.944   3.317  15.096 -0.3919  0.4172  2.1809
 3707SOL    HW222755   3.854   3.367  14.978 -1.5352  1.7069  0.0756
 3708SOL     OW22756   4.733   1.008   9.439  0.1176 -0.1991  0.6731
 3708SOL    HW122757   4.726   1.054   9.523  1.3138  0.7154  0.2813
 3708SOL    HW222758   4.642   0.999   9.412  0.5011 -0.3837 -0.5720
 3709SOL     OW22759   0.662   4.578   3.995 -0.0557  0.3180  0.2061
 3709SOL    HW122760   0.656   4.656   4.051  1.5949  0.1035  0.6745
 3709SOL    HW222761   0.576   4.577   3.953  0.6658 -0.9765 -1.2441
 3710SOL     OW22762   3.879   2.811   5.819 -0.9163  0.9516  0.3699
 3710SOL    HW122763   3.904   2.738   5.763  0.1031 -0.3806  2.5445
 3710SOL    HW222764   3.941   2.788   5.889  0.1300 -1.1063 -1.2215
 3711SOL     OW22765   2.637   3.386  14.738  0.0770  0.2469 -0.0905
 3711SOL    HW122766   2.607   3.428  14.658  0.2355  1.7861  0.6452
 3711SOL    HW222767   2.730   3.388  14.716  1.1233  1.4947  4.3315
 3712SOL     OW22768   4.518   1.611   8.292  0.2101 -0.0020  0.5604
 3712SOL    HW122769   4.484   1.528   8.327 -0.6420 -0.7022 -1.8916
 3712SOL    HW222770   4.475   1.615   8.206  0.7906 -1.1246  0.2172
 3713SOL     OW22771   1.699   3.121   6.040  0.7888 -0.2335  0.0813
 3713SOL    HW122772   1.721   3.045   5.986  3.0398  0.1061  0.5395
 3713SOL    HW222773   1.679   3.085   6.126 -2.0375 -0.8497 -0.8247
 3714SOL     OW22774   0.835   3.465  13.351 -0.3036  0.2132 -1.0616
 3714SOL    HW122775   0.775   3.393  13.374  1.8082 -1.4560 -0.7674
 3714SOL    HW222776   0.786   3.542  13.379 -0.3450  0.4983 -1.9088
 3715SOL     OW22777   1.689   2.744  13.249 -0.1926 -0.0531  0.0751
 3715SOL    HW122778   1.771   2.742  13.200 -1.4202  0.5524 -2.0352
 3715SOL    HW222779   1.713   2.793  13.328 -0.6989  0.2546  0.0383
 3716SOL     OW22780   4.624   0.189   2.898  0.4247 -0.2354 -0.3515
 3716SOL    HW122781   4.710   0.231   2.908  0.2733 -0.2769  1.0693
 3716SOL    HW222782   4.572   0.262   2.864  2.4572  1.9141  1.1128
 3717SOL     OW22783   2.938   0.696   8.194  0.0513 -0.3330 -0.1625
 3717SOL    HW122784   2.924   0.749   8.116 -3.4269 -0.3325  0.4707
 3717SOL    HW222785   2.894   0.755   8.254  1.4771  1.5004 -0.9080
 3718SOL     OW22786   3.205   0.846  17.105 -0.2026 -0.2185  0.8349
 3718SOL    HW122787   3.246   0.901  17.038 -0.7385  1.2920  1.7532
 3718SOL    HW222788   3.115   0.879  17.100 -0.3373 -0.4993  1.3697
 3719SOL     OW22789   0.079   1.731   9.745  0.5307 -0.3228  0.1068
 3719SOL    HW122790   0.170   1.701   9.746  0.8523  0.6015 -2.7566
 3719SOL    HW222791   0.090   1.821   9.714 -0.4258  0.4486  2.0385
 3720SOL     OW22792   4.031   2.555  15.255  0.2130  0.3711  0.3671
 3720SOL    HW122793   4.112   2.604  15.271 -0.9241  2.5636 -0.5892
 3720SOL    HW222794   3.981   2.580  15.333 -2.1034  0.8373 -1.2655
 3721SOL     OW22795   0.879   3.427   2.143  0.5098 -0.4562  0.0762
 3721SOL    HW122796   0.808   3.409   2.081 -0.4023 -1.1936  1.3433
 3721SOL    HW222797   0.859   3.519   2.163 -3.0288 -0.6109 -2.8188
 3722SOL     OW22798   4.450   4.249  14.753 -1.1100  0.1034 -0.3131
 3722SOL    HW122799   4.406   4.334  14.762  1.0197  1.4121 -2.2639
 3722SOL    HW222800   4.532   4.276  14.712  0.0276  1.4535  2.8333
 3723SOL     OW22801   1.233   4.295   1.772  0.2312  0.0510 -0.5499
 3723SOL    HW122802   1.269   4.215   1.809  1.1781  1.4441  1.5519
 3723SOL    HW222803   1.141   4.277   1.796  0.7659 -0.5640  1.0777
 3724SOL     OW22804   4.322   0.368   2.537  0.6375  0.2691  0.1527
 3724SOL    HW122805   4.350   0.277   2.523  0.2640  0.2824 -0.7018
 3724SOL    HW222806   4.304   0.403   2.450 -0.3592 -0.4753  0.0551
 3725SOL     OW22807   1.371   3.828   4.595 -0.1017 -0.0885  0.3383
 3725SOL    HW122808   1.464   3.840   4.576  0.3890 -1.7285  1.7378
 3725SOL    HW222809   1.341   3.745   4.557  0.8332 -1.1154  1.8603
 3726SOL     OW22810   4.174   4.120   4.406 -0.5770 -0.3577 -0.2803
 3726SOL    HW122811   4.140   4.202   4.370  0.0554  0.6374  1.3423
 3726SOL    HW222812   4.249   4.156   4.455 -1.1557  0.6100 -0.1026
 3727SOL     OW22813   1.689   4.613   2.846 -0.1784 -0.0436 -0.1523
 3727SOL    HW122814   1.711   4.696   2.804 -0.0859  1.9118  3.7758
 3727SOL    HW222815   1.611   4.637   2.895 -0.7317  1.4742 -1.7687
 3728SOL     OW22816   2.821   0.590   2.762 -0.3439 -0.3410  0.2108
 3728SOL    HW122817   2.887   0.570   2.696 -1.0012 -0.4426 -0.4106
 3728SOL    HW222818   2.829   0.683   2.782 -2.2467 -0.3577  1.0259
 3729SOL     OW22819   1.912   3.245   8.345 -0.1523  0.2062  0.1342
 3729SOL    HW122820   1.942   3.176   8.285 -1.7163 -1.4598  1.2625
 3729SOL    HW222821   1.830   3.209   8.379  1.7969 -0.1578  4.4378
 3730SOL     OW22822   2.628   1.335   8.181 -0.7264 -0.0471 -0.6782
 3730SOL    HW122823   2.715   1.371   8.200 -0.8942 -0.3942  0.7327
 3730SOL    HW222824   2.576   1.400   8.229 -0.6852 -0.0891 -0.5769
 3731SOL     OW22825   4.610   1.690   7.987  0.5080  0.0572 -0.6287
 3731SOL    HW122826   4.545   1.699   7.917  0.4641  0.9138 -0.4696
 3731SOL    HW222827   4.623   1.595   7.990 -0.4215 -0.0927 -1.2198
 3732SOL     OW22828   2.874   2.516   2.783  0.3354  0.3285  0.4948
 3732SOL    HW122829   2.826   2.436   2.759 -0.2452  0.7552  0.2324
 3732SOL    HW222830   2.801   2.577   2.787  0.7180  0.8258 -0.1134
 3733SOL     OW22831   4.565   3.596   9.474 -0.2768 -0.0429 -0.2928
 3733SOL    HW122832   4.475   3.563   9.478 -0.1902 -0.3388 -0.8071
 3733SOL    HW222833   4.612   3.532   9.528 -0.0623  0.2321 -0.1530
 3734SOL     OW22834   0.720   1.513   4.160 -0.3023 -0.6715  0.1122
 3734SOL    HW122835   0.711   1.574   4.087 -0.2108 -0.5498  0.2028
 3734SOL    HW222836   0.752   1.573   4.227  0.4860 -1.5797  0.5519
 3735SOL     OW22837   2.068   2.586   7.983 -0.0299  0.1378  0.1362
 3735SOL    HW122838   2.048   2.672   7.946  0.5533  0.0245 -0.4327
 3735SOL    HW222839   2.089   2.542   7.901  0.8340 -0.4372  0.6716
 3736SOL     OW22840   1.451   1.177   7.634 -0.1768 -0.0254  0.0077
 3736SOL    HW122841   1.457   1.233   7.712 -0.5297  1.1982 -0.8606
 3736SOL    HW222842   1.359   1.190   7.611 -0.4424 -0.1243  1.0095
 3737SOL     OW22843   1.712   2.945   9.567  0.4971  0.1680  1.0020
 3737SOL    HW122844   1.658   2.888   9.512 -0.1793 -0.7064  2.5768
 3737SOL    HW222845   1.658   2.998   9.626  1.7165  1.9792  0.5062
 3738SOL     OW22846   1.863   0.843  14.523 -0.3956 -0.2009  0.2969
 3738SOL    HW122847   1.957   0.861  14.528 -0.0236 -2.0136 -0.3120
 3738SOL    HW222848   1.830   0.928  14.494  2.3067  0.4623 -0.8668
 3739SOL     OW22849   2.056   4.597  10.328  0.1896  0.5531 -0.4636
 3739SOL    HW122850   2.034   4.618  10.419  0.7025 -1.2080  0.0580
 3739SOL    HW222851   2.005   4.648  10.266  1.9657  2.6317 -0.2214
 3740SOL     OW22852   4.276   2.468   6.431 -0.1466  0.4926  0.1841
 3740SOL    HW122853   4.355   2.522   6.422 -1.8965  3.1165  0.3812
 3740SOL    HW222854   4.297   2.426   6.514 -1.1470 -2.2125 -0.9620
 3741SOL     OW22855   2.947   0.424   8.067  0.2014 -0.2667  0.1054
 3741SOL    HW122856   2.935   0.515   8.094  2.0051  0.1844 -0.5726
 3741SOL    HW222857   3.041   0.410   8.078  0.1905 -1.7058 -1.5480
 3742SOL     OW22858   2.270   0.877   4.461  0.2133 -0.4357  0.1936
 3742SOL    HW122859   2.193   0.826   4.436 -0.5333  1.0752 -0.5755
 3742SOL    HW222860   2.321   0.797   4.474  1.5623  0.6819  1.6914
 3743SOL     OW22861   1.235   2.575   5.612  0.6433 -0.0723 -0.1599
 3743SOL    HW122862   1.256   2.668   5.622  1.4078 -0.2004 -0.4894
 3743SOL    HW222863   1.321   2.541   5.587  0.4474 -0.6843 -0.0104
 3744SOL     OW22864   4.646   3.125   1.720 -0.6079 -0.3237  0.4438
 3744SOL    HW122865   4.715   3.071   1.681  0.7739  1.3395  0.5824
 3744SOL    HW222866   4.683   3.213   1.728 -0.2656 -0.4253  0.0224
 3745SOL     OW22867   0.829   2.799   8.214  0.1309  0.1047 -0.2769
 3745SOL    HW122868   0.787   2.826   8.132 -0.0687 -1.7256 -0.7851
 3745SOL    HW222869   0.756   2.797   8.275  0.9539 -1.3794  0.6475
 3746SOL     OW22870   1.706   2.304   7.823 -0.0498  0.5470  0.3418
 3746SOL    HW122871   1.735   2.219   7.858 -1.8744  0.1418  0.8755
 3746SOL    HW222872   1.785   2.337   7.781  0.6769 -0.4724  0.8993
 3747SOL     OW22873   2.023   3.213   2.474 -0.2053 -0.0053 -0.2395
 3747SOL    HW122874   2.018   3.298   2.430 -0.3162 -0.1526 -0.5062
 3747SOL    HW222875   1.960   3.166   2.420 -1.5321  0.4283  0.9505
 3748SOL     OW22876   1.543   0.315   3.032  0.4600  0.3491  0.3425
 3748SOL    HW122877   1.548   0.361   2.948 -1.1027 -1.9073 -0.9849
 3748SOL    HW222878   1.449   0.315   3.050  0.7986  0.5354  2.1266
 3749SOL     OW22879   4.699   3.107   4.337  0.0474  0.1794 -0.6916
 3749SOL    HW122880   4.677   3.015   4.349 -0.7236  0.2826 -1.3459
 3749SOL    HW222881   4.692   3.133   4.429  3.2116 -1.6681  0.0850
 3750SOL     OW22882   4.392   4.174   6.659 -0.4794  0.5148 -0.1357
 3750SOL    HW122883   4.396   4.120   6.580 -0.5388  1.6354 -0.8888
 3750SOL    HW222884   4.428   4.254   6.622 -0.5929  0.0588 -1.2218
 3751SOL     OW22885   4.180   4.556   9.542  0.0242 -0.1507 -0.1223
 3751SOL    HW122886   4.086   4.571   9.540  0.1338  0.7959  1.2893
 3751SOL    HW222887   4.216   4.641   9.569  0.7449 -0.5637  0.2332
 3752SOL     OW22888   3.130   0.349   2.291 -0.3321 -0.0838 -0.0407
 3752SOL    HW122889   3.133   0.255   2.275 -0.8234  0.0953 -1.1774
 3752SOL    HW222890   3.216   0.353   2.333  0.9227  1.2675 -2.7774
 3753SOL     OW22891   2.084   3.648   6.282 -0.1664 -0.1016  0.0817
 3753SOL    HW122892   2.166   3.696   6.273 -0.9678  1.4298  0.9235
 3753SOL    HW222893   2.028   3.723   6.300  0.0298 -0.3713  1.8464
 3754SOL     OW22894   4.657   0.027  13.811 -0.9981  0.3081 -0.1055
 3754SOL    HW122895   4.687   0.073  13.732  1.1060 -0.1628  0.4158
 3754SOL    HW222896   4.687   4.673  13.811 -1.7846  0.0480 -0.3700
 3755SOL     OW22897   4.319   3.505   9.581 -0.2380  0.6690 -1.0030
 3755SOL    HW122898   4.325   3.450   9.659  0.4200  1.4476 -0.5132
 3755SOL    HW222899   4.290   3.594   9.601 -1.0658 -0.1062  1.3088
 3756SOL     OW22900   4.096   0.156   7.409 -0.3420 -0.3417 -0.2009
 3756SOL    HW122901   4.043   0.095   7.357 -0.0254 -2.1702  1.6386
 3756SOL    HW222902   4.023   0.198   7.454  0.6044  1.6584 -0.5264
 3757SOL     OW22903   0.719   2.466   4.379 -0.2406  0.0538 -0.0773
 3757SOL    HW122904   0.770   2.408   4.322  0.2688  0.0948  0.3379
 3757SOL    HW222905   0.740   2.433   4.466 -4.0876 -3.0683 -0.3310
 3758SOL     OW22906   4.079   1.460   4.667  0.0822 -0.4771  0.0273
 3758SOL    HW122907   4.093   1.555   4.660 -0.8167 -0.3304  0.3105
 3758SOL    HW222908   3.986   1.457   4.689  0.2167  1.2485  0.8531
 3759SOL     OW22909   0.432   2.927  16.478 -0.2027 -0.0885  0.3623
 3759SOL    HW122910   0.525   2.949  16.480 -0.6066  1.7475 -1.1793
 3759SOL    HW222911   0.386   3.007  16.503  0.6109  0.3286  0.5142
 3760SOL     OW22912   2.157   1.110   4.126  0.0165 -0.4160 -0.1373
 3760SOL    HW122913   2.185   1.077   4.041  0.6002  1.1548 -0.5645
 3760SOL    HW222914   2.225   1.064   4.175 -1.2412 -1.3093  0.7421
 3761SOL     OW22915   1.978   4.423   7.014 -0.5290 -0.6651 -0.3572
 3761SOL    HW122916   1.998   4.416   6.921 -0.4365  0.5310 -0.4259
 3761SOL    HW222917   1.931   4.341   7.030 -1.8630  0.4393  1.3594
 3762SOL     OW22918   1.519   3.347  12.406 -0.0149 -0.0488 -0.0267
 3762SOL    HW122919   1.547   3.418  12.349 -0.8576 -0.0440 -0.4312
 3762SOL    HW222920   1.434   3.326  12.367  0.1959 -0.7268 -0.1303
 3763SOL     OW22921   3.500   1.276   8.630  0.2188  0.6470  0.8425
 3763SOL    HW122922   3.452   1.319   8.701 -1.4193 -0.3192  0.3131
 3763SOL    HW222923   3.490   1.184   8.653 -3.2107  0.8371  0.1925
 3764SOL     OW22924   4.383   3.911   6.029 -0.1465 -0.5111 -0.3950
 3764SOL    HW122925   4.356   3.838   6.085  0.0588  0.1072  0.5165
 3764SOL    HW222926   4.307   3.914   5.971 -1.4993 -3.1815  1.2158
 3765SOL     OW22927   2.303   2.919  11.733  0.4978 -0.1717 -0.0645
 3765SOL    HW122928   2.226   2.936  11.786 -0.3159  0.0373 -1.3167
 3765SOL    HW222929   2.274   2.901  11.644 -0.5706 -3.4668  0.9377
 3766SOL     OW22930   1.329   0.104  15.509 -0.7214  0.5625 -0.2447
 3766SOL    HW122931   1.353   0.012  15.499 -1.0680  0.4236  0.2521
 3766SOL    HW222932   1.411   0.145  15.480 -0.4053 -0.0834 -0.2673
 3767SOL     OW22933   1.946   1.037   1.162  0.5175 -0.2353  0.4459
 3767SOL    HW122934   1.899   1.064   1.083  4.3772  2.9578 -0.7863
 3767SOL    HW222935   1.980   1.119   1.198  0.2933  0.1791 -0.2732
 3768SOL     OW22936   2.199   4.555   4.102 -0.5302  0.5539 -0.2629
 3768SOL    HW122937   2.133   4.492   4.072 -0.8696  1.3668 -1.2447
 3768SOL    HW222938   2.268   4.491   4.118 -1.6484 -1.0008 -1.6802
 3769SOL     OW22939   1.718   1.709   8.369 -0.4244  0.4222  0.2783
 3769SOL    HW122940   1.758   1.792   8.394  1.5862  0.2099 -2.2613
 3769SOL    HW222941   1.637   1.739   8.328 -0.7697  1.5629  1.8015
 3770SOL     OW22942   4.353   1.854  16.815 -0.0668 -0.1349  0.6014
 3770SOL    HW122943   4.368   1.937  16.861 -2.9482  0.4006  0.5585
 3770SOL    HW222944   4.429   1.809  16.851  1.8176  1.3497 -1.5328
 3771SOL     OW22945   0.687   4.668  10.096  0.2746 -0.1702  0.1168
 3771SOL    HW122946   0.620   4.615  10.140 -0.0079  0.0662 -0.0307
 3771SOL    HW222947   0.760   4.607  10.091  0.3716  0.0317 -1.0332
 3772SOL     OW22948   2.532   1.748   2.865  0.0199 -0.7322  0.2171
 3772SOL    HW122949   2.483   1.670   2.892  2.0833 -1.7647  0.9951
 3772SOL    HW222950   2.620   1.712   2.852  0.6362  0.9642 -0.3515
 3773SOL     OW22951   4.647   2.447  12.349  0.1188  0.1498  0.2071
 3773SOL    HW122952   4.690   2.401  12.421 -0.7796  0.5791  1.0222
 3773SOL    HW222953   4.558   2.418  12.367  1.6995 -2.9700  3.2499
 3774SOL     OW22954   1.589   0.554   8.572 -0.0725 -0.6155 -0.5821
 3774SOL    HW122955   1.648   0.560   8.497 -1.2044  2.7300 -1.2354
 3774SOL    HW222956   1.636   0.558   8.655  1.9591 -1.0613 -1.7166
 3775SOL     OW22957   4.169   3.108   9.496  0.3393 -0.8912 -0.0221
 3775SOL    HW122958   4.264   3.117   9.484  0.4939 -0.9328  1.1588
 3775SOL    HW222959   4.154   3.110   9.591 -1.4555  2.3143 -0.3967
 3776SOL     OW22960   0.278   0.982   4.838 -0.2270  0.1330 -0.4237
 3776SOL    HW122961   0.237   0.900   4.810 -0.7697 -0.2465  1.5034
 3776SOL    HW222962   0.314   1.015   4.755 -0.8006  0.0342 -0.7133
 3777SOL     OW22963   3.743   2.254   2.324 -0.2213  0.0912 -0.2978
 3777SOL    HW122964   3.695   2.302   2.256 -1.4853  1.3827  1.5065
 3777SOL    HW222965   3.815   2.315   2.341 -1.7850  1.9282 -0.1492
 3778SOL     OW22966   3.229   1.854  14.550  0.3444  0.0747  0.5643
 3778SOL    HW122967   3.247   1.817  14.464  0.9714  0.0866  0.6965
 3778SOL    HW222968   3.224   1.775  14.603  1.7895 -1.3486 -1.4513
 3779SOL     OW22969   2.354   0.031   5.351  0.1605 -1.0334  0.0309
 3779SOL    HW122970   2.443   0.057   5.373 -0.0968 -1.1357  1.1921
 3779SOL    HW222971   2.318   0.107   5.305  1.5570 -0.5414 -0.2298
 3780SOL     OW22972   0.506   3.616   2.967 -0.3237 -0.0421 -0.0692
 3780SOL    HW122973   0.485   3.552   3.034 -0.3456  0.6395  0.5787
 3780SOL    HW222974   0.467   3.573   2.891 -0.5606  0.5389 -0.2789
 3781SOL     OW22975   0.833   3.838   6.442 -0.0335  0.3766 -0.8951
 3781SOL    HW122976   0.900   3.894   6.480  1.1496  0.2533 -2.7781
 3781SOL    HW222977   0.894   3.794   6.382  0.7846  2.0289 -1.2834
 3782SOL     OW22978   4.125   2.085  11.848  0.3431  0.2028  0.4623
 3782SOL    HW122979   4.180   2.154  11.811  2.7922 -1.4600  0.9921
 3782SOL    HW222980   4.188   2.043  11.907 -0.2401 -1.1646  0.1003
 3783SOL     OW22981   2.337   3.738  11.097  0.3960  0.3977  0.3215
 3783SOL    HW122982   2.388   3.657  11.092 -2.6900 -1.4781 -0.5571
 3783SOL    HW222983   2.278   3.725  11.023  0.2916  0.2286  0.4314
 3784SOL     OW22984   3.830   1.773   1.576  0.3911  0.7218 -0.2798
 3784SOL    HW122985   3.816   1.796   1.484 -2.9071  0.2116  0.1103
 3784SOL    HW222986   3.763   1.708   1.597  0.5573  0.0779 -1.7374
 3785SOL     OW22987   0.235   0.044   3.410  0.4718  0.0775 -0.2281
 3785SOL    HW122988   0.261   0.077   3.324 -2.8016  1.4848 -0.6670
 3785SOL    HW222989   0.193   0.119   3.451  0.0912  0.4226 -1.2326
 3786SOL     OW22990   2.549   2.340   9.405  0.4265  0.5178  0.3684
 3786SOL    HW122991   2.532   2.279   9.477 -1.4856 -0.0763 -0.5694
 3786SOL    HW222992   2.643   2.350   9.418  0.9571 -1.4382 -1.9680
 3787SOL     OW22993   0.116   0.279   9.157 -0.6347 -0.1363  0.1631
 3787SOL    HW122994   0.080   0.327   9.082  0.7857  0.8405  0.1272
 3787SOL    HW222995   0.036   0.262   9.207  0.4119 -0.4593  1.7134
 3788SOL     OW22996   1.348   4.699  10.721  0.3393 -0.0426 -0.1342
 3788SOL    HW122997   1.300   4.656  10.651  0.0092 -1.8949  1.2201
 3788SOL    HW222998   1.409   4.628  10.743 -0.1462 -0.5575 -0.4497
 3789SOL     OW22999   3.451   3.199   3.477 -0.0519 -0.1873 -0.0946
 3789SOL    HW123000   3.492   3.186   3.562  0.1233 -1.6728 -0.4024
 3789SOL    HW223001   3.407   3.114   3.470 -1.7025  0.6144  0.6186
 3790SOL     OW23002   1.455   2.865   0.735  0.7448 -0.1322  0.6464
 3790SOL    HW123003   1.368   2.888   0.703  0.7837  0.6726  1.1413
 3790SOL    HW223004   1.452   2.867   0.830 -0.5726 -2.2323  0.6566
 3791SOL     OW23005   2.083   1.209   7.979 -0.0081 -0.3120 -0.4642
 3791SOL    HW123006   2.095   1.115   7.969 -0.3957 -0.5498  1.2909
 3791SOL    HW223007   2.095   1.215   8.074 -0.3703 -0.7162 -0.3945
 3792SOL     OW23008   3.937   2.606   8.067  0.0907  0.1312 -0.2465
 3792SOL    HW123009   4.014   2.614   8.123  0.5458  0.7898 -0.9647
 3792SOL    HW223010   3.889   2.540   8.116  0.1510  0.5963  0.4389
 3793SOL     OW23011   4.352   1.092  11.622 -0.0379  0.1987 -0.4752
 3793SOL    HW123012   4.261   1.062  11.620  0.6827 -2.0517  0.6309
 3793SOL    HW223013   4.343   1.165  11.683 -0.2949 -1.0969  1.0252
 3794SOL     OW23014   3.972   4.280   1.363  0.1678 -0.1919  0.4578
 3794SOL    HW123015   3.981   4.368   1.326 -0.6294 -1.0019 -1.6580
 3794SOL    HW223016   3.881   4.280   1.395 -0.1117  0.8828 -0.3390
 3795SOL     OW23017   1.963   1.366   0.519 -0.4503  0.4920 -0.9192
 3795SOL    HW123018   2.020   1.418   0.463  0.0688 -0.5798 -1.3733
 3795SOL    HW223019   1.888   1.427   0.524 -1.7903 -1.1460 -1.0697
 3796SOL     OW23020   1.543   2.153  13.316  0.1364 -0.1015  0.1156
 3796SOL    HW123021   1.508   2.101  13.389 -0.8844 -0.5622 -0.6926
 3796SOL    HW223022   1.632   2.117  13.316  0.6130  1.0866  1.0408
 3797SOL     OW23023   4.013   3.957   2.662 -0.8766  0.2237  0.0514
 3797SOL    HW123024   3.950   4.029   2.672 -0.5156  0.3318  1.5819
 3797SOL    HW223025   3.958   3.913   2.598  0.4751 -0.0426 -0.9208
 3798SOL     OW23026   3.998   3.661   4.262  0.1057  0.6080 -0.7737
 3798SOL    HW123027   4.038   3.746   4.281  1.6430 -0.2155 -0.3045
 3798SOL    HW223028   3.903   3.673   4.267  0.1104  0.1055  0.4419
 3799SOL     OW23029   0.585   4.219   3.754  0.9011  0.7482  0.6546
 3799SOL    HW123030   0.632   4.150   3.708  2.0612  2.0360 -0.0700
 3799SOL    HW223031   0.621   4.194   3.840 -0.9628  0.2748  1.3140
 3800SOL     OW23032   2.260   0.428  10.661  0.4566 -0.3492  0.2751
 3800SOL    HW123033   2.209   0.494  10.707 -0.4909  0.8425 -2.5301
 3800SOL    HW223034   2.349   0.461  10.673  0.3565  0.0261 -0.0294
 3801SOL     OW23035   0.962   2.782  17.430  0.3720  0.2313 -0.5975
 3801SOL    HW123036   1.045   2.769  17.382 -0.3727  0.2199 -1.8791
 3801SOL    HW223037   0.902   2.718  17.392  0.9779  0.9446 -2.7706
 3802SOL     OW23038   1.582   2.807  14.826 -0.7058 -0.3609  0.4532
 3802SOL    HW123039   1.518   2.741  14.853 -0.5327 -0.4999  0.5245
 3802SOL    HW223040   1.648   2.758  14.776 -1.2773  0.4884 -1.1455
 3803SOL     OW23041   1.309   1.485   0.725 -0.5404  0.3024  0.9024
 3803SOL    HW123042   1.217   1.459   0.722 -0.2550 -0.6697  0.6422
 3803SOL    HW223043   1.339   1.410   0.673  0.9609  0.8638  0.9582
 3804SOL     OW23044   1.132   1.105  17.648 -0.3285  0.0203  1.0253
 3804SOL    HW123045   1.111   1.171  17.714  1.8681 -0.0691  1.8258
 3804SOL    HW223046   1.180   1.163  17.589  1.2888 -1.7147  0.6496
 3805SOL     OW23047   4.535   1.245  15.821 -0.1321  0.2662  0.3511
 3805SOL    HW123048   4.458   1.299  15.801  0.1704  0.0503 -1.4141
 3805SOL    HW223049   4.540   1.200  15.737 -0.2570 -0.3392  0.6751
 3806SOL     OW23050   0.779   0.655   9.149 -0.2305 -0.2565 -0.4487
 3806SOL    HW123051   0.823   0.635   9.231 -0.7803 -1.4722 -0.4504
 3806SOL    HW223052   0.727   0.576   9.133 -0.2668 -0.3166 -0.0474
 3807SOL     OW23053   3.185   3.475  15.410 -0.1460 -0.3096 -0.6807
 3807SOL    HW123054   3.100   3.512  15.384 -0.9328 -0.9294  1.0359
 3807SOL    HW223055   3.169   3.395  15.460  1.2185 -0.0287  0.2073
 3808SOL     OW23056   2.885   0.485   2.158  0.1875 -0.2142  0.2572
 3808SOL    HW123057   2.833   0.408   2.181 -0.4290  0.0991 -0.1077
 3808SOL    HW223058   2.968   0.447   2.188  0.7511  1.1030  0.3324
 3809SOL     OW23059   1.032   3.202   2.746  0.4493 -0.4765  0.0061
 3809SOL    HW123060   1.105   3.192   2.685  1.0869  1.5113  0.4205
 3809SOL    HW223061   1.020   3.115   2.784 -1.2128 -0.0883  0.3776
 3810SOL     OW23062   2.523   1.589  16.940  0.1732 -0.3085 -0.4341
 3810SOL    HW123063   2.571   1.551  16.866 -1.1428 -0.5758 -1.1481
 3810SOL    HW223064   2.436   1.597  16.901 -0.2231 -1.3936  0.2461
 3811SOL     OW23065   1.917   4.167   7.082 -0.4242  0.3101  0.2328
 3811SOL    HW123066   1.924   4.116   7.162 -0.9916 -1.7713 -1.0501
 3811SOL    HW223067   1.866   4.101   7.035 -2.0296  2.2968 -0.8137
 3812SOL     OW23068   0.169   4.615   8.384 -0.1194 -0.1703 -0.3277
 3812SOL    HW123069   0.255   4.636   8.420 -1.1992  0.7341  1.7329
 3812SOL    HW223070   0.135   4.704   8.379 -1.2772 -0.6393 -0.8442
 3813SOL     OW23071   0.264   4.158   5.302  0.3474  0.4568 -0.1226
 3813SOL    HW123072   0.232   4.233   5.353  1.8025  0.1621  1.1987
 3813SOL    HW223073   0.282   4.099   5.375 -1.6409 -0.3636 -0.2738
 3814SOL     OW23074   0.437   3.417   3.150  0.0243 -0.2328 -0.9111
 3814SOL    HW123075   0.437   3.353   3.221  1.3529  1.6819  0.8063
 3814SOL    HW223076   0.461   3.361   3.075  0.8817 -1.3038  0.1669
 3815SOL     OW23077   1.507   3.887   9.440  0.1195 -0.1085 -0.6478
 3815SOL    HW123078   1.466   3.943   9.507 -1.1243 -0.1088 -1.4185
 3815SOL    HW223079   1.588   3.933   9.417  0.7452 -2.3221 -2.7254
 3816SOL     OW23080   2.229   4.440   5.835 -0.7597 -0.3592  0.7701
 3816SOL    HW123081   2.156   4.380   5.818 -0.6446 -0.7235  1.5844
 3816SOL    HW223082   2.188   4.527   5.836 -0.5719 -0.2397 -1.2884
 3817SOL     OW23083   3.072   0.451  15.384 -0.0738  0.9258 -0.2098
 3817SOL    HW123084   3.100   0.365  15.353 -0.8113  0.7201 -0.3036
 3817SOL    HW223085   3.003   0.423  15.443  1.1892 -1.7347  0.0215
 3818SOL     OW23086   2.994   1.205   0.503 -0.5863 -0.2857  0.0562
 3818SOL    HW123087   3.023   1.273   0.442  0.0660 -1.0694 -0.5107
 3818SOL    HW223088   3.048   1.132   0.473  0.8324  0.2441  1.3041
 3819SOL     OW23089   2.152   1.732   7.150 -0.4021 -0.1081  0.5120
 3819SOL    HW123090   2.114   1.820   7.155 -0.4293 -0.2928  3.6199
 3819SOL    HW223091   2.181   1.727   7.241 -0.0233  0.9391  0.4439
 3820SOL     OW23092   3.585   0.927   1.183 -0.8703  0.3870 -0.1914
 3820SOL    HW123093   3.582   0.843   1.137  0.7290  0.5012 -0.4865
 3820SOL    HW223094   3.493   0.953   1.188 -0.4736  1.6424  0.4861
 3821SOL     OW23095   4.286   2.780   4.767 -0.0751  0.3783 -0.6857
 3821SOL    HW123096   4.341   2.731   4.706 -0.4869 -0.2961 -0.5261
 3821SOL    HW223097   4.328   2.745   4.846 -0.8197 -0.8098 -0.8020
 3822SOL     OW23098   1.860   3.746   5.474  0.2852 -0.0422  0.3791
 3822SOL    HW123099   1.817   3.660   5.472 -0.8305  0.5611 -1.4766
 3822SOL    HW223100   1.919   3.745   5.549  0.7358  1.2525  0.0408
 3823SOL     OW23101   4.047   3.175  15.760  0.0021 -0.2787 -0.1685
 3823SOL    HW123102   4.011   3.225  15.687 -0.7804  0.2139  0.5573
 3823SOL    HW223103   4.054   3.088  15.721  2.1581  0.1646 -0.7811
 3824SOL     OW23104   0.753   0.751   8.627  0.2517 -1.0468 -0.4334
 3824SOL    HW123105   0.688   0.734   8.695 -0.8259 -1.2101 -1.5135
 3824SOL    HW223106   0.717   0.838   8.608  0.4790 -0.5664  1.2823
 3825SOL     OW23107   2.584   1.970   7.623  0.2007 -0.3808  0.1586
 3825SOL    HW123108   2.516   1.973   7.690  1.4809  0.2667  1.4235
 3825SOL    HW223109   2.571   2.061   7.598  2.8681 -0.0127  0.0892
 3826SOL     OW23110   0.819   2.289  13.932 -0.4819  0.0714 -0.0960
 3826SOL    HW123111   0.896   2.235  13.916  0.5835  1.5470  0.0487
 3826SOL    HW223112   0.756   2.277  13.861 -0.4190  1.2702 -0.3500
 3827SOL     OW23113   0.562   1.923   8.276 -0.2659  0.2861  0.1258
 3827SOL    HW123114   0.498   1.989   8.303 -0.0023  0.8343 -0.5843
 3827SOL    HW223115   0.632   1.934   8.340  0.6443  1.5405 -1.0790
 3828SOL     OW23116   3.113   4.159   2.405  0.1920  0.1274 -0.3547
 3828SOL    HW123117   3.173   4.204   2.464 -0.9246  2.6243 -1.1478
 3828SOL    HW223118   3.033   4.141   2.454  0.5612 -0.6848 -0.0452
 3829SOL     OW23119   4.040   2.807   6.879 -0.2160 -0.4375 -0.0535
 3829SOL    HW123120   4.075   2.839   6.962  2.4486 -2.5201 -0.3531
 3829SOL    HW223121   4.007   2.891   6.848  0.8113  0.0299  0.1246
 3830SOL     OW23122   1.158   0.333   8.653 -0.2215 -0.2840 -0.0604
 3830SOL    HW123123   1.201   0.249   8.644 -1.8807 -1.2647  1.1066
 3830SOL    HW223124   1.180   0.365   8.740 -0.7999 -0.9497  0.3290
 3831SOL     OW23125   1.315   2.339   6.371  0.3328  0.3092  0.0344
 3831SOL    HW123126   1.244   2.386   6.327  1.6214 -0.7641 -3.1798
 3831SOL    HW223127   1.308   2.363   6.464 -1.1608 -1.7351  0.4412
 3832SOL     OW23128   2.154   0.921  10.712 -0.6401 -0.3273 -0.5679
 3832SOL    HW123129   2.242   0.882  10.715 -0.7225 -0.5641 -1.1838
 3832SOL    HW223130   2.169   0.988  10.779 -1.0550  0.1295 -0.9367
 3833SOL     OW23131   4.724   2.358  13.975  0.0969  0.0557  0.4672
 3833SOL    HW123132   0.006   2.274  13.933  1.5616  0.4241  0.3728
 3833SOL    HW223133   0.023   2.331  14.059 -0.1924 -0.6683  0.3521
 3834SOL     OW23134   4.146   2.051  13.273  0.4245  0.4627  0.3874
 3834SOL    HW123135   4.183   2.114  13.335  1.0124 -0.0254  0.5349
 3834SOL    HW223136   4.199   1.973  13.289 -2.0863 -0.9487  1.6991
 3835SOL     OW23137   2.762   1.124   6.315 -0.0389 -0.1586 -0.2797
 3835SOL    HW123138   2.806   1.159   6.237  0.3556  1.5967  0.7269
 3835SOL    HW223139   2.689   1.185   6.323 -0.2475 -0.2595 -1.4029
 3836SOL     OW23140   3.692   4.609   8.518  0.4918  0.2906 -0.0898
 3836SOL    HW123141   3.745   4.530   8.507 -0.4843 -0.2669 -0.7284
 3836SOL    HW223142   3.650   4.582   8.599  0.8739  2.4884  0.8459
 3837SOL     OW23143   4.153   1.582   4.209 -0.5551  0.0707  0.7453
 3837SOL    HW123144   4.070   1.541   4.184  0.4011 -0.4356 -1.5806
 3837SOL    HW223145   4.183   1.621   4.127 -2.1185  0.6873  0.4574
 3838SOL     OW23146   2.481   3.918   1.284 -0.3245 -0.6080  0.2874
 3838SOL    HW123147   2.536   3.924   1.362 -0.1071  2.7983 -0.1552
 3838SOL    HW223148   2.505   3.998   1.238 -1.6426 -0.6966 -0.5515
 3839SOL     OW23149   3.109   4.030   1.859  0.1517  0.0812  0.7058
 3839SOL    HW123150   3.107   4.023   1.955  0.9039  1.9091  0.8362
 3839SOL    HW223151   3.190   3.987   1.833 -0.4683 -0.5806 -0.1342
 3840SOL     OW23152   1.435   4.405   5.607  0.5456  0.5198 -0.5096
 3840SOL    HW123153   1.376   4.356   5.548  0.7828 -1.8690  1.2255
 3840SOL    HW223154   1.492   4.332   5.633  1.3446  1.0933 -0.6702
 3841SOL     OW23155   0.703   0.363  14.387  0.0092  0.6798 -0.0669
 3841SOL    HW123156   0.794   0.351  14.360 -0.4032  1.6324 -1.9122
 3841SOL    HW223157   0.715   0.434  14.450 -0.4656  0.2834  0.4622
 3842SOL     OW23158   0.457   4.089  11.806 -0.2582  0.5887  0.1069
 3842SOL    HW123159   0.383   4.063  11.860 -0.3347 -2.5810 -1.4644
 3842SOL    HW223160   0.463   4.184  11.808  0.0026  0.6283 -2.4025
 3843SOL     OW23161   0.865   2.377   3.237  0.7615 -0.8776  0.2786
 3843SOL    HW123162   0.953   2.410   3.219  0.3434  0.7425  1.2041
 3843SOL    HW223163   0.865   2.338   3.149 -3.4819 -0.5347  0.1077
 3844SOL     OW23164   0.820   1.011   3.441 -0.1606 -0.7528 -0.2906
 3844SOL    HW123165   0.796   1.102   3.455  1.4909 -0.5388  1.1696
 3844SOL    HW223166   0.760   0.981   3.372  0.1816  1.1898 -1.4383
 3845SOL     OW23167   1.604   3.097   6.314 -0.4160  0.7808  0.8055
 3845SOL    HW123168   1.663   3.139   6.376  0.9855 -0.6887  0.4843
 3845SOL    HW223169   1.536   3.070   6.376  0.2123 -0.4847  0.9415
 3846SOL     OW23170   1.688   3.791   1.023 -0.2462  0.1054 -0.0705
 3846SOL    HW123171   1.735   3.754   1.098 -0.9714 -0.1840  0.2378
 3846SOL    HW223172   1.738   3.872   1.010 -2.4703  0.7996 -4.3435
 3847SOL     OW23173   0.794   3.266  17.148 -0.3556  0.3017 -0.6427
 3847SOL    HW123174   0.734   3.324  17.194  1.3552  0.4662  1.3530
 3847SOL    HW223175   0.731   3.233  17.084 -1.1882 -0.5906  0.6563
 3848SOL     OW23176   2.132   1.647   4.136 -0.3565 -0.0320  0.3737
 3848SOL    HW123177   2.091   1.561   4.129  1.3003 -0.6568 -1.6725
 3848SOL    HW223178   2.174   1.659   4.051 -1.6719 -0.5467 -0.3438
 3849SOL     OW23179   4.472   2.276  12.496  0.5540  0.2188 -0.4551
 3849SOL    HW123180   4.562   2.245  12.493  1.0314  1.4146  2.1815
 3849SOL    HW223181   4.483   2.333  12.572 -3.5716  2.1261 -1.2685
 3850SOL     OW23182   1.398   0.057   8.117 -0.0066  0.0844  0.0745
 3850SOL    HW123183   1.462   4.725   8.135 -1.2612 -1.1851 -0.2126
 3850SOL    HW223184   1.430   0.136   8.160 -0.1898  1.1746 -1.7679
 3851SOL     OW23185   2.202   0.112   8.370  0.3054 -0.1257  0.0456
 3851SOL    HW123186   2.201   0.017   8.358 -1.0222 -0.1362  0.2171
 3851SOL    HW223187   2.294   0.130   8.388  0.8423 -0.2065 -2.5655
 3852SOL     OW23188   2.687   1.579   8.491 -0.1199 -0.0394  0.1917
 3852SOL    HW123189   2.714   1.652   8.435 -0.7243 -0.5927 -0.8248
 3852SOL    HW223190   2.594   1.558   8.479 -0.6002  1.5813  1.1609
 3853SOL     OW23191   1.384   3.648  11.297 -0.3229 -0.2601 -0.2249
 3853SOL    HW123192   1.394   3.553  11.289  1.9920  0.1703 -2.6943
 3853SOL    HW223193   1.460   3.677  11.246  1.1323 -1.4564  1.2709
 3854SOL     OW23194   4.645   1.314  10.721 -0.0467  0.5205  0.4341
 3854SOL    HW123195   4.566   1.343  10.767 -0.7832  1.1311 -1.2209
 3854SOL    HW223196   4.593   1.288  10.645  1.2140  0.5827 -0.4620
 3855SOL     OW23197   2.439   0.578   2.343  0.4291 -0.2113  0.0713
 3855SOL    HW123198   2.361   0.629   2.366 -0.8401 -1.3699 -1.6098
 3855SOL    HW223199   2.403   0.499   2.384 -0.1606  0.1633  0.2752
 3856SOL     OW23200   1.862   1.662   3.146  0.2478 -0.3938 -0.2728
 3856SOL    HW123201   1.811   1.600   3.094  1.3921 -1.4481 -0.1394
 3856SOL    HW223202   1.943   1.615   3.168  0.8043 -0.2767 -2.0829
 3857SOL     OW23203   4.037   1.796   2.359  0.1818  0.2427 -0.0320
 3857SOL    HW123204   4.067   1.796   2.269  1.2920  1.6764  0.3396
 3857SOL    HW223205   3.959   1.850   2.349  1.4286  1.7832 -1.3509
 3858SOL     OW23206   1.073   3.851   5.928  0.5725 -0.1737  0.2780
 3858SOL    HW123207   1.146   3.912   5.920 -0.8723  1.3248 -1.5553
 3858SOL    HW223208   1.031   3.876   5.845  0.4734  0.3835  0.4954
 3859SOL     OW23209   1.253   1.047   3.104  0.6403  0.5987 -0.2105
 3859SOL    HW123210   1.291   1.022   3.188 -2.1721 -4.6676 -0.5022
 3859SOL    HW223211   1.191   1.111   3.139  1.9105  1.9214 -0.3818
 3860SOL     OW23212   2.060   1.286   8.284  0.1091  0.3435 -0.3762
 3860SOL    HW123213   2.001   1.215   8.310 -1.2498  1.4779 -0.3664
 3860SOL    HW223214   1.996   1.357   8.294 -0.5994 -0.1369 -1.4886
 3861SOL     OW23215   2.972   2.850   4.947  0.4059 -0.1367 -0.1197
 3861SOL    HW123216   2.980   2.875   4.855  0.1200  2.0443  0.4413
 3861SOL    HW223217   2.924   2.767   4.944 -1.7643  1.1160 -0.1310
 3862SOL     OW23218   2.046   3.281  11.947 -0.6003  0.2961 -0.5360
 3862SOL    HW123219   2.081   3.330  12.022 -1.2568  1.0667 -0.7287
 3862SOL    HW223220   2.036   3.344  11.876  0.7670 -0.6583 -1.5699
 3863SOL     OW23221   1.664   1.799  17.415 -0.3190  0.0320 -0.6759
 3863SOL    HW123222   1.693   1.872  17.360 -1.1588  1.9855  1.4806
 3863SOL    HW223223   1.649   1.723  17.359 -1.5120 -2.2235  2.7611
 3864SOL     OW23224   3.605   3.713  10.740 -0.2025  0.4156 -0.6516
 3864SOL    HW123225   3.551   3.634  10.732 -2.0213  1.2011  4.1817
 3864SOL    HW223226   3.612   3.708  10.835 -0.2169  1.7637 -0.5838
 3865SOL     OW23227   1.029   4.091   4.448  0.8842  0.0912 -0.0890
 3865SOL    HW123228   0.977   4.073   4.527 -3.0702  2.5372 -2.1277
 3865SOL    HW223229   1.015   4.010   4.400 -1.4433  1.3887 -1.5955
 3866SOL     OW23230   2.664   2.829   4.705 -0.2680 -0.3711  0.0351
 3866SOL    HW123231   2.693   2.780   4.628 -0.5095 -1.0399  0.3648
 3866SOL    HW223232   2.744   2.878   4.723 -0.4865 -0.3433  0.9559
 3867SOL     OW23233   2.423   4.719   8.740  0.0444  0.6567 -0.0469
 3867SOL    HW123234   2.440   4.699   8.648  1.7402 -0.4088  0.4999
 3867SOL    HW223235   2.340   4.672   8.749  0.0009  0.9744  1.1222
 3868SOL     OW23236   2.621   1.853  16.238 -0.2450  0.3771  0.3873
 3868SOL    HW123237   2.621   1.862  16.333  2.6577  1.0321  0.3208
 3868SOL    HW223238   2.542   1.899  16.209  0.6721  2.0646  0.5633
 3869SOL     OW23239   2.154   4.552  16.426  0.1153 -0.1161 -0.4074
 3869SOL    HW123240   2.213   4.627  16.439 -0.5948  0.6320 -1.4532
 3869SOL    HW223241   2.086   4.580  16.364 -1.1406  1.1392  1.5366
 3870SOL     OW23242   2.818   2.972  12.951  0.1984  0.2510  0.0387
 3870SOL    HW123243   2.848   2.899  12.896  0.2628  2.3342 -2.7057
 3870SOL    HW223244   2.884   3.036  12.923 -0.5106  1.0821  0.2802
 3871SOL     OW23245   0.370   2.951   7.448 -0.9141  0.0280 -0.0637
 3871SOL    HW123246   0.393   2.999   7.369 -0.4560  0.5434  0.3868
 3871SOL    HW223247   0.276   2.971   7.457 -1.3785 -2.9417  1.7119
 3872SOL     OW23248   2.540   0.287   0.262  0.0481 -0.0622  0.4128
 3872SOL    HW123249   2.477   0.321   0.198  0.1090 -1.4750 -0.4035
 3872SOL    HW223250   2.486   0.244   0.328  0.3257  1.4702  1.6448
 3873SOL     OW23251   2.894   3.692   8.689 -0.2639 -0.5673 -0.4482
 3873SOL    HW123252   2.894   3.602   8.719  0.0379 -1.0396 -1.8437
 3873SOL    HW223253   2.827   3.699   8.621  0.3133 -2.1650 -1.1743
 3874SOL     OW23254   4.153   1.421   5.434  0.2340  0.1846  0.2279
 3874SOL    HW123255   4.241   1.442   5.402 -0.2399  0.8291 -0.6139
 3874SOL    HW223256   4.154   1.455   5.524 -1.2197 -0.8246  0.6291
 3875SOL     OW23257   2.252   3.712  17.531 -0.0382 -0.1134  0.0078
 3875SOL    HW123258   2.272   3.794  17.486  2.0682 -0.1410  0.9042
 3875SOL    HW223259   2.213   3.663  17.459  0.2992  0.3663 -0.4947
 3876SOL     OW23260   1.617   1.982  15.091  0.0812  0.1563 -0.0985
 3876SOL    HW123261   1.679   2.052  15.111  2.3257 -2.0745  0.6948
 3876SOL    HW223262   1.542   1.989  15.150 -1.3645 -0.7240 -1.8151
 3877SOL     OW23263   1.995   2.646  10.310  0.3122 -0.3560 -0.2178
 3877SOL    HW123264   2.037   2.726  10.340  1.0291 -1.5059  1.8095
 3877SOL    HW223265   1.909   2.682  10.287  0.3961  0.3422  0.5511
 3878SOL     OW23266   2.257   0.149  11.770  0.5469 -0.3868  0.1044
 3878SOL    HW123267   2.341   0.195  11.763  0.8753 -1.3970 -2.4396
 3878SOL    HW223268   2.251   0.128  11.863 -0.1725 -2.6318 -0.4429
 3879SOL     OW23269   1.225   1.779   7.548  0.0902 -0.2016 -0.0499
 3879SOL    HW123270   1.264   1.704   7.593  0.7580  0.3355  0.2534
 3879SOL    HW223271   1.163   1.737   7.488 -0.0059 -2.5868  1.7215
 3880SOL     OW23272   4.375   3.454   6.822 -0.2669 -0.2494 -0.1743
 3880SOL    HW123273   4.335   3.475   6.738  0.9885 -0.7602 -0.9111
 3880SOL    HW223274   4.356   3.532   6.874 -0.6925 -0.0371 -0.6471
 3881SOL     OW23275   2.076   3.825   0.199  0.3343  0.6435 -0.2614
 3881SOL    HW123276   2.061   3.805   0.291 -0.6118 -0.1989 -0.5868
 3881SOL    HW223277   2.042   3.743   0.162  1.7023  0.6239 -1.4820
 3882SOL     OW23278   4.715   2.824   9.880 -0.1945 -0.4354  0.3558
 3882SOL    HW123279   0.067   2.799   9.908 -0.9618 -0.7182  2.5575
 3882SOL    HW223280   4.727   2.911   9.841 -0.9526  0.2451  1.6072
 3883SOL     OW23281   4.146   1.522   8.355 -0.1206 -0.6003 -0.0929
 3883SOL    HW123282   4.217   1.464   8.383 -1.0402 -0.5898  2.2789
 3883SOL    HW223283   4.176   1.612   8.369  0.2391 -0.7969  0.3845
 3884SOL     OW23284   1.241   1.848   8.928 -0.0786 -0.0405 -0.1771
 3884SOL    HW123285   1.292   1.785   8.979  0.9967  0.1110 -1.0723
 3884SOL    HW223286   1.235   1.803   8.844 -1.2800  1.7980 -1.0632
 3885SOL     OW23287   1.611   2.567   4.123  0.4447  0.4898 -0.5751
 3885SOL    HW123288   1.622   2.647   4.072  1.7872  0.8730  0.3182
 3885SOL    HW223289   1.699   2.531   4.124  0.6196  0.8055 -2.9852
 3886SOL     OW23290   2.082   0.537  11.093 -0.5395  0.0956 -0.0655
 3886SOL    HW123291   1.987   0.546  11.083 -0.3257  0.4916 -1.7727
 3886SOL    HW223292   2.110   0.622  11.060 -0.4529 -0.0062 -0.2572
 3887SOL     OW23293   3.675   1.743  16.111  0.6422 -0.1288 -0.2812
 3887SOL    HW123294   3.719   1.828  16.105  1.2088 -0.5142 -1.5296
 3887SOL    HW223295   3.691   1.718  16.020  1.1306  1.4918 -0.6420
 3888SOL     OW23296   1.350   2.143   5.778  0.0597 -0.7453 -0.0637
 3888SOL    HW123297   1.353   2.161   5.684  1.0219  2.6925  0.6170
 3888SOL    HW223298   1.336   2.048   5.773  0.7722 -0.8353 -0.4557
 3889SOL     OW23299   0.827   2.522   5.366 -0.1191 -0.6905 -0.0711
 3889SOL    HW123300   0.770   2.586   5.408  0.7685 -0.1577  0.3089
 3889SOL    HW223301   0.762   2.472   5.316  0.9988 -0.7475 -1.4907
 3890SOL     OW23302   2.632   2.466  16.754  0.1157 -0.3501  0.0564
 3890SOL    HW123303   2.620   2.519  16.833 -0.7813 -0.6210  0.0992
 3890SOL    HW223304   2.722   2.493  16.733 -0.0335 -1.6168 -2.1759
 3891SOL     OW23305   3.635   3.726   2.733  0.0371  0.0225 -0.1365
 3891SOL    HW123306   3.561   3.685   2.690  1.0732  0.1370 -2.0037
 3891SOL    HW223307   3.712   3.734   2.677  1.0152  2.3605  1.5313
 3892SOL     OW23308   2.820   4.553   2.888  0.2832  0.2949 -0.4066
 3892SOL    HW123309   2.811   4.552   2.793 -2.8561  0.2560 -0.1158
 3892SOL    HW223310   2.762   4.627   2.906 -1.6414 -0.8461 -1.9056
 3893SOL     OW23311   2.131   1.337   5.772 -0.2206  0.5488  0.6044
 3893SOL    HW123312   2.123   1.409   5.835  0.7688 -0.6128  2.0701
 3893SOL    HW223313   2.110   1.379   5.689  0.9837  0.4292  0.2390
 3894SOL     OW23314   1.511   2.301   4.046 -0.6944  0.1733 -0.3149
 3894SOL    HW123315   1.565   2.379   4.044 -3.1726  1.8708 -1.8523
 3894SOL    HW223316   1.512   2.286   4.140  1.5449 -2.5099 -0.7638
 3895SOL     OW23317   0.992   3.899  16.819  0.0234 -0.5397 -0.0592
 3895SOL    HW123318   0.935   3.875  16.746 -1.4229  1.5119  0.3611
 3895SOL    HW223319   1.021   3.816  16.857  1.6573 -0.4567 -1.1563
 3896SOL     OW23320   2.803   4.000   1.770 -1.1477 -0.3149  0.1449
 3896SOL    HW123321   2.855   3.962   1.699  0.6078  0.8568  0.8116
 3896SOL    HW223322   2.864   4.049   1.825 -1.1615 -0.2816  0.1306
 3897SOL     OW23323   0.193   0.674   8.640 -0.3977  0.2838  0.1027
 3897SOL    HW123324   0.284   0.703   8.646  0.5326 -2.7267  0.4926
 3897SOL    HW223325   0.167   0.695   8.729  1.4539 -0.8208  0.8986
 3898SOL     OW23326   1.558   3.749  11.114 -0.6362 -0.1338  0.5301
 3898SOL    HW123327   1.617   3.770  11.041 -1.6037 -0.4521 -0.3267
 3898SOL    HW223328   1.531   3.836  11.145  0.6035 -0.0541  1.4070
 3899SOL     OW23329   4.184   1.100   1.894 -0.0116 -0.0999 -0.1296
 3899SOL    HW123330   4.256   1.163   1.906 -0.3754  0.2527  0.1778
 3899SOL    HW223331   4.137   1.107   1.977 -0.0478  0.3154 -0.1831
 3900SOL     OW23332   2.278   3.336  12.115  0.0083  0.1554 -0.4097
 3900SOL    HW123333   2.299   3.247  12.143 -0.2172  0.6716  1.4461
 3900SOL    HW223334   2.248   3.366  12.201 -0.1662 -1.7020  0.1648
 3901SOL     OW23335   1.723   4.563  10.041  0.2368  0.2010  0.1591
 3901SOL    HW123336   1.784   4.629  10.076  0.6959 -0.6615  0.9712
 3901SOL    HW223337   1.647   4.620  10.033 -0.2568 -0.7958 -2.2084
 3902SOL     OW23338   4.054   3.928  15.928  0.0206 -0.2097  0.1170
 3902SOL    HW123339   4.052   3.907  15.835  2.0815  1.3384 -0.2930
 3902SOL    HW223340   3.961   3.920  15.947  0.0735  1.7684  1.2048
 3903SOL     OW23341   1.208   1.788   2.345 -0.0300 -0.3537 -0.2020
 3903SOL    HW123342   1.302   1.778   2.330 -0.5492 -1.3228 -2.8083
 3903SOL    HW223343   1.180   1.850   2.278 -0.6447 -0.2280  0.1641
 3904SOL     OW23344   2.830   2.151   4.410  0.0389  0.5503 -0.4489
 3904SOL    HW123345   2.919   2.179   4.434  0.3316  1.2699 -2.4003
 3904SOL    HW223346   2.823   2.198   4.327 -0.7427  0.4314 -0.4525
 3905SOL     OW23347   4.114   3.766   9.751 -0.2111 -0.5584 -0.2970
 3905SOL    HW123348   4.202   3.802   9.738  0.6315 -2.0531  1.3017
 3905SOL    HW223349   4.100   3.723   9.835  0.8778  0.7245  0.5513
 3906SOL     OW23350   2.638   0.530   8.445  0.0787 -0.5113 -0.2193
 3906SOL    HW123351   2.637   0.623   8.424 -0.7741 -0.3623  0.4617
 3906SOL    HW223352   2.604   0.532   8.534 -0.7993  0.6252 -0.5851
 3907SOL     OW23353   3.222   2.681   7.026 -0.1275  0.4865  0.2110
 3907SOL    HW123354   3.244   2.675   6.933 -4.1543  1.5305 -0.8113
 3907SOL    HW223355   3.296   2.733   7.057 -1.4502  2.7867 -0.5482
 3908SOL     OW23356   4.451   3.617   8.098 -0.3299  0.0757 -0.0088
 3908SOL    HW123357   4.445   3.623   8.194  2.9436  0.8436  0.1827
 3908SOL    HW223358   4.359   3.640   8.087 -0.8020 -0.7739  2.0862
 3909SOL     OW23359   0.198   3.405   1.048 -0.0108 -0.0965 -0.1048
 3909SOL    HW123360   0.165   3.478   0.996 -1.4025 -1.6098 -1.3513
 3909SOL    HW223361   0.117   3.364   1.078  0.8296 -1.0089  0.9162
 3910SOL     OW23362   3.389   1.334   9.384 -0.1741 -0.3362  0.5490
 3910SOL    HW123363   3.484   1.343   9.374 -0.2396 -1.9007 -1.6574
 3910SOL    HW223364   3.357   1.423   9.366 -0.5855 -0.5035  0.4559
 3911SOL     OW23365   0.834   1.155   5.946 -0.4471  0.1957  0.4043
 3911SOL    HW123366   0.804   1.096   5.877 -1.5552  1.0623  0.1493
 3911SOL    HW223367   0.765   1.140   6.011 -1.3270  0.9364 -0.3547
 3912SOL     OW23368   0.697   1.246   5.592 -0.0464 -0.2054  0.7778
 3912SOL    HW123369   0.641   1.314   5.630  0.2343  0.1944  0.4751
 3912SOL    HW223370   0.701   1.188   5.668  0.0608 -1.5124 -0.2259
 3913SOL     OW23371   1.691   3.502   6.501  0.6325  0.0102 -0.2581
 3913SOL    HW123372   1.708   3.410   6.521 -2.5404 -0.4664  0.2147
 3913SOL    HW223373   1.600   3.510   6.528  1.0625 -1.5328  1.6164
 3914SOL     OW23374   1.902   4.327   4.309  0.4894 -0.2475  0.2083
 3914SOL    HW123375   1.960   4.332   4.233  0.8353 -0.2824  0.4688
 3914SOL    HW223376   1.921   4.244   4.353  2.0971 -0.4189 -0.8030
 3915SOL     OW23377   3.327   2.877   9.073  0.1501  0.0191 -0.3687
 3915SOL    HW123378   3.401   2.872   9.012 -0.5927 -0.1493 -1.2609
 3915SOL    HW223379   3.364   2.924   9.148  0.5111 -0.8037 -0.0297
 3916SOL     OW23380   0.687   0.193   2.059 -0.1541  0.0224  0.4083
 3916SOL    HW123381   0.705   0.132   2.131  1.3732  1.9306  1.6224
 3916SOL    HW223382   0.779   0.206   2.039 -0.2554  1.1477  0.6633
 3917SOL     OW23383   3.474   0.131   3.681 -1.2169 -0.0838  0.1124
 3917SOL    HW123384   3.561   0.142   3.720 -0.8259 -4.3235  0.4780
 3917SOL    HW223385   3.425   0.183   3.744  1.3796  0.4858  1.6785
 3918SOL     OW23386   3.528   3.537   4.089 -0.4533  0.6956 -0.2477
 3918SOL    HW123387   3.486   3.557   4.173  0.4736 -1.1496  0.6596
 3918SOL    HW223388   3.452   3.556   4.034 -0.7371  0.4405  0.0603
 3919SOL     OW23389   2.118   0.579   4.074  0.2868  0.6129 -0.2773
 3919SOL    HW123390   2.209   0.587   4.044  0.1747  1.2994 -0.4301
 3919SOL    HW223391   2.126   0.537   4.160  0.1091 -0.5749 -0.8488
 3920SOL     OW23392   3.302   2.458   3.617  0.0722 -0.1028  0.2180
 3920SOL    HW123393   3.263   2.526   3.673  1.0684 -0.0331  0.8277
 3920SOL    HW223394   3.331   2.400   3.687  0.3810 -0.0851  0.1036
 3921SOL     OW23395   1.441   3.092   1.891 -0.3836 -0.7180 -0.4057
 3921SOL    HW123396   1.392   3.010   1.889 -0.3989 -0.7952  3.2636
 3921SOL    HW223397   1.372   3.157   1.877  1.8362  2.1273  1.9489
 3922SOL     OW23398   4.693   1.361   8.362  0.1715  0.4019  0.6448
 3922SOL    HW123399   4.717   1.324   8.447  2.4287 -0.0453 -0.2059
 3922SOL    HW223400   4.674   1.290   8.300  0.6855  1.0660 -0.2752
 3923SOL     OW23401   2.516   1.494   6.483  0.2155 -0.3223 -0.2738
 3923SOL    HW123402   2.439   1.498   6.540 -0.4382  0.8202 -1.2406
 3923SOL    HW223403   2.479   1.520   6.399 -1.4894 -0.1297  0.5285
 3924SOL     OW23404   2.711   3.485   6.712  1.1120 -0.1226 -0.3404
 3924SOL    HW123405   2.664   3.566   6.689 -0.7141 -0.8661  0.7789
 3924SOL    HW223406   2.647   3.456   6.777 -0.1624  0.0196 -1.5145
 3925SOL     OW23407   1.637   1.969  15.420 -0.0809 -0.6879 -0.3564
 3925SOL    HW123408   1.665   1.975  15.511 -2.4654  0.0933  0.3386
 3925SOL    HW223409   1.669   2.052  15.383 -0.8187 -0.2420 -0.0100
 3926SOL     OW23410   2.851   2.001   2.806  0.4773  0.2547  0.0131
 3926SOL    HW123411   2.835   2.009   2.900 -3.3424 -0.1236 -0.6228
 3926SOL    HW223412   2.768   2.022   2.763  1.1709 -1.4063 -2.1306
 3927SOL     OW23413   1.268   1.738   8.664 -0.3496  0.2229  0.2269
 3927SOL    HW123414   1.311   1.656   8.687 -2.2129 -0.1990  2.2192
 3927SOL    HW223415   1.316   1.772   8.588 -0.3267 -0.9166 -0.2576
 3928SOL     OW23416   1.623   1.695   6.332  0.4463 -0.3609  0.0992
 3928SOL    HW123417   1.553   1.635   6.306 -0.0044  0.0447  0.3716
 3928SOL    HW223418   1.587   1.738   6.409  0.0004 -1.5594  0.5444
 3929SOL     OW23419   3.848   1.433   6.500  0.0199  0.0326  0.1578
 3929SOL    HW123420   3.753   1.434   6.504 -0.0229  1.0451 -1.1743
 3929SOL    HW223421   3.864   1.513   6.450  2.7989 -0.2840  0.5017
 3930SOL     OW23422   3.769   2.867   8.459 -0.0662  0.1529 -0.3875
 3930SOL    HW123423   3.812   2.918   8.391 -0.0136 -0.1865 -0.6088
 3930SOL    HW223424   3.778   2.930   8.531  0.4667 -0.4918  0.1106
 3931SOL     OW23425   1.189   0.773   3.130 -0.8476 -0.4209 -0.2049
 3931SOL    HW123426   1.099   0.805   3.135  0.6975  3.8916  0.1533
 3931SOL    HW223427   1.226   0.860   3.114  0.1320 -0.5546  1.3838
 3932SOL     OW23428   0.385   1.927   0.862 -0.1239  0.2768  0.0881
 3932SOL    HW123429   0.314   1.956   0.805 -0.7872 -1.5011  0.0325
 3932SOL    HW223430   0.461   1.907   0.807 -0.3532  2.2519 -0.9477
 3933SOL     OW23431   2.259   1.887  11.431  0.5696  0.0537  0.0077
 3933SOL    HW123432   2.302   1.804  11.451 -0.6382 -0.5080  0.3068
 3933SOL    HW223433   2.324   1.949  11.463  0.3318  1.1386 -1.6469
 3934SOL     OW23434   1.717   3.758   5.125 -0.0644  0.2543 -0.4521
 3934SOL    HW123435   1.775   3.820   5.169 -1.5230  1.3508 -0.0733
 3934SOL    HW223436   1.722   3.786   5.033 -2.6469 -0.1423 -0.7119
 3935SOL     OW23437   0.423   3.812  16.180  0.2781  0.3206 -0.0581
 3935SOL    HW123438   0.454   3.883  16.236  1.1624 -0.0590 -0.0609
 3935SOL    HW223439   0.456   3.827  16.091 -1.1333  3.8222  0.0036
 3936SOL     OW23440   1.897   4.516   7.466  0.0930  0.2409  0.0174
 3936SOL    HW123441   1.953   4.551   7.535  0.2857  1.9474 -1.0158
 3936SOL    HW223442   1.922   4.424   7.455 -0.4595  0.0266  0.5454
 3937SOL     OW23443   1.845   0.394   3.606  0.3858  0.3928  0.2189
 3937SOL    HW123444   1.840   0.465   3.542 -3.9025 -0.5840 -0.5602
 3937SOL    HW223445   1.754   0.364   3.598  0.5215 -0.4681  1.9508
 3938SOL     OW23446   0.616   0.640  15.519  0.1034 -0.8395 -0.2518
 3938SOL    HW123447   0.604   0.734  15.524 -1.2618 -1.1056  1.2914
 3938SOL    HW223448   0.695   0.631  15.573 -0.1504  0.2783  0.2965
 3939SOL     OW23449   3.137   0.726  14.945 -0.4401  0.1639  0.4281
 3939SOL    HW123450   3.227   0.726  14.977 -0.3366 -1.0553  0.1197
 3939SOL    HW223451   3.096   0.697  15.027 -2.2828  1.3418 -0.0680
 3940SOL     OW23452   2.293   2.398   2.035 -0.1788  0.0352 -0.1599
 3940SOL    HW123453   2.313   2.432   2.122  1.5962 -1.0704 -0.1213
 3940SOL    HW223454   2.371   2.343   2.028  2.2336  3.3159  0.8302
 3941SOL     OW23455   0.321   0.947   2.953  0.0780  0.3077  0.1050
 3941SOL    HW123456   0.388   0.973   3.017 -0.4775 -0.0667  0.8417
 3941SOL    HW223457   0.242   0.965   3.004 -0.1378  1.7433 -0.7518
 3942SOL     OW23458   1.813   2.221   2.742  0.0262  0.1982  0.0763
 3942SOL    HW123459   1.850   2.266   2.817  0.2287  1.0067 -0.5115
 3942SOL    HW223460   1.749   2.290   2.725 -1.0277 -0.7036  0.3527
 3943SOL     OW23461   0.419   1.129   2.394  0.0064 -0.9842  0.3507
 3943SOL    HW123462   0.400   1.035   2.398 -1.2813 -0.7488 -0.2857
 3943SOL    HW223463   0.333   1.168   2.382  0.3908 -0.6326 -1.1904
 3944SOL     OW23464   4.616   2.123   0.725  0.1321 -0.2559  0.3940
 3944SOL    HW123465   4.616   2.218   0.736  1.7116 -0.2778  0.4856
 3944SOL    HW223466   4.565   2.107   0.646 -0.0661  1.3367  0.1961
 3945SOL     OW23467   4.312   0.328   3.603  0.3075 -0.2092 -0.7197
 3945SOL    HW123468   4.362   0.302   3.680 -1.4910  0.8132  0.7899
 3945SOL    HW223469   4.273   0.243   3.581  1.4580 -1.2232  1.1596
 3946SOL     OW23470   0.520   2.425   2.827  0.0412 -0.1179  0.6508
 3946SOL    HW123471   0.530   2.377   2.745 -2.6129  1.4601 -0.6061
 3946SOL    HW223472   0.487   2.509   2.795 -0.2555 -1.0285 -1.4268
 3947SOL     OW23473   2.918   1.162   1.857  0.2790  0.1787  0.4405
 3947SOL    HW123474   2.933   1.085   1.912 -0.8323 -1.8638 -2.1466
 3947SOL    HW223475   2.998   1.157   1.805 -0.9499 -0.7049 -1.3755
 3948SOL     OW23476   4.479   2.481  12.716  0.0426 -0.4943 -0.2517
 3948SOL    HW123477   4.507   2.571  12.700 -0.1588 -0.9070 -2.8551
 3948SOL    HW223478   4.395   2.489  12.762  0.2404  1.4340 -0.2234
 3949SOL     OW23479   2.990   0.387  11.335 -0.0010  0.3306 -0.1927
 3949SOL    HW123480   3.005   0.295  11.311  3.4793  0.4935  1.3910
 3949SOL    HW223481   2.944   0.377  11.419 -0.6748  0.2834 -0.5650
 3950SOL     OW23482   0.860   3.707   9.651  0.0293  0.1807 -0.0114
 3950SOL    HW123483   0.940   3.657   9.635  0.3552  0.9579 -0.8273
 3950SOL    HW223484   0.808   3.684   9.575  2.5886 -0.2568 -1.6277
 3951SOL     OW23485   3.683   1.051   5.375  0.3036 -0.0664  0.2841
 3951SOL    HW123486   3.687   1.127   5.316 -1.0449 -0.3498 -0.1792
 3951SOL    HW223487   3.622   1.003   5.319  1.4676 -3.9770  2.3740
 3952SOL     OW23488   3.221   0.845   8.354  0.0956  0.2917  0.7478
 3952SOL    HW123489   3.159   0.833   8.426 -0.6061  2.1276  0.4354
 3952SOL    HW223490   3.173   0.801   8.285  0.4945  1.1375 -0.0638
 3953SOL     OW23491   3.409   3.777   5.044  0.1772  0.3122  0.0950
 3953SOL    HW123492   3.351   3.798   4.971 -0.8069  0.7163  0.9813
 3953SOL    HW223493   3.373   3.691   5.065  0.6025  0.1557  0.1963
 3954SOL     OW23494   4.110   3.162  13.466  0.7228 -0.0454  0.0889
 3954SOL    HW123495   4.094   3.256  13.458 -3.8023 -0.8863 -0.6529
 3954SOL    HW223496   4.081   3.144  13.555 -0.2466  0.4791 -0.1190
 3955SOL     OW23497   4.655   4.049   1.529 -0.1613  0.3144 -0.6148
 3955SOL    HW123498   4.625   4.131   1.567  2.3723  0.9517 -0.0283
 3955SOL    HW223499   4.588   3.997   1.575 -1.5640  3.6911  1.1906
 3956SOL     OW23500   4.279   0.074   3.541 -0.3660  0.0373 -0.1987
 3956SOL    HW123501   4.288   4.725   3.584 -2.4133  0.3706  0.8830
 3956SOL    HW223502   4.322   0.051   3.459 -1.5183 -1.8871 -0.2595
 3957SOL     OW23503   3.845   3.665   3.706  0.0187 -0.2479 -0.2333
 3957SOL    HW123504   3.788   3.623   3.641  0.1441 -1.3812  0.3754
 3957SOL    HW223505   3.904   3.716   3.651  0.4024  1.1673  1.5007
 3958SOL     OW23506   0.568   4.340   6.752  0.1869 -0.2486  0.0709
 3958SOL    HW123507   0.507   4.404   6.717 -0.2491 -0.6839  0.0384
 3958SOL    HW223508   0.548   4.264   6.698 -1.4425 -0.7773  1.4279
 3959SOL     OW23509   2.485   4.190  11.814 -0.4740  0.2730 -0.4936
 3959SOL    HW123510   2.484   4.183  11.718  1.2561 -1.7215 -0.3572
 3959SOL    HW223511   2.396   4.173  11.845  0.1456 -0.0680  1.0559
 3960SOL     OW23512   1.830   1.978   8.424 -0.4383  0.1952  0.4435
 3960SOL    HW123513   1.772   2.018   8.489  1.6533  2.6290  0.8064
 3960SOL    HW223514   1.859   2.052   8.371 -1.6709 -0.6526 -1.4105
 3961SOL     OW23515   2.811   4.113   8.531 -0.4186 -0.5486  0.0033
 3961SOL    HW123516   2.882   4.141   8.472 -1.9282  1.1735 -1.0165
 3961SOL    HW223517   2.863   4.078   8.603 -1.2441  1.4715  1.5883
 3962SOL     OW23518   1.157   2.583   9.012  0.2622  0.3573 -0.4406
 3962SOL    HW123519   1.074   2.570   9.057 -0.1241  0.0049 -1.2427
 3962SOL    HW223520   1.215   2.531   9.067 -0.4844  0.3604  0.3569
 3963SOL     OW23521   0.112   4.313   1.654  0.3377  0.5674  0.3131
 3963SOL    HW123522   0.168   4.390   1.643  0.7892  0.0432 -1.0099
 3963SOL    HW223523   0.162   4.250   1.603  0.6584 -0.5845  2.0307
 3964SOL     OW23524   2.308   1.113   2.372 -0.4302 -0.6307 -0.1075
 3964SOL    HW123525   2.348   1.128   2.286  1.1268  0.2217  0.7734
 3964SOL    HW223526   2.215   1.130   2.355 -0.7407 -1.0420  1.1504
 3965SOL     OW23527   0.603   2.638   6.045 -0.4506 -0.4478  0.3995
 3965SOL    HW123528   0.669   2.569   6.051  1.0238  0.8776 -0.3511
 3965SOL    HW223529   0.556   2.619   5.964  1.9706  0.9606 -1.3429
 3966SOL     OW23530   4.329   0.984   3.171 -0.2596 -0.0917 -0.6047
 3966SOL    HW123531   4.234   0.999   3.171 -0.5424 -1.9803  0.0566
 3966SOL    HW223532   4.344   0.985   3.266 -0.5708  1.8875 -0.5610
 3967SOL     OW23533   4.135   1.971   1.624 -0.9528 -0.9392  0.3270
 3967SOL    HW123534   4.163   1.919   1.548  0.4790 -1.8510  1.4827
 3967SOL    HW223535   4.116   2.062   1.600  1.8467 -0.3563  0.3300
 3968SOL     OW23536   1.687   3.076   1.979  0.1805  0.2269  0.3173
 3968SOL    HW123537   1.600   3.084   1.941  0.2547 -0.4580  0.0107
 3968SOL    HW223538   1.674   3.023   2.058  1.1901 -0.5306 -0.0276
 3969SOL     OW23539   3.630   2.387   1.883 -1.2962 -0.3972 -0.5353
 3969SOL    HW123540   3.560   2.322   1.885  0.2533 -2.1119 -2.5537
 3969SOL    HW223541   3.694   2.353   1.945 -0.1662 -1.2322 -2.1633
 3970SOL     OW23542   1.773   1.935   1.985 -0.3600  0.2186 -0.1480
 3970SOL    HW123543   1.818   2.002   2.036 -1.1358  0.0286  0.7872
 3970SOL    HW223544   1.723   1.896   2.056 -1.7312  1.0446 -0.6548
 3971SOL     OW23545   3.449   2.744  10.718  0.1942 -0.5751  0.3295
 3971SOL    HW123546   3.532   2.699  10.733 -0.9084 -3.1424 -1.2687
 3971SOL    HW223547   3.456   2.810  10.787 -1.0001 -0.3230  0.2134
 3972SOL     OW23548   0.396   0.066   5.773 -0.1767 -0.2209 -0.1258
 3972SOL    HW123549   0.442   0.043   5.853 -1.5567 -0.7522  0.5133
 3972SOL    HW223550   0.465   0.080   5.708 -1.5360  0.5599 -1.3929
 3973SOL     OW23551   3.265   0.572   3.886  0.4036 -0.0822  0.1168
 3973SOL    HW123552   3.185   0.523   3.870  0.5731  0.3368 -1.9668
 3973SOL    HW223553   3.232   0.633   3.952  1.2978  1.5408 -0.9462
 3974SOL     OW23554   3.743   4.414  10.177  0.2380  0.1382 -0.0326
 3974SOL    HW123555   3.773   4.386  10.263  1.3951 -0.7319 -0.7304
 3974SOL    HW223556   3.810   4.477  10.153  0.1685  0.8572  1.6782
 3975SOL     OW23557   1.869   4.135   1.247  0.1736 -0.2645 -0.2668
 3975SOL    HW123558   1.925   4.144   1.324 -2.5733 -2.8567  2.0028
 3975SOL    HW223559   1.840   4.226   1.238  0.2787 -0.1893  0.1622
 3976SOL     OW23560   2.967   0.266   4.067 -0.3056  0.1485  0.0986
 3976SOL    HW123561   3.040   0.278   4.128  0.2289  0.3982 -0.5871
 3976SOL    HW223562   2.900   0.248   4.133  0.2692 -1.5554  0.1998
 3977SOL     OW23563   0.954   2.926   2.784 -0.1341 -0.5664  0.1568
 3977SOL    HW123564   0.951   2.853   2.846  0.4538 -0.8855 -0.1900
 3977SOL    HW223565   0.874   2.969   2.813  0.8016  1.7194 -0.6821
 3978SOL     OW23566   4.340   2.169   7.987 -0.3358 -0.3488 -0.0534
 3978SOL    HW123567   4.270   2.206   7.932 -0.6114 -0.0994  0.4640
 3978SOL    HW223568   4.371   2.250   8.028 -0.3331 -0.1924 -0.3650
 3979SOL     OW23569   2.461   2.774  12.885  0.8742  0.2836  0.3124
 3979SOL    HW123570   2.485   2.716  12.813  1.2882  1.3372 -0.3898
 3979SOL    HW223571   2.535   2.833  12.900  1.1410  0.1597 -0.5200
 3980SOL     OW23572   4.512   2.878   9.484  0.1200  0.4870  0.8020
 3980SOL    HW123573   4.464   2.848   9.561 -0.3559  1.2389  0.8016
 3980SOL    HW223574   4.523   2.967   9.517  2.1860  0.2797  0.6787
 3981SOL     OW23575   4.547   0.688   8.920 -0.0836 -0.1092 -0.0527
 3981SOL    HW123576   4.634   0.720   8.942 -0.5018  1.4503 -0.6631
 3981SOL    HW223577   4.521   0.664   9.008  3.2683  0.6579  1.1394
 3982SOL     OW23578   2.979   1.280  16.221  0.7098 -0.0626 -0.5729
 3982SOL    HW123579   2.991   1.269  16.126 -1.1577 -0.3254 -0.7737
 3982SOL    HW223580   3.045   1.225  16.264  1.3416  0.0665 -1.3585
 3983SOL     OW23581   0.769   2.220   2.318 -0.0425 -0.0812 -0.4126
 3983SOL    HW123582   0.829   2.196   2.389  0.1441 -0.7221 -0.7883
 3983SOL    HW223583   0.799   2.169   2.243 -0.9776 -0.7595 -0.3137
 3984SOL     OW23584   0.666   1.395  14.382 -0.2115  0.4410  0.6069
 3984SOL    HW123585   0.678   1.489  14.397 -0.9228  0.8401 -1.3331
 3984SOL    HW223586   0.595   1.369  14.442 -0.4369 -1.9627 -0.6986
 3985SOL     OW23587   4.299   2.636   8.820  0.1875 -0.1455 -0.2095
 3985SOL    HW123588   4.357   2.630   8.743 -2.5343 -0.1528 -2.2451
 3985SOL    HW223589   4.362   2.658   8.889 -1.0448  2.5234  0.0395
 3986SOL     OW23590   2.839   0.967   4.396 -0.0857 -0.0942 -0.5078
 3986SOL    HW123591   2.902   1.030   4.358  0.3155 -0.9878 -1.3353
 3986SOL    HW223592   2.891   0.924   4.464  0.7823  0.3847 -0.8593
 3987SOL     OW23593   2.281   2.049   8.276 -0.4994 -0.6285  0.0182
 3987SOL    HW123594   2.244   2.129   8.313  0.3762 -0.8289  1.3233
 3987SOL    HW223595   2.202   1.996   8.269 -1.1308  0.4098 -0.7952
 3988SOL     OW23596   1.499   0.148   3.965  0.1855  0.4481 -0.4082
 3988SOL    HW123597   1.565   0.093   4.006  0.2951 -0.2989 -1.5939
 3988SOL    HW223598   1.553   0.203   3.907  2.2968  0.5253  1.6396
 3989SOL     OW23599   4.395   2.405   1.821 -0.4379 -0.8481  0.0810
 3989SOL    HW123600   4.390   2.322   1.772 -0.0179 -1.1905  0.6159
 3989SOL    HW223601   4.307   2.444   1.821  1.2874  2.9208 -0.5706
 3990SOL     OW23602   3.703   2.985   5.448  0.5257 -0.3660 -0.0596
 3990SOL    HW123603   3.657   2.905   5.422  0.7531 -0.6969  0.5603
 3990SOL    HW223604   3.649   3.052   5.406  1.6738 -0.9903 -2.5916
 3991SOL     OW23605   0.054   4.122   3.581  0.3012  0.4786 -0.3454
 3991SOL    HW123606   0.105   4.132   3.501  1.5352 -0.2520  0.3362
 3991SOL    HW223607   0.124   4.092   3.639 -0.4482  0.8004  0.7284
 3992SOL     OW23608   1.513   1.028   4.515 -0.1746  0.1652  0.2094
 3992SOL    HW123609   1.478   0.942   4.493 -2.3148  1.0397  0.1735
 3992SOL    HW223610   1.430   1.068   4.540  0.0519 -0.2440  1.6105
 3993SOL     OW23611   2.910   1.301   1.567 -0.0691 -0.3259 -0.7100
 3993SOL    HW123612   2.825   1.308   1.610 -0.6456 -0.6479 -1.8013
 3993SOL    HW223613   2.888   1.246   1.493 -1.1453  0.3555 -0.9021
 3994SOL     OW23614   1.915   2.806   8.263  0.2417 -0.4674  0.4057
 3994SOL    HW123615   1.968   2.870   8.214  0.6034 -1.0773 -0.0075
 3994SOL    HW223616   1.987   2.772   8.316 -0.2269 -0.7810  0.8366
 3995SOL     OW23617   1.276   4.027   8.105 -0.3930  0.9262 -0.0231
 3995SOL    HW123618   1.274   3.934   8.085  0.7639  0.9470 -0.2610
 3995SOL    HW223619   1.320   4.060   8.026  0.1618 -3.0197 -1.3877
 3996SOL     OW23620   2.941   0.269   6.388 -0.1175 -0.1468 -0.0235
 3996SOL    HW123621   2.980   0.324   6.457 -0.6414 -1.2548  1.1586
 3996SOL    HW223622   2.847   0.273   6.403  0.2403  1.7031  1.8231
 3997SOL     OW23623   2.760   1.514   1.966  0.4295  0.0786 -0.2291
 3997SOL    HW123624   2.722   1.428   1.983 -0.5333  0.1772 -1.8253
 3997SOL    HW223625   2.855   1.499   1.967  0.2754 -1.0245 -2.2772
 3998SOL     OW23626   0.840   2.224   8.304  0.1454 -0.1658 -0.2216
 3998SOL    HW123627   0.908   2.166   8.339 -0.4231  0.1939  1.4414
 3998SOL    HW223628   0.884   2.280   8.239 -0.9606 -0.7367 -1.4749
 3999SOL     OW23629   2.855   3.003  15.353  0.2447  0.1104 -0.0227
 3999SOL    HW123630   2.930   3.010  15.294 -0.5326  1.5486 -0.8460
 3999SOL    HW223631   2.789   3.022  15.286 -1.9003  0.3435  2.1493
 4000SOL     OW23632   3.794   4.140   7.068 -0.6260 -0.2083 -0.0734
 4000SOL    HW123633   3.845   4.201   7.121 -1.2677  3.2144 -3.3822
 4000SOL    HW223634   3.785   4.073   7.135 -0.4890  2.3071  2.4506
 4001SOL     OW23635   2.851   2.790   9.199 -0.4238 -0.3329  0.4235
 4001SOL    HW123636   2.900   2.863   9.163  1.3005 -1.9324 -0.5095
 4001SOL    HW223637   2.841   2.816   9.291  1.6540  0.8054  0.3139
 4002SOL     OW23638   1.835   3.856   5.794  0.5620  0.2333  0.0411
 4002SOL    HW123639   1.884   3.773   5.799 -0.1776  0.0110  3.3428
 4002SOL    HW223640   1.762   3.831   5.850  1.0552  0.2505  0.6956
 4003SOL     OW23641   2.138   1.141  14.908 -0.2208 -0.0177  0.3230
 4003SOL    HW123642   2.230   1.116  14.921  0.0066 -0.0207 -1.3149
 4003SOL    HW223643   2.136   1.158  14.814  1.7260 -0.0302  0.2637
 4004SOL     OW23644   2.014   3.595   0.071  0.2538  0.0256  0.0054
 4004SOL    HW123645   1.929   3.602   0.028  0.4666  3.6088  0.1652
 4004SOL    HW223646   2.016   3.503   0.096  0.1188 -0.0756 -0.3514
 4005SOL     OW23647   2.043   1.043   4.603  0.4124  0.5935 -0.0144
 4005SOL    HW123648   2.117   0.998   4.563  1.1883  4.2794 -2.7099
 4005SOL    HW223649   1.985   1.036   4.528  0.0485 -0.8880  0.4148
 4006SOL     OW23650   3.830   2.130   9.672 -0.0362 -0.0751 -0.0704
 4006SOL    HW123651   3.906   2.184   9.695  0.4524 -0.9310  0.3225
 4006SOL    HW223652   3.818   2.140   9.578 -0.4379  2.3975  0.2291
 4007SOL     OW23653   4.237   1.676   3.191  0.2611  0.8890 -0.2614
 4007SOL    HW123654   4.313   1.681   3.134  1.0238 -1.5131  0.5821
 4007SOL    HW223655   4.262   1.732   3.265  1.4352  1.1159 -0.8328
 4008SOL     OW23656   2.227   4.093   6.135 -0.2208  0.9842  0.4294
 4008SOL    HW123657   2.184   4.091   6.049 -0.6198 -1.8414  0.7067
 4008SOL    HW223658   2.257   4.184   6.143 -0.7940  1.1109  1.1244
 4009SOL     OW23659   3.124   2.918   9.354  0.5345  0.3215  0.4098
 4009SOL    HW123660   3.114   2.975   9.430 -0.9790  1.3142 -0.5363
 4009SOL    HW223661   3.177   2.975   9.298 -1.0285 -0.0913 -1.4688
 4010SOL     OW23662   1.231   1.718   6.442  0.7890 -0.3607  0.0748
 4010SOL    HW123663   1.312   1.769   6.442  0.1825  0.5965 -0.3243
 4010SOL    HW223664   1.190   1.735   6.357  1.2194 -2.3867 -0.5644
 4011SOL     OW23665   4.686   2.925   9.265  1.0124 -0.0058 -0.3724
 4011SOL    HW123666   4.601   2.907   9.305  0.0425  1.0329 -1.9773
 4011SOL    HW223667   4.736   2.932   9.346  0.0372  2.5910  0.0178
 4012SOL     OW23668   4.428   0.910   7.925  0.1533 -0.7481 -0.2617
 4012SOL    HW123669   4.344   0.928   7.882  0.2091 -0.7217 -0.3608
 4012SOL    HW223670   4.425   0.819   7.953  0.9986 -1.0687 -1.1749
 4013SOL     OW23671   0.854   0.659  16.029 -0.2293  0.0938 -0.5286
 4013SOL    HW123672   0.873   0.704  15.946  2.1332 -0.9948 -0.5671
 4013SOL    HW223673   0.886   0.729  16.085 -1.4585 -0.0126  0.3247
 4014SOL     OW23674   4.493   1.828   2.551 -0.1108 -0.1244 -0.2255
 4014SOL    HW123675   4.583   1.848   2.578  0.3260 -3.6345  0.8092
 4014SOL    HW223676   4.521   1.751   2.503  0.5925  2.0751 -3.3613
 4015SOL     OW23677   1.734   3.722   7.662 -0.0817 -0.0255  0.0687
 4015SOL    HW123678   1.718   3.757   7.750  1.3338  0.0362  0.3000
 4015SOL    HW223679   1.657   3.757   7.617  0.1403 -1.4595 -1.4278
 4016SOL     OW23680   2.752   1.580   2.854 -0.5712  0.5248 -0.1173
 4016SOL    HW123681   2.804   1.534   2.788  0.6981 -1.3098  2.1835
 4016SOL    HW223682   2.818   1.641   2.886  1.6182 -1.3242 -1.1175
 4017SOL     OW23683   3.613   0.751  13.235  0.1867  0.3328 -0.0444
 4017SOL    HW123684   3.607   0.846  13.220  0.3432  0.5165  1.0395
 4017SOL    HW223685   3.690   0.724  13.185 -0.4156 -1.6716  0.1410
 4018SOL     OW23686   2.942   0.450   4.589  0.3778 -0.0938 -0.1257
 4018SOL    HW123687   2.879   0.476   4.521 -0.2027  1.0597  0.8508
 4018SOL    HW223688   2.889   0.491   4.658  0.1590 -1.5006  0.5471
 4019SOL     OW23689   2.542   1.421  16.103  0.7140 -0.2631 -0.3825
 4019SOL    HW123690   2.477   1.423  16.033  3.3284  1.6783 -2.7445
 4019SOL    HW223691   2.627   1.401  16.063  1.2915  1.0466  0.2036
 4020SOL     OW23692   4.063   2.355   6.305 -0.3092  0.4787  0.1308
 4020SOL    HW123693   4.071   2.273   6.353  0.1884  0.6064  0.2682
 4020SOL    HW223694   4.113   2.415   6.360  0.7728 -0.4417  0.1581
 4021SOL     OW23695   4.365   4.405   8.258 -0.2631  0.0089 -0.0268
 4021SOL    HW123696   4.377   4.313   8.282  0.1692 -0.5861 -2.4262
 4021SOL    HW223697   4.416   4.410   8.177 -0.9110  0.7403 -0.3966
 4022SOL     OW23698   4.365   4.519   1.564  0.2753 -0.0322 -0.7168
 4022SOL    HW123699   4.418   4.581   1.514  1.7329  1.6724  2.9851
 4022SOL    HW223700   4.380   4.444   1.506  1.5410 -1.3840  1.3523
 4023SOL     OW23701   4.501   1.983   4.582  0.0335  0.2136  0.5643
 4023SOL    HW123702   4.489   2.054   4.520 -3.2395  0.1707  1.1667
 4023SOL    HW223703   4.468   2.016   4.666 -2.8074  0.1951 -0.5448
 4024SOL     OW23704   2.561   3.033   4.219 -0.2494  0.4286 -0.5932
 4024SOL    HW123705   2.585   3.086   4.142 -1.8065  2.5642  0.3922
 4024SOL    HW223706   2.649   3.012   4.250 -0.6787  0.9006  0.9229
 4025SOL     OW23707   2.790   0.623   9.604  0.2477 -0.0342  0.0358
 4025SOL    HW123708   2.813   0.709   9.637 -1.3929 -0.4309  2.2015
 4025SOL    HW223709   2.856   0.598   9.539  1.3293 -1.3190  1.6394
 4026SOL     OW23710   1.115   3.687   7.408  0.1632 -0.3912  0.1937
 4026SOL    HW123711   1.123   3.627   7.334 -1.9251  1.4437 -1.5110
 4026SOL    HW223712   1.104   3.770   7.361  1.7617  0.3331  1.0878
 4027SOL     OW23713   3.271   2.116   4.109 -0.4317  0.0432 -0.4049
 4027SOL    HW123714   3.305   2.095   4.196 -1.1549 -0.5452 -0.2650
 4027SOL    HW223715   3.197   2.055   4.104  0.6094 -1.3086  0.7168
 4028SOL     OW23716   0.262   0.853   1.052  0.2357 -0.4888  0.1376
 4028SOL    HW123717   0.244   0.911   0.978  0.4430 -0.8323 -0.1833
 4028SOL    HW223718   0.300   0.777   1.008 -0.0988  1.1041 -2.9074
 4029SOL     OW23719   2.596   0.251   4.061  0.2629  0.5456 -0.3207
 4029SOL    HW123720   2.541   0.185   4.103  0.4146  2.1867  2.4806
 4029SOL    HW223721   2.592   0.221   3.970 -0.5155 -0.9483  0.2174
 4030SOL     OW23722   2.394   1.043   3.509  0.0581  0.3009  0.0730
 4030SOL    HW123723   2.373   1.057   3.417 -1.1883 -0.8828  0.1823
 4030SOL    HW223724   2.433   0.957   3.498  1.4349  1.0483 -0.7910
 4031SOL     OW23725   1.240   0.415  11.782 -0.1437  0.3996 -0.3265
 4031SOL    HW123726   1.239   0.478  11.854 -3.0364  0.5544 -0.4981
 4031SOL    HW223727   1.268   0.470  11.709 -1.6495  0.7720 -0.6349
 4032SOL     OW23728   1.719   0.038   7.872  0.3305  0.4343  0.3884
 4032SOL    HW123729   1.789   0.086   7.916  1.4422  0.9945 -1.9780
 4032SOL    HW223730   1.687   0.097   7.803 -1.5975  0.8381  1.6277
 4033SOL     OW23731   4.436   1.370  10.877  0.0628  0.6870 -0.6098
 4033SOL    HW123732   4.363   1.431  10.862 -0.5348  0.3739  0.9783
 4033SOL    HW223733   4.450   1.377  10.972 -1.9810  2.3583 -0.4283
 4034SOL     OW23734   0.749   2.137   9.481 -0.0988  0.5644  0.0208
 4034SOL    HW123735   0.687   2.204   9.451 -0.3563 -0.1258 -1.0085
 4034SOL    HW223736   0.791   2.173   9.559 -1.6157  0.6809  0.7799
 4035SOL     OW23737   1.645   3.581   3.749 -0.5379 -0.4879  0.4389
 4035SOL    HW123738   1.630   3.602   3.841  1.3031 -0.7390  0.7781
 4035SOL    HW223739   1.638   3.487   3.765 -2.5476  0.0955  3.1280
 4036SOL     OW23740   4.572   0.485  17.320  0.2489 -0.1402 -0.1114
 4036SOL    HW123741   4.583   0.390  17.332 -1.9051 -0.5447 -1.3168
 4036SOL    HW223742   4.657   0.519  17.348  0.5912 -0.4546 -0.7644
 4037SOL     OW23743   0.910   3.971   1.890 -0.2469  0.2618 -0.2470
 4037SOL    HW123744   0.930   4.065   1.894  0.5562  0.0808  0.1151
 4037SOL    HW223745   0.913   3.941   1.981 -0.1234 -2.0174 -1.0036
 4038SOL     OW23746   1.386   2.679   6.061  0.0640  0.0047 -0.4951
 4038SOL    HW123747   1.393   2.755   6.003 -0.0531 -0.3601 -0.9759
 4038SOL    HW223748   1.292   2.682   6.075  0.4142  2.3145  1.5343
 4039SOL     OW23749   3.572   4.224  14.060  0.1894  0.0364  0.0725
 4039SOL    HW123750   3.510   4.249  14.128 -0.8384  0.8843 -1.1816
 4039SOL    HW223751   3.622   4.300  14.030  1.7745 -0.8271  0.4793
 4040SOL     OW23752   0.725   3.748  13.146  0.3436  0.0519  0.2052
 4040SOL    HW123753   0.652   3.706  13.101  0.0254 -0.8815  1.5954
 4040SOL    HW223754   0.715   3.714  13.235 -0.8885  0.7640  0.3307
 4041SOL     OW23755   2.594   1.112   5.421 -0.1414  0.4804  0.7198
 4041SOL    HW123756   2.653   1.172   5.467  1.8961 -0.7893 -0.2605
 4041SOL    HW223757   2.599   1.041   5.485 -2.2859 -1.2870 -1.0484
 4042SOL     OW23758   3.872   4.504   1.194  0.1826  0.1940  0.5107
 4042SOL    HW123759   3.867   4.585   1.142 -0.1031  0.5427  1.0837
 4042SOL    HW223760   3.815   4.447   1.144  1.8094  0.4168 -1.6129
 4043SOL     OW23761   1.765   0.528   7.537 -0.1750 -0.2261 -0.2858
 4043SOL    HW123762   1.716   0.608   7.516 -0.7276 -1.1098 -2.2645
 4043SOL    HW223763   1.701   0.464   7.507 -0.4707 -0.1188  0.1003
 4044SOL     OW23764   3.351   4.506   5.260  0.3771 -1.0814 -0.2573
 4044SOL    HW123765   3.324   4.479   5.348  3.0012  2.0692  1.5123
 4044SOL    HW223766   3.376   4.423   5.220  0.1442 -0.5444 -1.5154
 4045SOL     OW23767   2.178   1.229  12.173 -0.2225  0.3922 -0.1971
 4045SOL    HW123768   2.234   1.254  12.099  0.3516 -0.3377 -0.0075
 4045SOL    HW223769   2.239   1.196  12.239 -0.4353 -0.1644 -0.2852
 4046SOL     OW23770   0.783   4.401  10.104  0.4687  0.3989 -0.3572
 4046SOL    HW123771   0.696   4.361  10.109  0.9663 -0.7012 -0.6816
 4046SOL    HW223772   0.801   4.436  10.192  1.8123  4.1705 -2.1454
 4047SOL     OW23773   4.549   0.420   2.223  0.0938  0.7529 -1.0047
 4047SOL    HW123774   4.622   0.360   2.237  0.8029  1.6485 -0.9309
 4047SOL    HW223775   4.572   0.489   2.284 -2.1536  1.1896 -0.6520
 4048SOL     OW23776   1.124   0.989   4.414 -0.6013  0.3168  0.5401
 4048SOL    HW123777   1.207   0.943   4.427  1.0945  2.4752 -2.4289
 4048SOL    HW223778   1.092   1.005   4.503  1.3585 -0.2959  1.3511
 4049SOL     OW23779   1.469   1.821  16.538 -0.5760 -0.0207  0.1446
 4049SOL    HW123780   1.436   1.909  16.553 -1.1559  0.0077 -1.2802
 4049SOL    HW223781   1.417   1.767  16.599 -0.4385 -1.5458 -1.0841
 4050SOL     OW23782   3.184   4.052   1.099  0.9955 -0.0077  0.0702
 4050SOL    HW123783   3.225   4.010   1.024 -1.7904 -0.3963 -1.2513
 4050SOL    HW223784   3.230   4.006   1.170 -2.8532 -1.2522  1.7659
 4051SOL     OW23785   3.858   2.009   7.508 -0.1314  0.1288  0.5467
 4051SOL    HW123786   3.935   1.953   7.512 -0.1824  0.0867  0.9693
 4051SOL    HW223787   3.871   2.059   7.428  0.5936  0.8703  1.1217
 4052SOL     OW23788   3.559   1.943   2.301  0.0667 -0.3868 -1.0459
 4052SOL    HW123789   3.538   2.031   2.334  1.1684 -0.4266 -0.2309
 4052SOL    HW223790   3.649   1.953   2.270  0.3773  0.0888  0.0173
 4053SOL     OW23791   3.854   3.321   4.295  0.8191 -0.7270  0.1954
 4053SOL    HW123792   3.855   3.401   4.243 -0.7988  0.6195  2.2286
 4053SOL    HW223793   3.882   3.361   4.377  0.9339  0.6049 -0.4896
 4054SOL     OW23794   3.257   4.608   2.535  0.0570 -0.2489 -0.2406
 4054SOL    HW123795   3.271   4.698   2.505 -1.0370  0.4853  1.4476
 4054SOL    HW223796   3.231   4.621   2.626  2.6223 -1.6609  0.7046
 4055SOL     OW23797   3.554   1.766   8.566  0.2444 -0.4058 -0.4868
 4055SOL    HW123798   3.617   1.748   8.496  1.4701 -0.9889  0.7572
 4055SOL    HW223799   3.478   1.720   8.531  0.0027 -0.6319  0.3397
 4056SOL     OW23800   4.236   3.618   4.854 -0.3180 -0.0746  0.1174
 4056SOL    HW123801   4.247   3.668   4.934  0.3029 -1.5095  0.9244
 4056SOL    HW223802   4.141   3.621   4.850 -0.3616 -2.3968 -0.5736
 4057SOL     OW23803   0.459   4.368   9.408 -0.3659  0.2052  0.5122
 4057SOL    HW123804   0.500   4.337   9.488  1.4442  0.3721 -0.3430
 4057SOL    HW223805   0.411   4.442   9.445 -0.4667  0.7814 -0.7613
 4058SOL     OW23806   3.274   1.500  10.940 -0.6208  0.2207  0.3788
 4058SOL    HW123807   3.235   1.583  10.968  1.3789  1.3186 -0.1225
 4058SOL    HW223808   3.218   1.475  10.866  2.0851 -0.5246 -1.3980
 4059SOL     OW23809   0.333   3.701   3.207  0.0567 -0.3686 -0.2694
 4059SOL    HW123810   0.251   3.662   3.178  0.7931 -2.0848 -0.0505
 4059SOL    HW223811   0.377   3.625   3.243  1.2871  0.9131  0.9591
 4060SOL     OW23812   3.947   3.921   8.973  0.3366 -0.5597 -0.0239
 4060SOL    HW123813   3.895   3.972   8.910 -0.4803  0.4245  1.4568
 4060SOL    HW223814   3.922   3.831   8.950  0.5877 -0.5384 -0.3790
 4061SOL     OW23815   0.865   2.745   1.525 -0.2107  1.1757 -0.0029
 4061SOL    HW123816   0.888   2.832   1.556  0.5948  1.2093 -0.6807
 4061SOL    HW223817   0.893   2.737   1.433  0.8021 -1.1192  0.4968
 4062SOL     OW23818   3.828   4.543   2.395 -0.2708 -0.0717 -0.4848
 4062SOL    HW123819   3.776   4.519   2.318 -0.9272  0.5319 -0.2389
 4062SOL    HW223820   3.792   4.482   2.460 -0.4177 -1.9914 -2.3571
 4063SOL     OW23821   1.637   3.160   8.445  0.2524 -0.0449 -0.0697
 4063SOL    HW123822   1.638   3.070   8.477  0.0103  0.8321  2.3899
 4063SOL    HW223823   1.556   3.169   8.397  0.3415  1.8797  0.1555
 4064SOL     OW23824   1.995   2.589   5.352  0.1149  0.0055 -0.1252
 4064SOL    HW123825   2.059   2.522   5.329  0.0692  0.2079 -0.8342
 4064SOL    HW223826   1.913   2.542   5.335  0.4304  0.2885 -2.3465
 4065SOL     OW23827   4.677   0.589  14.708  0.1955  0.5042  1.0225
 4065SOL    HW123828   4.628   0.513  14.741 -1.2355  1.3000  0.7417
 4065SOL    HW223829   4.717   0.617  14.790  0.0243 -1.8311  1.9084
 4066SOL     OW23830   0.225   0.483   9.472  0.8195  0.5584 -0.2658
 4066SOL    HW123831   0.204   0.555   9.531  2.0835 -0.2905  1.2330
 4066SOL    HW223832   0.299   0.528   9.431  0.6444  1.4398  0.3944
 4067SOL     OW23833   3.388   2.822   3.223 -0.3717 -0.2644  0.0187
 4067SOL    HW123834   3.414   2.738   3.185 -0.1306 -0.4892  0.6672
 4067SOL    HW223835   3.461   2.879   3.197  0.5305 -1.4218  0.0077
 4068SOL     OW23836   3.850   3.211   0.535 -0.6506  0.3104  0.7145
 4068SOL    HW123837   3.756   3.214   0.553 -0.6346 -1.3160  1.1124
 4068SOL    HW223838   3.859   3.263   0.455  1.5239 -0.1494  0.6647
 4069SOL     OW23839   2.549   0.522   2.667  0.2653 -0.2252 -0.0272
 4069SOL    HW123840   2.550   0.502   2.573 -1.0948 -3.1938  0.5809
 4069SOL    HW223841   2.624   0.580   2.679  0.0412  0.7005 -3.0944
 4070SOL     OW23842   1.541   3.916  10.179 -0.2691 -0.2207 -0.1690
 4070SOL    HW123843   1.528   3.821  10.174 -0.0063 -0.3250  1.1570
 4070SOL    HW223844   1.555   3.941  10.088  1.3020  1.4015  0.5289
 4071SOL     OW23845   3.471   0.224   8.581 -0.0534  0.1182  0.8231
 4071SOL    HW123846   3.478   0.170   8.502 -1.0390  0.3029  0.6153
 4071SOL    HW223847   3.454   0.314   8.556 -0.1679  0.3872  1.8560
 4072SOL     OW23848   1.352   3.105   8.978  0.3687 -0.0204 -0.4385
 4072SOL    HW123849   1.387   3.022   9.011  1.6886  0.4224 -0.7222
 4072SOL    HW223850   1.316   3.153   9.053  2.7473 -0.1214  0.7621
 4073SOL     OW23851   3.049   0.080   1.889  0.2299  0.1077  0.0878
 4073SOL    HW123852   3.114   0.150   1.892  0.7270 -0.3905  1.1301
 4073SOL    HW223853   3.094   0.010   1.841  0.1876 -0.0300  0.2466
 4074SOL     OW23854   3.745   1.912   8.914  0.2197  0.1802 -0.3137
 4074SOL    HW123855   3.792   1.882   8.991  0.2807 -1.4963 -1.0008
 4074SOL    HW223856   3.652   1.915   8.939  0.7133  0.4634  1.4654
 4075SOL     OW23857   4.718   3.298   5.963  0.1846  0.0433 -0.6568
 4075SOL    HW123858   0.052   3.318   6.025  0.7381 -2.4720 -0.4815
 4075SOL    HW223859   4.669   3.233   6.013  1.3753 -0.3450 -0.0222
 4076SOL     OW23860   3.151   2.434   4.828 -0.2272 -0.5690  0.0324
 4076SOL    HW123861   3.216   2.447   4.898  1.4337 -0.5557 -1.5213
 4076SOL    HW223862   3.131   2.341   4.824  1.8329 -1.1429  2.6829
 4077SOL     OW23863   1.123   1.215   7.629 -0.2309  0.1636  0.1952
 4077SOL    HW123864   1.098   1.150   7.694 -0.5656 -0.3453 -0.4376
 4077SOL    HW223865   1.134   1.169   7.545  0.0689 -1.1979  0.9897
 4078SOL     OW23866   0.487   0.152   9.280 -0.2105  0.2086 -0.7591
 4078SOL    HW123867   0.442   0.070   9.262 -1.4954  0.7734 -0.1544
 4078SOL    HW223868   0.488   0.198   9.197  0.7310  0.2034 -0.7546
 4079SOL     OW23869   0.213   3.293   2.403  0.5364  1.0034  0.2856
 4079SOL    HW123870   0.225   3.251   2.488  1.2823  1.5129  0.4291
 4079SOL    HW223871   0.292   3.346   2.409  0.6008  0.4056  4.4806
 4080SOL     OW23872   4.481   2.464   2.755  0.4024  0.2169  0.0389
 4080SOL    HW123873   4.469   2.369   2.754  0.3995  0.1905  2.4184
 4080SOL    HW223874   4.426   2.489   2.829 -0.2872  0.4112 -0.5349
 4081SOL     OW23875   2.765   3.486   6.061  0.1692  0.4951 -0.0252
 4081SOL    HW123876   2.810   3.431   6.126 -1.2572  1.1623  1.5054
 4081SOL    HW223877   2.833   3.506   5.996  0.3686  1.7020  0.5641
 4082SOL     OW23878   1.395   3.163   5.833  0.4418  0.2789 -0.0808
 4082SOL    HW123879   1.369   3.158   5.741  0.3243 -0.6955  0.0036
 4082SOL    HW223880   1.425   3.253   5.846 -0.1140  0.5802 -0.8949
 4083SOL     OW23881   4.049   0.571   6.247  0.6207  0.1869 -0.6305
 4083SOL    HW123882   4.065   0.665   6.240  0.8357  0.3642  2.2336
 4083SOL    HW223883   4.114   0.556   6.316 -1.0186  0.8304  1.0615
 4084SOL     OW23884   3.794   3.806   6.172 -0.1295  0.1852  0.6925
 4084SOL    HW123885   3.703   3.789   6.150  0.1528  2.1759 -1.8926
 4084SOL    HW223886   3.808   3.727   6.225  0.1203  0.1678  0.6017
 4085SOL     OW23887   3.302   0.345   1.019 -0.4675  0.5362 -0.5941
 4085SOL    HW123888   3.304   0.263   0.969 -0.1394  1.0107 -1.3491
 4085SOL    HW223889   3.313   0.397   0.939 -0.5332  1.5246  0.0417
 4086SOL     OW23890   3.490   4.520   8.691 -0.4248  0.4138 -0.0189
 4086SOL    HW123891   3.479   4.425   8.695 -2.1269  0.5999 -0.2519
 4086SOL    HW223892   3.496   4.545   8.784  0.4475  0.0942  0.0135
 4087SOL     OW23893   1.903   1.896   3.736 -0.0634 -0.0741  0.1333
 4087SOL    HW123894   1.809   1.905   3.719 -0.0189 -0.3001 -0.2313
 4087SOL    HW223895   1.907   1.834   3.808 -0.7357  0.8529  0.9829
 4088SOL     OW23896   4.196   0.010   0.181  0.3237  0.4384 -0.7200
 4088SOL    HW123897   4.147   0.044   0.256  1.4275  1.6692 -0.5579
 4088SOL    HW223898   4.230   4.663   0.212 -1.2292 -0.4977 -1.5755
 4089SOL     OW23899   0.081   3.076   1.154  0.6393 -0.0881  0.8722
 4089SOL    HW123900   0.054   3.021   1.081  1.4645  1.7633 -0.8114
 4089SOL    HW223901   0.044   3.160   1.128  0.6514 -0.6569 -0.9422
 4090SOL     OW23902   3.189   1.871   5.138  0.2554 -0.3285 -0.1413
 4090SOL    HW123903   3.215   1.784   5.110  1.2884 -0.3171  0.7737
 4090SOL    HW223904   3.111   1.891   5.086  0.6844 -0.2456 -0.7562
 4091SOL     OW23905   1.158   1.048   8.424 -0.7079 -0.0599  0.0365
 4091SOL    HW123906   1.204   1.026   8.505  0.0009  0.0064 -0.3469
 4091SOL    HW223907   1.166   0.972   8.366 -2.2484  0.3717 -0.7513
 4092SOL     OW23908   4.534   0.746   8.553 -0.4634 -0.5042  0.0614
 4092SOL    HW123909   4.467   0.695   8.599 -1.4159 -0.1284 -0.9114
 4092SOL    HW223910   4.590   0.754   8.630  1.3060 -0.7388 -1.1998
 4093SOL     OW23911   0.102   1.913   5.452 -0.1814 -0.1028  0.4415
 4093SOL    HW123912   0.084   1.944   5.363 -0.7382 -0.2964  0.4857
 4093SOL    HW223913   0.016   1.877   5.475 -0.2475  1.2381  2.2252
 4094SOL     OW23914   4.279   2.878  17.551  0.1385 -0.4051  0.4271
 4094SOL    HW123915   4.190   2.896  17.582 -0.0178 -2.7802  1.3193
 4094SOL    HW223916   4.317   2.807  17.602 -0.3038  1.0872  2.8138
 4095SOL     OW23917   2.728   2.281  12.038 -0.4901  0.5148 -0.1003
 4095SOL    HW123918   2.641   2.242  12.042  0.2840 -0.9996  2.0332
 4095SOL    HW223919   2.747   2.269  11.945 -2.0021  2.3221 -0.6408
 4096SOL     OW23920   4.163   1.743   5.172  0.3066  0.5737  0.2496
 4096SOL    HW123921   4.236   1.799   5.148  0.4374 -1.0398 -3.1093
 4096SOL    HW223922   4.183   1.725   5.264 -0.7797 -0.2609  0.3285
 4097SOL     OW23923   1.653   3.930   0.343 -0.1840 -0.1765 -0.1057
 4097SOL    HW123924   1.611   3.847   0.317  0.0911 -0.6746  1.0365
 4097SOL    HW223925   1.664   3.916   0.437 -1.5332  1.8406  0.3564
 4098SOL     OW23926   0.264   2.972   4.827  0.4542  0.1932  0.1987
 4098SOL    HW123927   0.265   3.028   4.749 -0.5458  1.2823  0.9735
 4098SOL    HW223928   0.170   2.961   4.841  0.6623 -0.9922  0.6946
 4099SOL     OW23929   4.367   1.902   8.693 -0.4772 -0.4259 -0.4645
 4099SOL    HW123930   4.355   1.994   8.719  0.6068 -0.6287  0.7782
 4099SOL    HW223931   4.343   1.865   8.778  0.2533  2.7498  1.1587
 4100SOL     OW23932   2.343   1.621   3.066 -0.2155 -0.0079 -0.3370
 4100SOL    HW123933   2.435   1.597   3.067  0.2005  1.5488 -0.4800
 4100SOL    HW223934   2.328   1.621   3.160  1.6156  1.2547 -0.0437
 4101SOL     OW23935   2.185   4.183   7.359  0.3135 -0.1164 -0.2684
 4101SOL    HW123936   2.249   4.118   7.388 -2.9591 -1.7371  3.3940
 4101SOL    HW223937   2.209   4.255   7.418  1.9319 -0.4604 -0.5189
 4102SOL     OW23938   4.585   4.401  15.127 -0.1456 -0.0474  0.5195
 4102SOL    HW123939   4.636   4.427  15.050 -1.0088 -1.1165 -0.4235
 4102SOL    HW223940   4.595   4.306  15.127 -0.7808 -0.1091  0.9736
 4103SOL     OW23941   1.181   0.586   7.407  0.3385  0.1752 -0.0674
 4103SOL    HW123942   1.194   0.560   7.316  0.6511 -1.4934  0.4547
 4103SOL    HW223943   1.129   0.666   7.403  0.7962  0.5839  2.2000
 4104SOL     OW23944   1.660   1.603  10.764 -0.0046  0.7924  0.6147
 4104SOL    HW123945   1.669   1.530  10.825  0.4571  1.1963  1.0388
 4104SOL    HW223946   1.646   1.676  10.825 -0.9554 -0.1413  1.5091
 4105SOL     OW23947   4.048   3.497   7.962  0.2908 -0.7678 -0.0891
 4105SOL    HW123948   4.054   3.435   7.889  2.5233 -1.4442  0.6707
 4105SOL    HW223949   3.955   3.518   7.974  1.0242  3.3812 -1.5435
 4106SOL     OW23950   0.399   4.214   7.094  0.3354  0.0804  0.2484
 4106SOL    HW123951   0.441   4.152   7.035  0.7741  0.8655 -0.2598
 4106SOL    HW223952   0.359   4.271   7.029  1.2915  1.4181  0.8289
 4107SOL     OW23953   3.599   2.073   7.078  0.7050  0.4907 -0.0722
 4107SOL    HW123954   3.538   1.999   7.082  0.5323  0.5530 -1.6837
 4107SOL    HW223955   3.538   2.144   7.056  1.3959  1.0225 -0.2406
 4108SOL     OW23956   4.111   0.857   3.846  0.3575  0.1308 -0.2972
 4108SOL    HW123957   4.018   0.841   3.832  0.1355  1.2597 -0.0921
 4108SOL    HW223958   4.128   0.778   3.897 -2.8738 -0.6818 -0.4506
 4109SOL     OW23959   0.111   3.154   0.564 -0.3141 -0.2670  0.1207
 4109SOL    HW123960   0.061   3.074   0.545 -0.4164 -0.1850  0.0463
 4109SOL    HW223961   0.123   3.133   0.657  1.4447  0.3111  0.0122
 4110SOL     OW23962   4.096   2.932   8.890  0.2152 -0.1538 -0.3845
 4110SOL    HW123963   4.144   3.004   8.848  0.3898  0.1739  0.3796
 4110SOL    HW223964   4.163   2.879   8.933  0.2657  1.8105  1.9697
 4111SOL     OW23965   3.596   0.742  14.866  0.0758  0.5245  0.1770
 4111SOL    HW123966   3.552   0.827  14.874  3.2121  2.2331 -0.8945
 4111SOL    HW223967   3.549   0.683  14.925  0.3354  0.2696  0.1261
 4112SOL     OW23968   2.871   1.185  17.665  0.9959  0.7449 -0.1654
 4112SOL    HW123969   2.866   1.230   0.006 -0.0984  0.0271  0.1493
 4112SOL    HW223970   2.782   1.152  17.656  1.7137 -1.1865 -0.0513
 4113SOL     OW23971   0.894   2.194   3.464 -0.7356 -0.2647 -0.5417
 4113SOL    HW123972   0.896   2.228   3.374 -2.1307 -0.9938 -0.8500
 4113SOL    HW223973   0.815   2.142   3.475 -0.5913 -0.3285  0.1770
 4114SOL     OW23974   4.524   0.412   3.207 -0.3330  0.5904 -0.2322
 4114SOL    HW123975   4.518   0.500   3.244  0.3641 -0.0585  1.4098
 4114SOL    HW223976   4.435   0.379   3.217 -0.1582  0.4255  0.8010
 4115SOL     OW23977   1.708   4.073   2.292 -0.3788  0.0137 -1.0347
 4115SOL    HW123978   1.645   4.082   2.221 -1.9601  0.2549  0.3767
 4115SOL    HW223979   1.674   4.002   2.347  0.5350  0.1230 -0.3360
 4116SOL     OW23980   4.030   1.048   4.341 -0.1146  0.3371 -0.2817
 4116SOL    HW123981   4.073   1.095   4.412  1.6448 -1.5089 -0.1375
 4116SOL    HW223982   3.983   0.975   4.381 -0.5819  0.3015 -0.8958
 4117SOL     OW23983   1.398   1.227   4.128 -0.0272 -0.1238 -0.4980
 4117SOL    HW123984   1.471   1.286   4.111 -0.8401  1.2908  0.9593
 4117SOL    HW223985   1.326   1.269   4.081  1.7707  1.9433 -1.3831
 4118SOL     OW23986   1.741   2.817   3.346 -0.1433  0.0258  0.4607
 4118SOL    HW123987   1.805   2.756   3.309 -0.0800  1.8722 -2.4940
 4118SOL    HW223988   1.704   2.775   3.424 -1.6486 -1.0534 -0.8216
 4119SOL     OW23989   3.993   2.238   5.044  0.0234  0.0261  0.1989
 4119SOL    HW123990   3.983   2.190   5.127 -4.0526  0.4436 -0.0842
 4119SOL    HW223991   4.028   2.322   5.074  2.2884 -0.9232  0.2488
 4120SOL     OW23992   4.009   3.238   2.764 -0.2891  0.4869  0.2569
 4120SOL    HW123993   4.003   3.280   2.850 -0.9176 -2.3804  1.6155
 4120SOL    HW223994   3.969   3.156   2.795  0.3105  0.7503  1.7677
 4121SOL     OW23995   2.196   3.322  14.722  0.3479 -0.3467  0.4027
 4121SOL    HW123996   2.139   3.247  14.701  1.7441 -0.4777 -2.9501
 4121SOL    HW223997   2.180   3.387  14.653 -0.5174 -1.2469 -0.2532
 4122SOL     OW23998   0.549   3.822  16.518 -0.3560  0.3134  0.1563
 4122SOL    HW123999   0.545   3.917  16.504 -1.4851  0.0029 -1.6923
 4122SOL    HW224000   0.454   3.819  16.516 -0.3209  0.7101 -3.5179
 4123SOL     OW24001   1.330   1.834  16.817 -0.3380  0.3867  0.2804
 4123SOL    HW124002   1.297   1.881  16.740  1.2471  1.2873  0.1506
 4123SOL    HW224003   1.257   1.787  16.856 -0.1710 -2.2953 -2.5771
 4124SOL     OW24004   0.985   4.625   8.680  0.3923  0.7795 -0.0561
 4124SOL    HW124005   0.932   4.554   8.644 -0.5475  2.0344 -1.1426
 4124SOL    HW224006   0.964   4.696   8.620 -0.2368 -1.4371 -2.4390
 4125SOL     OW24007   2.796   2.438   7.565  0.0780 -0.0101  0.1223
 4125SOL    HW124008   2.856   2.365   7.577 -1.4580 -1.0374  1.6768
 4125SOL    HW224009   2.811   2.455   7.472  0.9753 -0.9521  0.0944
 4126SOL     OW24010   1.223   3.849   3.993 -0.1425 -0.1992  0.2502
 4126SOL    HW124011   1.290   3.851   3.926 -1.9132 -1.3156 -1.5330
 4126SOL    HW224012   1.269   3.834   4.076 -0.7746 -1.0866  0.4326
 4127SOL     OW24013   4.666   3.244   4.571 -0.0716 -0.1164 -0.0986
 4127SOL    HW124014   4.657   3.320   4.629  2.4479 -0.2087  0.4363
 4127SOL    HW224015   4.595   3.188   4.603  0.2646  0.5845  1.8733
 4128SOL     OW24016   4.658   2.764   2.920 -0.4666  0.7110 -0.6470
 4128SOL    HW124017   4.683   2.822   2.993 -0.5298 -1.3095  0.9643
 4128SOL    HW224018   4.620   2.829   2.861  0.5207  0.1492 -1.9077
 4129SOL     OW24019   2.862   1.951   5.168  0.2721 -0.0392 -0.4199
 4129SOL    HW124020   2.830   1.976   5.254 -1.9573 -0.9430 -0.9895
 4129SOL    HW224021   2.910   1.871   5.192  0.1358  0.2847  0.8988
 4130SOL     OW24022   0.141   1.474   3.704 -0.6725 -0.4131  0.2123
 4130SOL    HW124023   0.065   1.531   3.692  1.2367  1.9197 -0.7001
 4130SOL    HW224024   0.135   1.412   3.631 -1.7635  0.6715 -0.6365
 4131SOL     OW24025   3.416   1.128   4.925 -0.2670 -0.9497 -0.3153
 4131SOL    HW124026   3.346   1.072   4.957  1.1744 -1.1291  2.5315
 4131SOL    HW224027   3.402   1.117   4.831 -1.6445  1.7877 -0.4477
 4132SOL     OW24028   1.431   4.676   1.816  0.3410 -0.5365 -0.5419
 4132SOL    HW124029   1.507   4.676   1.874 -0.9955 -0.8372  1.2015
 4132SOL    HW224030   1.405   4.585   1.801  1.5748 -1.0397  0.3355
 4133SOL     OW24031   0.885   2.540  13.094  0.6333  0.3565  0.3466
 4133SOL    HW124032   0.810   2.601  13.093 -1.4408 -2.2073 -1.2467
 4133SOL    HW224033   0.951   2.602  13.064  0.5092  0.1866 -0.2814
 4134SOL     OW24034   2.446   1.408   8.802  0.2221 -0.0041  0.8854
 4134SOL    HW124035   2.446   1.502   8.823  2.3745  0.9886 -3.4434
 4134SOL    HW224036   2.416   1.412   8.711 -0.1594  0.2065  1.0203
 4135SOL     OW24037   2.583   3.863  15.357  0.2954 -0.0918 -0.4545
 4135SOL    HW124038   2.603   3.843  15.449 -0.2774  0.4007 -0.2211
 4135SOL    HW224039   2.590   3.776  15.319  0.4828 -0.3071  0.0631
 4136SOL     OW24040   2.951   0.817   4.602  0.5025  0.4452  0.3578
 4136SOL    HW124041   3.033   0.839   4.648 -0.0545  0.1490  1.4836
 4136SOL    HW224042   2.940   0.737   4.653 -0.5038  0.4090  0.0774
 4137SOL     OW24043   3.366   3.189   6.454  0.4478 -0.2408 -0.1323
 4137SOL    HW124044   3.282   3.225   6.485 -0.7085 -1.5410 -1.7857
 4137SOL    HW224045   3.384   3.237   6.374  2.7294  0.4647  0.8158
 4138SOL     OW24046   3.354   4.065   9.300 -0.4233  0.1524  0.9539
 4138SOL    HW124047   3.331   4.129   9.232  0.4197 -0.4622  0.0965
 4138SOL    HW224048   3.281   4.072   9.361 -2.2735  1.4852 -1.4106
 4139SOL     OW24049   3.416   3.188   8.033 -0.1605  0.6744 -0.2423
 4139SOL    HW124050   3.326   3.208   8.007 -0.1756  1.7315  0.6385
 4139SOL    HW224051   3.454   3.166   7.948  1.3323 -1.4010  0.9576
 4140SOL     OW24052   3.869   1.932  11.264 -0.5413  0.4293  0.4247
 4140SOL    HW124053   3.839   1.858  11.316  2.1868 -0.9374  0.0567
 4140SOL    HW224054   3.885   1.990  11.339 -1.1645  2.1946 -0.8246
 4141SOL     OW24055   4.693   3.708  15.967 -0.1047  0.0058 -0.3231
 4141SOL    HW124056   4.710   3.614  15.964  0.4500  0.1799 -2.8747
 4141SOL    HW224057   0.018   3.755  16.023  0.5025 -1.5166  0.2582
 4142SOL     OW24058   4.161   2.882   4.267 -0.6235 -0.4794 -0.0486
 4142SOL    HW124059   4.106   2.960   4.258 -0.5610 -0.2675  1.3818
 4142SOL    HW224060   4.228   2.922   4.323 -0.2112 -0.7409 -0.3560
 4143SOL     OW24061   4.428   2.378   8.139  0.4509 -0.1450  0.2861
 4143SOL    HW124062   4.440   2.460   8.188  0.0944 -1.0189  1.8391
 4143SOL    HW224063   4.519   2.349   8.136  0.5133  0.1480 -0.5471
 4144SOL     OW24064   0.535   3.652   4.187 -0.0292 -0.2224  0.0638
 4144SOL    HW124065   0.483   3.585   4.232  0.2151 -0.5949 -0.2134
 4144SOL    HW224066   0.592   3.686   4.256 -2.2806  2.7019  0.4734
 4145SOL     OW24067   1.737   0.327   8.340  0.0813 -0.1092  0.5431
 4145SOL    HW124068   1.814   0.366   8.383  0.2079  1.1240 -0.7833
 4145SOL    HW224069   1.770   0.252   8.291 -1.4361  0.8016 -1.8851
 4146SOL     OW24070   3.643   2.401   4.517 -0.3688 -0.3121  0.3241
 4146SOL    HW124071   3.669   2.365   4.432  1.9484 -1.6963  1.5893
 4146SOL    HW224072   3.715   2.371   4.573  1.5747  1.3434 -1.2498
 4147SOL     OW24073   4.275   2.522   9.504  0.1900 -0.6848  0.6923
 4147SOL    HW124074   4.309   2.496   9.590  0.4764  0.6523  0.9817
 4147SOL    HW224075   4.251   2.436   9.469 -1.4191  0.6691 -1.4325
 4148SOL     OW24076   2.576   3.375   8.234 -0.7953  0.7194 -0.3744
 4148SOL    HW124077   2.640   3.345   8.299 -0.9114 -1.7542 -1.4053
 4148SOL    HW224078   2.496   3.379   8.287 -1.6517  2.3911 -1.7973
 4149SOL     OW24079   2.957   1.687   5.227 -0.1802  0.3579 -0.2474
 4149SOL    HW124080   3.000   1.609   5.191 -1.2659 -1.2577  1.9782
 4149SOL    HW224081   3.022   1.713   5.292  1.6223  1.2188 -2.4110
 4150SOL     OW24082   1.998   2.940  12.030  0.6670 -0.0576 -0.1842
 4150SOL    HW124083   2.012   2.980  12.116  0.6161  0.7925 -0.5749
 4150SOL    HW224084   1.946   2.861  12.047  0.8174  0.0351  0.7199
 4151SOL     OW24085   4.112   2.470   6.051  0.0347 -0.1431 -0.2108
 4151SOL    HW124086   4.075   2.558   6.042 -3.8218 -1.5068  2.3460
 4151SOL    HW224087   4.081   2.440   6.136 -2.1181  2.1583 -0.1835
 4152SOL     OW24088   3.390   4.419   4.451 -0.9553 -0.0095  0.4752
 4152SOL    HW124089   3.457   4.436   4.384  0.4199 -3.3340  0.9753
 4152SOL    HW224090   3.313   4.387   4.405  0.1390  0.2607 -1.5567
 4153SOL     OW24091   3.831   2.253   2.948 -0.3563 -0.0887  0.2779
 4153SOL    HW124092   3.921   2.223   2.933 -0.5123 -0.3212 -0.1854
 4153SOL    HW224093   3.771   2.191   2.906  1.4351 -2.7485  1.6590
 4154SOL     OW24094   2.704   3.127   1.624 -0.0163 -0.0534 -0.3416
 4154SOL    HW124095   2.726   3.144   1.716  0.3526 -1.0195 -0.2478
 4154SOL    HW224096   2.755   3.047   1.609  0.2533  0.0682 -0.0581
 4155SOL     OW24097   1.072   1.661   5.434  0.9470 -0.0893 -0.1081
 4155SOL    HW124098   1.162   1.659   5.467  1.3346 -0.3099 -1.1992
 4155SOL    HW224099   1.077   1.578   5.386  1.4268  0.1879 -0.5251
 4156SOL     OW24100   0.414   1.855   1.337 -0.4318  0.0066  0.0991
 4156SOL    HW124101   0.429   1.793   1.408 -0.3986  0.2025  0.2625
 4156SOL    HW224102   0.396   1.927   1.397  1.1514 -1.0690  1.8920
 4157SOL     OW24103   3.745   3.355   3.335 -0.3424 -0.1372 -0.2852
 4157SOL    HW124104   3.649   3.351   3.330 -0.1102 -1.4219 -4.1853
 4157SOL    HW224105   3.764   3.288   3.401  1.5920 -0.3078 -1.0067
 4158SOL     OW24106   4.418   4.452   4.403  0.1925 -0.1237 -0.5889
 4158SOL    HW124107   4.345   4.431   4.344  0.1652 -2.4292  0.2469
 4158SOL    HW224108   4.420   4.372   4.455 -0.5600  0.8698  0.9520
 4159SOL     OW24109   1.062   1.526   3.830  0.4807 -0.3627 -0.1528
 4159SOL    HW124110   1.065   1.622   3.833 -1.2633 -0.2699 -1.5948
 4159SOL    HW224111   0.983   1.518   3.777  1.8695  1.8313 -2.5611
 4160SOL     OW24112   0.390   1.619   3.945  0.7073  0.1831 -0.0484
 4160SOL    HW124113   0.347   1.695   3.983 -0.1777  0.9347 -2.5268
 4160SOL    HW224114   0.336   1.541   3.959  0.3736  0.8549  2.3694
 4161SOL     OW24115   4.197   3.930   6.664  0.3163  0.2807 -0.1347
 4161SOL    HW124116   4.146   4.010   6.676 -2.5456 -1.4880 -0.2811
 4161SOL    HW224117   4.286   3.957   6.685  0.2399  0.6364 -0.2752
 4162SOL     OW24118   2.110   0.277   5.830  0.3380  0.3729 -0.0875
 4162SOL    HW124119   2.134   0.356   5.878 -1.5187  0.5591  0.5139
 4162SOL    HW224120   2.131   0.304   5.741 -0.4061  1.4425  0.0626
 4163SOL     OW24121   1.423   2.776   3.148 -0.7335 -0.1509  0.2847
 4163SOL    HW124122   1.420   2.680   3.142  1.2575 -0.2129  0.2653
 4163SOL    HW224123   1.334   2.803   3.125 -0.2536  1.8042  0.7934
 4164SOL     OW24124   3.488   3.448   8.040  0.3001  0.0689  0.0428
 4164SOL    HW124125   3.440   3.368   8.062  0.1814 -0.4565 -2.1952
 4164SOL    HW224126   3.466   3.471   7.950 -1.6104 -0.7925  0.2844
 4165SOL     OW24127   1.386   3.543   2.771  0.2180 -0.3219  0.0295
 4165SOL    HW124128   1.360   3.453   2.792 -0.4607  0.1280  1.1283
 4165SOL    HW224129   1.414   3.563   2.860 -1.3946 -0.2356  0.5270
 4166SOL     OW24130   2.384   4.163  12.119 -1.0047 -0.0352 -0.3705
 4166SOL    HW124131   2.474   4.150  12.149 -0.2669 -1.0108 -3.0410
 4166SOL    HW224132   2.390   4.219  12.042  1.6874 -0.4745 -0.4814
 4167SOL     OW24133   0.530   1.127  12.089  0.2663 -0.6412  0.0620
 4167SOL    HW124134   0.520   1.053  12.148 -0.8101  2.6785  4.0116
 4167SOL    HW224135   0.445   1.169  12.093  0.5112  0.0092 -1.5738
 4168SOL     OW24136   1.738   1.899  16.456  0.0849  0.1491 -0.5745
 4168SOL    HW124137   1.755   1.972  16.515 -1.7613  0.1415 -0.0113
 4168SOL    HW224138   1.648   1.877  16.480  0.4691  0.0434  0.7619
 4169SOL     OW24139   2.754   1.174   7.673  0.5050  0.0236 -0.0681
 4169SOL    HW124140   2.698   1.099   7.693  3.4478 -2.0475  0.3734
 4169SOL    HW224141   2.735   1.232   7.746 -0.9969  0.2611 -0.6426
 4170SOL     OW24142   2.058   3.551   8.845 -0.6146 -0.1932 -0.1365
 4170SOL    HW124143   2.120   3.486   8.811 -1.4149 -1.8383  1.5095
 4170SOL    HW224144   2.106   3.633   8.854 -2.0225  0.6453 -0.3315
 4171SOL     OW24145   3.131   0.036  16.375 -0.4161 -0.2454 -0.2197
 4171SOL    HW124146   3.035   0.027  16.380 -0.1511 -2.5917  0.5459
 4171SOL    HW224147   3.157   0.011  16.286  2.7732 -0.8165  0.9002
 4172SOL     OW24148   3.622   4.651   7.311 -0.1494 -0.4064 -0.1847
 4172SOL    HW124149   3.571   4.721   7.271  0.7698 -0.0338 -0.7057
 4172SOL    HW224150   3.655   4.611   7.230  0.7022  0.4562 -0.2678
 4173SOL     OW24151   1.882   3.928  16.128 -0.6821  0.2396  0.6959
 4173SOL    HW124152   1.846   3.841  16.115 -5.3662  2.2617  0.0934
 4173SOL    HW224153   1.912   3.956  16.042  0.1391 -1.8935  0.3057
 4174SOL     OW24154   1.777   4.182   2.739 -0.4852 -0.0251 -0.1665
 4174SOL    HW124155   1.814   4.094   2.727 -0.2921 -0.0164  0.3743
 4174SOL    HW224156   1.833   4.209   2.811  0.4506 -0.4694 -0.7274
 4175SOL     OW24157   3.570   2.496   2.247 -0.1836  0.5997  0.0773
 4175SOL    HW124158   3.488   2.521   2.290 -0.0765  1.9781 -0.5019
 4175SOL    HW224159   3.567   2.556   2.173 -1.1879 -1.0461 -1.2181
 4176SOL     OW24160   2.030   2.371   4.283 -0.4509 -0.0051  1.3237
 4176SOL    HW124161   2.090   2.423   4.230  0.3030  0.8419  2.9777
 4176SOL    HW224162   2.095   2.306   4.309  0.5322  0.3033 -0.4334
 4177SOL     OW24163   0.035   1.714   4.825  0.2911  0.6298 -0.0010
 4177SOL    HW124164   0.041   1.623   4.854 -0.9731  0.5708  0.0740
 4177SOL    HW224165   0.126   1.745   4.825  0.5859 -0.2539 -0.3542
 4178SOL     OW24166   3.891   3.310   4.790  0.2611  0.3427  0.4981
 4178SOL    HW124167   3.813   3.255   4.782 -0.3461  1.4021 -0.8897
 4178SOL    HW224168   3.911   3.341   4.702  1.4104  3.5883  1.9015
 4179SOL     OW24169   2.574   0.290   7.975  0.2185  0.1590  0.0225
 4179SOL    HW124170   2.574   0.366   8.034  0.2536 -0.1954  0.4821
 4179SOL    HW224171   2.611   0.324   7.894  2.3921 -1.3515  0.3760
 4180SOL     OW24172   1.752   2.775  12.421  0.3055  0.0979 -0.4563
 4180SOL    HW124173   1.828   2.765  12.364  0.7028  0.2566  0.0474
 4180SOL    HW224174   1.725   2.685  12.440 -2.6070  1.3691  1.4400
 4181SOL     OW24175   1.531   3.538  15.169 -0.3192 -0.1269  0.1619
 4181SOL    HW124176   1.581   3.565  15.246  0.9312  0.6486 -0.9130
 4181SOL    HW224177   1.530   3.624  15.127  1.0685 -0.4710 -0.5885
 4182SOL     OW24178   1.364   4.256   0.783  0.0324  0.2365 -0.0320
 4182SOL    HW124179   1.454   4.277   0.759  1.0120  0.1986  3.6114
 4182SOL    HW224180   1.330   4.243   0.695  2.1178  0.0976 -0.7988
 4183SOL     OW24181   3.003   4.199   0.979 -0.1015  0.5917 -0.1831
 4183SOL    HW124182   3.062   4.134   1.017 -0.6288 -0.7274 -1.6317
 4183SOL    HW224183   2.984   4.177   0.888  1.5815 -2.4979  0.2252
 4184SOL     OW24184   4.195   0.742   3.299  0.6799 -0.2650 -0.7596
 4184SOL    HW124185   4.289   0.746   3.316  0.3829 -0.3461  0.8590
 4184SOL    HW224186   4.155   0.749   3.385  0.9310 -2.1730 -0.5028
 4185SOL     OW24187   0.491   1.628   6.495 -0.4708  0.3609  0.0210
 4185SOL    HW124188   0.563   1.669   6.542  1.7043 -1.3313 -1.8043
 4185SOL    HW224189   0.537   1.595   6.418 -2.1733  1.1420 -1.3454
 4186SOL     OW24190   1.260   3.936   2.087 -0.0047 -0.5168 -0.0005
 4186SOL    HW124191   1.165   3.948   2.093 -0.0193 -0.3065 -0.6849
 4186SOL    HW224192   1.268   3.864   2.150 -1.8191  1.5457  2.5749
 4187SOL     OW24193   1.753   1.016   2.946  0.2166 -0.0332 -0.3998
 4187SOL    HW124194   1.812   1.050   2.879 -2.4334  3.3967 -0.9730
 4187SOL    HW224195   1.687   1.084   2.938 -0.6654 -0.8842 -0.3589
 4188SOL     OW24196   1.517   4.117   1.209 -0.0121  0.0441  0.4380
 4188SOL    HW124197   1.597   4.149   1.251 -0.3591  0.7028  0.5919
 4188SOL    HW224198   1.491   4.188   1.149 -0.3625 -0.8696 -0.4879
 4189SOL     OW24199   4.049   3.388   7.653 -0.5170 -0.6319 -0.3509
 4189SOL    HW124200   4.014   3.314   7.604 -0.6012  0.0798 -1.3863
 4189SOL    HW224201   4.131   3.354   7.688 -1.2008 -0.6254  1.2632
 4190SOL     OW24202   0.934   1.423   9.590 -0.2762  0.2088 -0.4042
 4190SOL    HW124203   0.953   1.441   9.497 -0.1134  0.3986 -0.3356
 4190SOL    HW224204   0.921   1.512   9.624 -0.2514 -0.1909  0.6256
 4191SOL     OW24205   3.670   3.750   6.499 -0.0268 -0.4961  0.5448
 4191SOL    HW124206   3.727   3.816   6.539  0.0083  0.2412 -0.7336
 4191SOL    HW224207   3.724   3.672   6.494  0.2003 -0.2047 -1.4808
 4192SOL     OW24208   2.479   3.288  15.140 -0.1559 -0.1247  0.4622
 4192SOL    HW124209   2.433   3.315  15.060 -0.5024  0.9469  1.0158
 4192SOL    HW224210   2.397   3.270  15.185 -0.3125  1.9488  1.0077
 4193SOL     OW24211   1.350   0.595  14.413  0.2247 -0.0758 -0.8787
 4193SOL    HW124212   1.313   0.589  14.325  2.6422 -0.6273 -1.8426
 4193SOL    HW224213   1.435   0.636  14.401 -0.6572  1.7314 -1.0292
 4194SOL     OW24214   0.520   1.425   4.296 -0.2293  0.0511  0.7473
 4194SOL    HW124215   0.547   1.492   4.359 -1.2853  1.9236 -0.7799
 4194SOL    HW224216   0.583   1.441   4.226 -0.4383  0.6289  0.6945
 4195SOL     OW24217   2.373   3.067   8.402 -0.0903  0.2258 -0.0376
 4195SOL    HW124218   2.291   3.106   8.432 -0.4607 -0.4266 -0.2064
 4195SOL    HW224219   2.432   3.140   8.421  2.2898 -1.8420  0.5655
 4196SOL     OW24220   4.656   2.879   8.805  0.3925 -0.4863 -0.0906
 4196SOL    HW124221   4.663   2.907   8.897 -1.8297 -0.6489  0.1511
 4196SOL    HW224222   4.664   2.785   8.820  2.2281 -0.1330  1.0606
 4197SOL     OW24223   1.036   1.288   6.676 -0.4389  0.4840  0.1694
 4197SOL    HW124224   1.122   1.246   6.681 -0.3258  0.5772 -0.9912
 4197SOL    HW224225   1.046   1.373   6.634  1.3790  0.9223  1.5080
 4198SOL     OW24226   0.099   0.357  12.039 -0.2076  0.2543 -0.0736
 4198SOL    HW124227   0.064   0.382  11.953 -1.0470  1.4000  0.5876
 4198SOL    HW224228   0.064   0.430  12.091 -1.4304 -1.7472  1.9130
 4199SOL     OW24229   1.160   2.284   1.144  0.0996  0.1960  0.6578
 4199SOL    HW124230   1.213   2.363   1.137 -0.5810  0.7884  2.2719
 4199SOL    HW224231   1.073   2.315   1.171 -0.3918  0.5416 -1.3508
 4200SOL     OW24232   3.880   4.542   3.693 -0.2881 -0.3274 -0.1653
 4200SOL    HW124233   3.972   4.539   3.720  0.0226  1.3039 -1.0436
 4200SOL    HW224234   3.847   4.599   3.763 -0.3586 -1.8013  1.0000
 4201SOL     OW24235   2.515   4.694   0.354  0.2452  0.0463  0.4623
 4201SOL    HW124236   2.460   0.010   0.296  0.3847 -2.1909 -1.7015
 4201SOL    HW224237   2.559   4.630   0.298  0.2950  0.5817 -0.1237
 4202SOL     OW24238   4.677   2.172   7.185 -0.2716 -0.0923  0.1057
 4202SOL    HW124239   4.624   2.206   7.113 -1.5465  1.1296  1.6184
 4202SOL    HW224240   4.713   2.257   7.210  0.8624 -0.1896 -1.1954
 4203SOL     OW24241   0.274   4.617  12.512  0.5548  0.4825  0.0227
 4203SOL    HW124242   0.231   4.693  12.473 -0.1725 -0.2394 -0.5800
 4203SOL    HW224243   0.346   4.618  12.449 -0.2008 -0.0409 -0.8542
 4204SOL     OW24244   4.379   0.463  10.172 -0.6896 -0.8741 -0.4486
 4204SOL    HW124245   4.464   0.456  10.216 -0.0319 -1.9992 -1.8939
 4204SOL    HW224246   4.336   0.514  10.241 -0.6389  0.6763 -1.5532
 4205SOL     OW24247   3.028   3.485   3.103  0.6861 -0.5817 -0.1966
 4205SOL    HW124248   3.074   3.404   3.126 -1.6646 -1.9151 -0.2785
 4205SOL    HW224249   3.095   3.531   3.053  0.3575  0.1702  0.0547
 4206SOL     OW24250   3.173   1.329  14.769 -0.5605  0.6418 -0.0252
 4206SOL    HW124251   3.124   1.353  14.690  1.6105 -1.2349 -1.9380
 4206SOL    HW224252   3.188   1.240  14.738 -0.3629 -0.0172  1.9661
 4207SOL     OW24253   1.661   2.557   3.194 -0.3378  0.4239 -0.4423
 4207SOL    HW124254   1.749   2.525   3.175 -0.3524  2.0055 -3.1984
 4207SOL    HW224255   1.674   2.615   3.119  1.4710 -1.4617 -1.6112
 4208SOL     OW24256   2.021   0.538   3.821  0.4279 -0.0318 -0.4406
 4208SOL    HW124257   2.029   0.565   3.912 -1.5567 -0.5128 -0.1193
 4208SOL    HW224258   1.967   0.459   3.831 -0.8739  0.8710 -0.4068
 4209SOL     OW24259   3.100   2.907   2.236 -0.0651  0.2899 -0.0629
 4209SOL    HW124260   3.169   2.956   2.279  1.3832  0.5515 -2.6760
 4209SOL    HW224261   3.151   2.851   2.178  1.2468  0.6883  0.7235
 4210SOL     OW24262   2.137   3.410   2.267 -0.0245  0.0034  0.2167
 4210SOL    HW124263   2.053   3.412   2.222 -0.7766  0.8290  1.6656
 4210SOL    HW224264   2.181   3.340   2.219 -0.7384 -1.0284  1.0557
 4211SOL     OW24265   4.200   2.121   6.086  0.5219 -0.6715  0.2978
 4211SOL    HW124266   4.271   2.174   6.122  0.1637 -0.1780  0.2831
 4211SOL    HW224267   4.168   2.089   6.171  0.1152 -0.8318  0.0838
 4212SOL     OW24268   0.594   2.312   5.268  0.3306  0.3321  0.4263
 4212SOL    HW124269   0.515   2.327   5.321  0.8298  2.7645  0.4602
 4212SOL    HW224270   0.630   2.239   5.318  0.1527 -1.5362 -2.1438
 4213SOL     OW24271   1.018   2.724   4.000 -0.1486 -0.2937 -0.1500
 4213SOL    HW124272   0.972   2.729   3.916  0.1652  0.5383 -0.2808
 4213SOL    HW224273   1.045   2.632   4.001 -0.0119 -0.2632 -1.5697
 4214SOL     OW24274   0.690   3.867  15.459 -0.2822 -0.1108 -0.6087
 4214SOL    HW124275   0.661   3.798  15.400 -1.2297 -0.8294  0.7053
 4214SOL    HW224276   0.608   3.887  15.505  0.6234  0.3126  0.8382
 4215SOL     OW24277   3.813   0.233  16.297 -0.1926  0.0788  0.1568
 4215SOL    HW124278   3.842   0.205  16.384  0.1877  2.5548  0.8126
 4215SOL    HW224279   3.897   0.224  16.253 -0.0772  2.5252 -0.1206
 4216SOL     OW24280   0.742   3.603   9.433 -0.2016  1.2260  0.4295
 4216SOL    HW124281   0.788   3.532   9.388  0.1739  1.1891  0.8752
 4216SOL    HW224282   0.664   3.559   9.467  0.0477  0.1189 -0.4284
 4217SOL     OW24283   3.101   3.869  14.772  0.2564  0.3256 -0.7306
 4217SOL    HW124284   3.067   3.910  14.852  2.6857 -2.8439  1.9435
 4217SOL    HW224285   3.150   3.937  14.725  1.3313  0.2094  0.2120
 4218SOL     OW24286   2.327   0.760   4.804 -0.5308  0.1257  0.5676
 4218SOL    HW124287   2.235   0.749   4.780 -0.3930  1.1227 -0.4229
 4218SOL    HW224288   2.348   0.844   4.764 -1.8668 -0.3294 -1.1097
 4219SOL     OW24289   3.906   1.505   4.093 -0.0582 -0.4128  0.9637
 4219SOL    HW124290   3.844   1.574   4.069 -0.7257 -0.8233  1.4896
 4219SOL    HW224291   3.910   1.455   4.011  0.5179  2.4539 -0.7438
 4220SOL     OW24292   0.218   0.106   7.141 -0.3465  0.0093 -0.3914
 4220SOL    HW124293   0.168   0.029   7.170 -1.9117  0.5609 -1.6254
 4220SOL    HW224294   0.172   0.116   7.057 -0.3745 -0.0049 -0.3779
 4221SOL     OW24295   0.927   3.851  14.195 -0.1298  0.0915  0.1219
 4221SOL    HW124296   0.877   3.925  14.160 -0.6656  0.0988  0.9104
 4221SOL    HW224297   0.885   3.776  14.152  0.3060 -0.4520  0.6450
 4222SOL     OW24298   0.336   3.845   8.110  0.2723  0.1236 -0.1700
 4222SOL    HW124299   0.370   3.911   8.171 -0.7950  1.5184 -1.0793
 4222SOL    HW224300   0.379   3.874   8.029 -0.2008 -1.2208 -0.8893
 4223SOL     OW24301   4.432   1.942   6.536 -0.2939  0.1437  0.6570
 4223SOL    HW124302   4.493   1.901   6.597  0.6523  0.9356  0.2266
 4223SOL    HW224303   4.359   1.941   6.598 -2.2023  2.3726 -1.5649
 4224SOL     OW24304   3.229   4.437  16.184  0.1175 -0.1171 -0.2200
 4224SOL    HW124305   3.302   4.451  16.244  0.0740 -0.9389  0.0224
 4224SOL    HW224306   3.216   4.527  16.155  2.6843  0.0357 -0.8445
 4225SOL     OW24307   2.699   3.115   5.616 -0.0619 -0.2323  0.7908
 4225SOL    HW124308   2.716   3.209   5.613  0.7407 -0.4014 -0.0088
 4225SOL    HW224309   2.672   3.076   5.533 -0.4842  0.4021  0.6328
 4226SOL     OW24310   0.992   1.328   3.097 -0.4790 -0.2511  0.1613
 4226SOL    HW124311   0.944   1.299   3.019  0.2691  1.2405 -0.8584
 4226SOL    HW224312   0.933   1.395   3.130  2.1241  2.6637 -1.0777
 4227SOL     OW24313   1.523   2.279   7.050  0.6101  0.4156  0.5741
 4227SOL    HW124314   1.472   2.200   7.033 -2.7128  2.8071 -0.3718
 4227SOL    HW224315   1.467   2.355   7.039 -0.2438  0.0822  2.6286
 4228SOL     OW24316   0.606   3.441  17.216  0.0955 -0.2184  0.6167
 4228SOL    HW124317   0.547   3.376  17.255  0.5632 -1.6947 -1.1561
 4228SOL    HW224318   0.557   3.522  17.228  0.8213  0.2092  0.7258
 4229SOL     OW24319   1.259   2.367   3.478  0.1298  0.2271 -0.2379
 4229SOL    HW124320   1.193   2.414   3.529  0.7014  0.4155  0.3351
 4229SOL    HW224321   1.257   2.277   3.509 -0.4192  0.3486  0.0765
 4230SOL     OW24322   0.974   0.464  11.015 -0.5763 -0.1226  0.0915
 4230SOL    HW124323   1.041   0.402  11.041  0.2461  1.0424  0.7237
 4230SOL    HW224324   0.975   0.523  11.090  1.6746  1.3166 -1.0723
 4231SOL     OW24325   4.433   0.915   2.188 -0.2189  0.3323  0.2488
 4231SOL    HW124326   4.357   0.874   2.147  0.5970  0.5307 -1.4625
 4231SOL    HW224327   4.446   0.854   2.261  1.2916 -0.2904 -0.5530
 4232SOL     OW24328   0.284   2.303   2.490 -0.4172  0.2072  0.0290
 4232SOL    HW124329   0.216   2.281   2.425 -0.5074  0.5818 -0.0041
 4232SOL    HW224330   0.224   2.322   2.563  0.6342  0.7425  0.7455
 4233SOL     OW24331   1.067   3.826   9.378  0.0363  0.0705  0.2287
 4233SOL    HW124332   1.002   3.887   9.413 -2.9620 -3.0036  0.0075
 4233SOL    HW224333   1.034   3.812   9.289  1.4035 -1.8302  0.0162
 4234SOL     OW24334   0.079   3.492   2.253  0.5167 -0.5054  0.3979
 4234SOL    HW124335   4.729   3.452   2.249  0.1129  0.3870  0.2839
 4234SOL    HW224336   0.127   3.425   2.302 -0.1470 -1.0848  0.2456
 4235SOL     OW24337   3.011   3.282  16.063  0.2902 -0.2048 -0.1393
 4235SOL    HW124338   2.997   3.273  16.157 -1.4521 -1.9690 -0.5626
 4235SOL    HW224339   2.927   3.322  16.038 -0.3148 -2.6251 -2.0427
 4236SOL     OW24340   1.544   0.606   3.831 -0.6796 -0.2363  0.5001
 4236SOL    HW124341   1.554   0.634   3.740  2.2556  1.0172  1.2016
 4236SOL    HW224342   1.497   0.678   3.873  0.0782  0.3052  0.4110
 4237SOL     OW24343   2.576   2.826  13.233  0.1660 -0.2754 -0.4847
 4237SOL    HW124344   2.625   2.793  13.157 -0.8510  0.2140 -1.3556
 4237SOL    HW224345   2.533   2.746  13.263  1.1428 -0.8623 -0.6246
 4238SOL     OW24346   3.255   2.572  10.694  0.2936  0.2849 -0.3458
 4238SOL    HW124347   3.312   2.642  10.726  0.1741  0.2400 -0.0342
 4238SOL    HW224348   3.285   2.492  10.736 -1.3173  0.5493  1.3046
 4239SOL     OW24349   0.834   1.730   8.186  0.4003  0.0165 -0.8679
 4239SOL    HW124350   0.808   1.689   8.269  0.3512  1.6759 -0.0744
 4239SOL    HW224351   0.784   1.686   8.117 -3.5632 -0.3411  2.2150
 4240SOL     OW24352   0.906   4.004   9.510 -0.0304  0.3809  0.3597
 4240SOL    HW124353   0.829   3.957   9.542 -0.4383  1.3342  0.7874
 4240SOL    HW224354   0.960   4.017   9.589 -0.1765 -3.1015  1.0549
 4241SOL     OW24355   1.372   4.290  10.334  0.2191 -0.1425 -0.0970
 4241SOL    HW124356   1.343   4.290  10.425 -0.0452 -0.4416 -0.1835
 4241SOL    HW224357   1.457   4.252  10.354 -0.5265 -1.1560  1.0978
 4242SOL     OW24358   1.715   4.024  17.128 -0.2628 -0.3079 -0.2926
 4242SOL    HW124359   1.702   4.055  17.038 -1.2118 -3.4149 -1.2330
 4242SOL    HW224360   1.645   4.067  17.177 -0.5156 -0.7538 -0.2539
 4243SOL     OW24361   2.940   1.470   3.077 -0.0648 -0.0500 -0.9947
 4243SOL    HW124362   2.964   1.446   2.988  1.3391  1.8590 -1.1158
 4243SOL    HW224363   2.950   1.565   3.078 -5.3141  0.5313 -0.0203
 4244SOL     OW24364   1.923   4.241   4.850  0.2916 -0.0582 -0.2799
 4244SOL    HW124365   1.873   4.176   4.899 -0.6832  0.5426 -0.4772
 4244SOL    HW224366   2.006   4.194   4.842 -0.1918 -0.8288 -0.7664
 4245SOL     OW24367   3.459   2.089  15.267 -0.2886 -0.0902  0.4651
 4245SOL    HW124368   3.370   2.055  15.262 -1.1480  2.2552 -0.4762
 4245SOL    HW224369   3.465   2.126  15.178  0.4392 -1.7078 -0.1601
 4246SOL     OW24370   0.290   0.735  17.326 -0.1510  0.1189 -0.3250
 4246SOL    HW124371   0.334   0.776  17.401 -1.7861  0.9327  0.1775
 4246SOL    HW224372   0.297   0.798  17.255 -1.4484  3.0854  2.2121
 4247SOL     OW24373   2.738   2.902   3.959  0.1111 -0.0718  0.1762
 4247SOL    HW124374   2.806   2.968   3.942 -0.2817  0.5040  0.8188
 4247SOL    HW224375   2.659   2.951   3.982  0.0779  0.1875 -0.5074
 4248SOL     OW24376   1.132   0.453   3.162  0.0716 -0.1458  0.5962
 4248SOL    HW124377   1.069   0.465   3.091  2.3737 -0.9573 -1.5612
 4248SOL    HW224378   1.187   0.531   3.149  2.2707 -1.9290 -0.7727
 4249SOL     OW24379   0.140   3.757   2.358  0.1015 -0.5423 -0.1979
 4249SOL    HW124380   0.091   3.838   2.345  0.5905 -0.4066 -1.2508
 4249SOL    HW224381   0.091   3.681   2.330  1.4949 -1.4772 -0.1077
 4250SOL     OW24382   1.766   0.600   2.702  0.2330 -0.3860 -0.2187
 4250SOL    HW124383   1.708   0.609   2.778 -1.1535 -0.2590 -1.2874
 4250SOL    HW224384   1.740   0.683   2.662  0.4433  0.3176  1.0727
 4251SOL     OW24385   0.376   1.488  13.444  0.1442  0.2357  0.2026
 4251SOL    HW124386   0.344   1.428  13.378  2.9301  0.3077 -1.2093
 4251SOL    HW224387   0.294   1.516  13.484  0.5187 -2.3004  2.7956
 4252SOL     OW24388   3.415   4.602   9.691 -0.0273 -0.0867 -0.3504
 4252SOL    HW124389   3.464   4.521   9.703  0.3065 -0.0735 -1.6148
 4252SOL    HW224390   3.350   4.573   9.627  0.1899 -1.1799 -0.0664
 4253SOL     OW24391   3.755   3.571   2.924  0.2106  0.4278 -0.4704
 4253SOL    HW124392   3.833   3.623   2.945  1.1340 -1.3133  0.3955
 4253SOL    HW224393   3.702   3.638   2.880  0.8059  1.4744  0.4287
 4254SOL     OW24394   1.876   3.867  10.184  0.4417  0.3991  0.8340
 4254SOL    HW124395   1.951   3.852  10.127  0.2089  1.0832  0.3423
 4254SOL    HW224396   1.894   3.960  10.201  0.1950  1.1252 -2.9728
 4255SOL     OW24397   4.232   3.239  10.132 -0.5476 -0.0445 -0.0216
 4255SOL    HW124398   4.138   3.248  10.119 -0.0221  2.9615 -1.7298
 4255SOL    HW224399   4.239   3.259  10.225  0.2503  1.3866 -0.3873
 4256SOL     OW24400   0.910   2.737   3.422  0.8054  0.1635  0.3115
 4256SOL    HW124401   0.927   2.757   3.514 -1.3129 -0.1808  0.7925
 4256SOL    HW224402   0.848   2.664   3.419  3.0726 -1.7792  0.6213
 4257SOL     OW24403   3.965   2.402   9.371  0.1787 -0.4795  0.8074
 4257SOL    HW124404   4.014   2.484   9.368  0.3879 -0.6863 -1.7011
 4257SOL    HW224405   3.909   2.416   9.294 -0.6059  1.6767  1.7737
 4258SOL     OW24406   1.194   3.535   5.510 -0.0278  0.2360 -0.5070
 4258SOL    HW124407   1.112   3.533   5.461 -0.2413 -0.1992 -0.1312
 4258SOL    HW224408   1.207   3.441   5.516  0.8391  0.5668  2.7676
 4259SOL     OW24409   4.241   1.651   7.690 -0.1602  0.0270  0.0363
 4259SOL    HW124410   4.232   1.561   7.721 -0.4238 -0.2547 -0.8419
 4259SOL    HW224411   4.153   1.689   7.688  0.1153  0.6491 -0.3006
 4260SOL     OW24412   3.545   3.629   8.233  0.5627 -1.0002  0.1077
 4260SOL    HW124413   3.617   3.664   8.182  1.1387 -2.1696  0.1202
 4260SOL    HW224414   3.511   3.562   8.174  1.7068 -2.3860  1.0311
 4261SOL     OW24415   0.374   4.139  17.359 -0.0856 -0.1711  0.0829
 4261SOL    HW124416   0.391   4.231  17.379  0.8327 -0.2135 -0.5182
 4261SOL    HW224417   0.456   4.101  17.389 -0.4978  0.0068  1.4242
 4262SOL     OW24418   3.765   1.807   2.541 -0.4601  0.1293 -1.0940
 4262SOL    HW124419   3.841   1.855   2.575  0.0936  0.2448 -2.4915
 4262SOL    HW224420   3.757   1.867   2.467  2.0423  0.4804 -1.0891
 4263SOL     OW24421   3.109   3.486  14.480  0.3091  0.1483 -0.0755
 4263SOL    HW124422   3.096   3.437  14.399 -0.6199  1.9168 -0.9937
 4263SOL    HW224423   3.197   3.458  14.506  0.3228  0.5227  0.2833
 4264SOL     OW24424   0.158   2.966  12.390  0.3661 -0.0564 -0.3873
 4264SOL    HW124425   0.101   2.906  12.438  0.1613  1.2972  1.0879
 4264SOL    HW224426   0.225   2.910  12.352  1.5243  1.1853 -0.1943
 4265SOL     OW24427   0.795   1.548   8.808  0.2804  0.2187  0.3688
 4265SOL    HW124428   0.700   1.563   8.805  0.4856  1.0948 -2.3267
 4265SOL    HW224429   0.797   1.481   8.739  0.2014 -0.3524  0.9210
 4266SOL     OW24430   2.715   1.501   6.047 -0.6202  0.3355  0.5074
 4266SOL    HW124431   2.649   1.457   6.100 -0.3904 -0.2905  0.2632
 4266SOL    HW224432   2.763   1.431   6.002 -1.3423 -0.1859  0.5565
 4267SOL     OW24433   3.013   3.031   7.191 -0.2037 -0.7715  0.0858
 4267SOL    HW124434   2.924   3.064   7.206  0.9262  3.1899 -2.1218
 4267SOL    HW224435   3.047   3.030   7.280  0.7107  1.6428 -0.2376
 4268SOL     OW24436   1.501   0.491   2.812 -0.2512 -0.1877 -0.2698
 4268SOL    HW124437   1.408   0.496   2.790  0.0574 -2.2643 -2.0541
 4268SOL    HW224438   1.514   0.585   2.825  0.3126 -0.4617  1.1593
 4269SOL     OW24439   1.000   0.526   6.904 -0.0821  0.1665  0.5281
 4269SOL    HW124440   1.084   0.543   6.860 -0.0225  0.0600  0.6027
 4269SOL    HW224441   1.011   0.452   6.964 -1.6812 -2.0830 -1.9551
 4270SOL     OW24442   4.464   3.609   9.174 -0.2909  0.3004  0.6247
 4270SOL    HW124443   4.372   3.600   9.150 -0.4156  0.7386  0.9353
 4270SOL    HW224444   4.457   3.594   9.269 -0.8102  1.6173  0.7929
 4271SOL     OW24445   1.489   2.763   4.529 -0.1326 -0.1947  0.4058
 4271SOL    HW124446   1.434   2.801   4.460  0.4508 -0.7529 -0.3760
 4271SOL    HW224447   1.572   2.797   4.496 -0.8761  0.1839 -1.0936
 4272SOL     OW24448   3.317   0.750   2.873  0.1777 -0.3458  0.3374
 4272SOL    HW124449   3.345   0.668   2.914  3.6183 -0.1259 -1.5578
 4272SOL    HW224450   3.224   0.728   2.866  0.1023 -0.4163  1.6009
 4273SOL     OW24451   3.667   2.628   3.317  0.4268  0.7112 -0.0144
 4273SOL    HW124452   3.757   2.657   3.334  0.8567 -0.4313 -0.3287
 4273SOL    HW224453   3.685   2.569   3.244  0.3641  1.4715 -0.6399
 4274SOL     OW24454   0.975   1.665  11.985 -0.0207 -0.2626  0.3630
 4274SOL    HW124455   0.965   1.570  11.995  0.9775 -0.4569 -0.5237
 4274SOL    HW224456   1.048   1.666  12.047 -0.0183  0.1650  0.3546
 4275SOL     OW24457   1.836   1.195   4.782  0.0715  0.6809  0.2801
 4275SOL    HW124458   1.782   1.219   4.706  0.2170 -0.6569 -0.2398
 4275SOL    HW224459   1.884   1.123   4.742 -1.0862 -0.6329  1.2707
 4276SOL     OW24460   1.648   1.360   1.360 -0.3535  0.1707  0.4361
 4276SOL    HW124461   1.676   1.355   1.269 -1.6464 -2.5974  0.1857
 4276SOL    HW224462   1.734   1.353   1.401 -0.4932  1.0851  0.8681
 4277SOL     OW24463   2.602   3.690   6.369  0.4715 -0.5935  0.6190
 4277SOL    HW124464   2.664   3.689   6.296  0.1906  3.0317  0.3506
 4277SOL    HW224465   2.630   3.769   6.415  0.8059  0.0833 -0.7419
 4278SOL     OW24466   4.185   3.454   4.198  0.0366  0.2094 -0.3326
 4278SOL    HW124467   4.233   3.473   4.118 -0.2484 -0.6460 -0.7112
 4278SOL    HW224468   4.119   3.523   4.196 -0.1364  0.0705  0.8620
 4279SOL     OW24469   0.401   0.641   9.316  0.2384  0.7806  0.4462
 4279SOL    HW124470   0.417   0.591   9.236  0.3152  3.3109 -1.0946
 4279SOL    HW224471   0.317   0.680   9.295 -1.1455 -2.0197  0.6843
 4280SOL     OW24472   3.507   1.467   5.211  0.2915  0.3608  0.3008
 4280SOL    HW124473   3.558   1.404   5.160 -0.4205 -0.5853  0.7643
 4280SOL    HW224474   3.537   1.550   5.175  1.0793  0.4033  1.0623
 4281SOL     OW24475   0.137   4.227  16.512 -0.5934  0.0888 -0.2286
 4281SOL    HW124476   0.117   4.218  16.418 -0.5767 -0.9778 -0.1379
 4281SOL    HW224477   0.047   4.220  16.543 -1.4073 -1.2655 -2.8731
 4282SOL     OW24478   0.511   3.093   2.686 -0.4368 -0.1666  0.0703
 4282SOL    HW124479   0.499   3.034   2.760 -0.3012  1.2941  1.2744
 4282SOL    HW224480   0.604   3.119   2.687 -0.4026 -0.3596  3.5776
 4283SOL     OW24481   0.625   0.860   3.325 -0.5617  0.0356  0.3129
 4283SOL    HW124482   0.678   0.780   3.331 -0.2303  0.0002 -2.9296
 4283SOL    HW224483   0.571   0.849   3.403  1.9125 -1.1325  1.8617
 4284SOL     OW24484   2.872   4.164   4.783  0.1577  0.1440 -0.1197
 4284SOL    HW124485   2.810   4.196   4.717  0.4906  3.1180  1.0102
 4284SOL    HW224486   2.944   4.189   4.725  1.5420 -1.1828  1.0659
 4285SOL     OW24487   1.673   3.407   3.134 -0.4951  0.1270 -0.5180
 4285SOL    HW124488   1.609   3.463   3.091  0.4614  2.0460  0.5714
 4285SOL    HW224489   1.630   3.390   3.218  0.9653 -0.3809  0.1303
 4286SOL     OW24490   2.602   0.243   7.279  0.5838 -0.0896  0.2395
 4286SOL    HW124491   2.655   0.250   7.200 -1.1297 -1.7864 -1.0497
 4286SOL    HW224492   2.515   0.241   7.241 -0.5143  0.0042  2.7511
 4287SOL     OW24493   2.621   2.272   8.343  0.3668 -0.2193  0.3799
 4287SOL    HW124494   2.694   2.328   8.369 -2.2858  3.0648  0.7682
 4287SOL    HW224495   2.561   2.291   8.414  1.4858 -0.3262  1.3567
 4288SOL     OW24496   0.789   2.208   7.156 -0.2359 -0.2728 -0.1206
 4288SOL    HW124497   0.723   2.156   7.109  1.3443 -3.8687  1.6065
 4288SOL    HW224498   0.751   2.215   7.244 -0.7887  1.8765 -0.5256
 4289SOL     OW24499   3.452   2.568  15.857  0.8006 -0.0366  0.0034
 4289SOL    HW124500   3.401   2.506  15.909  1.1391  1.2206  1.8094
 4289SOL    HW224501   3.499   2.505  15.802 -1.8522 -1.6163 -0.4309
 4290SOL     OW24502   0.837   3.009   5.047  0.5590  0.2240  0.3450
 4290SOL    HW124503   0.854   3.030   4.955  1.3914 -2.8662 -0.2027
 4290SOL    HW224504   0.810   2.917   5.047  3.4731 -0.6370  0.0934
 4291SOL     OW24505   1.260   0.578   6.834  0.3035  0.1779  0.4045
 4291SOL    HW124506   1.279   0.529   6.754 -1.4993 -1.0368  0.7144
 4291SOL    HW224507   1.338   0.630   6.853  1.4147 -1.6656  0.8832
 4292SOL     OW24508   2.641   2.264   4.093 -0.3550 -0.1107  0.4094
 4292SOL    HW124509   2.726   2.251   4.137  1.3365 -1.1030 -3.1497
 4292SOL    HW224510   2.646   2.345   4.042 -0.9486 -0.7980 -0.7299
 4293SOL     OW24511   4.615   0.597  12.861 -0.1381  0.3894  0.3077
 4293SOL    HW124512   4.600   0.604  12.766 -3.0693  1.1836  0.7977
 4293SOL    HW224513   4.693   0.544  12.846 -1.4580 -0.5097 -3.4369
 4294SOL     OW24514   4.655   3.432  10.314 -0.1537  0.1179 -0.1346
 4294SOL    HW124515   4.711   3.354  10.309  0.1207  0.3394 -0.5568
 4294SOL    HW224516   4.674   3.458  10.223 -0.0391 -0.6917 -0.3452
 4295SOL     OW24517   3.858   0.699   8.225  0.1235 -0.0329 -0.5680
 4295SOL    HW124518   3.798   0.716   8.297  0.2154 -2.1720  0.0038
 4295SOL    HW224519   3.939   0.741   8.255  0.8885 -1.5327 -0.5203
 4296SOL     OW24520   3.402   1.098   4.393  0.1307  0.2599 -0.2232
 4296SOL    HW124521   3.406   1.186   4.357 -0.0084  0.3177 -0.0988
 4296SOL    HW224522   3.493   1.071   4.388  0.8189  2.1922  1.5556
 4297SOL     OW24523   3.737   3.046  15.724  0.4147  0.3895  0.3125
 4297SOL    HW124524   3.653   3.087  15.745  1.0882  2.3761 -0.8847
 4297SOL    HW224525   3.692   2.965  15.700 -0.4443  0.7669  0.6261
 4298SOL     OW24526   0.495   3.388  10.628  0.3554  0.2229  0.4789
 4298SOL    HW124527   0.535   3.470  10.601  0.1639  0.5115  1.0691
 4298SOL    HW224528   0.537   3.323  10.572 -0.4137  0.3496 -0.2535
 4299SOL     OW24529   2.778   4.697   1.685  0.6375  0.1980 -0.4215
 4299SOL    HW124530   2.859   4.697   1.633 -0.5406  0.8775 -2.2362
 4299SOL    HW224531   2.801   4.660   1.770 -3.1114  0.0420  0.5132
 4300SOL     OW24532   0.544   4.674   2.258  0.0614  0.3019 -0.0096
 4300SOL    HW124533   0.624   4.669   2.310  0.5346 -0.2135 -0.7793
 4300SOL    HW224534   0.475   4.642   2.316 -1.5775  3.0054 -0.4895
 4301SOL     OW24535   0.843   3.216   2.308 -0.1115 -0.2897 -0.2700
 4301SOL    HW124536   0.877   3.263   2.232 -0.7014 -0.6901 -0.7785
 4301SOL    HW224537   0.785   3.286   2.339 -0.7574 -0.5174 -0.9624
 4302SOL     OW24538   2.762   1.552   7.564 -0.1373  0.2986  0.0674
 4302SOL    HW124539   2.684   1.585   7.610 -0.1198  0.3891  0.0332
 4302SOL    HW224540   2.718   1.481   7.519  1.9140 -0.3473 -0.8813
 4303SOL     OW24541   1.626   0.254   1.584 -0.0731  0.4213 -0.3405
 4303SOL    HW124542   1.719   0.233   1.589  0.0137  1.0626  0.7210
 4303SOL    HW224543   1.610   0.220   1.496 -2.0635 -0.8862  0.5103
 4304SOL     OW24544   0.619   1.503   7.735 -0.2836  0.4381  0.6446
 4304SOL    HW124545   0.638   1.417   7.772  0.8872  1.0699  1.5165
 4304SOL    HW224546   0.553   1.482   7.669 -1.6348 -0.5594  2.3273
 4305SOL     OW24547   2.975   2.169  13.437  0.0816  0.8144  0.8429
 4305SOL    HW124548   2.980   2.222  13.357  0.4302  0.1666  0.4310
 4305SOL    HW224549   2.896   2.211  13.471 -0.8294  1.5827 -2.2028
 4306SOL     OW24550   4.699   4.673   2.826 -0.1955 -0.2124 -0.4877
 4306SOL    HW124551   0.029   4.641   2.888  1.0115  2.0822 -0.5942
 4306SOL    HW224552   4.700   0.029   2.850  0.8498 -0.5567  0.7910
 4307SOL     OW24553   4.577   1.447   2.646 -0.1599  0.1276  0.2512
 4307SOL    HW124554   4.557   1.481   2.558 -2.8926 -1.4282  0.2800
 4307SOL    HW224555   4.511   1.493   2.697  0.6161  0.3828  1.0305
 4308SOL     OW24556   4.262   2.839   3.271  0.2946  0.0043 -0.6748
 4308SOL    HW124557   4.331   2.774   3.288  0.3939  0.1699 -0.4442
 4308SOL    HW224558   4.311   2.920   3.285 -1.6326  1.1983 -0.8760
 4309SOL     OW24559   1.486   3.126   4.958  0.4568  0.5050  0.3350
 4309SOL    HW124560   1.566   3.175   4.938  0.2943 -0.7186 -3.3133
 4309SOL    HW224561   1.461   3.162   5.043 -0.8522  1.1585 -0.3190
 4310SOL     OW24562   0.065   0.277  17.289 -0.6308 -0.2971 -0.3829
 4310SOL    HW124563   0.111   0.349  17.332 -1.2551 -0.7186  1.0207
 4310SOL    HW224564   0.045   0.211  17.356 -0.2443 -0.3103 -0.2839
 4311SOL     OW24565   0.827   3.459   2.499 -0.1444 -0.4550  0.3835
 4311SOL    HW124566   0.763   3.525   2.471  0.3216 -0.2091 -0.0980
 4311SOL    HW224567   0.799   3.447   2.590 -0.2372 -0.7708  0.3143
 4312SOL     OW24568   0.942   4.640   2.931 -0.0118 -0.1244 -0.0467
 4312SOL    HW124569   0.858   4.680   2.955  0.4430  1.3017 -0.8542
 4312SOL    HW224570   0.972   4.596   3.011  1.3670  2.4035  0.8417
 4313SOL     OW24571   4.321   0.108   4.461  0.2380 -0.7375 -0.3448
 4313SOL    HW124572   4.368   0.060   4.529  0.2870  2.0977  1.6265
 4313SOL    HW224573   4.363   0.193   4.477 -1.0999 -0.3516  1.1181
 4314SOL     OW24574   4.032   0.745   0.465  0.3856  0.2506 -0.1828
 4314SOL    HW124575   4.012   0.728   0.373  0.7322  1.9766 -0.5647
 4314SOL    HW224576   3.986   0.827   0.484  0.5917 -0.0561  1.6509
 4315SOL     OW24577   2.841   4.042  17.273 -0.1364  0.1682  0.2529
 4315SOL    HW124578   2.923   4.087  17.291  0.5435 -0.6239 -0.8463
 4315SOL    HW224579   2.807   4.086  17.196 -1.3916 -1.9107 -0.3636
 4316SOL     OW24580   0.485   2.126   3.084  0.1445  0.2621 -0.0318
 4316SOL    HW124581   0.548   2.098   3.150  2.7294  1.9812 -1.7842
 4316SOL    HW224582   0.518   2.074   3.011 -2.2679  1.9187 -2.3092
 4317SOL     OW24583   0.608   0.553   5.536 -0.5664 -0.0218  0.1397
 4317SOL    HW124584   0.563   0.587   5.459 -1.1501  2.6182  1.6510
 4317SOL    HW224585   0.530   0.524   5.584 -0.2841  1.6005  1.5536
 4318SOL     OW24586   4.702   2.448  13.302 -0.4255 -0.3954 -0.3299
 4318SOL    HW124587   4.719   2.402  13.384 -0.1441  2.8840  1.4461
 4318SOL    HW224588   4.685   2.536  13.335 -0.2565 -0.6154  0.3333
 4319SOL     OW24589   4.357   3.164   4.961 -0.0411 -0.6002  0.0148
 4319SOL    HW124590   4.293   3.164   5.032 -0.9876  0.3882 -0.8521
 4319SOL    HW224591   4.389   3.254   4.963 -2.3578  0.1923  1.8684
 4320SOL     OW24592   0.535   1.638   3.268  0.1750  0.0524 -0.3327
 4320SOL    HW124593   0.444   1.617   3.249  0.1260 -0.3535  0.3571
 4320SOL    HW224594   0.549   1.703   3.199  0.2678  0.6524  0.2613
 4321SOL     OW24595   3.068   1.234  16.800  0.4572  0.0611 -0.3058
 4321SOL    HW124596   3.057   1.179  16.723  2.3864  0.2515 -0.7059
 4321SOL    HW224597   3.134   1.291  16.760  0.2738  0.5334  0.0579
 4322SOL     OW24598   2.965   1.831  13.424  0.4577 -0.4420 -0.1947
 4322SOL    HW124599   2.928   1.748  13.455 -0.8818  1.0820  2.2701
 4322SOL    HW224600   2.942   1.887  13.498  0.7112  0.3944 -0.7513
 4323SOL     OW24601   0.170   0.555   5.077 -0.4608  0.0070  0.0090
 4323SOL    HW124602   0.135   0.611   5.008  0.4726 -2.0891 -2.1666
 4323SOL    HW224603   0.176   0.471   5.032 -0.1607 -0.0751  0.2056
 4324SOL     OW24604   0.688   3.594   2.727  0.4447  0.5143  0.2218
 4324SOL    HW124605   0.730   3.510   2.746 -0.8986 -0.5551 -1.4953
 4324SOL    HW224606   0.610   3.581   2.780  1.5036 -2.1740  1.1012
 4325SOL     OW24607   1.462   0.928  11.601  0.4839  0.3128  0.6205
 4325SOL    HW124608   1.371   0.900  11.594  0.4200  0.2194  1.7656
 4325SOL    HW224609   1.458   0.996  11.534 -0.0641 -1.8091 -1.4749
 4326SOL     OW24610   3.473   2.926   3.796  0.2018  0.0979  0.0389
 4326SOL    HW124611   3.533   2.855   3.770 -0.8656 -0.6831 -0.2757
 4326SOL    HW224612   3.516   3.001   3.754 -0.5044  1.0742  1.0640
 4327SOL     OW24613   3.528   4.507  17.343  0.0913 -0.3299 -0.2092
 4327SOL    HW124614   3.445   4.541  17.375  0.9264  0.6374  0.9265
 4327SOL    HW224615   3.503   4.419  17.314 -1.4439 -0.4250  1.4560
 4328SOL     OW24616   2.858   0.096   8.937  0.2805  0.0445 -0.1552
 4328SOL    HW124617   2.867   0.004   8.961 -3.0431 -0.6358 -1.5614
 4328SOL    HW224618   2.839   0.142   9.019 -2.3654  2.5269 -2.1589
 4329SOL     OW24619   2.194   1.078   2.625 -0.3003  0.2593 -0.7638
 4329SOL    HW124620   2.136   1.155   2.627  3.5955  3.0649  3.4102
 4329SOL    HW224621   2.231   1.077   2.537 -2.3878  1.4081 -1.6516
 4330SOL     OW24622   1.311   4.538   0.665 -0.7010  0.1369  0.0358
 4330SOL    HW124623   1.316   4.447   0.693  0.1546 -0.4628 -2.1101
 4330SOL    HW224624   1.231   4.565   0.711 -1.3363 -1.8957  0.1154
 4331SOL     OW24625   0.168   2.627   7.174 -0.2259 -0.2956 -0.3215
 4331SOL    HW124626   0.164   2.720   7.196 -0.8105 -0.3295 -0.2808
 4331SOL    HW224627   0.224   2.626   7.096  0.1242 -2.1113 -0.0621
 4332SOL     OW24628   1.037   3.541  14.590  0.2863  0.4862 -0.5689
 4332SOL    HW124629   1.123   3.568  14.557 -0.9843  1.9897 -2.6353
 4332SOL    HW224630   0.988   3.558  14.510 -1.3317 -1.2103  0.0750
 4333SOL     OW24631   2.328   4.572   9.040 -0.1317  0.2419  0.0184
 4333SOL    HW124632   2.354   4.654   8.999 -0.8229 -0.5236 -1.9392
 4333SOL    HW224633   2.378   4.571   9.122 -2.4829 -1.5136  1.4616
 4334SOL     OW24634   1.214   2.162   2.947  0.0009  0.6434  0.4919
 4334SOL    HW124635   1.235   2.070   2.967 -0.3283  0.1855 -1.3269
 4334SOL    HW224636   1.124   2.159   2.916 -0.1123 -0.1597  0.8679
 4335SOL     OW24637   3.134   4.180   8.088  0.1894  0.5860  0.2743
 4335SOL    HW124638   3.167   4.207   8.003  0.2936  1.7681  0.6920
 4335SOL    HW224639   3.062   4.243   8.085  0.4751  0.9363  0.9632
 4336SOL     OW24640   3.177   0.747  16.466  0.2231 -0.0020 -0.1811
 4336SOL    HW124641   3.219   0.729  16.382  3.8054 -0.0815  1.6256
 4336SOL    HW224642   3.118   0.817  16.438  1.1353  0.0771 -1.8715
 4337SOL     OW24643   2.808   0.240  13.440  0.4088  0.1334  0.0515
 4337SOL    HW124644   2.812   0.280  13.353  0.8235  0.5098  0.2436
 4337SOL    HW224645   2.898   0.222  13.466  0.0098 -1.6841  0.1503
 4338SOL     OW24646   1.768   2.925   3.781 -0.7515  0.3296  0.4800
 4338SOL    HW124647   1.802   2.836   3.789 -1.3336  0.1721  1.1595
 4338SOL    HW224648   1.728   2.920   3.694  0.1998 -1.1699  0.1254
 4339SOL     OW24649   0.869   3.325   8.484  0.1598  0.6317 -0.1549
 4339SOL    HW124650   0.935   3.394   8.478  1.5354 -0.4063  3.2329
 4339SOL    HW224651   0.905   3.277   8.558  2.0984  0.6325 -1.1023
 4340SOL     OW24652   3.317   0.156   5.707  0.6169  0.5319 -0.0445
 4340SOL    HW124653   3.278   0.176   5.622 -1.6255  0.1397  0.8795
 4340SOL    HW224654   3.242   0.153   5.766  0.0503  0.4560 -0.7660
 4341SOL     OW24655   2.616   2.898   6.577  0.4452  0.2078 -0.0089
 4341SOL    HW124656   2.555   2.936   6.514  0.5272 -1.1058 -0.8931
 4341SOL    HW224657   2.638   2.971   6.635 -1.1565  0.1802  0.6259
 4342SOL     OW24658   2.560   4.548   1.756 -0.1086  0.0131  0.2087
 4342SOL    HW124659   2.509   4.569   1.678  0.1083  1.7957  0.5516
 4342SOL    HW224660   2.646   4.586   1.743  0.4764 -1.6690 -0.7881
 4343SOL     OW24661   1.276   3.306   6.395  0.4495  0.1701 -0.2382
 4343SOL    HW124662   1.307   3.240   6.456 -0.8630 -1.2962 -1.1525
 4343SOL    HW224663   1.324   3.296   6.312 -0.5086 -1.4823 -0.5748
 4344SOL     OW24664   3.020   1.913   4.891 -0.1840 -0.5534 -0.1010
 4344SOL    HW124665   3.059   1.842   4.840  1.9883  0.2244  0.4790
 4344SOL    HW224666   2.925   1.901   4.881  0.0227 -1.6979 -0.6773
 4345SOL     OW24667   3.185   2.090   7.572  0.4862 -0.9046 -0.0033
 4345SOL    HW124668   3.226   2.176   7.576 -0.0449 -0.6205 -0.6543
 4345SOL    HW224669   3.250   2.032   7.613 -1.4349 -0.1521  4.0414
 4346SOL     OW24670   3.223   2.134   7.912  0.0055 -1.0915 -0.0989
 4346SOL    HW124671   3.171   2.063   7.874 -0.0319 -0.6505 -0.8801
 4346SOL    HW224672   3.294   2.082   7.951 -1.1301 -1.8339  0.9659
 4347SOL     OW24673   4.062   2.787   5.134 -0.4733  0.4489 -0.3596
 4347SOL    HW124674   4.002   2.851   5.096  1.8437  3.0927  0.4213
 4347SOL    HW224675   3.997   2.720   5.158 -1.9498  1.6230 -1.1145
 4348SOL     OW24676   1.613   0.147  14.181  0.3866 -0.1913 -0.0210
 4348SOL    HW124677   1.558   0.134  14.258 -0.0813 -0.6764 -0.4376
 4348SOL    HW224678   1.570   0.222  14.141  2.1527  1.1755  0.6209
 4349SOL     OW24679   1.711   4.083   5.300  0.1103 -0.1126  0.6219
 4349SOL    HW124680   1.775   4.012   5.291 -0.0881  0.0852 -2.3417
 4349SOL    HW224681   1.644   4.048   5.359 -1.2008 -0.3201 -1.0067
 4350SOL     OW24682   2.903   2.801  12.766 -0.1444  1.0296 -0.1793
 4350SOL    HW124683   2.842   2.751  12.820  0.0636  0.8212 -0.1398
 4350SOL    HW224684   2.981   2.748  12.775 -0.6807  0.3111  0.2455
 4351SOL     OW24685   3.246   1.455   8.750  0.0848  0.9223 -0.0032
 4351SOL    HW124686   3.223   1.416   8.665  0.9731 -0.4800  0.3900
 4351SOL    HW224687   3.183   1.405   8.802  1.3639 -0.0628  0.6191
 4352SOL     OW24688   1.895   1.263   9.092 -0.0794 -0.2974 -0.2654
 4352SOL    HW124689   1.892   1.289   9.184  2.4660  0.2090 -0.3272
 4352SOL    HW224690   1.836   1.328   9.054 -1.6717 -1.2214  0.6560
 4353SOL     OW24691   2.849   1.863   1.818  0.6003  0.9437 -0.6047
 4353SOL    HW124692   2.791   1.793   1.847  1.2198  0.0454 -1.5078
 4353SOL    HW224693   2.798   1.895   1.744  0.1777  2.7322  0.4740
 4354SOL     OW24694   1.882   4.542   5.743 -0.3144  0.0533 -0.0062
 4354SOL    HW124695   1.970   4.581   5.750 -0.3688 -0.1941  2.1130
 4354SOL    HW224696   1.849   4.590   5.667  1.0538  1.0951  0.0558
 4355SOL     OW24697   2.799   4.693   6.576 -0.0909 -0.1076 -0.3272
 4355SOL    HW124698   2.774   4.626   6.640  1.6138 -1.0687 -0.6811
 4355SOL    HW224699   2.844   4.644   6.507 -1.1290  2.1762 -2.6475
 4356SOL     OW24700   1.489   2.210   4.312  0.2773 -0.2160 -0.0349
 4356SOL    HW124701   1.573   2.244   4.342  0.0404  0.2449  0.1054
 4356SOL    HW224702   1.507   2.116   4.309 -3.0323 -0.8723 -0.3681
 4357SOL     OW24703   3.463   0.120   4.691 -0.0490  0.0039  0.2319
 4357SOL    HW124704   3.507   0.100   4.773  0.5478 -1.2244 -0.3962
 4357SOL    HW224705   3.429   0.034   4.667  1.1557  0.3913 -2.9365
 4358SOL     OW24706   3.933   3.749   1.544 -0.4124 -0.3345 -0.1648
 4358SOL    HW124707   3.891   3.792   1.618  0.8332 -1.4050  1.1460
 4358SOL    HW224708   3.855   3.704   1.512 -1.5494  0.9082  0.8333
 4359SOL     OW24709   1.686   1.634  16.241 -0.3856 -0.1052  0.1301
 4359SOL    HW124710   1.758   1.694  16.220 -0.9034  0.4468 -0.0566
 4359SOL    HW224711   1.608   1.690  16.248 -0.3510  0.1341 -1.4457
 4360SOL     OW24712   0.798   1.259   9.792 -0.3902 -0.8361 -0.5227
 4360SOL    HW124713   0.842   1.303   9.720  1.5269 -2.4994 -0.3718
 4360SOL    HW224714   0.871   1.205   9.823  1.5625  0.7968 -2.2840
 4361SOL     OW24715   3.987   4.146   7.934  0.7158  0.0226  0.1240
 4361SOL    HW124716   3.897   4.141   7.966  0.2343  1.7347 -0.9134
 4361SOL    HW224717   3.974   4.177   7.844  1.1552 -0.1340  0.0086
 4362SOL     OW24718   2.818   2.858   3.630 -0.4204  0.1037 -0.5117
 4362SOL    HW124719   2.735   2.816   3.606 -1.7765  2.4329  0.1028
 4362SOL    HW224720   2.870   2.782   3.657 -2.2475 -0.1353  2.3784
 4363SOL     OW24721   0.041   1.969   0.985  0.2785 -0.3753  0.0994
 4363SOL    HW124722   0.096   1.951   0.909 -1.2662 -0.7206 -0.9432
 4363SOL    HW224723   0.069   1.900   1.045  2.3175  1.9784  1.8221
 4364SOL     OW24724   1.568   2.724   5.786 -0.2081 -0.3056 -0.4426
 4364SOL    HW124725   1.596   2.640   5.823 -0.0245 -0.3140 -0.6001
 4364SOL    HW224726   1.593   2.705   5.695 -1.8534  0.3662 -1.0310
 4365SOL     OW24727   2.668   1.300  11.000  0.3141  0.3831  0.0486
 4365SOL    HW124728   2.603   1.340  10.943 -0.1432 -0.5343 -0.0700
 4365SOL    HW224729   2.703   1.234  10.939 -0.6063 -0.4096  0.3883
 4366SOL     OW24730   1.782   4.011  12.874  0.4076 -0.3749  0.1677
 4366SOL    HW124731   1.841   4.035  12.945 -0.3979  0.0227  0.7153
 4366SOL    HW224732   1.748   3.931  12.914 -1.3453 -0.0894 -0.7236
 4367SOL     OW24733   2.725   3.736   8.441 -0.4108  0.3572 -0.1360
 4367SOL    HW124734   2.806   3.714   8.394  1.0251  3.1660  1.0393
 4367SOL    HW224735   2.706   3.822   8.404 -0.7785  0.5098  0.4221
 4368SOL     OW24736   2.469   0.172   8.404 -0.2848  0.0695 -0.1531
 4368SOL    HW124737   2.553   0.190   8.445 -0.7533  1.8260  0.0354
 4368SOL    HW224738   2.486   0.125   8.322 -3.2973 -0.6087 -0.3943
 4369SOL     OW24739   0.911   1.995   8.685 -0.1264 -0.7627  0.4937
 4369SOL    HW124740   0.957   2.027   8.607 -0.5688 -1.5877 -0.1053
 4369SOL    HW224741   0.835   1.960   8.638  2.3618 -2.0285 -2.5397
 4370SOL     OW24742   1.861   0.974   0.062 -0.4925  0.8900 -0.2353
 4370SOL    HW124743   1.925   1.036   0.096 -1.9861  2.6243 -0.5993
 4370SOL    HW224744   1.809   0.967   0.142 -1.6921  1.8324 -0.9332
 4371SOL     OW24745   2.198   3.868   5.784 -0.1885 -0.1065 -0.4936
 4371SOL    HW124746   2.217   3.870   5.690 -3.4517  0.7961 -1.1340
 4371SOL    HW224747   2.283   3.837   5.814 -0.3089 -1.4809 -1.5354
 4372SOL     OW24748   1.940   2.375   7.690  0.2511  0.1240  0.1866
 4372SOL    HW124749   2.029   2.347   7.714  0.8504  0.1221 -2.0565
 4372SOL    HW224750   1.962   2.469   7.689  1.0845 -0.0745 -0.2603
 4373SOL     OW24751   2.912   3.267  17.643 -0.3169  0.6274  0.0597
 4373SOL    HW124752   2.894   3.202  17.710  1.3970 -0.2971 -0.3867
 4373SOL    HW224753   2.839   3.329  17.652 -1.6113 -0.4717 -2.5684
 4374SOL     OW24754   0.681   0.101   8.489 -0.7663 -0.5881  0.5028
 4374SOL    HW124755   0.772   0.080   8.508 -0.5179  0.3428  0.3388
 4374SOL    HW224756   0.662   0.026   8.433 -0.7283 -0.8880  0.8907
 4375SOL     OW24757   0.425   3.742   9.370  0.5278  0.0229 -0.3651
 4375SOL    HW124758   0.401   3.791   9.449  0.0747  0.2442 -0.6364
 4375SOL    HW224759   0.404   3.811   9.306 -0.9403 -1.0987 -1.0902
 4376SOL     OW24760   0.636   4.232  10.639  0.3915 -0.4647 -0.1816
 4376SOL    HW124761   0.694   4.156  10.643  0.1286 -0.6587  0.0075
 4376SOL    HW224762   0.568   4.192  10.584 -0.3066  1.0360 -0.4101
 4377SOL     OW24763   2.599   2.078   2.697 -0.2085  0.4430  0.3384
 4377SOL    HW124764   2.564   2.072   2.608 -0.7885  1.6966  0.4680
 4377SOL    HW224765   2.518   2.081   2.749  0.5043 -0.5448  1.4873
 4378SOL     OW24766   1.626   3.665   9.227 -0.8833 -0.1630 -0.4510
 4378SOL    HW124767   1.571   3.613   9.168 -0.3379 -2.1310  0.7747
 4378SOL    HW224768   1.709   3.620   9.214 -1.8690 -1.2259 -3.1562
 4379SOL     OW24769   1.662   2.041   2.610 -0.6668  0.3446 -0.3176
 4379SOL    HW124770   1.738   2.098   2.623 -0.7849  0.4771 -0.2029
 4379SOL    HW224771   1.629   2.056   2.699  1.0617  0.0871  0.3769
 4380SOL     OW24772   3.311   2.639  17.218  0.2054 -0.3319  0.1469
 4380SOL    HW124773   3.355   2.724  17.231  1.3311 -0.5867 -1.8541
 4380SOL    HW224774   3.340   2.624  17.128 -2.0394 -1.9648 -0.2767
 4381SOL     OW24775   0.339   3.709   8.800 -0.1152  0.2904  0.5502
 4381SOL    HW124776   0.279   3.776   8.768 -1.5241 -2.1763 -1.9759
 4381SOL    HW224777   0.426   3.744   8.781 -0.7680  1.3648 -0.4664
 4382SOL     OW24778   2.014   3.854   9.495  0.1316 -0.4078 -0.2665
 4382SOL    HW124779   2.056   3.908   9.428 -1.2139 -0.0248 -0.7966
 4382SOL    HW224780   1.935   3.828   9.448  0.2341  0.6337 -0.9986
 4383SOL     OW24781   0.186   4.573  12.208 -0.2663 -0.2798 -0.3875
 4383SOL    HW124782   0.281   4.584  12.209 -0.3742  0.5747  0.2501
 4383SOL    HW224783   0.160   4.665  12.213 -0.8191 -0.3701 -1.5039
 4384SOL     OW24784   3.342   3.806  14.235  0.2097 -0.4552 -0.4773
 4384SOL    HW124785   3.332   3.866  14.161 -1.5274  1.0775  0.9592
 4384SOL    HW224786   3.436   3.804  14.251  0.4129  0.6884 -1.5085
 4385SOL     OW24787   2.162   3.126   3.189 -0.1735 -0.4356 -0.0148
 4385SOL    HW124788   2.153   3.208   3.236  0.0598 -0.3752 -0.0741
 4385SOL    HW224789   2.072   3.103   3.167 -0.0642  1.2723 -2.2587
 4386SOL     OW24790   4.448   4.048   6.438 -0.1276  0.5187 -0.2212
 4386SOL    HW124791   4.483   4.051   6.349 -0.6874 -1.0435 -0.4761
 4386SOL    HW224792   4.384   3.979   6.425  2.5387 -1.9691  0.0019
 4387SOL     OW24793   2.391   2.395   2.716  0.7545 -0.9214 -0.0553
 4387SOL    HW124794   2.441   2.383   2.797  0.6383 -1.7250 -0.1049
 4387SOL    HW224795   2.366   2.487   2.715  2.7856 -0.3539  0.6210
 4388SOL     OW24796   0.777   1.275   6.765 -0.2033 -0.0979  0.7152
 4388SOL    HW124797   0.774   1.359   6.719  1.4001 -0.7292 -0.5438
 4388SOL    HW224798   0.869   1.255   6.745 -0.3643 -1.6232  1.5170
 4389SOL     OW24799   3.363   1.244   1.204 -0.1146  0.5213 -0.0979
 4389SOL    HW124800   3.309   1.270   1.129 -1.0113 -1.7485 -0.2455
 4389SOL    HW224801   3.450   1.238   1.165 -0.6942 -0.8548 -1.1731
 4390SOL     OW24802   0.466   2.651   9.442 -0.0599 -0.1750  0.2057
 4390SOL    HW124803   0.441   2.726   9.388  1.8200 -0.0031 -0.4202
 4390SOL    HW224804   0.512   2.596   9.380  2.4757  1.0714  0.9853
 4391SOL     OW24805   4.034   2.097  14.304 -0.2633 -0.4417  0.2424
 4391SOL    HW124806   3.971   2.081  14.234  0.4753 -0.4263 -0.4363
 4391SOL    HW224807   3.978   2.144  14.366 -0.5446  1.5549 -1.5205
 4392SOL     OW24808   2.964   0.869  12.736  0.0182  0.3520  0.2241
 4392SOL    HW124809   2.914   0.824  12.804  0.4172 -0.4554 -0.0199
 4392SOL    HW224810   3.023   0.799  12.708 -1.1167 -0.2981 -0.5084
 4393SOL     OW24811   3.488   4.052   5.805  0.3520 -0.0408  0.1616
 4393SOL    HW124812   3.405   4.069   5.849  0.3127 -0.2792  0.1782
 4393SOL    HW224813   3.501   3.965   5.841  0.8351 -0.2270 -0.4534
 4394SOL     OW24814   4.067   0.231   5.463 -0.1177 -0.1603  0.3251
 4394SOL    HW124815   4.011   0.276   5.527 -0.5704  1.5832 -1.2879
 4394SOL    HW224816   4.001   0.186   5.411  0.8595  0.0408 -1.0859
 4395SOL     OW24817   4.494   1.344   4.532 -0.3826 -0.3839  0.0707
 4395SOL    HW124818   4.454   1.374   4.614 -1.2041 -1.3879  0.0423
 4395SOL    HW224819   4.426   1.376   4.474 -0.7204  0.7090  1.0710
 4396SOL     OW24820   0.716   1.211   7.759  0.2065  0.0310  0.7805
 4396SOL    HW124821   0.750   1.197   7.671  2.3607 -0.4377  1.6865
 4396SOL    HW224822   0.655   1.138   7.769 -1.2340  1.0237 -0.7742
 4397SOL     OW24823   1.566   2.345   2.922  0.0865  0.1901  0.3070
 4397SOL    HW124824   1.652   2.345   2.964  1.0732 -0.1090 -1.7307
 4397SOL    HW224825   1.594   2.388   2.841 -0.9723 -0.0155 -0.1679
 4398SOL     OW24826   2.885   1.747   3.005  0.2371  0.2721 -0.4292
 4398SOL    HW124827   2.834   1.827   3.019  1.6873  1.1984 -0.4533
 4398SOL    HW224828   2.973   1.784   3.006 -0.0724  0.9711  0.9276
 4399SOL     OW24829   0.340   2.379  17.725 -0.2160  0.1093 -0.2198
 4399SOL    HW124830   0.416   2.393   0.037 -0.1770  1.2402 -0.5778
 4399SOL    HW224831   0.270   2.422   0.031 -0.0765  0.1570 -0.0660
 4400SOL     OW24832   2.354   2.047   6.187  0.1318 -0.0125  0.0802
 4400SOL    HW124833   2.372   1.959   6.152  2.5000  0.4698  0.0589
 4400SOL    HW224834   2.285   2.023   6.248 -0.2824  1.9530  0.3672
 4401SOL     OW24835   4.415   3.538   2.687 -0.6010  0.1301  0.0272
 4401SOL    HW124836   4.425   3.457   2.738 -1.7266 -0.5872 -0.9028
 4401SOL    HW224837   4.319   3.541   2.685 -0.6346 -0.1226  1.2587
 4402SOL     OW24838   1.247   0.618   8.275 -0.2307 -0.0910  0.5695
 4402SOL    HW124839   1.257   0.698   8.328 -0.1827 -0.2035  0.7302
 4402SOL    HW224840   1.272   0.555   8.343 -0.2907 -0.7375 -0.0068
 4403SOL     OW24841   0.313   0.310   6.261 -0.2526 -0.2562  0.3560
 4403SOL    HW124842   0.344   0.394   6.294 -0.5079 -1.0726  2.6615
 4403SOL    HW224843   0.366   0.309   6.181 -2.1557  1.2414 -0.9258
 4404SOL     OW24844   3.503   4.304   4.101  0.5668 -0.1886  0.1242
 4404SOL    HW124845   3.561   4.319   4.027 -1.0971  0.6264 -1.0117
 4404SOL    HW224846   3.418   4.339   4.074  1.4070  0.7061 -1.3309
 4405SOL     OW24847   3.411   2.091   0.798  0.6036 -0.1604 -0.2285
 4405SOL    HW124848   3.373   2.147   0.866 -0.9005 -1.6227  0.1409
 4405SOL    HW224849   3.473   2.158   0.770  1.2156 -1.0882 -1.0668
 4406SOL     OW24850   2.765   2.866  13.997  0.0039  0.1833 -0.1352
 4406SOL    HW124851   2.692   2.840  13.940 -0.5142  3.3403 -0.9231
 4406SOL    HW224852   2.738   2.810  14.070 -0.5699  1.7509  0.8580
 4407SOL     OW24853   2.371   1.025   8.927 -0.3820 -0.0981 -0.4424
 4407SOL    HW124854   2.295   1.012   8.983  0.2945 -0.4422  0.3984
 4407SOL    HW224855   2.432   0.979   8.985 -0.1479 -1.2165 -1.5798
 4408SOL     OW24856   2.800   0.714   2.385 -0.2645 -0.3667 -0.2427
 4408SOL    HW124857   2.771   0.752   2.301  2.4135 -2.5406 -2.1614
 4408SOL    HW224858   2.719   0.727   2.435 -0.3785  0.2593 -0.5858
 4409SOL     OW24859   2.691   1.456  16.760 -0.0998  0.3364  0.0527
 4409SOL    HW124860   2.723   1.376  16.802  0.3606  0.1339 -0.6681
 4409SOL    HW224861   2.760   1.449  16.694  0.2807 -0.3219  0.5196
 4410SOL     OW24862   1.030   0.637   2.837 -0.1630  1.3382 -0.2979
 4410SOL    HW124863   1.102   0.585   2.800 -1.6199 -0.5426 -0.4828
 4410SOL    HW224864   1.085   0.708   2.870 -1.9111  1.2971  2.6078
 4411SOL     OW24865   3.344   2.648  12.921 -0.1904 -0.5955 -0.0881
 4411SOL    HW124866   3.283   2.586  12.961 -1.4012  1.6610  1.5744
 4411SOL    HW224867   3.373   2.596  12.846  0.6955 -2.7851  1.7729
 4412SOL     OW24868   0.132   4.334   5.473  0.2276  0.3332 -0.3780
 4412SOL    HW124869   0.147   4.426   5.453 -0.6804  0.5313 -0.1431
 4412SOL    HW224870   0.167   4.342   5.562  0.8810  0.9882 -0.6961
 4413SOL     OW24871   0.815   3.348  16.004 -0.0757  0.2088  0.8300
 4413SOL    HW124872   0.760   3.426  16.016 -1.3046 -1.0913  3.6806
 4413SOL    HW224873   0.755   3.280  16.036  0.3557 -1.4202 -1.8394
 4414SOL     OW24874   0.188   4.171   7.564 -0.5771 -0.0272 -0.7066
 4414SOL    HW124875   0.198   4.116   7.642  0.1350  2.2974  0.8239
 4414SOL    HW224876   0.270   4.218   7.548 -1.4715  1.6859 -0.1848
 4415SOL     OW24877   2.227   2.548  10.400 -0.3638 -1.0562 -0.1624
 4415SOL    HW124878   2.146   2.584  10.366  0.5344 -2.0268 -3.2918
 4415SOL    HW224879   2.195   2.510  10.482 -2.3530  0.2134 -0.3530
 4416SOL     OW24880   3.144   0.977   4.320 -0.3919 -0.1815  0.2729
 4416SOL    HW124881   3.162   0.890   4.356 -0.3542  0.0694  0.8612
 4416SOL    HW224882   3.226   1.023   4.337  0.7482 -2.3769  0.7886
 4417SOL     OW24883   1.793   3.730   2.768  0.2742 -0.0922 -0.0329
 4417SOL    HW124884   1.745   3.747   2.848 -2.8849 -1.4154 -1.6575
 4417SOL    HW224885   1.837   3.811   2.742 -1.3855  0.5766 -0.7140
 4418SOL     OW24886   0.111   4.531  16.042 -0.7834  0.9805 -0.3417
 4418SOL    HW124887   0.165   4.569  15.973 -0.6736 -0.1009 -0.8502
 4418SOL    HW224888   0.069   4.615  16.059  0.2159  1.0835  1.5886
 4419SOL     OW24889   2.921   4.267  11.158 -0.0783  0.2696 -0.2906
 4419SOL    HW124890   2.962   4.334  11.103 -1.9942  0.8153 -1.0469
 4419SOL    HW224891   2.989   4.236  11.217  0.0709 -1.3549 -1.3279
 4420SOL     OW24892   0.592   2.509   7.928  0.2739  0.4694 -0.1175
 4420SOL    HW124893   0.542   2.588   7.905 -1.0554 -0.1375  0.6589
 4420SOL    HW224894   0.524   2.448   7.957  0.0180  1.2026  0.8122
 4421SOL     OW24895   4.233   4.222  15.791  0.6374 -0.2330 -0.2695
 4421SOL    HW124896   4.213   4.308  15.827 -1.3295 -1.0208  0.5313
 4421SOL    HW224897   4.207   4.227  15.700 -1.0951 -0.3599  0.2266
 4422SOL     OW24898   2.406   4.642   3.381  0.1269  0.0026  0.1609
 4422SOL    HW124899   2.476   4.691   3.338 -0.3188  0.4566 -0.0503
 4422SOL    HW224900   2.329   4.654   3.325  0.3437  0.8426  0.0478
 4423SOL     OW24901   1.954   0.957   9.776  0.0107 -0.0739 -0.3593
 4423SOL    HW124902   1.973   1.050   9.765 -2.0512  0.4526  0.4129
 4423SOL    HW224903   1.860   0.962   9.756  0.3308 -2.4282 -2.4747
 4424SOL     OW24904   4.574   4.209   9.135  0.4303 -0.0138  0.5150
 4424SOL    HW124905   4.661   4.182   9.106 -0.6133  0.3313 -2.9575
 4424SOL    HW224906   4.548   4.130   9.182  0.9780  0.0389  0.8984
 4425SOL     OW24907   1.957   0.934   9.288 -0.0238  0.0945  0.1287
 4425SOL    HW124908   1.911   0.900   9.364 -1.1994  1.9501  0.2218
 4425SOL    HW224909   2.048   0.906   9.298  0.3097  0.9849 -0.4183
 4426SOL     OW24910   2.445   4.674   1.222  0.2820  0.3290 -0.6392
 4426SOL    HW124911   2.515   4.722   1.176 -0.4429  1.0245 -1.0272
 4426SOL    HW224912   2.440   4.586   1.185  1.0705 -0.1380  0.3864
 4427SOL     OW24913   3.080   3.969   7.273 -0.0448  0.2671  0.0090
 4427SOL    HW124914   3.046   3.893   7.226  0.4425 -1.5251  2.5678
 4427SOL    HW224915   3.150   3.992   7.212  1.5216  0.2022  1.7860
 4428SOL     OW24916   3.817   0.507   3.625  0.4551 -0.0774  0.2233
 4428SOL    HW124917   3.793   0.598   3.609 -0.4110 -0.4776 -0.7602
 4428SOL    HW224918   3.732   0.464   3.612  0.4008  0.4095 -1.0410
 4429SOL     OW24919   2.058   0.369  14.837  0.8200  0.1689  0.1438
 4429SOL    HW124920   2.141   0.417  14.829  1.4265 -0.4913  2.4917
 4429SOL    HW224921   2.065   0.333  14.925 -3.5249  1.9223  1.2196
 4430SOL     OW24922   4.729   0.517   8.096  0.5156 -0.1876 -0.9208
 4430SOL    HW124923   0.054   0.579   8.135 -0.6403  0.2874  0.1421
 4430SOL    HW224924   4.642   0.556   8.105 -0.8237 -3.4127  0.2332
 4431SOL     OW24925   1.588   3.620   9.487  0.0062  0.4620 -0.5608
 4431SOL    HW124926   1.570   3.609   9.394 -1.8282 -0.6230 -0.0881
 4431SOL    HW224927   1.552   3.708   9.498  0.1969  0.4848 -0.1435
 4432SOL     OW24928   1.680   2.985   1.061 -0.4869  0.7993 -0.2392
 4432SOL    HW124929   1.728   3.007   0.981  0.2857 -0.3430 -0.0932
 4432SOL    HW224930   1.592   3.007   1.030 -2.1277 -2.0507  2.3856
 4433SOL     OW24931   3.233   2.234  16.885  0.3536  0.1147 -0.0718
 4433SOL    HW124932   3.198   2.231  16.796  4.0446 -1.4715 -1.4826
 4433SOL    HW224933   3.293   2.309  16.883 -0.3952  0.7320  1.0182
 4434SOL     OW24934   2.332   4.472   2.779  0.1382 -0.2656 -0.1671
 4434SOL    HW124935   2.353   4.560   2.746  1.9964 -0.5092  0.3360
 4434SOL    HW224936   2.364   4.499   2.865 -1.1402  0.7962 -0.0374
 4435SOL     OW24937   4.687   2.129   7.922 -0.4876  0.1311  0.1539
 4435SOL    HW124938   4.664   2.065   7.989 -0.4719  1.4724  1.4392
 4435SOL    HW224939   0.018   2.178   7.968  1.0470 -1.3666 -0.5094
 4436SOL     OW24940   0.713   2.669   8.631  0.0914 -0.3016 -0.1339
 4436SOL    HW124941   0.805   2.682   8.606 -0.5368  3.1853 -0.5856
 4436SOL    HW224942   0.716   2.624   8.715  0.8440 -0.4155 -0.2220
 4437SOL     OW24943   2.401   0.096  14.381  0.8090  0.1813  0.2247
 4437SOL    HW124944   2.483   0.050  14.364 -0.1008 -1.7613  0.9925
 4437SOL    HW224945   2.329   0.049  14.339 -0.2247  2.5189 -0.6053
 4438SOL     OW24946   0.426   0.725  11.383 -0.4825 -0.1684  0.1550
 4438SOL    HW124947   0.477   0.667  11.326 -0.5044 -0.7379  0.7044
 4438SOL    HW224948   0.490   0.740  11.452  1.4085 -0.4149 -1.5452
 4439SOL     OW24949   3.820   3.842   5.461 -0.3327  0.0934 -0.2145
 4439SOL    HW124950   3.802   3.795   5.542 -1.1836  0.6123 -0.0987
 4439SOL    HW224951   3.733   3.878   5.440  0.7186  0.8491 -3.2136
 4440SOL     OW24952   1.391   1.492   6.277  0.0341  0.2508  0.4666
 4440SOL    HW124953   1.468   1.435   6.271  0.2808  0.8130 -1.6801
 4440SOL    HW224954   1.316   1.433   6.273 -0.7680  1.3500 -0.6352
 4441SOL     OW24955   0.960   0.457   2.573  0.7869 -0.0571  0.2160
 4441SOL    HW124956   0.927   0.446   2.663 -1.2095  1.3302 -0.3377
 4441SOL    HW224957   0.883   0.455   2.517 -0.3059  0.5580  1.6836
 4442SOL     OW24958   3.775   1.978  16.048 -0.1501  0.0075 -0.3369
 4442SOL    HW124959   3.782   2.051  15.987  1.1316  1.1003  1.1083
 4442SOL    HW224960   3.860   1.984  16.091 -1.4791  0.9941  2.1714
 4443SOL     OW24961   0.310   0.405   1.968  0.3537  0.0992  0.7558
 4443SOL    HW124962   0.333   0.493   1.938  0.3719 -0.2566 -0.2491
 4443SOL    HW224963   0.243   0.432   2.031  0.3439  0.0131  0.7820
 4444SOL     OW24964   0.274   4.039   3.708 -0.3103  0.3709  0.3140
 4444SOL    HW124965   0.355   3.997   3.737 -0.4719  0.1018  0.3768
 4444SOL    HW224966   0.270   4.115   3.765 -0.1904 -0.4957  1.4881
 4445SOL     OW24967   1.049   0.746   6.512  0.4872  0.4937 -0.6667
 4445SOL    HW124968   1.063   0.662   6.469  3.4349 -1.0619  3.3662
 4445SOL    HW224969   1.062   0.805   6.438 -2.0960 -1.9262 -3.0429
 4446SOL     OW24970   1.998   0.685   7.499 -0.0335 -0.3513  0.1393
 4446SOL    HW124971   1.915   0.640   7.511  2.0695 -3.1479  4.0973
 4446SOL    HW224972   2.049   0.644   7.568 -0.5921  0.0371  0.7869
 4447SOL     OW24973   2.029   1.101   5.652 -0.0852  0.1360 -0.1298
 4447SOL    HW124974   1.947   1.144   5.628  0.2290  0.2114 -1.0679
 4447SOL    HW224975   2.074   1.175   5.694 -2.6963  1.2888  0.6525
 4448SOL     OW24976   2.410   3.028   3.276 -0.2634  0.6574 -0.0525
 4448SOL    HW124977   2.393   3.082   3.354 -2.5168  1.0052 -0.7683
 4448SOL    HW224978   2.344   3.068   3.218 -1.3388 -1.1925 -0.0963
 4449SOL     OW24979   4.546   4.562   8.090 -0.1242  0.2339 -0.5400
 4449SOL    HW124980   4.534   4.652   8.059 -1.9262 -0.3895 -1.6422
 4449SOL    HW224981   4.517   4.514   8.012 -2.0200  0.4169  0.0440
 4450SOL     OW24982   0.269   0.070   6.387 -0.3289  0.1682 -0.9424
 4450SOL    HW124983   0.178   0.071   6.357 -0.5048  0.5545 -0.3850
 4450SOL    HW224984   0.300   0.136   6.324 -0.2888  0.3108 -0.7740
 4451SOL     OW24985   1.713   3.950   0.628 -0.5309  0.2698  0.0972
 4451SOL    HW124986   1.635   3.941   0.682 -0.8327 -0.7250 -0.5072
 4451SOL    HW224987   1.763   4.013   0.680 -0.0384  0.8635 -1.0952
 4452SOL     OW24988   1.745   0.607   8.092 -0.2336  0.3688 -0.1436
 4452SOL    HW124989   1.807   0.625   8.022  0.9342  0.1594  0.8455
 4452SOL    HW224990   1.803   0.557   8.149 -1.2027  0.0170  0.5307
 4453SOL     OW24991   1.777   3.052  14.513 -0.5892 -0.4777  0.5245
 4453SOL    HW124992   1.814   2.968  14.487  0.6311  0.0766  0.4609
 4453SOL    HW224993   1.685   3.030  14.531 -0.7719  0.7647  1.1349
 4454SOL     OW24994   2.686   2.490   2.414  0.7245 -0.0927  0.0017
 4454SOL    HW124995   2.650   2.494   2.503  0.7963 -0.4603  0.0463
 4454SOL    HW224996   2.724   2.578   2.412  0.5950 -0.0491 -0.4025
 4455SOL     OW24997   0.328   1.239   8.445  0.2879 -0.3053  0.5346
 4455SOL    HW124998   0.236   1.227   8.468 -0.2866 -1.0259 -2.1768
 4455SOL    HW224999   0.356   1.301   8.513 -0.2918  1.4308 -0.8165
 4456SOL     OW25000   3.807   0.412   6.469  0.0109  0.2053  0.3019
 4456SOL    HW125001   3.772   0.383   6.385  0.3945  0.1698  0.1569
 4456SOL    HW225002   3.881   0.462   6.434  0.2092 -0.7842 -0.6684
 4457SOL     OW25003   2.010   2.346   0.163 -0.0037 -0.4181  0.1154
 4457SOL    HW125004   2.038   2.274   0.106  1.3648 -0.5052  0.8795
 4457SOL    HW225005   2.060   2.335   0.245  1.6545  0.7641 -0.7452
 4458SOL     OW25006   3.092   4.223   1.310 -0.4451 -0.3597  0.2109
 4458SOL    HW125007   3.008   4.247   1.271  0.0406 -0.9058 -1.2037
 4458SOL    HW225008   3.139   4.188   1.234  0.5034  0.2083  0.5316
 4459SOL     OW25009   0.200   2.452   7.780 -0.1061 -0.2122 -0.3619
 4459SOL    HW125010   0.267   2.411   7.835  0.5704  1.0780 -0.2196
 4459SOL    HW225011   0.178   2.384   7.717 -0.7290  1.0022 -1.4579
 4460SOL     OW25012   4.339   1.434  10.320  0.0722  0.9728 -0.1311
 4460SOL    HW125013   4.267   1.423  10.382  0.9469 -0.8994  0.5592
 4460SOL    HW225014   4.350   1.529  10.324 -0.7200  1.0481  0.2165
 4461SOL     OW25015   1.906   0.314   4.003 -0.3294 -0.1117 -0.4057
 4461SOL    HW125016   1.844   0.385   4.024  0.9901  1.6767 -2.5263
 4461SOL    HW225017   1.857   0.236   3.978 -2.1926  0.2532  2.0326
 4462SOL     OW25018   0.096   4.705   8.774  0.2081  0.7432 -0.6012
 4462SOL    HW125019   0.093   4.645   8.848 -0.5906  0.3137 -0.9773
 4462SOL    HW225020   0.170   0.025   8.794  0.4768  0.8798 -1.9874
 4463SOL     OW25021   1.843   3.010  12.548 -0.1500  0.1622  0.1329
 4463SOL    HW125022   1.760   3.053  12.566  0.6489  0.8758  2.0749
 4463SOL    HW225023   1.819   2.923  12.515 -2.1206  1.3600 -1.6453
 4464SOL     OW25024   4.277   3.173   3.121  0.6113 -0.0964 -0.4233
 4464SOL    HW125025   4.317   3.136   3.200  0.1213  0.5626  0.1338
 4464SOL    HW225026   4.220   3.240   3.157  0.5018 -1.1128  1.2887
 4465SOL     OW25027   3.118   1.416  10.707 -0.1646  0.2003  0.2337
 4465SOL    HW125028   3.145   1.482  10.643  0.5678  1.4541  1.8653
 4465SOL    HW225029   3.030   1.437  10.738 -0.2076  0.3863 -0.0173
 4466SOL     OW25030   0.497   4.495   2.047 -0.1795 -0.6716 -1.0711
 4466SOL    HW125031   0.505   4.566   2.112 -0.1633 -1.2280 -0.4661
 4466SOL    HW225032   0.557   4.428   2.078 -0.4589  0.5452  2.1650
 4467SOL     OW25033   3.031   4.061   5.686 -0.6413  0.3010 -0.8543
 4467SOL    HW125034   2.962   4.072   5.620 -1.5707  0.2348  0.1091
 4467SOL    HW225035   2.968   4.043   5.756  1.2960 -0.0715  0.7774
 4468SOL     OW25036   0.002   1.871   2.628  0.1569 -0.4098 -0.2416
 4468SOL    HW125037   0.075   1.838   2.575  2.5098  0.9432  2.1627
 4468SOL    HW225038   0.031   1.835   2.711 -0.8302  1.8650  1.0800
 4469SOL     OW25039   1.969   2.326   5.585  0.4165  0.6521  0.2096
 4469SOL    HW125040   1.981   2.414   5.622 -0.0383  0.5005  0.7067
 4469SOL    HW225041   1.877   2.310   5.603  0.0568  1.1506 -1.1997
 4470SOL     OW25042   0.882   1.883   7.001  0.6658  0.1837 -0.3906
 4470SOL    HW125043   0.846   1.799   7.028  0.6083  1.2373  2.7619
 4470SOL    HW225044   0.911   1.920   7.085  1.1163  1.4806 -1.1106
 4471SOL     OW25045   2.098   0.080   0.851 -0.1854 -0.1385 -0.1251
 4471SOL    HW125046   2.191   0.068   0.870  0.0688  3.7769  1.0270
 4471SOL    HW225047   2.065   0.017   0.916 -3.2639  0.0671 -1.4771
 4472SOL     OW25048   2.916   3.836   1.593 -0.2499 -0.4953  0.0922
 4472SOL    HW125049   2.922   3.889   1.514 -0.8917  0.1087  0.4465
 4472SOL    HW225050   2.989   3.775   1.584 -1.4650 -1.7870 -0.9499
 4473SOL     OW25051   4.728   4.476   4.446 -0.6347 -0.0494  0.9752
 4473SOL    HW125052   4.730   4.380   4.457 -1.8762 -0.3042 -1.1795
 4473SOL    HW225053   4.707   4.479   4.353  1.4121 -0.4957  0.4993
 4474SOL     OW25054   1.037   0.096   2.769  0.6027 -0.3343 -0.3045
 4474SOL    HW125055   1.029   0.035   2.842 -1.6807  0.1383 -0.1905
 4474SOL    HW225056   0.957   0.084   2.719 -1.0930  0.1483  2.2969
 4475SOL     OW25057   3.060   4.446  15.867  0.1675  0.2846  0.0326
 4475SOL    HW125058   3.148   4.465  15.833  0.4005 -1.6091 -0.4325
 4475SOL    HW225059   3.078   4.378  15.932  2.5042  2.1991  1.3812
 4476SOL     OW25060   3.259   0.012  15.219  0.5454 -0.1056 -0.2358
 4476SOL    HW125061   3.234   0.008  15.127  0.5671  1.1559 -0.3031
 4476SOL    HW225062   3.221   0.097  15.239  0.3942 -0.1302 -0.4258
 4477SOL     OW25063   2.867   0.158   6.737 -0.4822 -0.0082 -0.5955
 4477SOL    HW125064   2.900   0.094   6.800 -1.6529 -1.4653 -1.4495
 4477SOL    HW225065   2.861   0.101   6.661 -0.2712  0.4609 -0.9677
 4478SOL     OW25066   3.115   2.694  11.048  0.1845 -0.2473 -0.4142
 4478SOL    HW125067   3.063   2.644  11.110 -0.0324  2.4014  1.5291
 4478SOL    HW225068   3.067   2.675  10.968 -1.4853  1.0617  0.2717
 4479SOL     OW25069   2.939   0.854   3.277  0.1966 -0.3964 -0.3934
 4479SOL    HW125070   2.873   0.921   3.293 -1.0837 -1.6008 -0.6342
 4479SOL    HW225071   2.885   0.787   3.234  0.0652 -0.8274  0.4412
 4480SOL     OW25072   4.233   4.289   5.250  0.2647 -0.5154  0.9561
 4480SOL    HW125073   4.301   4.244   5.200 -0.0120  0.2480 -0.0986
 4480SOL    HW225074   4.162   4.225   5.245 -1.0714  0.9717  0.9586
 4481SOL     OW25075   0.615   3.510   0.944 -0.4863  0.4206 -0.7496
 4481SOL    HW125076   0.590   3.580   1.003  0.5401 -0.9668  1.3207
 4481SOL    HW225077   0.680   3.566   0.901 -0.7836 -0.8221 -2.8199
 4482SOL     OW25078   1.627   2.682   3.541 -0.1209 -0.7761  0.4728
 4482SOL    HW125079   1.669   2.636   3.614  0.8489  0.5882  0.7709
 4482SOL    HW225080   1.572   2.611   3.508 -0.0376  0.3633 -2.0604
 4483SOL     OW25081   0.259   4.167   5.020  0.5025 -0.1856  0.1273
 4483SOL    HW125082   0.242   4.167   5.114  0.5179  3.2096  0.1188
 4483SOL    HW225083   0.310   4.247   5.009  0.4111  0.0243  1.2199
 4484SOL     OW25084   0.232   2.403   6.846 -1.3534 -0.1684  0.0767
 4484SOL    HW125085   0.222   2.323   6.795 -0.8148  0.2329 -0.6517
 4484SOL    HW225086   0.278   2.373   6.924  2.9171  1.4820 -1.8074
 4485SOL     OW25087   3.356   2.813   9.969  0.0963  0.6908  0.6116
 4485SOL    HW125088   3.323   2.797  10.058  1.5448 -0.7132  0.9118
 4485SOL    HW225089   3.274   2.830   9.923  0.7715 -1.9014 -1.5610
 4486SOL     OW25090   4.702   2.119   8.817 -0.0161 -0.2428 -0.2946
 4486SOL    HW125091   4.689   2.031   8.781  0.0435 -0.8165  1.0924
 4486SOL    HW225092   0.060   2.137   8.813 -0.2313  1.3386  1.7932
 4487SOL     OW25093   0.148   4.127  15.984 -0.3826  0.3797  0.1259
 4487SOL    HW125094   0.162   4.155  15.894 -2.0503 -1.4703 -0.7062
 4487SOL    HW225095   0.237   4.127  16.020 -0.8149 -0.6858  1.2219
 4488SOL     OW25096   0.126   3.391   6.168  0.6585  0.3587  0.3310
 4488SOL    HW125097   0.156   3.344   6.246 -1.1905  1.1315  1.5168
 4488SOL    HW225098   0.193   3.459   6.176  0.7914  0.1066  1.3686
 4489SOL     OW25099   1.558   1.608   4.473  0.0666  0.6223  0.0133
 4489SOL    HW125100   1.515   1.596   4.388 -0.8390 -2.7845  0.9350
 4489SOL    HW225101   1.488   1.601   4.539 -0.7143  0.6032 -0.8063
 4490SOL     OW25102   3.838   3.123   7.955 -0.3113 -0.0906  0.2337
 4490SOL    HW125103   3.933   3.133   7.961 -0.0670 -1.4841 -1.7703
 4490SOL    HW225104   3.802   3.211   7.968  0.5676  0.1355  1.1563
 4491SOL     OW25105   1.666   1.422   8.215  0.0940  0.1924 -0.0557
 4491SOL    HW125106   1.592   1.448   8.270 -1.2632 -0.7565 -1.4319
 4491SOL    HW225107   1.686   1.329   8.226  0.6086  0.5961  2.5755
 4492SOL     OW25108   0.075   1.215   8.569 -0.3881 -0.2487  0.2111
 4492SOL    HW125109   0.090   1.203   8.663 -0.7061 -0.0910  0.2802
 4492SOL    HW225110   0.044   1.128   8.545  0.9787 -0.9460  0.9927
 4493SOL     OW25111   2.864   2.657   8.161  0.7126  0.2089  0.6474
 4493SOL    HW125112   2.862   2.684   8.069 -1.7205  0.7610  0.8812
 4493SOL    HW225113   2.849   2.736   8.213 -1.1457 -1.5770  2.8279
 4494SOL     OW25114   0.085   4.637   9.418  0.0510 -0.0840 -0.4827
 4494SOL    HW125115   0.020   4.656   9.486  1.1003 -0.2915  0.6010
 4494SOL    HW225116   0.104   4.726   9.388 -1.4872 -0.3320 -2.1512
 4495SOL     OW25117   3.046   1.821   0.424 -0.3062 -0.6061  0.4612
 4495SOL    HW125118   2.992   1.743   0.428 -1.3024  0.0159 -0.7721
 4495SOL    HW225119   3.056   1.855   0.513 -1.3248  1.0314 -0.0479
 4496SOL     OW25120   1.318   0.855   8.919  0.1320 -0.3258  0.5629
 4496SOL    HW125121   1.386   0.913   8.884  1.3374 -0.7742  2.1618
 4496SOL    HW225122   1.268   0.846   8.837 -1.0971 -2.8721  1.6011
 4497SOL     OW25123   1.659   2.996  10.665  0.1254  0.4100 -0.1236
 4497SOL    HW125124   1.618   3.050  10.732 -1.2464 -1.2649  0.3941
 4497SOL    HW225125   1.730   3.050  10.630  0.2631  1.3495  1.6153
 4498SOL     OW25126   3.552   1.104   1.838 -0.0897  0.0371  0.4627
 4498SOL    HW125127   3.473   1.051   1.845  1.0217 -1.8306 -1.0749
 4498SOL    HW225128   3.549   1.176   1.901 -0.2625 -1.5864  2.3310
 4499SOL     OW25129   2.581   0.948   7.358 -0.4270 -0.2034  0.0571
 4499SOL    HW125130   2.529   0.916   7.431 -2.8241  0.5493 -1.3186
 4499SOL    HW225131   2.662   0.900   7.375  0.2871  0.8235 -0.4443
 4500SOL     OW25132   1.360   4.578   3.437  0.5198 -0.8442  0.0951
 4500SOL    HW125133   1.358   4.527   3.518  1.6524  3.2748  2.7431
 4500SOL    HW225134   1.331   4.507   3.380  0.3237 -1.5485  1.0803
 4501SOL     OW25135   3.084   0.918   0.252 -0.6223  0.2341 -0.0476
 4501SOL    HW125136   3.132   0.992   0.289  0.2379 -0.1353 -0.4398
 4501SOL    HW225137   3.157   0.857   0.257 -2.5776 -2.0766  0.4204
 4502SOL     OW25138   0.679   4.673   1.464  0.2284 -0.4765 -0.1607
 4502SOL    HW125139   0.657   4.730   1.537  0.7374  0.2136 -0.5503
 4502SOL    HW225140   0.772   4.656   1.480  0.3272 -2.2201 -2.5466
 4503SOL     OW25141   3.029   2.797   4.414 -0.1829  0.6248  0.7845
 4503SOL    HW125142   3.102   2.852   4.383  0.0401 -0.1666 -0.0943
 4503SOL    HW225143   3.080   2.725   4.451 -2.6852 -0.5188  2.0050
 4504SOL     OW25144   0.007   4.081   5.503  0.1815 -1.1543 -0.1882
 4504SOL    HW125145   0.102   4.072   5.511  0.1982 -1.2663 -0.5434
 4504SOL    HW225146   4.720   4.157   5.556  2.6241 -0.7899  0.3991
 4505SOL     OW25147   1.225   2.890  14.613 -0.4801  0.1349  0.2292
 4505SOL    HW125148   1.226   2.960  14.548 -0.3951  0.8898  1.0396
 4505SOL    HW225149   1.280   2.831  14.561  0.9319 -2.7572  4.9983
 4506SOL     OW25150   3.143   3.675   5.059 -0.1809  0.6034 -0.1803
 4506SOL    HW125151   3.073   3.612   5.076  2.1957 -2.2638 -1.2003
 4506SOL    HW225152   3.174   3.645   4.974  0.2144  0.7607 -0.0922
 4507SOL     OW25153   0.548   4.669   7.290  0.2025  0.3271  0.0204
 4507SOL    HW125154   0.591   0.016   7.308 -0.0715  0.5269 -0.2562
 4507SOL    HW225155   0.479   4.667   7.357 -0.9720 -0.3569 -1.2101
 4508SOL     OW25156   3.295   3.260   5.826 -0.5944  0.2322  0.3409
 4508SOL    HW125157   3.357   3.200   5.785 -2.8385 -0.9665 -1.2499
 4508SOL    HW225158   3.359   3.314   5.873  1.6774 -1.3362 -0.9234
 4509SOL     OW25159   1.604   4.177   6.078 -0.1813 -0.4909  0.0009
 4509SOL    HW125160   1.572   4.131   6.001  1.5889 -1.7700  0.0174
 4509SOL    HW225161   1.555   4.259   6.073 -1.6607 -1.5623 -2.9338
 4510SOL     OW25162   4.667   3.310   8.397 -0.6099  0.2636  0.5186
 4510SOL    HW125163   4.724   3.323   8.473  2.3233  0.5808 -1.7345
 4510SOL    HW225164   4.597   3.369   8.425 -1.0824  0.4502 -1.0657
 4511SOL     OW25165   0.789   0.246   6.299  0.2517 -0.3434  0.2329
 4511SOL    HW125166   0.747   0.264   6.384 -0.6897  0.4975 -0.4153
 4511SOL    HW225167   0.839   0.170   6.330  2.2476  1.1966  0.7927
 4512SOL     OW25168   1.730   4.418   9.802 -0.2572 -0.3503  0.0809
 4512SOL    HW125169   1.754   4.460   9.885  2.2340 -0.8720 -0.3672
 4512SOL    HW225170   1.814   4.410   9.757 -0.2625  1.5669 -0.2922
 4513SOL     OW25171   3.268   0.153   3.981 -0.2256 -0.1182 -0.3344
 4513SOL    HW125172   3.288   0.148   4.074 -0.9521  0.9505 -0.1275
 4513SOL    HW225173   3.327   0.223   3.954  0.6140 -0.9583 -0.7035
 4514SOL     OW25174   3.879   2.302   7.594  0.0912  0.0033  0.3961
 4514SOL    HW125175   3.962   2.350   7.592 -1.6100  2.7898 -3.8982
 4514SOL    HW225176   3.898   2.235   7.660  0.8582 -1.3954 -1.2118
 4515SOL     OW25177   4.370   4.278   1.413  0.0664 -0.3752 -0.1836
 4515SOL    HW125178   4.437   4.276   1.344  0.3494 -2.9707  0.1673
 4515SOL    HW225179   4.429   4.272   1.488 -1.0889 -1.1490  0.6745
 4516SOL     OW25180   1.974   0.712   0.920 -0.2966 -0.3171  0.1366
 4516SOL    HW125181   2.028   0.673   0.988  1.7094  0.5974 -0.9205
 4516SOL    HW225182   2.025   0.793   0.909  1.9036 -1.5470  1.4023
 4517SOL     OW25183   1.018   1.185   7.156  0.1624  0.1849  0.0969
 4517SOL    HW125184   1.095   1.146   7.198  0.1696  0.0354 -0.0542
 4517SOL    HW225185   1.013   1.147   7.068 -0.6207  3.3165 -1.2217
 4518SOL     OW25186   1.635   2.128   8.163 -0.4749 -0.0182 -0.0376
 4518SOL    HW125187   1.546   2.100   8.183 -0.3769  0.2529  0.7646
 4518SOL    HW225188   1.631   2.222   8.145 -1.9771  0.2615  1.7855
 4519SOL     OW25189   2.624   1.925   1.656  0.5376  0.4553 -0.2818
 4519SOL    HW125190   2.544   1.942   1.607 -0.6877 -2.4779  0.7197
 4519SOL    HW225191   2.585   1.918   1.743 -1.8340 -0.6301 -1.4408
 4520SOL     OW25192   1.400   0.822   8.396 -0.0341 -0.4296  0.1120
 4520SOL    HW125193   1.418   0.900   8.448  2.1225  0.2407 -1.6464
 4520SOL    HW225194   1.482   0.808   8.348 -0.4698 -0.4224 -0.6408
 4521SOL     OW25195   0.492   0.012   1.278  0.5968 -0.6629 -0.0236
 4521SOL    HW125196   0.482   0.069   1.354 -0.9221 -0.2311 -0.5453
 4521SOL    HW225197   0.566   4.694   1.307 -0.0489 -2.8323 -2.4322
 4522SOL     OW25198   2.815   3.305  11.031  1.2552  0.3680 -0.0117
 4522SOL    HW125199   2.838   3.366  10.960  0.2938 -0.4737 -1.0461
 4522SOL    HW225200   2.867   3.338  11.104 -0.5046  0.3459  1.2385
 4523SOL     OW25201   3.205   1.825   8.601  0.3085  0.1945  0.6913
 4523SOL    HW125202   3.247   1.767   8.538  1.2463 -1.0057  2.4264
 4523SOL    HW225203   3.118   1.838   8.564 -0.7775 -0.5470  2.9778
 4524SOL     OW25204   3.628   0.929   2.473 -0.0152 -0.3942  0.5795
 4524SOL    HW125205   3.631   0.873   2.551 -0.5506  0.4769  1.2169
 4524SOL    HW225206   3.589   1.010   2.504  1.7248 -0.0502  1.8911
 4525SOL     OW25207   1.848   3.296   9.145 -0.2943 -0.0501  0.2073
 4525SOL    HW125208   1.856   3.391   9.155  1.8745 -0.4525  2.4516
 4525SOL    HW225209   1.770   3.276   9.198 -1.1172  1.6658 -0.3887
 4526SOL     OW25210   0.848   4.687   0.074  0.1042  0.9052  0.2968
 4526SOL    HW125211   0.832   0.044   0.060  0.1175  0.6875 -1.1767
 4526SOL    HW225212   0.870   4.650  17.732 -0.5492 -0.9859  0.9435
 4527SOL     OW25213   4.026   1.171   3.693  0.0198  0.3519  0.3761
 4527SOL    HW125214   4.071   1.250   3.723 -2.2303  1.9659 -0.5663
 4527SOL    HW225215   4.062   1.170   3.604  2.1567 -1.2584  1.2344
 4528SOL     OW25216   2.750   0.507   0.339  0.6148  0.2544  0.5315
 4528SOL    HW125217   2.810   0.562   0.288 -0.6542  1.2430  0.1115
 4528SOL    HW225218   2.686   0.477   0.275  0.9682  0.5236  0.0434
 4529SOL     OW25219   4.094   0.734   1.335  0.3158 -0.0521  0.0467
 4529SOL    HW125220   4.153   0.763   1.406 -2.2297  1.2288  1.6546
 4529SOL    HW225221   4.100   0.796   1.263 -0.8087 -1.3408 -1.1325
 4530SOL     OW25222   2.226   2.550   9.002 -0.0653  0.0652  0.5832
 4530SOL    HW125223   2.297   2.542   9.065  2.4498 -1.7439 -2.5082
 4530SOL    HW225224   2.260   2.600   8.928  0.0066  0.3645  0.8133
 4531SOL     OW25225   2.331   1.216   2.104  0.0852 -0.4790  0.1019
 4531SOL    HW125226   2.371   1.241   2.020  0.3769 -0.4804  0.2416
 4531SOL    HW225227   2.349   1.291   2.161 -3.5679  0.3251  0.2401
 4532SOL     OW25228   0.952   1.791  13.530 -0.4643  0.2994 -0.1801
 4532SOL    HW125229   0.895   1.734  13.581  1.1107 -0.3913  0.8437
 4532SOL    HW225230   0.912   1.787  13.443  0.7877 -0.7936 -0.7086
 4533SOL     OW25231   2.497   2.208   6.541  0.0724  0.4646  0.3039
 4533SOL    HW125232   2.590   2.197   6.562 -0.0368 -0.5080  0.2683
 4533SOL    HW225233   2.514   2.213   6.447  1.1537  3.6082  0.6633
 4534SOL     OW25234   0.618   2.085   3.499 -0.0258  0.1278  0.0639
 4534SOL    HW125235   0.606   2.050   3.411  0.2123 -0.6814  0.3489
 4534SOL    HW225236   0.622   2.003   3.548  1.0389 -1.1237 -2.1417
 4535SOL     OW25237   2.140   2.763   1.948  0.3890 -0.6115  0.3800
 4535SOL    HW125238   2.055   2.803   1.930  0.1997  0.2940  3.2730
 4535SOL    HW225239   2.115   2.671   1.939  1.2298 -0.9956  1.8457
 4536SOL     OW25240   3.924   4.599   5.461  0.1987 -0.6762  0.2820
 4536SOL    HW125241   4.007   4.553   5.447  0.3577 -0.6011  0.9888
 4536SOL    HW225242   3.933   4.615   5.555  1.8443 -1.9855  0.3497
 4537SOL     OW25243   4.652   4.645   7.101 -0.6155  0.4065  0.1217
 4537SOL    HW125244   4.622   4.717   7.157 -0.5041 -0.7550  1.6799
 4537SOL    HW225245   4.627   4.670   7.012  0.3065 -0.8035 -0.4882
 4538SOL     OW25246   1.357   1.645   4.667 -0.6480  0.3202  0.7300
 4538SOL    HW125247   1.287   1.582   4.682 -1.8797  1.6702  0.6318
 4538SOL    HW225248   1.365   1.656   4.762 -2.0206  2.2485  0.6066
 4539SOL     OW25249   3.338   4.456  14.889  0.0281  0.0270 -0.4944
 4539SOL    HW125250   3.387   4.446  14.808  1.0127  1.6972 -0.1157
 4539SOL    HW225251   3.312   4.546  14.869 -1.5567 -0.0564  1.2294
 4540SOL     OW25252   0.164   4.405   8.670 -0.2532  0.2231  0.0489
 4540SOL    HW125253   0.111   4.412   8.750 -0.2042  3.0038 -0.1431
 4540SOL    HW225254   0.115   4.466   8.615 -0.7007  0.3366  0.5680
 4541SOL     OW25255   1.958   4.057  15.882 -0.5695  0.0714 -0.1470
 4541SOL    HW125256   2.028   4.080  15.943 -1.0284  0.5243  0.2128
 4541SOL    HW225257   1.940   4.141  15.840 -2.5354 -0.1435  0.2303
 4542SOL     OW25258   2.986   2.668   1.771 -0.1416  0.2286  0.4813
 4542SOL    HW125259   3.014   2.646   1.859 -0.7865  0.5003  0.7528
 4542SOL    HW225260   3.057   2.632   1.718  0.9427  0.1471  2.0050
 4543SOL     OW25261   4.661   2.822   2.133 -0.6129 -0.1749  0.1840
 4543SOL    HW125262   4.661   2.727   2.122  0.9496  0.0903 -2.2198
 4543SOL    HW225263   4.733   2.839   2.194 -1.2656  1.2456  0.5571
 4544SOL     OW25264   1.139   4.228  17.390  0.2469  0.3072 -0.4425
 4544SOL    HW125265   1.202   4.209  17.321 -1.7705  1.5519 -2.6152
 4544SOL    HW225266   1.069   4.273  17.344 -0.4759  0.6187  0.9654
 4545SOL     OW25267   1.255   0.140   6.995 -0.3310 -0.4147  0.1286
 4545SOL    HW125268   1.191   0.075   6.966 -0.5531  0.0863 -0.5083
 4545SOL    HW225269   1.319   0.086   7.042  0.4344 -1.4644 -2.0760
 4546SOL     OW25270   0.980   3.655   4.747 -0.2682 -0.0480 -0.0507
 4546SOL    HW125271   1.066   3.633   4.784 -0.9426 -1.5526  0.5956
 4546SOL    HW225272   0.934   3.579   4.782 -1.8305  0.6471 -0.6126
 4547SOL     OW25273   2.766   0.245   4.518 -0.1033  0.0816  0.4046
 4547SOL    HW125274   2.745   0.257   4.611 -0.1913 -2.1407  0.6848
 4547SOL    HW225275   2.693   0.296   4.484 -0.1413  0.2339  0.7179
 4548SOL     OW25276   3.409   2.304   8.008 -0.5826 -0.1853 -0.7549
 4548SOL    HW125277   3.338   2.309   8.073 -0.5578 -0.7905 -0.6799
 4548SOL    HW225278   3.362   2.239   7.956  0.8001 -2.7612  1.2182
 4549SOL     OW25279   3.971   2.701  10.550 -0.9426 -0.2514 -0.3422
 4549SOL    HW125280   4.013   2.700  10.636 -1.4665  0.3165 -0.0817
 4549SOL    HW225281   3.890   2.653  10.568 -0.0559 -0.7432  2.3578
 4550SOL     OW25282   3.504   0.995   5.167  0.5820 -0.6169 -0.1016
 4550SOL    HW125283   3.487   1.068   5.107 -0.4638 -0.9314 -0.1798
 4550SOL    HW225284   3.411   0.976   5.181  0.4455 -0.0859 -0.3009
 4551SOL     OW25285   0.453   0.178   9.860  0.2995  0.2400 -0.0965
 4551SOL    HW125286   0.390   0.246   9.883 -0.4919 -0.3947 -0.4179
 4551SOL    HW225287   0.500   0.214   9.784  0.8401  1.0964  0.6363
 4552SOL     OW25288   3.111   2.052   2.324 -0.2196 -0.0283  0.3697
 4552SOL    HW125289   3.046   2.048   2.394  2.1525  0.5448  2.5812
 4552SOL    HW225290   3.118   1.960   2.300  2.9907  0.4484 -0.5415
 4553SOL     OW25291   3.122   0.618  10.001 -0.0151  0.5400  0.4996
 4553SOL    HW125292   3.030   0.594   9.994  0.3872 -0.1239 -2.4219
 4553SOL    HW225293   3.154   0.595   9.914 -0.2537  1.5896  0.1317
 4554SOL     OW25294   2.799   3.564   1.107  0.4194 -0.0244 -0.6452
 4554SOL    HW125295   2.867   3.525   1.161 -0.4060 -1.0478 -0.3391
 4554SOL    HW225296   2.815   3.659   1.106  0.3482  0.0178  1.0626
 4555SOL     OW25297   3.765   0.257   2.796  0.4538 -0.3646  0.2587
 4555SOL    HW125298   3.709   0.334   2.794  1.0618  0.0580 -1.0430
 4555SOL    HW225299   3.848   0.293   2.765  0.7798 -3.9246 -3.0021
 4556SOL     OW25300   4.629   0.011   0.107  0.1622 -0.8257  0.0534
 4556SOL    HW125301   4.599   0.095   0.072  2.2073  0.5630  1.6605
 4556SOL    HW225302   4.549   4.702   0.078  0.3346  1.6861 -4.3725
 4557SOL     OW25303   4.471   3.744   8.745  0.1678 -0.1849 -0.2459
 4557SOL    HW125304   4.462   3.787   8.660 -1.7353 -0.6175 -0.2593
 4557SOL    HW225305   4.382   3.750   8.779  0.7274 -1.0473  1.3783
 4558SOL     OW25306   2.593   2.849   3.271  0.2813 -0.5713 -0.1031
 4558SOL    HW125307   2.583   2.811   3.358  0.7170  0.6687  0.5003
 4558SOL    HW225308   2.517   2.908   3.264 -1.1412 -2.4657 -0.5207
 4559SOL     OW25309   0.560   2.607   8.427 -0.2782 -0.0183  0.0243
 4559SOL    HW125310   0.621   2.629   8.498  2.3768 -3.5963 -1.2023
 4559SOL    HW225311   0.540   2.692   8.387  0.3185  0.5273  0.8938
 4560SOL     OW25312   4.186   1.196   1.493  0.1144 -0.4480  0.0556
 4560SOL    HW125313   4.119   1.218   1.428 -0.3238  1.1790  1.0674
 4560SOL    HW225314   4.230   1.280   1.493 -4.0946  1.7839  1.0245
 4561SOL     OW25315   0.018   3.084   6.470 -0.5185  0.3848  0.0225
 4561SOL    HW125316   0.085   3.036   6.421 -1.1313  0.2779 -0.7178
 4561SOL    HW225317   0.077   3.115   6.538  0.7631 -1.7589 -0.1147
 4562SOL     OW25318   1.682   2.896  15.356 -0.3256  0.3575  0.0673
 4562SOL    HW125319   1.721   2.835  15.418  1.9784  2.4268  0.6617
 4562SOL    HW225320   1.740   2.883  15.281 -1.2896 -1.0513 -0.4219
 4563SOL     OW25321   3.472   2.820  16.571  0.6582 -0.1957 -0.4515
 4563SOL    HW125322   3.522   2.743  16.545  1.3732 -0.1984  0.9441
 4563SOL    HW225323   3.517   2.855  16.648 -0.2062  0.9448 -0.4658
 4564SOL     OW25324   0.122   3.732   5.859 -0.1085  0.8631 -0.3777
 4564SOL    HW125325   0.202   3.686   5.834  0.7685  1.5562  1.2240
 4564SOL    HW225326   0.060   3.681   5.806 -1.0537  0.5173  1.0494
 4565SOL     OW25327   0.616   4.018  17.401  0.4085  0.3014 -0.4608
 4565SOL    HW125328   0.625   3.927  17.431 -0.2716  0.5617  0.5383
 4565SOL    HW225329   0.684   4.021  17.334 -0.2549 -1.4091 -1.2057
 4566SOL     OW25330   0.109   1.719   2.834 -0.1730  0.1078 -0.2942
 4566SOL    HW125331   0.192   1.673   2.850  0.2047  0.8778 -0.0490
 4566SOL    HW225332   0.076   1.737   2.922  0.7154  1.2263 -0.1951
 4567SOL     OW25333   0.562   3.740   5.750  0.2560  0.4947 -0.1016
 4567SOL    HW125334   0.638   3.685   5.770  0.1865 -0.1014 -1.5335
 4567SOL    HW225335   0.497   3.720   5.817 -1.5327  0.6366 -1.7967
 4568SOL     OW25336   3.894   0.812   6.478 -0.4367  0.0408  0.5769
 4568SOL    HW125337   3.963   0.866   6.517 -2.2975  1.4464  1.9982
 4568SOL    HW225338   3.830   0.876   6.448  0.9713  1.8035  1.3420
 4569SOL     OW25339   1.014   1.165   6.394 -0.4985 -0.0816 -0.0073
 4569SOL    HW125340   0.947   1.219   6.353 -0.8941  1.8621  3.1444
 4569SOL    HW225341   0.986   1.167   6.486  2.7223  0.3758  0.9668
 4570SOL     OW25342   3.532   3.253   4.365 -0.1251  0.4567  0.5637
 4570SOL    HW125343   3.516   3.255   4.460 -0.8887  0.8629  0.4224
 4570SOL    HW225344   3.624   3.227   4.372 -0.5133 -1.1769 -0.5154
 4571SOL     OW25345   1.391   4.648   2.502 -0.1758  0.0294  0.0432
 4571SOL    HW125346   1.410   0.005   2.499  0.6868 -0.1203  0.8485
 4571SOL    HW225347   1.416   4.623   2.591  1.1691  3.6676  0.6798
 4572SOL     OW25348   1.826   2.193   4.785  0.1215 -0.5061  0.1233
 4572SOL    HW125349   1.829   2.226   4.696 -0.4742  0.1363  0.3418
 4572SOL    HW225350   1.841   2.269   4.841 -1.1279  0.3947 -0.7719
 4573SOL     OW25351   0.705   4.033   9.056 -0.3964 -0.1272 -0.3359
 4573SOL    HW125352   0.621   4.059   9.019  0.3246 -0.2979 -2.0497
 4573SOL    HW225353   0.682   3.972   9.126 -1.9200  0.2408 -0.5256
 4574SOL     OW25354   0.047   1.680   9.274  0.6903  0.2828  0.2295
 4574SOL    HW125355   0.072   1.760   9.229  1.5660  0.0846  0.3683
 4574SOL    HW225356   4.695   1.708   9.299  0.0450 -1.2448 -0.3001
 4575SOL     OW25357   1.558   1.004   3.641 -0.5070 -0.0133  0.0328
 4575SOL    HW125358   1.619   0.998   3.714 -1.3967 -0.5377  0.7274
 4575SOL    HW225359   1.569   1.095   3.614  1.0641 -0.0132  0.7058
 4576SOL     OW25360   1.529   1.787   3.262 -0.3726 -0.1695 -0.3181
 4576SOL    HW125361   1.508   1.881   3.257 -0.6293 -0.3527 -3.1953
 4576SOL    HW225362   1.444   1.744   3.266  0.2336 -1.6947 -3.2684
 4577SOL     OW25363   3.029   3.672  11.960  0.4070 -0.2259 -0.2386
 4577SOL    HW125364   2.978   3.591  11.953  0.7857 -0.6177  1.4773
 4577SOL    HW225365   2.960   3.736  11.945 -1.7861 -2.4624  0.1748
 4578SOL     OW25366   3.697   1.716   4.629  0.0617 -0.2432 -0.2110
 4578SOL    HW125367   3.659   1.786   4.576 -0.2903  0.7680  1.3879
 4578SOL    HW225368   3.753   1.756   4.695 -0.6526  0.1579  0.1577
 4579SOL     OW25369   1.029   3.128   3.023 -0.0902 -0.0999  0.2395
 4579SOL    HW125370   0.935   3.125   3.009 -0.3941  0.1380  2.1898
 4579SOL    HW225371   1.047   3.043   3.064  1.0810 -0.4662 -1.0508
 4580SOL     OW25372   0.247   1.500  17.517 -0.1526 -0.2708 -0.1852
 4580SOL    HW125373   0.305   1.569  17.484 -0.6995  0.0951 -0.3900
 4580SOL    HW225374   0.186   1.506  17.443 -0.1884  1.3079 -0.0407
 4581SOL     OW25375   3.828   0.762   5.153  1.0676 -0.5845  0.0393
 4581SOL    HW125376   3.891   0.746   5.083  0.3648 -0.8869 -0.5277
 4581SOL    HW225377   3.856   0.846   5.188  0.0447  0.1564 -0.9041
 4582SOL     OW25378   3.191   2.837   3.803 -0.4191 -0.0780  0.1601
 4582SOL    HW125379   3.192   2.842   3.898  0.2635 -2.6411  0.2871
 4582SOL    HW225380   3.283   2.814   3.792 -0.5045 -0.4511  0.2431
 4583SOL     OW25381   3.538   2.036   7.387 -0.5022 -0.3658 -0.5754
 4583SOL    HW125382   3.524   2.105   7.321 -0.4953 -0.5027 -0.7194
 4583SOL    HW225383   3.631   2.048   7.406 -0.7367 -0.1400  0.4406
 4584SOL     OW25384   1.336   2.555   4.171  0.9422 -0.2692  0.4206
 4584SOL    HW125385   1.317   2.527   4.082 -1.4311 -2.0252  1.4811
 4584SOL    HW225386   1.431   2.551   4.164  0.8228  0.1361 -1.4892
 4585SOL     OW25387   4.596   1.240   3.399  0.0855  0.3741 -0.3030
 4585SOL    HW125388   4.520   1.296   3.417  0.1856 -0.2707  2.2279
 4585SOL    HW225389   4.590   1.240   3.304 -1.8896 -0.1403 -0.1771
 4586SOL     OW25390   3.337   0.917  16.070 -0.2300 -0.0815  0.0438
 4586SOL    HW125391   3.245   0.935  16.049  0.8676  3.0530 -2.0341
 4586SOL    HW225392   3.383   0.923  15.986  0.2879  1.4061  0.4306
 4587SOL     OW25393   0.001   2.766   9.061 -0.3749 -0.5017  0.3870
 4587SOL    HW125394   0.095   2.762   9.041 -0.1452 -3.3852  2.0427
 4587SOL    HW225395   4.730   2.812   9.145  1.5171  2.1137 -0.8989
 4588SOL     OW25396   0.954   2.531   7.095 -0.2366  0.6872  0.0096
 4588SOL    HW125397   1.012   2.456   7.082  1.7300  2.2447 -0.1123
 4588SOL    HW225398   0.941   2.515   7.188  0.3251  1.7154  0.2590
 4589SOL     OW25399   2.303   1.462   3.376 -0.1947  0.1693 -0.1259
 4589SOL    HW125400   2.366   1.401   3.336  0.4872  0.8477 -0.0924
 4589SOL    HW225401   2.363   1.512   3.431  0.3054 -0.7005  0.1143
 4590SOL     OW25402   0.414   3.310   6.191 -0.3934  0.1017 -0.6862
 4590SOL    HW125403   0.491   3.275   6.236 -0.8060 -0.4071 -0.3875
 4590SOL    HW225404   0.456   3.348   6.113  1.9845  0.8886  0.9563
 4591SOL     OW25405   3.175   2.385   3.373  0.5401 -0.0029  0.0416
 4591SOL    HW125406   3.101   2.338   3.412  1.5632 -0.4874  1.3987
 4591SOL    HW225407   3.209   2.420   3.456  0.3869  0.0152  0.0979
 4592SOL     OW25408   0.589   1.998   5.878 -0.1133  0.2499 -0.5039
 4592SOL    HW125409   0.658   2.043   5.927  0.0508 -1.9043  1.2567
 4592SOL    HW225410   0.517   2.046   5.920  0.3416 -1.1759  1.9004
 4593SOL     OW25411   3.162   1.308   7.718  0.5222 -0.3738 -0.1462
 4593SOL    HW125412   3.247   1.351   7.730  0.5173 -0.9090  1.6818
 4593SOL    HW225413   3.114   1.381   7.678  1.0878 -0.1415 -0.4010
 4594SOL     OW25414   3.125   4.572   1.762 -0.3851 -0.4376 -0.1629
 4594SOL    HW125415   3.157   4.532   1.681  2.1966  4.1216 -1.4371
 4594SOL    HW225416   3.206   4.569   1.813 -0.1312 -2.7594 -0.6995
 4595SOL     OW25417   2.303   2.986   4.803 -0.0861 -0.3582 -0.4338
 4595SOL    HW125418   2.246   2.919   4.765 -1.5403  0.1674  0.8287
 4595SOL    HW225419   2.323   2.945   4.887 -0.8125 -0.9003 -0.5197
 4596SOL     OW25420   0.349   3.640   9.066 -0.3787 -0.0037  0.2754
 4596SOL    HW125421   0.353   3.687   8.983  0.9491 -0.6379 -0.0206
 4596SOL    HW225422   0.323   3.713   9.122 -1.6557  0.1189 -0.4812
 4597SOL     OW25423   0.199   1.317   2.379 -0.1556  0.0421  0.5021
 4597SOL    HW125424   0.110   1.283   2.393 -0.3618  0.3585 -0.0212
 4597SOL    HW225425   0.205   1.374   2.455 -1.0172 -0.0409  0.6351
 4598SOL     OW25426   1.713   1.100   7.343 -0.5719 -0.5090  0.3072
 4598SOL    HW125427   1.785   1.037   7.340  0.4592  0.6985 -0.0447
 4598SOL    HW225428   1.646   1.054   7.293  0.7969 -1.6947 -0.4205
 4599SOL     OW25429   3.000   2.411   1.992  0.1920 -0.0374 -0.2232
 4599SOL    HW125430   3.003   2.429   2.086  2.3765 -2.3613  0.1745
 4599SOL    HW225431   3.091   2.390   1.970  0.4813 -0.1300  1.0751
 4600SOL     OW25432   3.900   4.018   6.846  0.4835 -0.2363  0.3441
 4600SOL    HW125433   3.986   3.986   6.872  0.2064 -1.3670 -0.1227
 4600SOL    HW225434   3.868   4.055   6.929  0.1872 -0.1105  0.1757
 4601SOL     OW25435   2.460   1.361  12.366 -0.5496 -0.0813  0.2320
 4601SOL    HW125436   2.554   1.370  12.353 -0.3683 -0.2384  1.4325
 4601SOL    HW225437   2.449   1.266  12.369 -2.1794  0.1197  0.8339
 4602SOL     OW25438   3.888   0.005   6.658 -0.6014  0.1144 -0.5702
 4602SOL    HW125439   3.956   4.708   6.600 -0.8948  0.6677 -1.2260
 4602SOL    HW225440   3.860   0.087   6.617 -1.8591  0.4021  0.8347
 4603SOL     OW25441   0.820   3.346   3.300 -0.5225 -0.4440 -0.0068
 4603SOL    HW125442   0.730   3.329   3.327 -0.1855  0.5980  1.7628
 4603SOL    HW225443   0.803   3.384   3.213 -4.7739 -1.0222  0.5622
 4604SOL     OW25444   1.902   0.184   1.575  0.2745  0.3765 -0.2799
 4604SOL    HW125445   1.907   0.143   1.488  0.0377  1.5532 -0.8535
 4604SOL    HW225446   1.988   0.225   1.577 -0.6007  2.0867  2.3568
 4605SOL     OW25447   3.590   3.686   9.702 -0.0630 -0.4962 -0.5039
 4605SOL    HW125448   3.656   3.754   9.691  0.1737 -0.5165  0.7813
 4605SOL    HW225449   3.640   3.615   9.743  0.1657 -0.2586 -0.3707
 4606SOL     OW25450   0.592   0.844   8.302  0.7122  0.2228  0.1915
 4606SOL    HW125451   0.517   0.901   8.322 -0.8355 -1.1328 -1.7880
 4606SOL    HW225452   0.555   0.759   8.324 -0.8332 -0.2370 -4.2820
 4607SOL     OW25453   2.559   4.191   9.097 -0.0050  0.0645 -0.2287
 4607SOL    HW125454   2.570   4.284   9.117 -2.2678  0.3589 -0.3139
 4607SOL    HW225455   2.465   4.176   9.110 -0.4560  1.3696 -1.8256
 4608SOL     OW25456   2.195   3.535   6.521  0.7362  0.2149 -0.2673
 4608SOL    HW125457   2.172   3.595   6.450  1.1635 -0.5502 -1.0454
 4608SOL    HW225458   2.165   3.451   6.487 -2.8259  1.1717  0.4468
 4609SOL     OW25459   2.484   3.470   5.907  0.0358  0.2182  0.2568
 4609SOL    HW125460   2.523   3.549   5.945  0.3660  0.0619  0.2435
 4609SOL    HW225461   2.561   3.415   5.890 -0.3794 -0.3221  0.1001
 4610SOL     OW25462   1.730   0.537   1.814  0.0958  0.6448 -0.0190
 4610SOL    HW125463   1.787   0.460   1.811 -0.4495  0.3200 -1.7524
 4610SOL    HW225464   1.648   0.500   1.849  0.4620  0.6849  0.8874
 4611SOL     OW25465   3.116   1.338  11.241  0.0872 -0.1737  0.2753
 4611SOL    HW125466   3.076   1.317  11.325  0.5058  1.1192  0.8066
 4611SOL    HW225467   3.164   1.422  11.247  1.5265 -0.9309 -0.4246
 4612SOL     OW25468   1.905   3.175  15.445  0.3220 -0.2425 -0.0274
 4612SOL    HW125469   1.844   3.211  15.381 -0.1772  0.1686  0.6728
 4612SOL    HW225470   1.866   3.207  15.527  1.1670  1.9337 -0.4752
 4613SOL     OW25471   4.378   2.483  14.218  0.0843  0.3993  0.2536
 4613SOL    HW125472   4.329   2.435  14.151 -0.5598  2.2313 -0.6005
 4613SOL    HW225473   4.468   2.483  14.187 -0.3399  0.4194 -0.9843
 4614SOL     OW25474   4.528   3.051   8.429  0.0251 -0.6080  0.0968
 4614SOL    HW125475   4.593   3.122   8.429 -1.6529  0.9588 -1.2036
 4614SOL    HW225476   4.489   3.061   8.342  1.2258  0.1909 -0.3590
 4615SOL     OW25477   3.390   4.615  14.668  0.3166 -0.0916 -0.4817
 4615SOL    HW125478   3.434   4.684  14.618 -0.1051  0.9490  0.6159
 4615SOL    HW225479   3.386   4.554  14.594 -1.9197  1.2859 -1.4728
 4616SOL     OW25480   2.869   1.609   8.951  0.4596 -0.2783  0.1601
 4616SOL    HW125481   2.873   1.652   8.866 -2.0230  2.5056  1.4776
 4616SOL    HW225482   2.787   1.648   8.982  1.7798  1.6442  1.2655
 4617SOL     OW25483   2.961   0.406   6.169  0.0113  0.4060  0.7674
 4617SOL    HW125484   2.935   0.362   6.250 -0.4542  1.2113  1.0572
 4617SOL    HW225485   3.029   0.464   6.202  1.8953 -1.6466  0.4228
 4618SOL     OW25486   1.093   1.575   2.924  0.0948  0.3834 -0.1535
 4618SOL    HW125487   1.083   1.532   2.839 -0.1620  1.3024 -0.5945
 4618SOL    HW225488   1.157   1.642   2.899  1.3168 -1.2782 -1.4270
 4619SOL     OW25489   0.701   3.222   6.577 -0.9945  0.5167  0.5574
 4619SOL    HW125490   0.636   3.158   6.549  0.3490 -0.8223  0.4818
 4619SOL    HW225491   0.742   3.251   6.496 -0.5934 -1.0017  0.2257
 4620SOL     OW25492   0.486   2.835   4.790  0.1910  0.1067 -0.1229
 4620SOL    HW125493   0.405   2.884   4.806 -2.1044 -2.8417 -2.7732
 4620SOL    HW225494   0.471   2.780   4.867 -1.4064  0.0240 -0.5067
 4621SOL     OW25495   0.819   3.807   8.197  0.1366  0.0270 -0.1503
 4621SOL    HW125496   0.774   3.752   8.132 -1.5390 -1.1506  2.0203
 4621SOL    HW225497   0.883   3.738   8.215 -0.5844 -0.3779  0.8179
 4622SOL     OW25498   1.336   2.900   1.257  0.2337  0.1284 -0.3867
 4622SOL    HW125499   1.289   2.824   1.291  1.1445 -0.3598 -0.2031
 4622SOL    HW225500   1.426   2.867   1.263 -0.2176 -1.1002 -0.4924
 4623SOL     OW25501   2.144   1.497   9.961  0.2807 -0.3715 -0.1513
 4623SOL    HW125502   2.131   1.521  10.053  2.7919 -0.7142  0.3079
 4623SOL    HW225503   2.193   1.415   9.962 -1.9298 -1.6572 -0.3798
 4624SOL     OW25504   0.107   3.471  13.416  0.3046 -0.2561 -0.0752
 4624SOL    HW125505   0.165   3.423  13.476  0.6621  2.3842  1.7174
 4624SOL    HW225506   0.158   3.471  13.335 -0.5953 -0.2223 -0.6310
 4625SOL     OW25507   0.921   3.384   1.750  0.0614  0.1174  0.4570
 4625SOL    HW125508   0.888   3.438   1.822 -0.0480  0.1949  0.3498
 4625SOL    HW225509   0.961   3.453   1.695 -0.7871 -1.0563 -1.6396
 4626SOL     OW25510   2.577   4.438   1.495 -0.3284  0.8016  0.4193
 4626SOL    HW125511   2.567   4.355   1.448 -1.4525  0.7850  0.6655
 4626SOL    HW225512   2.627   4.414   1.573 -0.7109 -1.6197 -0.0619
 4627SOL     OW25513   1.401   3.426  13.960 -0.6523  0.5475 -0.6647
 4627SOL    HW125514   1.399   3.490  14.032  0.5127  1.9320 -1.8537
 4627SOL    HW225515   1.494   3.407  13.965 -0.4458  1.8439  0.4953
 4628SOL     OW25516   0.436   1.999   7.366 -0.2732 -0.3412 -0.0921
 4628SOL    HW125517   0.448   1.926   7.304 -2.4079  0.5198 -1.4938
 4628SOL    HW225518   0.391   1.960   7.441  0.2504  3.6599  2.2848
 4629SOL     OW25519   0.729   4.349  17.581 -0.2711  0.0730  0.3771
 4629SOL    HW125520   0.772   4.343  17.496 -1.8530  2.6636 -0.6079
 4629SOL    HW225521   0.683   4.431  17.565  2.6766  1.7313  0.5726
 4630SOL     OW25522   0.723   0.761   7.784  0.1414 -0.4622  0.1125
 4630SOL    HW125523   0.771   0.834   7.822  1.3144 -0.4763 -1.3255
 4630SOL    HW225524   0.667   0.810   7.724  0.0676 -0.0812  0.4908
 4631SOL     OW25525   1.898   4.317   6.514 -0.4090  0.2518 -0.3491
 4631SOL    HW125526   1.871   4.249   6.575  0.3994  0.7157  0.5223
 4631SOL    HW225527   1.969   4.282   6.460  1.2585 -0.9712  2.6442
 4632SOL     OW25528   4.399   1.815  13.667 -0.1583 -0.2655  0.0001
 4632SOL    HW125529   4.384   1.761  13.745  0.6328 -0.0858  0.2800
 4632SOL    HW225530   4.307   1.839  13.655  0.4262  0.3081 -3.2032
 4633SOL     OW25531   0.763   2.042   7.716  0.1480 -0.1677  0.0317
 4633SOL    HW125532   0.731   2.035   7.806  1.7048 -2.0482  0.4533
 4633SOL    HW225533   0.770   2.136   7.704 -1.5882 -0.0804 -0.3141
 4634SOL     OW25534   1.758   3.963   1.924 -0.3147 -0.3277 -0.3234
 4634SOL    HW125535   1.792   3.873   1.923 -1.8169 -0.9039  1.3793
 4634SOL    HW225536   1.676   3.946   1.970 -1.1197 -2.2243 -2.4247
 4635SOL     OW25537   4.005   1.357   9.238  0.4751  0.7152 -0.3282
 4635SOL    HW125538   4.024   1.450   9.254  1.5721  0.2644  0.8962
 4635SOL    HW225539   3.987   1.343   9.145  1.3489  0.3414 -0.4398
 4636SOL     OW25540   2.318   3.342   9.133  0.0185  0.0155  0.0399
 4636SOL    HW125541   2.327   3.254   9.170  1.1103  0.9529  1.9735
 4636SOL    HW225542   2.356   3.311   9.051  1.4448  0.2889  0.5952
 4637SOL     OW25543   1.436   1.733   8.275  0.2355  0.6841  0.1599
 4637SOL    HW125544   1.441   1.644   8.310 -1.0287  0.1918 -0.9442
 4637SOL    HW225545   1.426   1.791   8.351 -0.7253  0.6091  0.0830
 4638SOL     OW25546   0.320   4.176   4.127 -0.3261 -0.5641  0.2121
 4638SOL    HW125547   0.333   4.187   4.221  0.2714 -0.0581  0.0648
 4638SOL    HW225548   0.226   4.156   4.129 -0.2101 -1.0239  0.9828
 4639SOL     OW25549   3.429   2.346   7.073  0.5081  0.2468 -0.4624
 4639SOL    HW125550   3.464   2.385   7.153  2.4234 -2.4926  0.0383
 4639SOL    HW225551   3.462   2.412   7.012 -1.2468  0.2337 -1.4467
 4640SOL     OW25552   2.961   3.612   6.697 -0.1349 -0.0475 -0.1213
 4640SOL    HW125553   2.870   3.587   6.713 -0.5362  0.9558 -0.8185
 4640SOL    HW225554   3.009   3.572   6.769 -0.6093  0.4876  0.4853
 4641SOL     OW25555   0.685   0.788  11.081 -0.0121 -0.0439 -0.2234
 4641SOL    HW125556   0.633   0.866  11.101 -0.8919 -0.9536  1.0414
 4641SOL    HW225557   0.714   0.793  10.990 -2.3417  0.8154 -0.9109
 4642SOL     OW25558   1.106   3.161   4.820 -1.0914  0.0805 -0.5011
 4642SOL    HW125559   1.102   3.167   4.916 -2.3709 -0.1640 -0.5360
 4642SOL    HW225560   1.013   3.137   4.813 -0.8609 -1.9226  3.3107
 4643SOL     OW25561   2.045   1.349  14.522 -0.2133  0.4494 -0.4959
 4643SOL    HW125562   1.963   1.389  14.551 -0.1783  0.5787 -0.5789
 4643SOL    HW225563   2.084   1.429  14.489  0.5006 -0.8076 -2.7037
 4644SOL     OW25564   0.394   0.189   4.056  0.0158 -0.4650  0.0280
 4644SOL    HW125565   0.306   0.173   4.090  0.6511 -0.3719  1.7052
 4644SOL    HW225566   0.389   0.271   4.008 -0.4888 -0.9214 -0.6926
 4645SOL     OW25567   2.509   0.770   6.701 -0.1490 -0.3346  0.7526
 4645SOL    HW125568   2.488   0.852   6.743 -0.1528  1.0515 -1.9296
 4645SOL    HW225569   2.448   0.763   6.627  0.9615 -1.8261 -0.0360
 4646SOL     OW25570   3.930   3.027   7.663 -0.1275  0.6164 -0.6227
 4646SOL    HW125571   4.021   3.007   7.642 -0.7289 -0.1442 -2.4978
 4646SOL    HW225572   3.942   3.071   7.747 -1.5480 -0.6536  0.2603
 4647SOL     OW25573   0.940   0.633  11.213  0.1326 -0.2031 -0.2086
 4647SOL    HW125574   0.981   0.719  11.211 -2.0890  0.8679  1.3647
 4647SOL    HW225575   0.854   0.673  11.201  0.2583 -0.3300 -1.6386
 4648SOL     OW25576   0.619   2.545  17.069  0.0830 -0.3574  0.2821
 4648SOL    HW125577   0.659   2.630  17.048 -2.4123  0.5621 -0.8802
 4648SOL    HW225578   0.548   2.569  17.129  0.3781 -1.8415  1.2143
 4649SOL     OW25579   0.060   4.613   7.422 -0.3893 -0.0341 -0.5515
 4649SOL    HW125580   0.060   4.591   7.329 -0.9142  0.8832 -0.7715
 4649SOL    HW225581   4.731   4.683   7.422  2.7023  2.8711 -1.0343
 4650SOL     OW25582   2.453   1.560   3.594 -0.6215  0.1866 -0.2471
 4650SOL    HW125583   2.458   1.544   3.688  0.3614 -2.3537 -0.7323
 4650SOL    HW225584   2.459   1.655   3.592 -0.2337  0.1817  0.8091
 4651SOL     OW25585   3.072   1.768   8.064  0.0181 -0.0792  0.0257
 4651SOL    HW125586   3.161   1.800   8.079 -0.8974  1.7576  1.4279
 4651SOL    HW225587   3.043   1.847   8.019  0.4693  0.7262  1.1551
 4652SOL     OW25588   0.747   0.343  16.389  0.1384 -0.2908  0.1379
 4652SOL    HW125589   0.663   0.384  16.371 -0.7668 -1.4641  1.6518
 4652SOL    HW225590   0.808   0.411  16.418  4.2884 -4.0356  0.2601
 4653SOL     OW25591   0.689   3.158  15.305  0.2277  0.6092 -0.4390
 4653SOL    HW125592   0.760   3.117  15.257  0.6472  1.1043 -0.2417
 4653SOL    HW225593   0.612   3.102  15.291  0.1205 -0.0777  2.8616
 4654SOL     OW25594   4.256   4.243   5.790  0.2257 -0.0803 -0.2374
 4654SOL    HW125595   4.347   4.260   5.816  0.4096  0.1933 -1.0519
 4654SOL    HW225596   4.209   4.326   5.793  0.8241  0.2196  0.7465
 4655SOL     OW25597   4.033   0.738   4.977 -0.2498 -0.2691 -0.1907
 4655SOL    HW125598   4.118   0.732   5.022  0.2723  2.6836 -0.7680
 4655SOL    HW225599   4.020   0.654   4.934  1.1722 -0.7830  0.3806
 4656SOL     OW25600   2.402   0.902   2.690  0.5632  0.5759  0.1845
 4656SOL    HW125601   2.329   0.962   2.683 -1.0540 -1.4838 -0.4629
 4656SOL    HW225602   2.359   0.841   2.750  1.9728 -1.6934 -1.1056
 4657SOL     OW25603   1.242   1.469   7.345  0.2553 -0.2430 -0.1328
 4657SOL    HW125604   1.303   1.395   7.343 -0.6389 -0.9861 -0.1846
 4657SOL    HW225605   1.264   1.501   7.433 -0.9255 -0.2912  0.1729
 4658SOL     OW25606   2.920   4.604   5.790  0.5027 -0.2869 -0.1129
 4658SOL    HW125607   2.897   4.521   5.832  1.0048 -0.6532 -0.5600
 4658SOL    HW225608   2.890   4.580   5.702 -2.2563  2.5965  0.0716
 4659SOL     OW25609   2.740   3.137   4.647  0.4922  0.9757 -0.0050
 4659SOL    HW125610   2.746   3.062   4.587 -0.1941 -0.9148  2.2483
 4659SOL    HW225611   2.829   3.157   4.674  0.2893 -0.4663  1.7549
 4660SOL     OW25612   4.366   2.530   5.317 -0.2914 -0.3304 -0.9685
 4660SOL    HW125613   4.421   2.589   5.370  1.5935 -1.3174 -1.8102
 4660SOL    HW225614   4.427   2.467   5.279 -0.1237 -1.2330  0.7914
 4661SOL     OW25615   4.681   3.001  14.372  0.4252  0.0562  0.2754
 4661SOL    HW125616   4.709   2.966  14.457  0.0505  2.1456  1.2473
 4661SOL    HW225617   0.030   3.037  14.348  0.3155 -0.1947 -0.5092
 4662SOL     OW25618   3.440   3.229  12.235 -0.0585  0.1775  0.3139
 4662SOL    HW125619   3.428   3.245  12.329  0.4519 -0.7770  0.5382
 4662SOL    HW225620   3.350   3.245  12.206  0.1917 -0.6013 -0.8912
 4663SOL     OW25621   1.779   0.361   2.554 -0.0943  0.1773 -0.0215
 4663SOL    HW125622   1.696   0.335   2.595 -0.4469  0.6925 -0.4251
 4663SOL    HW225623   1.793   0.437   2.610 -0.1075 -0.1846  0.4788
 4664SOL     OW25624   3.088   0.350   8.622 -0.0269 -0.0390 -0.2079
 4664SOL    HW125625   3.020   0.384   8.563  1.0127  1.2786 -0.6518
 4664SOL    HW225626   3.039   0.269   8.639  1.3015 -0.9363 -0.6251
 4665SOL     OW25627   3.250   2.660   7.345  0.3467  0.3767  0.2258
 4665SOL    HW125628   3.309   2.636   7.273 -0.9525 -1.0070 -0.3807
 4665SOL    HW225629   3.316   2.684   7.410 -1.8346  4.4818  0.9215
 4666SOL     OW25630   0.200   1.526   5.894 -0.0070  0.4795 -0.7690
 4666SOL    HW125631   0.260   1.584   5.847 -0.2882  0.4083 -1.2207
 4666SOL    HW225632   0.192   1.452   5.832  0.7553 -0.8602  0.7322
 4667SOL     OW25633   3.447   2.731   5.481 -0.5135  0.0341  0.1217
 4667SOL    HW125634   3.369   2.770   5.521  0.3871  1.1494  0.8003
 4667SOL    HW225635   3.448   2.766   5.392  1.9989  1.9339  0.8892
 4668SOL     OW25636   1.587   2.554  14.548  0.4913  0.6154 -0.2514
 4668SOL    HW125637   1.510   2.508  14.515 -0.5787  2.0884  0.1404
 4668SOL    HW225638   1.547   2.638  14.573  1.5616  1.2367 -0.6351
 4669SOL     OW25639   2.356   0.789  16.405  0.5132  0.2364  0.5017
 4669SOL    HW125640   2.262   0.808  16.403  0.1894 -1.7461 -4.2164
 4669SOL    HW225641   2.394   0.858  16.459  1.9320  0.5041 -0.8347
 4670SOL     OW25642   3.558   0.628   3.780 -0.6118  0.5564  0.0083
 4670SOL    HW125643   3.560   0.718   3.811  2.8114  0.1758  0.8895
 4670SOL    HW225644   3.547   0.644   3.686 -0.5000 -1.4325 -0.3620
 4671SOL     OW25645   0.579   3.833   2.126 -0.5821  0.1715 -0.0220
 4671SOL    HW125646   0.541   3.839   2.038  0.2325  3.8258 -0.1305
 4671SOL    HW225647   0.513   3.787   2.178 -0.4076 -0.9435 -0.8145
 4672SOL     OW25648   0.950   1.471  12.348  0.4462  0.6865 -0.2152
 4672SOL    HW125649   0.926   1.554  12.389  1.8374  2.6703 -3.4930
 4672SOL    HW225650   1.046   1.466  12.356  0.5399  0.3342 -1.6146
 4673SOL     OW25651   4.609   1.190   5.625  0.1663 -0.3037  0.3709
 4673SOL    HW125652   4.550   1.155   5.691 -2.0523  0.2760 -1.2815
 4673SOL    HW225653   4.591   1.282   5.646  0.8743 -0.0408 -0.1792
 4674SOL     OW25654   1.403   1.650   9.015 -0.6233  0.7679 -0.3152
 4674SOL    HW125655   1.488   1.636   8.972 -0.4262  0.5452  0.1388
 4674SOL    HW225656   1.423   1.656   9.109 -1.0070 -0.0776 -0.1760
 4675SOL     OW25657   2.071   0.169  17.064  0.3738 -0.2591  0.1352
 4675SOL    HW125658   2.089   0.155  17.157  1.6376  0.9728  0.0773
 4675SOL    HW225659   1.993   0.221  17.083 -1.1879 -2.5538  0.0233
 4676SOL     OW25660   3.460   4.376  17.015  0.2553 -0.6296 -0.0561
 4676SOL    HW125661   3.382   4.339  17.057 -0.6211 -0.6913 -1.7613
 4676SOL    HW225662   3.423   4.457  16.979 -0.6029  0.5917  3.5025
 4677SOL     OW25663   2.953   0.306  14.133 -0.1729 -0.3422  0.5942
 4677SOL    HW125664   2.884   0.338  14.076 -0.4741 -0.6795  0.7658
 4677SOL    HW225665   2.914   0.221  14.154 -1.0600  0.3484  1.7291
 4678SOL     OW25666   1.702   3.679   6.011 -0.0175  0.1101 -0.0841
 4678SOL    HW125667   1.678   3.664   6.102  2.1386  1.2193  0.6489
 4678SOL    HW225668   1.794   3.655   6.012 -0.0924 -0.1854 -0.2968
 4679SOL     OW25669   2.497   2.162  10.651 -0.4887  0.1311  0.2125
 4679SOL    HW125670   2.509   2.165  10.746  0.5022 -2.9495  0.1674
 4679SOL    HW225671   2.544   2.081  10.630 -0.9606  0.7285 -3.0380
 4680SOL     OW25672   4.393   0.385   9.221  0.1939  0.0423 -0.1528
 4680SOL    HW125673   4.475   0.338   9.239  1.7458  3.1452  0.8056
 4680SOL    HW225674   4.367   0.324   9.152 -1.6292  0.8409 -0.1586
 4681SOL     OW25675   2.438   0.845  11.563  0.7123  0.6295 -0.0300
 4681SOL    HW125676   2.417   0.862  11.654  0.3921  1.7881 -0.3291
 4681SOL    HW225677   2.371   0.781  11.535  0.7925  0.3541  0.4170
 4682SOL     OW25678   3.273   3.941   7.966  0.5672  0.3186  0.3310
 4682SOL    HW125679   3.278   4.012   8.030 -0.3296  0.4119  0.2960
 4682SOL    HW225680   3.254   3.862   8.018 -0.8276 -1.3239 -2.6862
 4683SOL     OW25681   4.298   2.001   5.071  0.1300 -0.1843 -0.6103
 4683SOL    HW125682   4.279   2.003   5.165 -0.1142 -1.0588 -0.6403
 4683SOL    HW225683   4.215   1.982   5.028  0.4459 -1.7708 -0.5269
 4684SOL     OW25684   4.727   4.707   5.016  0.0482 -0.0466  1.2012
 4684SOL    HW125685   4.664   4.651   4.972  1.9770  0.0212 -1.6230
 4684SOL    HW225686   4.717   0.051   4.965 -0.3183 -1.1193 -0.4238
 4685SOL     OW25687   3.166   2.580  15.576 -0.4755  0.2723 -0.6870
 4685SOL    HW125688   3.225   2.506  15.588 -0.9408 -0.3458 -2.2082
 4685SOL    HW225689   3.150   2.570  15.482 -0.6296 -0.7011 -0.5588
 4686SOL     OW25690   1.958   1.255   6.357  0.0210 -0.9432 -0.2933
 4686SOL    HW125691   1.866   1.264   6.383 -0.0172  1.3453 -1.2417
 4686SOL    HW225692   1.994   1.192   6.418 -0.2945 -0.2453  0.6090
 4687SOL     OW25693   3.579   3.740  15.062 -0.1474  0.3829  0.0024
 4687SOL    HW125694   3.508   3.675  15.061  0.3212 -0.1280 -0.1652
 4687SOL    HW225695   3.596   3.738  15.156 -0.3513  0.1402  0.0365
 4688SOL     OW25696   1.867   2.892   1.608  0.1325 -0.1315 -0.3079
 4688SOL    HW125697   1.918   2.812   1.607  2.8050  1.5617  0.4628
 4688SOL    HW225698   1.908   2.927   1.529 -0.9626 -0.0635 -0.8519
 4689SOL     OW25699   0.359   0.922   6.839 -0.3222 -0.4274 -0.1604
 4689SOL    HW125700   0.337   0.842   6.790 -0.5388  0.4827 -1.5618
 4689SOL    HW225701   0.435   0.902   6.893 -0.1956  3.2136  0.9917
 4690SOL     OW25702   1.580   1.512   6.032 -0.4705 -0.1339  0.2825
 4690SOL    HW125703   1.536   1.456   5.968  0.8575 -0.4900 -0.3336
 4690SOL    HW225704   1.609   1.441   6.090  0.8212  1.2793  1.3710
 4691SOL     OW25705   2.699   2.599   4.460 -0.0654  0.1033  0.4631
 4691SOL    HW125706   2.721   2.527   4.519  2.2122  1.3914  1.2023
 4691SOL    HW225707   2.753   2.570   4.386  0.3276  0.6609  0.5333
 4692SOL     OW25708   4.667   1.905   8.115  0.2800 -0.2015  0.5074
 4692SOL    HW125709   4.580   1.943   8.125  0.2573 -0.0094 -0.4270
 4692SOL    HW225710   4.645   1.824   8.068  3.5433 -1.1327  0.5218
 4693SOL     OW25711   3.706   4.236  16.989  0.0620  0.0725 -0.3308
 4693SOL    HW125712   3.624   4.283  17.002 -0.0057 -0.2697  0.4542
 4693SOL    HW225713   3.770   4.292  17.034  0.8062 -0.4695 -0.7084
 4694SOL     OW25714   4.169   2.380   3.380 -0.3762  0.5677  0.1682
 4694SOL    HW125715   4.139   2.425   3.460  1.7985 -1.7568  2.2747
 4694SOL    HW225716   4.158   2.449   3.314  0.8592 -1.3286 -1.9929
 4695SOL     OW25717   2.966   3.981  14.328 -0.0889 -0.2820 -0.1439
 4695SOL    HW125718   2.933   3.891  14.338 -4.2397  1.0860 -1.4961
 4695SOL    HW225719   2.879   4.021  14.316 -0.1743 -0.7656 -1.1063
 4696SOL     OW25720   3.162   0.507   5.836 -0.0975 -0.5508 -0.5448
 4696SOL    HW125721   3.126   0.419   5.848 -1.2390  0.2391  1.8947
 4696SOL    HW225722   3.145   0.520   5.742  0.5165  0.8473 -0.4664
 4697SOL     OW25723   3.438   4.376  15.126  1.1479  0.4244  0.1358
 4697SOL    HW125724   3.428   4.465  15.157  0.4922  0.3477  0.1556
 4697SOL    HW225725   3.409   4.388  15.035  2.8960  0.1410 -0.4592
 4698SOL     OW25726   0.691   3.252   7.294  0.3397  0.1597  0.8509
 4698SOL    HW125727   0.757   3.320   7.306  0.3807  0.1221  0.8369
 4698SOL    HW225728   0.718   3.166   7.326 -3.2035 -0.9447  0.8697
 4699SOL     OW25729   4.489   2.336   3.360 -0.9530 -0.0878 -0.7828
 4699SOL    HW125730   4.408   2.292   3.388 -0.3731 -0.2657  0.6010
 4699SOL    HW225731   4.546   2.308   3.431 -1.3105 -0.8833 -0.8031
 4700SOL     OW25732   2.332   2.485   3.128  0.1718  0.2626 -0.9185
 4700SOL    HW125733   2.261   2.477   3.064 -0.1850 -0.6434 -0.4190
 4700SOL    HW225734   2.331   2.580   3.140 -2.8600  0.0077  0.8411
 4701SOL     OW25735   4.441   0.466   1.808  0.3775 -0.0968  0.5654
 4701SOL    HW125736   4.427   0.542   1.752  1.1749  0.6331  1.3848
 4701SOL    HW225737   4.526   0.437   1.776 -0.8525 -4.1301  0.8179
 4702SOL     OW25738   3.611   4.010   5.561  0.1460  0.3970  0.4153
 4702SOL    HW125739   3.535   3.978   5.514 -0.6920  0.9320  1.4167
 4702SOL    HW225740   3.589   4.008   5.654 -0.4366 -0.9016  0.2330
 4703SOL     OW25741   4.307   1.364   9.726  0.3963 -0.0400  0.2676
 4703SOL    HW125742   4.218   1.398   9.740 -0.3239 -0.2296 -3.7610
 4703SOL    HW225743   4.311   1.271   9.747  2.1460  0.0669  0.3809
 4704SOL     OW25744   0.482   0.280   8.208  0.0528 -0.7491 -0.0665
 4704SOL    HW125745   0.560   0.298   8.155 -1.9059 -0.3307 -2.7861
 4704SOL    HW225746   0.447   0.367   8.230  1.0360  0.1030 -1.8724
 4705SOL     OW25747   0.098   3.325   8.604 -0.5481  0.1682  0.0012
 4705SOL    HW125748   0.070   3.305   8.694  0.1134  1.8746  0.5924
 4705SOL    HW225749   0.178   3.377   8.613 -0.1875 -0.4295  0.2441
 4706SOL     OW25750   3.163   3.364   4.784  0.0277 -0.0307  0.0410
 4706SOL    HW125751   3.137   3.456   4.788  0.3068  0.0636 -0.3195
 4706SOL    HW225752   3.197   3.357   4.874 -0.5682 -0.5482  0.2261
 4707SOL     OW25753   3.139   1.429  12.766 -0.1057  0.0272  0.1226
 4707SOL    HW125754   3.195   1.457  12.694 -0.3473  1.4297  0.4752
 4707SOL    HW225755   3.081   1.505  12.773  1.0920  0.8201  1.3692
 4708SOL     OW25756   3.135   2.586   1.512 -0.1688 -0.0843 -0.5808
 4708SOL    HW125757   3.048   2.551   1.492 -0.4156  1.4376 -2.1145
 4708SOL    HW225758   3.183   2.591   1.430  3.0310 -1.8365  1.1738
 4709SOL     OW25759   2.120   2.522   5.027  0.4266  0.1205 -0.1378
 4709SOL    HW125760   2.193   2.496   5.083  0.8487 -0.4931 -0.9919
 4709SOL    HW225761   2.048   2.482   5.076  1.7799  0.1052  1.8433
 4710SOL     OW25762   0.081   1.444   6.849 -0.1008 -0.4367  0.3398
 4710SOL    HW125763   0.133   1.520   6.878  1.9748 -1.1159 -1.6156
 4710SOL    HW225764   0.142   1.376   6.822 -0.3140 -0.5553  0.1594
 4711SOL     OW25765   4.656   4.652   1.899  0.6508  0.5070 -0.0194
 4711SOL    HW125766   4.671   0.009   1.883 -1.9285  0.9316  0.0139
 4711SOL    HW225767   4.732   4.610   1.938 -0.4762 -2.5252 -1.0817
 4712SOL     OW25768   1.527   2.630   5.116  0.3770  0.4792 -0.2289
 4712SOL    HW125769   1.521   2.711   5.066  0.5194 -0.7660 -2.2666
 4712SOL    HW225770   1.507   2.566   5.047  1.6526 -2.6034  2.2090
 4713SOL     OW25771   3.274   3.355   1.235  0.4248 -0.0408  0.2228
 4713SOL    HW125772   3.237   3.346   1.147  2.0626 -0.2491 -0.4292
 4713SOL    HW225773   3.369   3.359   1.224  0.6142 -2.8203  0.9192
 4714SOL     OW25774   0.184   3.852   4.530 -0.2931 -0.4638 -0.0190
 4714SOL    HW125775   0.191   3.947   4.541  0.4491 -0.5470  0.2341
 4714SOL    HW225776   0.110   3.836   4.588 -0.3269  3.5976  1.0843
 4715SOL     OW25777   3.629   1.667   2.166  0.3355 -0.2556  0.7395
 4715SOL    HW125778   3.625   1.756   2.201  0.8147  0.8641 -2.0427
 4715SOL    HW225779   3.555   1.656   2.107  0.7579  0.8498  0.0144
 4716SOL     OW25780   2.651   3.455   2.321  0.0277 -0.4491  0.3098
 4716SOL    HW125781   2.653   3.420   2.410  1.6585 -2.7250 -0.6119
 4716SOL    HW225782   2.558   3.462   2.298 -0.3321 -1.5620  1.4803
 4717SOL     OW25783   3.394   1.125   7.133 -0.6711 -1.2005 -0.0175
 4717SOL    HW125784   3.438   1.154   7.053 -3.3052  1.7151 -0.3745
 4717SOL    HW225785   3.454   1.067   7.181  2.1728  1.0057 -0.9210
 4718SOL     OW25786   0.390   3.863   3.002 -0.7731 -0.4720 -0.0538
 4718SOL    HW125787   0.441   3.791   2.966 -0.5878 -0.7043  0.6683
 4718SOL    HW225788   0.377   3.834   3.092 -0.4866  1.1786  0.5353
 4719SOL     OW25789   2.370   3.936  17.397 -0.2868  0.0247 -0.4406
 4719SOL    HW125790   2.418   3.954  17.478 -1.1583  2.0733 -0.3916
 4719SOL    HW225791   2.443   3.934  17.335 -1.5583  0.6666 -1.9406
 4720SOL     OW25792   1.640   1.699   1.251  0.8616  0.2245 -0.0654
 4720SOL    HW125793   1.594   1.648   1.318  1.6592  0.1238  0.4048
 4720SOL    HW225794   1.698   1.635   1.210 -0.5078 -0.3375 -1.1509
 4721SOL     OW25795   4.406   4.244   9.751 -0.0249  0.0573  0.0304
 4721SOL    HW125796   4.321   4.205   9.772 -0.5107 -0.6276 -3.2255
 4721SOL    HW225797   4.456   4.180   9.803  1.4546  1.8436  0.8209
 4722SOL     OW25798   1.047   3.895   7.247  0.1299  0.2496 -0.6142
 4722SOL    HW125799   1.006   3.841   7.180 -2.6530  1.8358 -0.1972
 4722SOL    HW225800   0.980   3.949   7.289  1.0599  1.1042 -0.2185
 4723SOL     OW25801   3.345   4.464   5.536 -0.2486  0.1693  0.0532
 4723SOL    HW125802   3.364   4.557   5.548  0.8909 -0.3659  2.3713
 4723SOL    HW225803   3.277   4.449   5.602 -2.0879  1.5245 -1.5178
 4724SOL     OW25804   1.093   2.566   4.313  0.4730 -0.0496 -0.0199
 4724SOL    HW125805   1.056   2.479   4.321 -2.9689  1.5200  1.1870
 4724SOL    HW225806   1.162   2.546   4.250 -0.3545  0.2154 -1.0128
 4725SOL     OW25807   0.015   1.328   5.226 -0.5509 -0.1394 -0.1830
 4725SOL    HW125808   4.701   1.246   5.231  0.2185 -0.6430 -0.6367
 4725SOL    HW225809   0.038   1.327   5.133  0.2773  0.3639  0.0236
 4726SOL     OW25810   3.054   1.972   4.090 -0.5091 -0.3554  0.6246
 4726SOL    HW125811   2.977   1.976   4.033 -1.0388 -1.2026  1.2766
 4726SOL    HW225812   3.050   1.880   4.116 -0.3329 -0.1658  1.3094
 4727SOL     OW25813   3.353   0.350   6.616  0.2400 -0.8256 -0.2925
 4727SOL    HW125814   3.332   0.315   6.529 -1.5411 -2.2803  0.7182
 4727SOL    HW225815   3.303   0.289   6.670 -0.0302  0.0986  0.5119
 4728SOL     OW25816   0.594   3.034   2.222  0.4180  0.3593 -0.1214
 4728SOL    HW125817   0.545   3.042   2.303  1.7673  1.8035  0.5306
 4728SOL    HW225818   0.679   3.071   2.245 -0.1595  1.7113 -0.1619
 4729SOL     OW25819   0.675   3.241   5.067  0.0818  0.2521  0.7238
 4729SOL    HW125820   0.605   3.195   5.022  1.2317  0.1428 -0.9323
 4729SOL    HW225821   0.749   3.182   5.057  0.4843  0.7121  0.9568
 4730SOL     OW25822   4.046   2.656   4.146 -0.6000  0.9133  0.3825
 4730SOL    HW125823   4.095   2.733   4.176  1.5980 -0.4511  0.2937
 4730SOL    HW225824   3.991   2.655   4.225  1.3966 -1.0169  1.7198
 4731SOL     OW25825   3.195   0.962   4.863 -0.7394  0.3876  0.0488
 4731SOL    HW125826   3.258   0.978   4.793  2.5451  4.4706  3.9343
 4731SOL    HW225827   3.121   1.011   4.827 -1.5957  0.0490  1.3516
 4732SOL     OW25828   1.606   0.108  10.040  0.2885 -0.0588 -0.1113
 4732SOL    HW125829   1.515   0.117  10.068 -0.2961  0.2197 -2.0744
 4732SOL    HW225830   1.655   0.176  10.086 -0.9775  0.1824  0.8605
 4733SOL     OW25831   3.801   4.302   6.409 -0.3009 -0.2892  0.2161
 4733SOL    HW125832   3.822   4.222   6.361 -2.0300 -1.2313  1.0091
 4733SOL    HW225833   3.728   4.268   6.462 -0.1923  0.2693  0.7268
 4734SOL     OW25834   3.787   0.628  12.066  0.1614  0.1582  0.2633
 4734SOL    HW125835   3.761   0.622  11.974  0.7157  0.0276  0.1143
 4734SOL    HW225836   3.863   0.570  12.069 -0.6761 -0.9463  0.0896
 4735SOL     OW25837   0.137   2.174  12.783 -0.0853  0.4303 -0.3804
 4735SOL    HW125838   0.067   2.230  12.817  1.0124  2.2247 -1.1133
 4735SOL    HW225839   0.205   2.239  12.769 -0.3957  0.6069 -1.0610
 4736SOL     OW25840   2.628   4.311   0.532  0.7387  0.8616 -0.1820
 4736SOL    HW125841   2.553   4.363   0.503  0.4346  0.0624 -0.8172
 4736SOL    HW225842   2.680   4.379   0.575  2.6037 -1.2690  0.9880
 4737SOL     OW25843   1.368   1.109   3.345 -0.3254  0.2407 -0.2569
 4737SOL    HW125844   1.316   1.105   3.426 -2.1672  0.8759 -1.4093
 4737SOL    HW225845   1.449   1.140   3.385 -0.3643  0.5061 -0.3876
 4738SOL     OW25846   3.038   2.577   8.367  0.4740 -0.6023  0.3691
 4738SOL    HW125847   3.016   2.521   8.442  1.5658 -0.2303  0.9767
 4738SOL    HW225848   2.970   2.566   8.301  0.6490  0.7452 -0.0436
 4739SOL     OW25849   0.573   1.156   9.893  0.2875 -0.1656  0.5751
 4739SOL    HW125850   0.636   1.193   9.832  1.1879 -2.4360  0.1324
 4739SOL    HW225851   0.605   1.197   9.974 -0.1050  0.0581  0.6184
 4740SOL     OW25852   2.054   0.605  10.759 -0.0707  0.4441 -0.3546
 4740SOL    HW125853   2.081   0.681  10.810  1.0639  0.3104 -0.7515
 4740SOL    HW225854   2.036   0.657  10.681  3.6246  3.1474  0.6142
 4741SOL     OW25855   3.295   3.661   6.696 -0.1699  0.0810  0.5661
 4741SOL    HW125856   3.241   3.739   6.712  0.1836  0.5324 -0.4221
 4741SOL    HW225857   3.364   3.681   6.760  0.3473  2.1115 -0.5985
 4742SOL     OW25858   4.257   1.111   3.901  0.1181  0.1436 -0.3405
 4742SOL    HW125859   4.260   1.201   3.867  0.9048 -0.3279 -1.5342
 4742SOL    HW225860   4.265   1.056   3.823  0.2901 -1.5205  0.8611
 4743SOL     OW25861   2.100   0.078   4.946 -0.2753  0.1479 -0.3122
 4743SOL    HW125862   2.016   0.053   4.985 -0.1265  0.8379  0.4566
 4743SOL    HW225863   2.164   0.047   5.010  0.1664 -2.6159 -2.0588
 4744SOL     OW25864   1.035   4.040   4.080 -0.0359  0.8477  0.2426
 4744SOL    HW125865   1.087   4.115   4.051  0.1886  0.9210  0.8461
 4744SOL    HW225866   1.088   3.973   4.036 -0.8234  1.6860 -1.9806
 4745SOL     OW25867   0.043   0.509  13.279  0.0133 -0.4950  0.1825
 4745SOL    HW125868   0.003   0.573  13.339  1.6601 -0.8508  1.6691
 4745SOL    HW225869   0.018   0.541  13.193 -2.2137  3.5670  2.3305
 4746SOL     OW25870   1.446   4.702  12.492 -0.2572 -0.0126 -0.0324
 4746SOL    HW125871   1.496   4.697  12.574  1.6636 -0.0384 -1.2130
 4746SOL    HW225872   1.386   4.629  12.509 -1.6903  0.9373 -1.0072
 4747SOL     OW25873   3.149   3.038  14.132  0.4990 -0.0174  0.0001
 4747SOL    HW125874   3.164   3.105  14.065 -0.8747  0.4447  0.1488
 4747SOL    HW225875   3.056   3.026  14.116  0.4788 -0.9357  0.8293
 4748SOL     OW25876   2.904   1.456  11.094  0.5697 -0.5248 -0.0725
 4748SOL    HW125877   2.949   1.380  11.132 -0.8148 -1.3110  0.0021
 4748SOL    HW225878   2.825   1.415  11.061 -1.4559  1.2155  2.6029
 4749SOL     OW25879   3.933   1.078   7.042  0.2789 -0.3915 -0.5703
 4749SOL    HW125880   3.917   1.161   7.087  2.9388 -0.7304  0.9732
 4749SOL    HW225881   4.011   1.054   7.090  0.7552 -0.2412 -1.2641
 4750SOL     OW25882   0.733   0.685   7.439  0.4693  0.0889 -0.3225
 4750SOL    HW125883   0.799   0.717   7.500  0.0389 -0.6952  0.5605
 4750SOL    HW225884   0.671   0.757   7.446 -2.3646 -2.6182  2.4096
 4751SOL     OW25885   2.269   0.254   6.698 -0.7156 -0.0233 -0.4101
 4751SOL    HW125886   2.312   0.174   6.729 -0.6988  0.5491  1.0189
 4751SOL    HW225887   2.232   0.223   6.615 -2.6626  1.9480 -0.2719
 4752SOL     OW25888   3.615   3.503   0.534 -0.1166  0.0552 -0.2086
 4752SOL    HW125889   3.661   3.531   0.613  0.9813 -0.4954 -0.6562
 4752SOL    HW225890   3.677   3.537   0.469 -0.2239 -1.5793 -1.1750
 4753SOL     OW25891   4.718   3.844   7.746 -0.0093 -0.2120 -0.0909
 4753SOL    HW125892   0.014   3.798   7.668 -0.5976 -1.0062  0.1379
 4753SOL    HW225893   0.057   3.893   7.779 -0.1455 -0.1643  0.1474
 4754SOL     OW25894   3.529   2.642   6.432  0.1950  0.3738  0.6451
 4754SOL    HW125895   3.446   2.647   6.384  1.0766  1.4167 -0.7705
 4754SOL    HW225896   3.577   2.720   6.404  2.3540 -0.1782  2.8299
 4755SOL     OW25897   2.467   0.534   9.538 -0.1067  0.2538 -0.0580
 4755SOL    HW125898   2.541   0.473   9.539 -0.3588 -0.0720 -1.1867
 4755SOL    HW225899   2.397   0.482   9.498 -1.4383  2.6815 -0.8602
 4756SOL     OW25900   2.465   2.906   2.759  0.0875  0.2209 -0.5025
 4756SOL    HW125901   2.511   2.974   2.710  2.5602  0.8817  2.7666
 4756SOL    HW225902   2.401   2.953   2.813 -0.0577 -2.6005  1.7705
 4757SOL     OW25903   3.956   3.469   6.058  0.9513 -0.1128  0.1026
 4757SOL    HW125904   3.900   3.505   6.127 -0.5541  1.5719 -2.0054
 4757SOL    HW225905   3.951   3.545   6.000  0.1661  1.3456  2.0805
 4758SOL     OW25906   2.411   1.473   8.224  0.1389  0.1834  0.1927
 4758SOL    HW125907   2.434   1.455   8.133 -0.9768  0.6331 -0.1848
 4758SOL    HW225908   2.325   1.511   8.207 -0.3103 -0.9308  0.0271
 4759SOL     OW25909   3.703   3.798   7.956 -0.4008  0.0643  0.4011
 4759SOL    HW125910   3.671   3.864   8.016 -0.2770  0.0876  0.4413
 4759SOL    HW225911   3.618   3.761   7.933  0.9311 -2.5909 -0.3100
 4760SOL     OW25912   4.107   3.464   3.817  0.2943 -0.0315 -0.5204
 4760SOL    HW125913   4.195   3.473   3.782  0.4656  3.6294  0.8361
 4760SOL    HW225914   4.120   3.493   3.907 -2.4353 -0.7698  0.1313
 4761SOL     OW25915   1.668   2.799   7.233 -0.4503 -0.0168 -0.0781
 4761SOL    HW125916   1.608   2.725   7.221  1.8786 -2.0736  1.0385
 4761SOL    HW225917   1.685   2.828   7.144  2.3118  0.3983  0.6030
 4762SOL     OW25918   3.813   0.941   0.015 -0.2194 -0.5862  0.2914
 4762SOL    HW125919   3.804   1.021  17.707 -0.3216  0.5794  2.1679
 4762SOL    HW225920   3.769   0.876  17.703 -1.0934 -1.4868  2.0395
 4763SOL     OW25921   2.540   4.609   8.507 -0.1658 -0.0788  0.5959
 4763SOL    HW125922   2.553   4.631   8.415 -0.1619 -0.6715  0.4593
 4763SOL    HW225923   2.543   4.514   8.497  2.3794 -0.0769  1.4288
 4764SOL     OW25924   2.881   2.056   8.576 -0.3139 -0.1462  0.0955
 4764SOL    HW125925   2.960   2.063   8.629 -0.0283 -1.5107 -0.1462
 4764SOL    HW225926   2.844   2.144   8.585 -1.4285 -0.7785  1.5654
 4765SOL     OW25927   4.022   3.880  15.060 -0.4397 -0.5888  0.0949
 4765SOL    HW125928   3.990   3.802  15.104 -0.5968  0.1768  1.3215
 4765SOL    HW225929   3.951   3.907  15.003  0.4447 -0.4168 -0.9348
 4766SOL     OW25930   3.043   4.185   4.130 -0.0235  0.0948 -0.0874
 4766SOL    HW125931   3.095   4.110   4.102 -1.2762 -0.5082 -0.7715
 4766SOL    HW225932   2.964   4.168   4.078  0.2263 -0.4575 -0.2876
 4767SOL     OW25933   2.710   3.119  13.870 -0.3518  0.3523 -0.5005
 4767SOL    HW125934   2.796   3.127  13.829 -0.4238 -2.4372 -1.2267
 4767SOL    HW225935   2.730   3.039  13.920 -1.5168  1.0759  1.1306
 4768SOL     OW25936   0.016   1.971   9.359  0.2683  0.5397  0.4611
 4768SOL    HW125937   4.660   1.965   9.337  1.0616 -0.1990 -2.5497
 4768SOL    HW225938   0.021   1.956   9.454 -0.0317 -3.1349 -0.1026
 4769SOL     OW25939   3.188   3.318   7.171  0.3291 -0.1231  0.3842
 4769SOL    HW125940   3.109   3.304   7.119  1.5534  0.1934 -1.5383
 4769SOL    HW225941   3.223   3.231   7.192  0.0880 -0.2199  0.3804
 4770SOL     OW25942   2.367   4.442   1.909  0.0079  0.7433 -0.0902
 4770SOL    HW125943   2.451   4.466   1.869 -0.5717  0.1168 -1.7101
 4770SOL    HW225944   2.325   4.527   1.896  0.6340  0.9995 -0.4410
 4771SOL     OW25945   1.036   0.700   4.411 -0.1957  0.5564  0.0893
 4771SOL    HW125946   0.995   0.642   4.347 -0.7394  1.0942 -0.0586
 4771SOL    HW225947   1.119   0.716   4.367 -0.2423 -0.4417 -0.3639
 4772SOL     OW25948   4.137   2.200   6.629 -0.6577 -0.4340 -0.5579
 4772SOL    HW125949   4.208   2.261   6.651 -2.3252  1.1597  0.3764
 4772SOL    HW225950   4.064   2.241   6.675  0.5931 -0.0693  1.1309
 4773SOL     OW25951   4.276   4.243   6.892  0.0629 -0.5469  0.3167
 4773SOL    HW125952   4.290   4.230   6.799 -0.9273  0.8519 -0.0199
 4773SOL    HW225953   4.369   4.235   6.916  0.8009 -0.2065 -2.4639
 4774SOL     OW25954   3.377   4.431   0.948  0.3102  0.2434  0.2192
 4774SOL    HW125955   3.284   4.433   0.969  0.5212  0.6827  1.1171
 4774SOL    HW225956   3.369   4.444   0.854  0.0630  0.9198  0.3388
 4775SOL     OW25957   3.424   1.878   3.927 -0.1195 -0.0789 -0.4994
 4775SOL    HW125958   3.443   1.861   3.834 -0.1064  1.2002 -0.7374
 4775SOL    HW225959   3.380   1.963   3.919 -0.4521 -0.2667 -0.6864
 4776SOL     OW25960   1.467   1.700   0.720  0.2905 -0.6228 -0.5472
 4776SOL    HW125961   1.486   1.693   0.814  0.8143 -0.4238 -0.6389
 4776SOL    HW225962   1.434   1.611   0.707  0.5550 -1.1205  2.0693
 4777SOL     OW25963   3.155   3.722   8.489  0.1514 -0.3447 -0.2281
 4777SOL    HW125964   3.091   3.684   8.428 -0.8723  0.2996  0.4321
 4777SOL    HW225965   3.101   3.723   8.569  2.4944 -1.3428  1.3585
 4778SOL     OW25966   2.362   1.456   8.562 -0.2747  0.0325  0.0299
 4778SOL    HW125967   2.390   1.532   8.511  0.6857 -1.0112 -1.0012
 4778SOL    HW225968   2.268   1.469   8.549 -0.4540 -1.1775  0.1323
 4779SOL     OW25969   0.267   0.359   4.860 -0.0846  0.2012  0.7542
 4779SOL    HW125970   0.271   0.267   4.835  3.7452  0.5421  0.1104
 4779SOL    HW225971   0.361   0.368   4.878 -0.2724  0.8904  1.3848
 4780SOL     OW25972   0.997   2.891  12.831  0.4783 -0.4091 -0.3395
 4780SOL    HW125973   0.902   2.880  12.834  0.6508 -1.5535  0.7990
 4780SOL    HW225974   1.016   2.813  12.780  1.7428 -1.5721  1.8742
 4781SOL     OW25975   2.414   3.461  11.115  0.3172 -0.0430  0.3612
 4781SOL    HW125976   2.481   3.397  11.090 -0.9913 -1.3416  0.1657
 4781SOL    HW225977   2.338   3.403  11.117 -1.1381  1.8973  2.0007
 4782SOL     OW25978   3.566   3.529   8.490  0.4504  0.3851 -0.4102
 4782SOL    HW125979   3.578   3.566   8.403  0.8500  0.2909 -0.3977
 4782SOL    HW225980   3.593   3.440   8.469 -0.0852  0.1540 -0.1211
 4783SOL     OW25981   2.934   3.562   5.834  0.0101 -0.0412 -0.9009
 4783SOL    HW125982   3.011   3.521   5.795  0.5203 -1.3721  1.5252
 4783SOL    HW225983   2.974   3.634   5.883 -0.9923 -1.0060  1.3530
 4784SOL     OW25984   1.979   4.622   3.021 -0.6979 -0.1497 -0.2833
 4784SOL    HW125985   1.927   4.543   3.003 -1.0860 -0.0696  0.4769
 4784SOL    HW225986   1.911   4.684   3.048  0.4721  0.5702  0.9606
 4785SOL     OW25987   4.180   4.002   6.995  0.7502  0.4515  0.0546
 4785SOL    HW125988   4.178   4.096   6.977 -0.7259  0.2858 -0.6603
 4785SOL    HW225989   4.199   3.990   7.089  0.3522  2.8416  0.4305
 4786SOL     OW25990   4.148   4.108   1.491  0.5624 -0.2268 -0.3390
 4786SOL    HW125991   4.080   4.152   1.442 -0.6866  0.3279  1.8928
 4786SOL    HW225992   4.224   4.154   1.456  1.7324 -1.8158  0.0644
 4787SOL     OW25993   3.413   4.196  15.715  0.5241  0.2244 -0.2527
 4787SOL    HW125994   3.359   4.130  15.673  0.0254 -0.2828  1.1703
 4787SOL    HW225995   3.473   4.139  15.764 -0.9223  1.3143  2.8364
 4788SOL     OW25996   4.289   0.715  12.561  0.1230  0.2021 -0.2106
 4788SOL    HW125997   4.202   0.747  12.585 -0.5178 -1.9923  0.3203
 4788SOL    HW225998   4.285   0.627  12.596  1.0203 -0.4052 -1.6316
 4789SOL     OW25999   0.455   3.426   2.439 -0.1583 -0.1938 -0.1345
 4789SOL    HW126000   0.508   3.400   2.364  0.0827  0.8470 -0.3258
 4789SOL    HW226001   0.497   3.506   2.473  1.0591  0.2508 -2.7457
 4790SOL     OW26002   1.715   2.293   5.639  0.2808  0.3576  0.2713
 4790SOL    HW126003   1.701   2.200   5.660 -0.2789  0.2932 -0.4215
 4790SOL    HW226004   1.709   2.321   5.731 -0.2152  2.6439 -0.4718
 4791SOL     OW26005   2.073   1.423   7.241 -0.0935  0.1053 -0.1125
 4791SOL    HW126006   2.042   1.378   7.319 -2.0426 -0.3649 -1.1562
 4791SOL    HW226007   2.164   1.439   7.264 -0.1895  0.0220  0.3239
 4792SOL     OW26008   1.426   4.545   7.862 -0.2748  0.5673 -0.1083
 4792SOL    HW126009   1.519   4.538   7.838 -0.1393  3.1700 -0.4125
 4792SOL    HW226010   1.432   4.612   7.930  2.5911  1.4648 -1.2096
 4793SOL     OW26011   2.997   0.617  14.724  0.0212 -0.4165  0.3745
 4793SOL    HW126012   3.050   0.646  14.797 -0.4693  0.8548  0.2163
 4793SOL    HW226013   3.048   0.634  14.645 -1.5218  1.4763 -0.2126
 4794SOL     OW26014   1.310   4.553   4.944  0.0870 -0.0330  0.1247
 4794SOL    HW126015   1.362   4.479   4.976  0.4680 -0.6929 -2.0477
 4794SOL    HW226016   1.342   4.624   5.001 -2.5631 -0.6296  2.3454
 4795SOL     OW26017   2.929   2.604   9.043  0.3251  0.3469  0.4548
 4795SOL    HW126018   3.000   2.667   9.026 -0.2434  0.4796 -1.3599
 4795SOL    HW226019   2.871   2.670   9.082  1.5761  1.4313  0.4876
 4796SOL     OW26020   0.915   1.646   5.691  0.0816 -0.0267 -0.0460
 4796SOL    HW126021   0.912   1.551   5.686 -0.5696  0.0469 -1.0848
 4796SOL    HW226022   0.933   1.664   5.783 -1.2728  0.9158  0.0350
 4797SOL     OW26023   0.241   0.312   7.649 -0.2721  0.0556  0.3122
 4797SOL    HW126024   0.236   0.340   7.741  2.3888 -1.0437  0.7819
 4797SOL    HW226025   0.175   0.242   7.656 -0.8872  0.4647 -1.3166
 4798SOL     OW26026   1.572   3.574   5.517 -0.1777 -0.0805 -0.0783
 4798SOL    HW126027   1.626   3.553   5.593  0.1280  1.0275  0.0024
 4798SOL    HW226028   1.523   3.647   5.553 -0.7568 -0.5777  0.1441
 4799SOL     OW26029   2.668   1.314   4.126  0.1788  0.1908 -0.7092
 4799SOL    HW126030   2.600   1.277   4.183  1.5520 -0.7961  0.2841
 4799SOL    HW226031   2.626   1.281   4.046 -1.6625 -0.5935  0.5624
 4800SOL     OW26032   1.089   3.373  16.025  0.5324  0.1508  0.1311
 4800SOL    HW126033   1.010   3.319  16.026  0.3444  0.4314  0.1316
 4800SOL    HW226034   1.150   3.299  16.032  1.7142  1.1347  0.1846
 4801SOL     OW26035   3.114   3.624   4.775 -0.0569  0.4990  0.1800
 4801SOL    HW126036   3.110   3.636   4.680 -2.4428 -0.7662  0.1177
 4801SOL    HW226037   3.129   3.715   4.801  0.8453  0.4818 -0.2543
 4802SOL     OW26038   2.123   4.519  11.165 -0.5500  0.2834  0.1854
 4802SOL    HW126039   2.079   4.592  11.208 -0.1150 -0.8250  2.4922
 4802SOL    HW226040   2.203   4.563  11.137 -0.6467  0.6838  0.5477
 4803SOL     OW26041   1.692   4.729   7.404 -0.3865  0.0007  0.4386
 4803SOL    HW126042   1.743   4.655   7.437  0.5685  0.7763  0.6987
 4803SOL    HW226043   1.725   4.729   7.315  1.6504 -1.0291  1.2022
 4804SOL     OW26044   1.496   3.294   5.524  0.4540  0.0224 -0.4304
 4804SOL    HW126045   1.518   3.369   5.579  0.9264 -1.1363  0.9596
 4804SOL    HW226046   1.581   3.268   5.490  0.4481 -0.1371 -0.3218
 4805SOL     OW26047   0.519   0.098   7.912 -0.2436 -0.3991 -0.3013
 4805SOL    HW126048   0.572   0.063   7.840 -1.6353  1.3858 -2.1852
 4805SOL    HW226049   0.567   0.100   7.995 -1.6154  0.3745  0.4734
 4806SOL     OW26050   4.218   3.344   7.218  0.2305 -0.5786 -0.2079
 4806SOL    HW126051   4.154   3.400   7.263  1.9522 -0.5097  2.1766
 4806SOL    HW226052   4.162   3.296   7.157  1.5763 -1.7692 -0.4889
 4807SOL     OW26053   1.635   1.502   7.626  0.1736 -0.1109 -0.4072
 4807SOL    HW126054   1.645   1.447   7.548 -2.1042 -1.0150 -0.0812
 4807SOL    HW226055   1.577   1.568   7.587 -0.7607  0.6040  2.1798
 4808SOL     OW26056   1.519   0.943   0.938 -0.8694 -0.0913 -0.1940
 4808SOL    HW126057   1.575   0.875   0.977 -2.0420 -1.6983 -1.3023
 4808SOL    HW226058   1.495   0.989   1.019 -1.3491 -0.4986 -0.1014
 4809SOL     OW26059   3.628   0.699  15.491  0.1492 -0.1142  0.4534
 4809SOL    HW126060   3.620   0.653  15.575 -0.3274 -0.0172  0.4644
 4809SOL    HW226061   3.632   0.626  15.429 -0.4645  0.0097  0.2644
 4810SOL     OW26062   0.450   3.133   4.506 -0.0327  0.4175  0.4368
 4810SOL    HW126063   0.366   3.177   4.496 -0.6293 -1.3404 -2.1801
 4810SOL    HW226064   0.424   3.063   4.446  0.4219 -1.1678  2.0613
 4811SOL     OW26065   3.128   3.324   6.540 -0.3343  0.0265  0.2023
 4811SOL    HW126066   3.160   3.362   6.622 -0.6277  2.6216 -0.8565
 4811SOL    HW226067   3.034   3.341   6.546 -0.4349 -1.4363  2.5351
 4812SOL     OW26068   2.904   4.710  15.374  0.4194  0.2114 -0.1424
 4812SOL    HW126069   2.879   4.716  15.466 -1.7928  1.0679 -0.7861
 4812SOL    HW226070   2.925   4.617  15.367  2.0092  0.4666  1.3146
 4813SOL     OW26071   4.006   2.542   3.865  0.6996  0.2429  0.3722
 4813SOL    HW126072   4.036   2.453   3.884  1.4944  0.2729 -0.7394
 4813SOL    HW226073   3.938   2.539   3.933  0.3663  0.6900  0.0531
 4814SOL     OW26074   0.075   2.706  15.900 -0.4837  0.6002  0.2818
 4814SOL    HW126075   4.719   2.715  15.926  0.0787  0.6998  2.2140
 4814SOL    HW226076   0.107   2.793  15.922 -0.6455  0.3028  1.6542
 4815SOL     OW26077   0.854   3.567  17.205  0.1777 -0.3813 -0.1861
 4815SOL    HW126078   0.893   3.530  17.285 -0.2836  0.4659  0.4297
 4815SOL    HW226079   0.768   3.526  17.207 -1.8099  3.7189 -3.2822
 4816SOL     OW26080   3.190   1.409   6.623  0.0405 -0.5012 -0.0880
 4816SOL    HW126081   3.199   1.471   6.694 -1.5346 -1.3012  0.8251
 4816SOL    HW226082   3.108   1.438   6.582  0.9877  1.6067 -0.4981
 4817SOL     OW26083   0.437   2.024  15.410 -0.0064  0.7474  0.1875
 4817SOL    HW126084   0.386   1.960  15.360  1.3373  1.5876 -2.2602
 4817SOL    HW226085   0.512   1.968  15.424 -0.5221 -1.0054 -4.0462
 4818SOL     OW26086   2.522   4.638   0.940  0.1082 -0.4577 -0.2275
 4818SOL    HW126087   2.512   4.553   0.984  0.3965 -0.6688 -0.5779
 4818SOL    HW226088   2.583   4.681   1.000 -0.4160 -0.1892  0.1231
 4819SOL     OW26089   2.562   0.462   7.500  0.3882  0.0901  0.5041
 4819SOL    HW126090   2.484   0.421   7.464 -0.5888  0.5933  2.0505
 4819SOL    HW226091   2.623   0.474   7.428  0.2592 -0.9677  0.2231
 4820SOL     OW26092   0.979   4.715  15.499 -0.2519 -0.4775 -0.4322
 4820SOL    HW126093   0.935   0.060  15.523 -0.1399  0.2009 -2.5547
 4820SOL    HW226094   0.902   4.660  15.486 -1.7312  1.8206 -1.2908
 4821SOL     OW26095   2.053   4.178   8.711  0.2140  0.4776 -0.1174
 4821SOL    HW126096   1.976   4.236   8.706 -2.4576 -2.7778  3.2273
 4821SOL    HW226097   2.118   4.243   8.685  0.9129 -0.7820 -1.4902
 4822SOL     OW26098   2.678   3.332   3.291  0.2498 -0.0524 -0.2237
 4822SOL    HW126099   2.622   3.281   3.233 -1.2124  1.1868  0.1152
 4822SOL    HW226100   2.760   3.284   3.281 -0.4543 -1.1087 -0.9074
 4823SOL     OW26101   4.191   4.291   3.462 -0.0357  0.3879  0.4625
 4823SOL    HW126102   4.190   4.240   3.381 -2.1225  0.9737  0.1156
 4823SOL    HW226103   4.100   4.320   3.458 -0.0045  0.3319 -0.6276
 4824SOL     OW26104   2.173   4.710   7.310  0.8333  0.0507 -0.4796
 4824SOL    HW126105   2.150   0.059   7.346  0.3115  1.2489 -3.6991
 4824SOL    HW226106   2.088   4.673   7.287  0.4703  0.9268 -0.5241
 4825SOL     OW26107   1.883   3.654   6.681  0.1209 -0.0551  0.3313
 4825SOL    HW126108   1.802   3.683   6.723 -1.3539 -0.8863 -1.9038
 4825SOL    HW226109   1.848   3.630   6.595 -1.1301 -0.7812  1.0496
 4826SOL     OW26110   1.654   0.122   1.299  0.1749  0.0192  0.5607
 4826SOL    HW126111   1.623   0.060   1.233 -0.8672  0.6036  0.5061
 4826SOL    HW226112   1.743   0.134   1.268 -1.0224 -0.0207 -2.9110
 4827SOL     OW26113   0.879   2.091  11.610 -0.1858 -0.1590  0.1715
 4827SOL    HW126114   0.953   2.034  11.589 -0.6024 -1.2373  1.6345
 4827SOL    HW226115   0.856   2.071  11.701  3.5343 -0.4283  1.0393
 4828SOL     OW26116   0.778   2.117   8.903  0.3302  0.0463 -0.4969
 4828SOL    HW126117   0.795   2.067   8.823 -1.5187 -0.7622 -0.3660
 4828SOL    HW226118   0.864   2.111   8.945 -0.0008  1.8425  0.4489
 4829SOL     OW26119   3.726   2.004   7.751  0.1838 -0.3588 -0.4562
 4829SOL    HW126120   3.649   1.950   7.769  1.7069 -1.6218  2.3776
 4829SOL    HW226121   3.741   1.995   7.657  0.1385  2.2943 -0.7060
 4830SOL     OW26122   3.681   0.683  16.519  0.0260 -0.0445  0.3025
 4830SOL    HW126123   3.615   0.677  16.449  0.4684 -2.6043  0.1276
 4830SOL    HW226124   3.711   0.774  16.509  0.3710 -0.2715 -0.7413
 4831SOL     OW26125   3.413   0.854  12.034 -0.6605  0.2930 -0.4701
 4831SOL    HW126126   3.413   0.766  11.996  0.7764  1.2316 -2.6385
 4831SOL    HW226127   3.492   0.855  12.088  1.0913  2.6128 -3.0908
 4832SOL     OW26128   4.337   3.632   7.041 -0.1656  0.0686 -0.3987
 4832SOL    HW126129   4.259   3.634   6.986  0.1087  0.1930 -0.7861
 4832SOL    HW226130   4.303   3.686   7.112 -3.6788 -2.1471 -0.4410
 4833SOL     OW26131   4.491   2.650   6.455  0.4107  0.1854  0.4025
 4833SOL    HW126132   4.570   2.624   6.502  0.9238  1.2238  0.0995
 4833SOL    HW226133   4.445   2.715   6.508 -1.0242 -0.5241  0.0242
 4834SOL     OW26134   2.193   0.358   5.508 -0.6003  0.1076  0.4880
 4834SOL    HW126135   2.156   0.444   5.486 -1.0197 -0.1448  0.1871
 4834SOL    HW226136   2.127   0.297   5.473 -0.0886  0.4461 -1.0503
 4835SOL     OW26137   2.863   0.046   4.827  0.0046 -0.2545  0.4822
 4835SOL    HW126138   2.924   0.104   4.782  0.3068 -0.4297  0.6694
 4835SOL    HW226139   2.912   4.713   4.870 -0.2205 -0.3361  0.6083
 4836SOL     OW26140   2.036   2.789   9.290  0.8974  0.1557 -0.4846
 4836SOL    HW126141   2.109   2.736   9.325 -0.7228 -1.1962  0.8636
 4836SOL    HW226142   1.988   2.791   9.372  0.9529 -0.9581 -0.4240
 4837SOL     OW26143   3.245   2.284   2.269 -0.3434 -0.3740 -0.0785
 4837SOL    HW126144   3.328   2.271   2.316 -0.6729  1.2096  0.9387
 4837SOL    HW226145   3.211   2.197   2.292 -0.3929  0.5656  3.4694
 4838SOL     OW26146   2.256   1.962   4.663  0.1701 -0.0437  0.6076
 4838SOL    HW126147   2.243   2.046   4.619  0.2697  0.1015  0.8548
 4838SOL    HW226148   2.190   1.975   4.731 -1.0246 -1.6667 -0.2134
 4839SOL     OW26149   4.620   0.452  14.448  0.0784  0.1974 -0.3468
 4839SOL    HW126150   4.697   0.479  14.398 -0.7134  0.0850 -1.6438
 4839SOL    HW226151   4.616   0.517  14.518  0.1966  1.1059 -1.1784
 4840SOL     OW26152   0.370   4.597   4.267  0.3594 -0.4701  0.1551
 4840SOL    HW126153   0.461   4.614   4.294 -0.3073 -0.4540  2.4312
 4840SOL    HW226154   0.356   4.643   4.185  1.1676 -0.6137 -0.0644
 4841SOL     OW26155   4.285   0.152   4.033 -0.0272  0.4736 -0.0061
 4841SOL    HW126156   4.299   0.057   4.038 -2.4628  0.1816  1.2486
 4841SOL    HW226157   4.323   0.192   4.111 -0.3387  0.5022  0.1305
 4842SOL     OW26158   2.558   4.027   5.712 -0.0478  0.0875  0.1430
 4842SOL    HW126159   2.510   4.092   5.661  1.1843  1.9205  1.3023
 4842SOL    HW226160   2.649   4.044   5.686 -0.6687  3.6928  0.3732
 4843SOL     OW26161   0.117   2.953   1.651 -0.6133 -0.0750 -0.1004
 4843SOL    HW126162   0.094   2.916   1.736  0.7188 -1.4000 -0.3211
 4843SOL    HW226163   0.128   2.874   1.599  1.8249 -2.4937  3.9973
 4844SOL     OW26164   0.582   2.252   8.239 -0.3304 -0.1855 -0.0199
 4844SOL    HW126165   0.668   2.235   8.276 -0.3060 -0.4117 -0.1780
 4844SOL    HW226166   0.539   2.182   8.289  3.9205 -0.9783  2.5273
 4845SOL     OW26167   0.777   2.669   3.823  0.7910  0.1613 -0.3111
 4845SOL    HW126168   0.824   2.706   3.747 -0.4628  0.7705 -0.7887
 4845SOL    HW226169   0.714   2.606   3.790 -0.5372  0.1802  2.2312
 4846SOL     OW26170   2.723   0.869  10.910  0.6423  0.5347 -0.0693
 4846SOL    HW126171   2.648   0.885  10.967  0.5734  4.0793 -1.1802
 4846SOL    HW226172   2.734   0.774  10.913 -0.8199  0.2674 -4.1010
 4847SOL     OW26173   3.752   1.234   4.165  0.5448 -0.0004 -0.2558
 4847SOL    HW126174   3.792   1.169   4.223  1.7692  1.7625  0.8910
 4847SOL    HW226175   3.813   1.230   4.091  0.0656 -0.0510 -0.6430
 4848SOL     OW26176   3.827   1.978   2.339  0.6330  0.2641  0.1174
 4848SOL    HW126177   3.808   2.067   2.368  2.6338 -0.0247  2.2516
 4848SOL    HW226178   3.890   2.005   2.272  3.5765  0.8226  3.1447
 4849SOL     OW26179   3.557   0.669   1.064  0.3643  0.3772  0.3544
 4849SOL    HW126180   3.551   0.604   1.134 -2.9988 -0.0680 -0.3650
 4849SOL    HW226181   3.599   0.611   1.001 -0.3051  0.5225 -0.2180
 4850SOL     OW26182   2.814   0.769   7.390  0.2822 -0.3110  0.2644
 4850SOL    HW126183   2.768   0.708   7.332  1.1242 -0.7842  0.0927
 4850SOL    HW226184   2.906   0.742   7.386  0.0356 -0.9497 -1.0502
 4851SOL     OW26185   1.549   3.014   5.249 -1.0546 -0.0206 -0.1880
 4851SOL    HW126186   1.618   3.066   5.290 -2.3290  1.0946  0.5590
 4851SOL    HW226187   1.587   3.000   5.162 -0.4678  2.3007 -0.3047
 4852SOL     OW26188   1.828   1.493   5.347  0.4754 -0.0747  0.2746
 4852SOL    HW126189   1.883   1.419   5.372  1.1251  2.0427  5.1465
 4852SOL    HW226190   1.761   1.455   5.290 -1.1025  1.4559  1.0889
 4853SOL     OW26191   0.390   0.072  10.107 -0.5410  0.0941  0.0202
 4853SOL    HW126192   0.418   0.140  10.168  0.4220 -0.2406 -0.0365
 4853SOL    HW226193   0.414   0.110  10.022 -3.6823  0.6009 -0.6223
 4854SOL     OW26194   1.987   4.446   1.154 -0.2015 -0.1800  0.6450
 4854SOL    HW126195   1.918   4.474   1.214 -0.1969  1.3378 -0.0762
 4854SOL    HW226196   1.972   4.518   1.094  0.4249 -1.2864 -0.8296
 4855SOL     OW26197   3.656   1.031   4.413 -0.1791  0.7268 -0.5653
 4855SOL    HW126198   3.665   1.103   4.474  3.0866  0.0113 -0.1976
 4855SOL    HW226199   3.739   0.984   4.425 -0.7616 -0.7586 -2.1864
 4856SOL     OW26200   1.213   4.397   3.816  0.2405 -0.3218 -0.5223
 4856SOL    HW126201   1.214   4.338   3.891 -0.4606  0.7869  0.3506
 4856SOL    HW226202   1.252   4.473   3.859 -0.3719 -0.9106  1.0508
 4857SOL     OW26203   2.088   1.431   5.530 -0.4466 -0.0235 -0.3588
 4857SOL    HW126204   2.107   1.524   5.517  0.2757 -0.1164 -0.0017
 4857SOL    HW226205   2.096   1.396   5.441  2.1222  1.0764 -0.5748
 4858SOL     OW26206   0.037   1.406  10.368  1.2636  0.0970  0.0336
 4858SOL    HW126207   0.012   1.472  10.303  3.2083 -0.0095 -0.8272
 4858SOL    HW226208   0.023   1.321  10.327  0.0762 -0.4242  1.5223
 4859SOL     OW26209   0.996   4.359   4.356 -0.2197 -0.4139 -0.8073
 4859SOL    HW126210   1.050   4.283   4.379  0.0650  0.4422  1.3542
 4859SOL    HW226211   1.058   4.419   4.314 -0.0050 -0.7139 -0.9249
 4860SOL     OW26212   1.232   1.516   6.036  1.1465 -0.0569 -0.9081
 4860SOL    HW126213   1.274   1.499   6.120 -2.7066  2.1597  1.4212
 4860SOL    HW226214   1.210   1.429   6.003  0.4975 -0.6459  1.1251
 4861SOL     OW26215   2.544   0.078   8.146  0.2703 -0.4003  0.1366
 4861SOL    HW126216   2.536   0.144   8.077 -1.2635 -1.7373 -0.9640
 4861SOL    HW226217   2.640   0.086   8.150  0.4287 -0.8662 -2.4749
 4862SOL     OW26218   1.022   3.736   8.866 -0.0121  0.6088 -0.5436
 4862SOL    HW126219   1.096   3.686   8.831  0.4946  0.1483  1.1811
 4862SOL    HW226220   0.954   3.723   8.800 -1.2563  2.6096  0.3658
 4863SOL     OW26221   3.499   2.597   7.215  0.4127 -0.3093  0.3969
 4863SOL    HW126222   3.518   2.681   7.174 -2.0978 -1.1286 -2.4656
 4863SOL    HW226223   3.587   2.564   7.232 -0.1424 -2.0669 -0.1402
 4864SOL     OW26224   4.407   3.960   9.982 -0.2899  0.7403 -0.1980
 4864SOL    HW126225   4.329   4.003   9.947  1.3442  2.0883 -2.1916
 4864SOL    HW226226   4.378   3.868   9.981  0.4907  0.4946 -0.4526
 4865SOL     OW26227   2.931   2.193   1.165 -0.0937 -0.2277 -0.0640
 4865SOL    HW126228   2.906   2.207   1.073 -0.3359 -0.6967 -0.0703
 4865SOL    HW226229   2.845   2.185   1.205  1.2826 -0.3733  2.8856
 4866SOL     OW26230   4.713   1.258   2.821  0.1882 -0.2431  0.2582
 4866SOL    HW126231   4.672   1.307   2.750  0.7080  0.2756  0.3234
 4866SOL    HW226232   0.056   1.310   2.826  0.5597 -0.5726 -2.6405
 4867SOL     OW26233   4.734   0.644   1.820  0.1221 -0.0504 -0.1724
 4867SOL    HW126234   4.662   0.623   1.760  0.7456  0.1372 -0.9785
 4867SOL    HW226235   0.056   0.568   1.813  0.6164  0.3076  0.0994
 4868SOL     OW26236   4.525   3.689   6.138  0.5487  0.3702  0.1807
 4868SOL    HW126237   4.554   3.661   6.225  0.5486 -1.0476 -0.2647
 4868SOL    HW226238   4.579   3.765   6.121  0.1790  0.6901  0.4355
 4869SOL     OW26239   2.625   0.518  12.960 -0.2035 -0.0067 -0.1454
 4869SOL    HW126240   2.530   0.513  12.951 -0.2597  3.2744 -1.7510
 4869SOL    HW226241   2.640   0.424  12.955 -0.6869 -0.0897 -0.0169
 4870SOL     OW26242   3.942   2.000   1.815  0.4870 -0.4838  0.2811
 4870SOL    HW126243   3.899   1.919   1.843 -0.2321 -0.8363 -1.9030
 4870SOL    HW226244   4.001   1.974   1.743  0.1623 -1.1962  0.2712
 4871SOL     OW26245   1.106   2.146   7.746 -0.3216 -0.1961 -0.0311
 4871SOL    HW126246   1.092   2.238   7.769 -0.8317 -0.7205  1.8107
 4871SOL    HW226247   1.033   2.111   7.798  0.3290 -1.5517 -0.0390
 4872SOL     OW26248   0.292   4.043   5.550 -0.1261 -0.0172  0.0186
 4872SOL    HW126249   0.376   4.011   5.517 -1.1525 -1.0160 -1.6344
 4872SOL    HW226250   0.297   4.050   5.646 -0.5743  0.9529 -0.0335
 4873SOL     OW26251   2.672   4.373  11.260  0.5859 -0.0249 -0.5079
 4873SOL    HW126252   2.654   4.349  11.351 -0.2411  3.0553  0.1441
 4873SOL    HW226253   2.744   4.311  11.246 -0.0237 -0.7164 -0.6245
 4874SOL     OW26254   2.450   2.971   7.414 -0.0735  0.0199  0.5043
 4874SOL    HW126255   2.360   2.941   7.425  0.1568 -0.5453  0.8129
 4874SOL    HW226256   2.490   2.969   7.501  2.8713  2.3130 -0.7983
 4875SOL     OW26257   2.147   1.699   5.513 -0.5119 -0.1608  0.0373
 4875SOL    HW126258   2.090   1.735   5.581  0.3014 -1.5148  1.4114
 4875SOL    HW226259   2.162   1.776   5.458  1.4621 -0.6071 -0.0388
 4876SOL     OW26260   3.547   4.305  14.551 -0.1162  0.0495  0.5596
 4876SOL    HW126261   3.508   4.367  14.490 -0.9330 -0.0617  0.9583
 4876SOL    HW226262   3.509   4.224  14.515 -1.8301  1.6432 -1.2638
 4877SOL     OW26263   1.553   1.216   2.981 -0.4226  0.4771  0.3672
 4877SOL    HW126264   1.514   1.152   3.041  1.2197 -0.5645  0.3141
 4877SOL    HW226265   1.476   1.273   2.972 -2.0204 -1.9164 -1.2872
 4878SOL     OW26266   2.377   0.682   0.320  0.1400  0.1514  0.2039
 4878SOL    HW126267   2.369   0.608   0.259  1.6671 -0.4906  0.7798
 4878SOL    HW226268   2.286   0.712   0.317 -0.0469 -0.4406 -0.1787
 4879SOL     OW26269   4.101   4.038   5.128 -0.6173 -0.0071 -0.5645
 4879SOL    HW126270   4.047   3.974   5.173  2.4628  0.0193  3.1626
 4879SOL    HW226271   4.187   4.013   5.162 -1.0975  0.1645  0.7852
 4880SOL     OW26272   0.521   2.729   6.936 -0.3676 -0.1752  0.4598
 4880SOL    HW126273   0.438   2.688   6.959 -0.6424 -0.4787 -1.0963
 4880SOL    HW226274   0.583   2.687   6.997 -1.2109 -0.9467  0.7936
 4881SOL     OW26275   1.431   3.791   5.173 -0.0220  0.2453  0.4630
 4881SOL    HW126276   1.443   3.709   5.221 -2.1626  0.3607  1.2044
 4881SOL    HW226277   1.510   3.781   5.120  1.3952  0.5282  2.5411
 4882SOL     OW26278   0.870   0.451   1.767  0.3157  0.3526 -0.5846
 4882SOL    HW126279   0.779   0.480   1.770 -0.6724 -2.7891 -0.6986
 4882SOL    HW226280   0.866   0.367   1.812 -0.1059 -0.1038 -1.4829
 4883SOL     OW26281   2.836   1.020   5.897  0.2479  0.0040  0.4371
 4883SOL    HW126282   2.852   1.083   5.967  0.9123 -0.7317  0.9517
 4883SOL    HW226283   2.740   1.021   5.895  0.1744 -2.5159  2.3237
 4884SOL     OW26284   2.340   2.638  11.518  0.8435  0.0468  0.0364
 4884SOL    HW126285   2.328   2.609  11.608 -0.6829 -0.1657 -0.2443
 4884SOL    HW226286   2.417   2.692  11.536 -0.3803  1.7816  0.0369
 4885SOL     OW26287   2.756   1.142   6.713 -0.6094  0.3970 -0.8022
 4885SOL    HW126288   2.785   1.231   6.695  0.4274  0.0279 -0.9745
 4885SOL    HW226289   2.838   1.100   6.742 -2.0397 -2.1211 -0.3537
 4886SOL     OW26290   2.606   1.282   5.724 -0.3303 -0.7924  0.1322
 4886SOL    HW126291   2.532   1.288   5.663 -0.8761  0.1320  0.8694
 4886SOL    HW226292   2.684   1.265   5.671  0.1500 -0.2384  0.6634
 4887SOL     OW26293   1.118   0.528  14.589  0.0849 -0.1796  0.1559
 4887SOL    HW126294   1.186   0.544  14.524  0.4729 -2.8394 -0.1092
 4887SOL    HW226295   1.168   0.506  14.668 -0.3348  1.5072  0.8979
 4888SOL     OW26296   1.772   4.590   5.496 -0.2655 -0.2476 -0.1568
 4888SOL    HW126297   1.679   4.611   5.508 -0.7021 -1.0930 -2.0726
 4888SOL    HW226298   1.764   4.505   5.453 -1.5206 -0.4668  0.5258
 4889SOL     OW26299   0.338   1.555   9.766 -0.1668 -0.2759  0.3236
 4889SOL    HW126300   0.415   1.515   9.726 -1.3579 -2.6680  0.3804
 4889SOL    HW226301   0.372   1.600   9.842  0.0806 -2.4962  1.5239
 4890SOL     OW26302   1.468   3.827   7.558  0.2125 -0.1674  0.0851
 4890SOL    HW126303   1.380   3.809   7.590  0.5948 -3.0776 -0.4931
 4890SOL    HW226304   1.453   3.903   7.502  1.9476  0.0823 -0.0269
 4891SOL     OW26305   4.711   3.424   2.765 -0.0630  0.2102 -0.1310
 4891SOL    HW126306   4.645   3.391   2.826  1.2172 -0.4166  0.9187
 4891SOL    HW226307   4.720   3.517   2.786  1.8180  0.4539 -2.0469
 4892SOL     OW26308   4.556   2.606   1.740  0.6972  0.7530 -0.1259
 4892SOL    HW126309   4.642   2.564   1.748 -0.8364 -1.9893  1.4811
 4892SOL    HW226310   4.506   2.537   1.783  3.8141 -1.7111 -0.4779
 4893SOL     OW26311   0.812   0.237   3.268  0.1783 -0.1968  0.2882
 4893SOL    HW126312   0.757   0.251   3.191  0.0324 -0.3398  0.3685
 4893SOL    HW226313   0.751   0.189   3.323 -0.0275 -3.3449 -2.7299
 4894SOL     OW26314   3.309   2.881  12.050  0.2199  0.3863 -0.1908
 4894SOL    HW126315   3.319   2.820  11.977  1.3437  1.1010 -0.6402
 4894SOL    HW226316   3.393   2.870  12.095  0.6147  0.5642 -0.8980
 4895SOL     OW26317   1.246   1.882   3.137  0.6895 -0.1041 -0.1660
 4895SOL    HW126318   1.254   1.798   3.184 -1.3155  0.5700  1.3440
 4895SOL    HW226319   1.312   1.938   3.177  0.8338  0.3158 -0.9962
 4896SOL     OW26320   0.488   2.669  17.475 -0.6753  0.0941  0.1135
 4896SOL    HW126321   0.522   2.644  17.560  0.5688  0.1660 -0.3599
 4896SOL    HW226322   0.419   2.725  17.510  0.3267  0.4364  1.5237
 4897SOL     OW26323   3.246   3.088  15.322  0.2332 -0.6597 -0.2906
 4897SOL    HW126324   3.231   3.142  15.400  2.6130  2.5312 -2.0680
 4897SOL    HW226325   3.308   3.029  15.365  0.1380  0.1752  0.9827
 4898SOL     OW26326   2.226   2.290   8.352  0.2168 -0.0935  0.5702
 4898SOL    HW126327   2.298   2.298   8.415 -0.3042  0.2819  1.1104
 4898SOL    HW226328   2.215   2.383   8.334 -1.5946 -0.5196 -0.5425
 4899SOL     OW26329   0.180   3.405   9.073  0.0722 -0.1284  0.1331
 4899SOL    HW126330   0.114   3.422   9.005  0.5531  2.2236  0.2631
 4899SOL    HW226331   0.232   3.483   9.090  0.5454 -0.0912 -1.4502
 4900SOL     OW26332   3.511   3.941   2.891 -0.2938  0.4636 -0.3481
 4900SOL    HW126333   3.579   3.887   2.851 -1.0162 -1.3244  0.8275
 4900SOL    HW226334   3.490   3.888   2.968 -2.9154  2.8984  0.5759
 4901SOL     OW26335   2.132   0.373   9.008 -0.4796 -0.4307 -0.0127
 4901SOL    HW126336   2.169   0.337   8.927 -0.6969  0.6847 -0.5994
 4901SOL    HW226337   2.195   0.444   9.024  0.5312 -0.9481 -1.7282
 4902SOL     OW26338   3.168   1.667   0.148 -0.4452  0.0494 -0.3574
 4902SOL    HW126339   3.136   1.579   0.129  0.1253 -0.2792  0.2107
 4902SOL    HW226340   3.212   1.654   0.232 -0.4169 -0.4132 -0.4412
 4903SOL     OW26341   1.615   1.608   5.518  0.2072 -0.3439 -0.7568
 4903SOL    HW126342   1.691   1.567   5.477 -1.3826 -1.6239 -2.4324
 4903SOL    HW226343   1.652   1.630   5.604 -0.4085 -1.0875 -0.2951
 4904SOL     OW26344   2.318   3.237   5.247 -0.4236 -0.4159  1.0299
 4904SOL    HW126345   2.236   3.238   5.199  0.3809  0.7349 -0.3242
 4904SOL    HW226346   2.294   3.186   5.324 -1.8926 -1.5481 -0.1847
 4905SOL     OW26347   3.642   4.145   7.483  0.3881 -0.6021 -0.5462
 4905SOL    HW126348   3.688   4.225   7.507  0.7471 -0.8582 -0.3876
 4905SOL    HW226349   3.572   4.177   7.426 -0.0073 -0.5987 -0.0588
 4906SOL     OW26350   3.071   4.501   3.017  0.3131  0.3321 -0.5377
 4906SOL    HW126351   2.983   4.511   2.981  0.1168  2.6255  0.5863
 4906SOL    HW226352   3.068   4.551   3.099  2.0591 -0.5140  0.0522
 4907SOL     OW26353   1.867   4.008   0.991 -0.2719  0.3910 -0.6963
 4907SOL    HW126354   1.868   4.065   1.068  1.3038 -0.5946  0.0055
 4907SOL    HW226355   1.930   3.937   1.000 -0.3005  0.5519  0.7800
 4908SOL     OW26356   2.381   0.223   3.012  0.4311  0.1572  0.1826
 4908SOL    HW126357   2.412   0.312   2.993 -1.3210  0.8303  0.4603
 4908SOL    HW226358   2.358   0.188   2.926  1.1244  0.3549 -0.0830
 4909SOL     OW26359   1.364   1.200  12.416  0.2603  0.1100  0.4941
 4909SOL    HW126360   1.271   1.190  12.434  0.2966  1.1343  1.1858
 4909SOL    HW226361   1.397   1.184  12.504 -0.4914  2.3181  1.1576
 4910SOL     OW26362   1.659   1.510   9.233  0.1757  0.4869 -0.0956
 4910SOL    HW126363   1.700   1.592   9.260 -0.4206  0.8355 -0.2459
 4910SOL    HW226364   1.687   1.454   9.305  1.4099 -0.2015 -1.1056
 4911SOL     OW26365   3.003   4.329   9.296 -0.4483  0.2335 -0.2182
 4911SOL    HW126366   2.926   4.355   9.245 -0.5290 -0.4351 -0.4408
 4911SOL    HW226367   3.016   4.410   9.345 -2.3252  0.9925 -0.9729
 4912SOL     OW26368   0.052   4.101   4.829 -0.2575  0.0760 -0.4805
 4912SOL    HW126369   0.115   4.107   4.900  0.1865 -0.4270 -0.8355
 4912SOL    HW226370   0.033   4.008   4.839 -2.1522  0.5581  0.4706
 4913SOL     OW26371   2.674   0.959   2.013  0.0531 -0.1728  0.4925
 4913SOL    HW126372   2.695   0.902   1.939 -0.6319 -0.2511  0.3548
 4913SOL    HW226373   2.703   0.894   2.077  1.5979  0.2117  0.1849
 4914SOL     OW26374   3.876   3.050   3.741  0.3400  0.2806 -0.4529
 4914SOL    HW126375   3.891   3.085   3.829 -1.1019  0.1069 -0.1438
 4914SOL    HW226376   3.948   2.988   3.741  0.6268  0.6081  0.7228
 4915SOL     OW26377   1.796   3.669  14.172  0.9786 -1.0931  0.1034
 4915SOL    HW126378   1.851   3.698  14.245  0.2945  0.6683 -0.0805
 4915SOL    HW226379   1.771   3.751  14.129 -0.0275 -0.7866  1.2841
 4916SOL     OW26380   1.940   1.844  13.571 -0.1673  0.2712 -0.2501
 4916SOL    HW126381   1.960   1.845  13.477  2.8292  0.1866  0.3994
 4916SOL    HW226382   1.857   1.796  13.573  0.4925 -0.7271  2.1981
 4917SOL     OW26383   2.745   1.173  13.761  0.6895  0.1358 -0.1734
 4917SOL    HW126384   2.716   1.240  13.822  0.9234  1.2060 -1.2418
 4917SOL    HW226385   2.735   1.098  13.820  1.6923 -0.5161 -0.8186
 4918SOL     OW26386   1.759   0.126   3.104 -0.0311 -0.5852 -1.0555
 4918SOL    HW126387   1.723   0.095   3.187  0.1466  0.5817 -0.5371
 4918SOL    HW226388   1.681   0.148   3.054  0.0439 -0.4711 -1.1236
 4919SOL     OW26389   1.318   2.714  12.258 -0.3433  0.0280 -0.2164
 4919SOL    HW126390   1.301   2.782  12.323  1.2063 -1.7098  2.0191
 4919SOL    HW226391   1.237   2.663  12.258 -1.1190  1.2701 -1.1707
 4920SOL     OW26392   1.076   3.900   6.810  0.0733 -0.1916  0.4525
 4920SOL    HW126393   1.006   3.867   6.866  1.9901 -1.8300  1.8626
 4920SOL    HW226394   1.161   3.876   6.848  0.0203 -0.8186  0.1777
 4921SOL     OW26395   0.654   2.098   6.422  0.3549 -0.2740 -0.4941
 4921SOL    HW126396   0.709   2.176   6.414  0.4073 -0.4653 -1.9703
 4921SOL    HW226397   0.718   2.036   6.455  1.6559  1.4314  0.1770
 4922SOL     OW26398   0.336   0.819   6.030 -0.2489  0.0256  0.0230
 4922SOL    HW126399   0.359   0.878   6.102 -0.9810  1.4100 -0.8667
 4922SOL    HW226400   0.362   0.869   5.952  1.3563 -1.1016 -0.1423
 4923SOL     OW26401   1.393   4.701   2.975 -0.4840 -0.1951  0.3049
 4923SOL    HW126402   1.409   0.002   3.061 -0.9241 -1.4659  0.9416
 4923SOL    HW226403   1.349   0.036   2.929 -0.1241 -0.6529 -0.7473
 4924SOL     OW26404   1.542   2.828   4.910 -0.0699 -0.9014  0.2224
 4924SOL    HW126405   1.625   2.810   4.865  1.1013 -0.5234  2.2583
 4924SOL    HW226406   1.508   2.903   4.861 -2.3399 -1.2263  1.2876
 4925SOL     OW26407   0.316   2.649   3.981  0.1105 -0.6140  0.4035
 4925SOL    HW126408   0.333   2.707   4.056 -0.4543  2.5152 -1.9144
 4925SOL    HW226409   0.340   2.565   4.023  0.4962 -0.3974  0.6210
 4926SOL     OW26410   4.543   3.912   5.509  0.5552 -0.0686 -0.6997
 4926SOL    HW126411   4.625   3.961   5.515  0.6510 -0.2353 -0.6496
 4926SOL    HW226412   4.521   3.914   5.602  1.1285  0.3581 -0.5793
 4927SOL     OW26413   1.744   3.226   6.512  0.2554 -0.1446  0.1600
 4927SOL    HW126414   1.834   3.257   6.502 -0.3423  0.5996 -2.8700
 4927SOL    HW226415   1.745   3.180   6.595  0.9855 -0.3849  0.0138
 4928SOL     OW26416   4.344   1.528  17.733  0.5773 -0.0138  0.7783
 4928SOL    HW126417   4.426   1.552   0.033  1.4508 -0.2438 -0.7459
 4928SOL    HW226418   4.278   1.570   0.044  0.2830 -3.2777  2.9118
 4929SOL     OW26419   0.468   4.215   4.369 -0.4753  0.5425 -0.4732
 4929SOL    HW126420   0.539   4.245   4.313 -0.9345  0.7996 -0.9156
 4929SOL    HW226421   0.525   4.160   4.423  1.4746  2.0168 -1.0526
 4930SOL     OW26422   0.991   0.060   6.377  0.1491 -0.4083  0.4453
 4930SOL    HW126423   0.972   4.716   6.426  0.9771 -1.9428 -1.7277
 4930SOL    HW226424   1.005   0.119   6.451  0.8349  0.2901 -0.2384
 4931SOL     OW26425   2.035   1.850   5.748  0.1584 -0.6113  0.1893
 4931SOL    HW126426   1.982   1.912   5.698 -0.2126 -0.2506  1.0318
 4931SOL    HW226427   2.120   1.891   5.760  0.4898 -0.8560 -1.2410
 4932SOL     OW26428   0.704   1.312   9.195  0.4932  0.2941 -0.2526
 4932SOL    HW126429   0.774   1.339   9.136  0.4782  0.2650 -0.2839
 4932SOL    HW226430   0.665   1.398   9.211 -1.6723 -0.8533  0.6867
 4933SOL     OW26431   1.494   3.605   8.857  0.1986 -0.1855 -0.5686
 4933SOL    HW126432   1.539   3.540   8.802 -0.4871 -2.1573  1.1890
 4933SOL    HW226433   1.535   3.577   8.938  1.8722  0.8319 -1.0640
 4934SOL     OW26434   0.448   4.225   1.951 -0.3888  0.0127  0.6018
 4934SOL    HW126435   0.485   4.149   1.905  0.3393  0.8425 -0.1831
 4934SOL    HW226436   0.531   4.267   1.973  1.5991 -3.2373 -0.7054
 4935SOL     OW26437   2.028   3.493   1.914 -0.4480  0.0674  0.1486
 4935SOL    HW126438   1.994   3.507   2.003 -1.1207  1.2066 -0.2889
 4935SOL    HW226439   2.025   3.398   1.910 -1.1286  0.1315 -0.8343
 4936SOL     OW26440   1.122   0.730   5.892 -0.1234 -0.0666 -0.0291
 4936SOL    HW126441   1.181   0.770   5.828 -2.0200  2.2449 -0.3129
 4936SOL    HW226442   1.078   0.802   5.937 -1.4058 -0.4511 -0.6600
 4937SOL     OW26443   2.061   2.296   5.324 -0.1992 -0.1483 -0.0048
 4937SOL    HW126444   2.059   2.202   5.308 -2.0491  0.0403 -0.9083
 4937SOL    HW226445   2.016   2.302   5.409  0.0890  1.6121  0.0163
 4938SOL     OW26446   2.993   4.671   5.312  0.3671 -0.1227 -0.4936
 4938SOL    HW126447   3.065   4.668   5.250  0.2953  0.2828 -0.5919
 4938SOL    HW226448   2.938   0.002   5.273  0.5632  0.1091 -0.3666
 4939SOL     OW26449   3.363   2.062  17.066 -0.2490  0.0261 -0.4649
 4939SOL    HW126450   3.344   2.141  17.015  1.9517  1.0322  0.2354
 4939SOL    HW226451   3.279   2.017  17.065 -0.4004  0.2675  0.8763
 4940SOL     OW26452   3.940   4.325   8.459 -0.1329 -0.1844 -0.2336
 4940SOL    HW126453   3.967   4.307   8.549 -1.6247 -1.4813 -0.0505
 4940SOL    HW226454   3.996   4.398   8.432 -0.0299 -0.2255 -0.1318
 4941SOL     OW26455   3.122   1.494   8.205 -0.0892  0.0528 -0.2054
 4941SOL    HW126456   3.124   1.569   8.146 -1.1316  0.7589  0.6576
 4941SOL    HW226457   3.194   1.509   8.267  1.3090  1.5772 -2.2193
 4942SOL     OW26458   3.765   3.662  14.849  0.8609  0.2020  0.3872
 4942SOL    HW126459   3.774   3.677  14.944  0.5119 -2.0556  0.7677
 4942SOL    HW226460   3.684   3.711  14.835  0.5884 -0.6356 -0.8942
 4943SOL     OW26461   2.093   4.410   8.207  0.1081 -0.7860 -0.0124
 4943SOL    HW126462   2.000   4.390   8.197  0.0375 -0.2149 -0.5121
 4943SOL    HW226463   2.117   4.408   8.114  1.7445  1.3089  0.3872
 4944SOL     OW26464   2.930   3.992   6.348  0.0337 -0.3676 -1.0868
 4944SOL    HW126465   2.910   4.084   6.365 -1.5748 -0.4701 -2.4062
 4944SOL    HW226466   2.924   3.957   6.437 -1.2554 -0.3824 -1.1850
 4945SOL     OW26467   4.500   2.668  13.575  0.1644 -0.2606 -0.7429
 4945SOL    HW126468   4.566   2.619  13.625 -0.1273 -0.0730 -0.1795
 4945SOL    HW226469   4.481   2.741  13.633  0.7305 -1.8436  1.4318
 4946SOL     OW26470   3.433   1.946   7.931  0.1319 -0.1915  0.6679
 4946SOL    HW126471   3.401   1.946   7.841  0.4424  1.8979  0.5649
 4946SOL    HW226472   3.494   1.872   7.932 -0.0134 -0.3206  0.0743
 4947SOL     OW26473   4.461   2.334  11.897 -0.5770 -0.0917  0.1378
 4947SOL    HW126474   4.539   2.367  11.851  0.9830 -2.7996  0.8450
 4947SOL    HW226475   4.415   2.286  11.828 -0.6694 -1.6824  1.3008
 4948SOL     OW26476   1.307   0.937   5.450  0.1402 -0.2332  0.6591
 4948SOL    HW126477   1.375   0.872   5.430 -1.5736 -2.2355  1.4224
 4948SOL    HW226478   1.239   0.905   5.391  0.3488  0.0873  0.2330
 4949SOL     OW26479   0.713   1.900   8.524  0.4576 -0.0420  0.2545
 4949SOL    HW126480   0.665   1.871   8.602  0.3287  2.2765  1.0345
 4949SOL    HW226481   0.738   1.819   8.480 -2.5196 -2.5375  3.2116
 4950SOL     OW26482   2.243   2.164   9.626 -0.3819  0.7777 -0.5117
 4950SOL    HW126483   2.231   2.098   9.695  2.2425 -0.5157 -1.2660
 4950SOL    HW226484   2.338   2.172   9.618 -0.4125  2.1012  0.4517
 4951SOL     OW26485   4.448   0.662   5.241 -0.4724  0.2644  0.0662
 4951SOL    HW126486   4.377   0.707   5.193  0.2069 -0.3467 -1.5145
 4951SOL    HW226487   4.528   0.705   5.212 -0.0138 -2.3013 -2.5239
 4952SOL     OW26488   4.401   2.344  12.163  0.6446 -0.3604 -0.0937
 4952SOL    HW126489   4.404   2.328  12.069 -1.7270  0.7796 -0.3478
 4952SOL    HW226490   4.395   2.258  12.204  1.0534  0.1987  1.1536
 4953SOL     OW26491   3.555   1.674   7.024  0.2829 -0.2957 -0.2671
 4953SOL    HW126492   3.589   1.696   7.111 -1.4998 -1.9042  0.8282
 4953SOL    HW226493   3.514   1.760   7.014 -0.6802 -0.8898 -1.3571
 4954SOL     OW26494   1.340   3.568   6.037  0.2730 -0.8691  0.3455
 4954SOL    HW126495   1.256   3.539   6.001  0.3186  1.9930 -2.0296
 4954SOL    HW226496   1.324   3.574   6.132 -0.2882 -0.8939  0.2499
 4955SOL     OW26497   1.605   2.171   2.208 -0.1126 -0.2169 -0.0730
 4955SOL    HW126498   1.576   2.094   2.159 -3.3203 -0.0140  1.5165
 4955SOL    HW226499   1.699   2.176   2.190 -0.3748  0.8702 -1.1500
 4956SOL     OW26500   3.969   1.897   6.123  0.1120 -0.3156  0.4902
 4956SOL    HW126501   3.884   1.865   6.093  1.9046 -2.3036 -2.4893
 4956SOL    HW226502   3.954   1.988   6.149  1.4960  0.6440 -2.0850
 4957SOL     OW26503   3.093   1.026   1.677  0.2320  0.3247  0.3165
 4957SOL    HW126504   3.037   0.949   1.670  0.7583 -0.2240  2.3530
 4957SOL    HW226505   3.120   1.040   1.586 -2.6267  2.6731 -0.1774
 4958SOL     OW26506   3.372   3.343   2.171  0.5171  0.5926  0.4553
 4958SOL    HW126507   3.284   3.342   2.208 -0.2205  1.2261 -1.2898
 4958SOL    HW226508   3.364   3.425   2.122  2.5589 -1.3432 -3.0961
 4959SOL     OW26509   3.683   4.674  14.356  0.5892  0.1178 -0.3107
 4959SOL    HW126510   3.696   4.736  14.427 -0.3766 -0.2097  0.1605
 4959SOL    HW226511   3.712   4.724  14.280  1.6474 -0.1946 -0.1143
 4960SOL     OW26512   0.664   2.327   8.514  0.5047  0.1967 -0.0995
 4960SOL    HW126513   0.626   2.400   8.465  0.7482 -0.7441 -1.6822
 4960SOL    HW226514   0.739   2.295   8.463 -0.6428 -1.2692 -0.8537
 4961SOL     OW26515   3.564   2.562   0.169  0.2582  0.1096  0.8711
 4961SOL    HW126516   3.535   2.472   0.151  4.2639 -0.9179 -0.2995
 4961SOL    HW226517   3.527   2.609   0.094 -0.2425 -0.1533  0.9519
 4962SOL     OW26518   0.935   1.480   3.339 -0.2504 -0.6415  0.2275
 4962SOL    HW126519   0.863   1.440   3.389 -0.9735  0.2962 -0.0662
 4962SOL    HW226520   0.980   1.542   3.395  0.6266  1.0829 -2.4176
 4963SOL     OW26521   4.000   2.045   9.077 -0.2216 -0.4583  0.1951
 4963SOL    HW126522   3.926   2.026   9.135  0.3748 -1.3919  0.6425
 4963SOL    HW226523   4.023   2.134   9.103 -1.3309  0.1998 -1.0421
 4964SOL     OW26524   4.686   0.046   2.452  0.4360  0.2088  0.1977
 4964SOL    HW126525   4.631   0.021   2.378  0.5529  2.9334 -0.8030
 4964SOL    HW226526   4.721   4.695   2.472 -2.9523 -1.7113 -2.2314
 4965SOL     OW26527   0.021   1.968   6.131  0.8964 -0.0537  0.2098
 4965SOL    HW126528   4.665   1.948   6.149  0.2749  1.4107 -1.4636
 4965SOL    HW226529   0.024   2.063   6.136  2.5355 -0.2031  2.1693
 4966SOL     OW26530   4.142   3.691   1.722 -0.3983 -0.4949  0.4476
 4966SOL    HW126531   4.079   3.687   1.650  2.5693  1.2008 -2.2765
 4966SOL    HW226532   4.219   3.730   1.680 -0.5062  0.2584  0.9405
 4967SOL     OW26533   0.701   4.595   5.070  0.4334 -0.4656  0.4164
 4967SOL    HW126534   0.674   4.585   4.979 -2.5203 -0.6273  1.3047
 4967SOL    HW226535   0.676   4.687   5.079  0.4552 -0.5683  1.5287
 4968SOL     OW26536   0.629   2.548  10.817  0.3633 -0.4308  0.4577
 4968SOL    HW126537   0.585   2.470  10.784 -2.5053  0.7152  1.5361
 4968SOL    HW226538   0.597   2.560  10.907  1.1647  0.3894  0.6368
 4969SOL     OW26539   2.605   3.729   6.686  0.3209 -0.7465  0.1313
 4969SOL    HW126540   2.523   3.761   6.724 -0.3277 -1.7985 -0.3863
 4969SOL    HW226541   2.606   3.787   6.610 -0.6136 -1.3277 -0.3274
 4970SOL     OW26542   2.806   1.130   4.935  0.1495  0.2281 -0.3040
 4970SOL    HW126543   2.710   1.127   4.929 -0.0751  3.5597  1.8092
 4970SOL    HW226544   2.822   1.045   4.977  0.5732 -0.0513 -1.0391
 4971SOL     OW26545   3.632   0.855   1.739  0.4511  0.0474 -0.2549
 4971SOL    HW126546   3.560   0.868   1.678  0.2695 -0.1215 -0.0785
 4971SOL    HW226547   3.607   0.924   1.801  1.0999  1.3827 -1.4689
 4972SOL     OW26548   0.994   0.902   2.313 -0.2352 -0.3898 -0.6266
 4972SOL    HW126549   0.915   0.847   2.319  2.6690 -4.4607 -0.0347
 4972SOL    HW226550   1.056   0.829   2.312  0.0480 -0.1252 -2.8948
 4973SOL     OW26551   0.104   3.709  10.267 -0.2446 -0.2936 -0.9853
 4973SOL    HW126552   0.052   3.779  10.306 -1.8318 -1.1552 -1.5706
 4973SOL    HW226553   0.029   3.662  10.231  0.2933  0.1022 -2.6461
 4974SOL     OW26554   3.247   3.137   7.669 -0.4981 -0.4715  0.0880
 4974SOL    HW126555   3.342   3.139   7.660 -0.4766 -0.5973  0.2700
 4974SOL    HW226556   3.239   3.169   7.759 -0.0720  3.2024 -1.2087
 4975SOL     OW26557   1.499   4.551   8.208 -0.2492 -0.4612 -0.1802
 4975SOL    HW126558   1.420   4.498   8.201 -0.2800 -0.4970  0.4607
 4975SOL    HW226559   1.561   4.491   8.249  2.1528  1.8533 -0.3666
 4976SOL     OW26560   3.730   3.698  11.879 -0.2004  0.0181 -0.6938
 4976SOL    HW126561   3.703   3.755  11.951  1.3730 -0.2719  0.1116
 4976SOL    HW226562   3.651   3.701  11.825 -1.2888 -0.4712  0.8839
 4977SOL     OW26563   4.051   1.945   4.152 -0.7135  1.1184 -0.2677
 4977SOL    HW126564   4.115   2.013   4.130 -0.5197  1.3313  0.9800
 4977SOL    HW226565   4.030   1.921   4.061 -2.0314  1.3032 -0.0120
 4978SOL     OW26566   1.440   0.174  10.542 -0.1395 -0.3684  0.0742
 4978SOL    HW126567   1.465   0.089  10.506 -0.3316 -0.4314  0.0861
 4978SOL    HW226568   1.361   0.144  10.588 -1.7221 -1.7147 -3.4326
 4979SOL     OW26569   3.787   0.339   9.623 -0.4339  1.1264  0.1037
 4979SOL    HW126570   3.783   0.432   9.644 -0.6478  0.8536  1.2730
 4979SOL    HW226571   3.752   0.300   9.703  2.0449 -3.2178 -0.9251
 4980SOL     OW26572   1.931   1.777   1.832  0.2303 -0.0500 -0.0517
 4980SOL    HW126573   1.874   1.703   1.852  2.3127 -1.5079  0.5369
 4980SOL    HW226574   1.882   1.847   1.876 -0.4660  0.2500 -1.3127
 4981SOL     OW26575   4.101   3.959  11.914  0.2359  0.0367 -0.5317
 4981SOL    HW126576   4.084   3.867  11.936 -1.5506  0.3081 -0.7994
 4981SOL    HW226577   4.022   3.983  11.866  1.4414  0.9475 -2.0395
 4982SOL     OW26578   1.755   1.891   1.637 -0.2568  0.1620 -0.1802
 4982SOL    HW126579   1.753   1.800   1.607 -0.1105  0.2211 -0.3680
 4982SOL    HW226580   1.696   1.930   1.573 -0.3027 -1.2454 -0.9919
 4983SOL     OW26581   3.747   4.732   2.724 -0.5481 -0.2569  0.6741
 4983SOL    HW126582   3.752   0.091   2.724  0.4361 -0.3086  0.2250
 4983SOL    HW226583   3.831   4.698   2.694 -1.2385 -2.1749  0.9341
 4984SOL     OW26584   0.760   2.422   4.873  0.6489  0.6088  0.4656
 4984SOL    HW126585   0.823   2.493   4.862 -0.2131  0.8461 -2.8360
 4984SOL    HW226586   0.821   2.355   4.904 -1.1086 -1.3491 -0.3122
 4985SOL     OW26587   3.488   3.392  15.605  0.2087  0.1302 -0.6967
 4985SOL    HW126588   3.514   3.483  15.590 -3.5828  1.0499 -1.6580
 4985SOL    HW226589   3.406   3.386  15.556 -0.5334  0.3520  0.5238
 4986SOL     OW26590   0.405   2.075   6.532 -0.0896 -0.0019 -0.4603
 4986SOL    HW126591   0.493   2.087   6.498 -0.4369 -0.8138 -1.6240
 4986SOL    HW226592   0.357   2.155   6.508  0.2638  1.3206  3.2974
 4987SOL     OW26593   2.764   3.856   2.112  0.6119  0.2233 -0.2370
 4987SOL    HW126594   2.690   3.825   2.059  0.9351 -1.9872  0.6252
 4987SOL    HW226595   2.787   3.941   2.073 -1.8214  1.3471  0.7844
 4988SOL     OW26596   0.259   2.051   5.644 -0.9028 -0.7517 -0.4518
 4988SOL    HW126597   0.238   2.024   5.733  0.2472 -0.4515 -0.1025
 4988SOL    HW226598   0.209   1.988   5.591  1.8498 -2.2957 -1.2171
 4989SOL     OW26599   0.716   1.038   6.650 -0.5906 -0.0811  0.5527
 4989SOL    HW126600   0.720   0.953   6.694  0.3921  0.5345  1.6782
 4989SOL    HW226601   0.731   1.100   6.722  0.2163  0.5370 -0.1417
 4990SOL     OW26602   3.935   4.706   6.944  0.2102  0.0900 -0.4657
 4990SOL    HW126603   3.922   4.735   6.854  0.1722 -0.1615 -0.5416
 4990SOL    HW226604   3.932   4.611   6.930  0.0551  0.5559 -3.5599
 4991SOL     OW26605   0.809   0.360   4.873  0.9313 -0.2510 -0.3004
 4991SOL    HW126606   0.881   0.306   4.905 -1.9975 -1.8966  3.4687
 4991SOL    HW226607   0.834   0.448   4.901 -0.3926  0.1997 -0.5155
 4992SOL     OW26608   4.074   1.799   7.483 -1.2281 -0.0539 -0.1429
 4992SOL    HW126609   4.081   1.809   7.388  0.1740  2.3867  0.2235
 4992SOL    HW226610   4.009   1.730   7.495 -0.7003 -0.7472 -1.2579
 4993SOL     OW26611   2.515   0.308   5.485 -0.8443 -0.4421  0.0558
 4993SOL    HW126612   2.422   0.301   5.507 -0.6076  1.1204  1.5081
 4993SOL    HW226613   2.540   0.394   5.517 -1.7258 -0.0368 -0.3675
 4994SOL     OW26614   1.103   2.767   1.067 -0.0078 -0.5572 -0.2115
 4994SOL    HW126615   1.052   2.691   1.040  1.4415 -1.7195  0.3723
 4994SOL    HW226616   1.159   2.768   0.989  1.5763 -1.2782  0.9339
 4995SOL     OW26617   4.349   4.470   3.570 -0.2881 -0.5946  0.0156
 4995SOL    HW126618   4.422   4.409   3.561  1.1415  1.0511  0.4539
 4995SOL    HW226619   4.284   4.416   3.525 -0.9679  1.7478 -1.8409
 4996SOL     OW26620   4.222   4.620   5.518 -0.3111  0.5348 -0.8615
 4996SOL    HW126621   4.315   4.599   5.527 -0.3367  1.0511  0.6084
 4996SOL    HW226622   4.217   4.715   5.532  2.8759  0.3379  1.7378
 4997SOL     OW26623   1.577   1.530   7.026 -0.0416 -0.4093  0.3525
 4997SOL    HW126624   1.583   1.573   6.941  1.4978  0.7226  1.0268
 4997SOL    HW226625   1.661   1.532   7.072  0.1614 -1.4966  0.0315
 4998SOL     OW26626   2.692   4.315   5.184 -0.1249 -0.0748  0.0958
 4998SOL    HW126627   2.757   4.258   5.144  0.1051  0.3048 -0.0649
 4998SOL    HW226628   2.711   4.403   5.153 -2.0294  0.5790  0.7405
 4999SOL     OW26629   1.065   2.573  15.716 -0.3464 -0.6193  0.4493
 4999SOL    HW126630   1.028   2.617  15.639 -0.3148  1.6145  1.6905
 4999SOL    HW226631   1.156   2.586  15.690  0.1699 -2.1676  1.5158
 5000SOL     OW26632   0.824   3.825   7.656 -0.4509 -0.3206  0.3937
 5000SOL    HW126633   0.877   3.902   7.635  0.3922 -0.1390  3.1093
 5000SOL    HW226634   0.892   3.772   7.696 -0.3623 -1.7909 -1.7394
 5001SOL     OW26635   0.283   4.468   3.510 -0.0773 -0.1081 -0.2559
 5001SOL    HW126636   0.373   4.477   3.542  0.1701 -0.9917 -0.6716
 5001SOL    HW226637   0.285   4.372   3.505  1.2339 -0.1208  0.3739
 5002SOL     OW26638   3.290   3.605   1.343 -0.3863 -0.0723 -0.0605
 5002SOL    HW126639   3.371   3.634   1.299  0.3483  0.0294  1.3654
 5002SOL    HW226640   3.276   3.519   1.305  0.8275 -0.2534 -0.1154
 5003SOL     OW26641   1.603   2.812   6.462 -0.7950  0.2990  0.1689
 5003SOL    HW126642   1.604   2.784   6.371  2.0882 -0.1337  0.3500
 5003SOL    HW226643   1.575   2.733   6.509  0.3510 -0.0040  0.3538
 5004SOL     OW26644   1.862   1.522   7.772 -0.0019 -0.5268  0.6476
 5004SOL    HW126645   1.819   1.512   7.858  1.1045  2.6961  1.5679
 5004SOL    HW226646   1.785   1.556   7.726 -0.8770  0.1821  2.6383
 5005SOL     OW26647   2.335   1.208   8.276 -0.6527  0.3055 -0.3000
 5005SOL    HW126648   2.244   1.235   8.263 -0.2307  3.1864  2.7787
 5005SOL    HW226649   2.373   1.296   8.279 -1.6618  0.7018  1.1045
 5006SOL     OW26650   3.303   2.618   6.741 -0.2411 -0.4755 -0.3289
 5006SOL    HW126651   3.304   2.693   6.681 -1.0728 -0.4655 -0.3296
 5006SOL    HW226652   3.262   2.546   6.693 -2.1250 -0.2201  0.8771
 5007SOL     OW26653   1.442   1.550   2.849  0.1827  0.0488  0.0408
 5007SOL    HW126654   1.404   1.636   2.865 -0.6373 -0.3271  0.1255
 5007SOL    HW226655   1.409   1.491   2.916 -0.3349  1.2107  0.8064
 5008SOL     OW26656   1.906   4.076   3.331  0.3207  0.4442  0.2520
 5008SOL    HW126657   1.865   4.139   3.390  0.3019 -1.2865  2.0643
 5008SOL    HW226658   1.871   4.100   3.245  0.5000  2.4917  0.7302
 5009SOL     OW26659   2.866   3.769   4.666 -0.4757  0.2646  0.0763
 5009SOL    HW126660   2.856   3.679   4.635  0.4803 -0.4893  1.9437
 5009SOL    HW226661   2.881   3.752   4.759 -0.4688 -4.7866 -0.8231
 5010SOL     OW26662   2.143   4.096   4.768 -0.2601 -0.0026 -0.1256
 5010SOL    HW126663   2.070   4.035   4.757 -0.0017 -0.5505  1.1518
 5010SOL    HW226664   2.180   4.058   4.848 -0.9276 -0.5906 -0.0962
 5011SOL     OW26665   3.837   4.198  15.157  0.2248 -0.1369 -0.1763
 5011SOL    HW126666   3.776   4.219  15.086 -0.0636 -1.1711 -0.2335
 5011SOL    HW226667   3.844   4.282  15.202 -1.6277  0.4487 -1.0034
 5012SOL     OW26668   1.500   1.544   4.220 -0.1037  0.0180  0.3839
 5012SOL    HW126669   1.533   1.471   4.167  0.5723  0.4388  0.2260
 5012SOL    HW226670   1.473   1.609   4.156  3.0559 -1.9322 -2.9305
 5013SOL     OW26671   0.661   2.560   4.087  0.2516  0.6859 -0.3425
 5013SOL    HW126672   0.661   2.586   3.995  0.5062  0.6873 -0.3419
 5013SOL    HW226673   0.731   2.615   4.124 -0.1051  1.8691 -1.4217
 5014SOL     OW26674   2.378   3.094   9.261  0.2715 -0.5895  0.5340
 5014SOL    HW126675   2.346   3.082   9.351  1.7578 -0.4210  1.1003
 5014SOL    HW226676   2.467   3.125   9.277 -0.2737  0.6313  1.1969
 5015SOL     OW26677   2.398   2.766  17.356 -0.0751 -0.2948 -0.1174
 5015SOL    HW126678   2.323   2.814  17.320 -0.6863 -1.8926 -0.9384
 5015SOL    HW226679   2.383   2.800  17.445  1.7327  1.5583 -0.5149
 5016SOL     OW26680   3.766   0.081   2.424  0.2987  0.5282  0.1473
 5016SOL    HW126681   3.851   0.112   2.391 -0.5782  1.9318 -0.7636
 5016SOL    HW226682   3.778   4.724   2.442 -0.0663  0.6173  0.8426
 5017SOL     OW26683   2.791   0.940   1.112 -0.1020  0.2981  0.4116
 5017SOL    HW126684   2.772   0.847   1.115  0.1922  0.2859  2.0902
 5017SOL    HW226685   2.723   0.981   1.059 -0.1476 -0.0610  0.1930
 5018SOL     OW26686   4.329   2.250   2.739 -0.0711 -0.1907 -0.2716
 5018SOL    HW126687   4.391   2.226   2.670  1.9965 -0.2952  1.5880
 5018SOL    HW226688   4.294   2.163   2.761  1.7073 -1.0687 -0.8925
 5019SOL     OW26689   1.224   0.209   5.709 -0.2501  0.0670 -0.2625
 5019SOL    HW126690   1.282   0.140   5.677  1.2390  1.8658 -1.4600
 5019SOL    HW226691   1.272   0.292   5.715  1.5822 -0.9057 -1.7800
 5020SOL     OW26692   0.595   0.560   2.741  0.0369 -0.4399  0.6748
 5020SOL    HW126693   0.605   0.610   2.660 -2.6910 -0.2582  0.4326
 5020SOL    HW226694   0.551   0.621   2.800 -1.2588 -0.1269 -0.6295
 5021SOL     OW26695   0.777   2.700   9.075  0.3171  0.0336  0.2111
 5021SOL    HW126696   0.779   2.684   9.169 -1.4893 -1.7630 -0.0677
 5021SOL    HW226697   0.842   2.771   9.075 -0.6012  0.8678  3.4649
 5022SOL     OW26698   0.718   3.835   9.278  0.2558  0.1047 -0.6623
 5022SOL    HW126699   0.708   3.762   9.339 -1.5686 -0.6756 -1.8910
 5022SOL    HW226700   0.705   3.903   9.343 -0.7818  1.2189 -2.0344
 5023SOL     OW26701   1.434   4.697   4.240 -0.6273  0.0017 -0.3340
 5023SOL    HW126702   1.459   0.049   4.267  1.0493 -0.4884 -0.2486
 5023SOL    HW226703   1.338   4.691   4.241 -0.6240 -0.2087 -1.8849
 5024SOL     OW26704   3.840   3.900   8.685  0.3014  0.2118 -0.3313
 5024SOL    HW126705   3.857   3.810   8.715  0.0455  1.4596  3.5652
 5024SOL    HW226706   3.753   3.892   8.645  1.1800  0.9745 -2.3656
 5025SOL     OW26707   3.175   2.715   8.138  0.3205 -0.0084 -0.2352
 5025SOL    HW126708   3.157   2.642   8.197 -2.1597  1.9903  1.4894
 5025SOL    HW226709   3.269   2.712   8.125 -0.0232 -0.1342 -2.6383
 5026SOL     OW26710   4.543   1.982   1.805 -0.0033 -0.3449  0.0160
 5026SOL    HW126711   4.467   2.032   1.777 -0.1828 -1.0028 -0.6956
 5026SOL    HW226712   4.613   2.016   1.749  1.8058 -2.5654  0.9338
 5027SOL     OW26713   3.101   4.066  12.299  0.0528 -0.1861 -0.0509
 5027SOL    HW126714   3.176   4.046  12.242 -0.7597  1.3639 -1.6456
 5027SOL    HW226715   3.148   4.095  12.378 -2.7777  1.3040  1.0670
 5028SOL     OW26716   1.078   3.465   7.870 -0.0952  0.2365  0.7391
 5028SOL    HW126717   1.171   3.478   7.889 -0.3615  1.0269  1.5741
 5028SOL    HW226718   1.055   3.552   7.836  0.2011 -0.1571 -0.4329
 5029SOL     OW26719   4.632   0.238  13.966 -0.3719  0.1856  0.0596
 5029SOL    HW126720   4.626   0.153  13.923 -1.1447  0.0068  0.5054
 5029SOL    HW226721   4.563   0.284  13.918 -0.5768  0.8910  1.0354
 5030SOL     OW26722   3.485   4.582  16.729 -0.7124  0.3819 -0.2696
 5030SOL    HW126723   3.442   4.634  16.662  1.5627  1.4844 -0.8573
 5030SOL    HW226724   3.573   4.575  16.692 -0.5222 -0.0939  0.2736
 5031SOL     OW26725   2.665   3.300   6.303  0.2028 -0.3835  0.0731
 5031SOL    HW126726   2.595   3.366   6.308  1.0344  0.6363 -1.6129
 5031SOL    HW226727   2.647   3.261   6.217  3.3072 -0.3088 -0.6255
 5032SOL     OW26728   2.012   2.663   1.611 -0.1778 -0.5135  0.0796
 5032SOL    HW126729   2.105   2.676   1.632 -0.6769 -0.5798  2.3167
 5032SOL    HW226730   1.995   2.575   1.643 -0.8335  0.1935  1.6626
 5033SOL     OW26731   2.235   0.238   8.797 -0.4952 -0.4526  0.3442
 5033SOL    HW126732   2.301   0.175   8.767  1.7355  1.5826  1.0181
 5033SOL    HW226733   2.215   0.285   8.716 -0.1757  0.4793  0.8025
 5034SOL     OW26734   1.792   1.688   5.718  0.0249 -0.7110 -0.4174
 5034SOL    HW126735   1.878   1.714   5.748  0.0866 -1.6131  0.2031
 5034SOL    HW226736   1.754   1.656   5.800  1.4280 -0.9748  0.1318
 5035SOL     OW26737   4.442   4.592  15.330 -0.2845 -0.0333 -0.1841
 5035SOL    HW126738   4.474   4.534  15.262  2.7816  0.2974  0.9929
 5035SOL    HW226739   4.366   4.550  15.371 -0.3402  0.5524  0.3144
 5036SOL     OW26740   2.500   0.446   6.365  0.2692  0.4723 -0.2486
 5036SOL    HW126741   2.453   0.505   6.307 -1.8984 -0.1761  0.8334
 5036SOL    HW226742   2.427   0.424   6.424  0.2521  1.6923  0.1684
 5037SOL     OW26743   3.596   0.740   6.689 -0.0725 -0.3115  0.0997
 5037SOL    HW126744   3.514   0.705   6.655  0.5919 -2.1389  0.3868
 5037SOL    HW226745   3.632   0.767   6.605  1.0599 -0.0974  0.6524
 5038SOL     OW26746   4.019   0.158  14.297 -0.2383  0.1396  0.7110
 5038SOL    HW126747   4.007   0.063  14.300  1.4766 -0.0425  2.0892
 5038SOL    HW226748   4.081   0.167  14.226 -1.3442  3.4783  0.1889
 5039SOL     OW26749   1.015   0.245   5.927  0.0187  0.0912  0.9508
 5039SOL    HW126750   0.949   0.230   5.860  0.4749 -0.0740  0.5415
 5039SOL    HW226751   1.092   0.199   5.894 -0.4778 -0.6802  0.8832
 5040SOL     OW26752   3.875   4.356   9.311  0.1006  0.4112  0.6207
 5040SOL    HW126753   3.967   4.335   9.299  0.1079  1.4715 -1.1174
 5040SOL    HW226754   3.887   4.450   9.325  0.3810  0.7304 -1.7668
 5041SOL     OW26755   3.554   3.111  15.051  0.1382  0.4510  1.0157
 5041SOL    HW126756   3.465   3.074  15.045  0.0662  0.7427  0.2357
 5041SOL    HW226757   3.605   3.030  15.054 -1.8417 -0.7877  1.3889
 5042SOL     OW26758   1.676   4.545   7.749 -0.4785 -0.4216 -0.7314
 5042SOL    HW126759   1.654   4.606   7.679 -0.8219  0.0872 -0.1847
 5042SOL    HW226760   1.718   4.606   7.809 -2.4946  1.2775 -1.0205
 5043SOL     OW26761   4.688   3.409   9.682 -0.4280 -0.3968  0.3053
 5043SOL    HW126762   0.047   3.419   9.680 -0.5203  0.3574 -0.0165
 5043SOL    HW226763   4.680   3.368   9.768 -0.6780 -1.8214 -0.3996
 5044SOL     OW26764   1.057   2.875   9.268 -0.2667  0.8444  0.3978
 5044SOL    HW126765   0.993   2.941   9.294 -2.3959 -0.7294 -0.8703
 5044SOL    HW226766   1.111   2.862   9.346  0.0390  0.4265  0.1136
 5045SOL     OW26767   3.833   2.748   6.398 -0.0659 -0.1604  0.1277
 5045SOL    HW126768   3.929   2.743   6.406  0.1616  2.5366 -0.7365
 5045SOL    HW226769   3.817   2.663   6.358 -2.5416  0.3982 -0.0323
 5046SOL     OW26770   1.829   2.411   4.592 -0.0780  0.4047  0.5415
 5046SOL    HW126771   1.917   2.438   4.617  0.3060 -1.5696  1.2919
 5046SOL    HW226772   1.776   2.490   4.608  0.6123  1.3237 -1.7368
 5047SOL     OW26773   3.060   0.154   2.749  0.4643 -0.0998  1.0016
 5047SOL    HW126774   3.097   0.235   2.783 -1.1000  1.1684 -0.3422
 5047SOL    HW226775   3.022   0.181   2.666 -2.1684 -2.7125  1.3494
 5048SOL     OW26776   3.203   3.724   7.699 -0.9329  0.4055  0.1061
 5048SOL    HW126777   3.108   3.714   7.688 -0.5459 -1.2737 -1.6336
 5048SOL    HW226778   3.223   3.633   7.720  0.6104  0.6152 -0.4816
 5049SOL     OW26779   3.706   3.466   1.957 -0.0914 -0.2872  0.4904
 5049SOL    HW126780   3.793   3.495   1.930  0.0989 -0.3598  1.0287
 5049SOL    HW226781   3.688   3.509   2.041  0.1767 -0.2102  0.5081
 5050SOL     OW26782   3.074   1.363   0.301  0.2161  0.2611  0.0168
 5050SOL    HW126783   3.037   1.450   0.319  0.4819  0.0235  1.7543
 5050SOL    HW226784   3.164   1.376   0.329  0.1806  0.1777  0.1752
 5051SOL     OW26785   0.914   4.419   0.529  0.0403  0.3510 -0.2299
 5051SOL    HW126786   0.957   4.483   0.586  2.6863  1.4538 -3.4935
 5051SOL    HW226787   0.947   4.435   0.441  2.7519 -0.7451  0.6037
 5052SOL     OW26788   4.729   0.787   7.738  0.0988 -0.2040  0.4984
 5052SOL    HW126789   4.651   0.760   7.691 -0.7688  0.6208  1.4577
 5052SOL    HW226790   0.005   0.707   7.789 -1.0606 -0.0113  1.0780
 5053SOL     OW26791   1.663   1.480   4.856 -0.5380 -0.1334 -0.1306
 5053SOL    HW126792   1.697   1.421   4.787 -1.1814 -1.2092  0.4687
 5053SOL    HW226793   1.579   1.439   4.874  0.3797 -1.4808  1.1049
 5054SOL     OW26794   2.364   1.710   4.710 -0.2666  0.3361 -0.1446
 5054SOL    HW126795   2.318   1.785   4.671  0.1541 -0.0766 -1.4356
 5054SOL    HW226796   2.299   1.675   4.770 -0.2476 -1.2682 -1.0781
 5055SOL     OW26797   2.627   4.224   2.396  0.3719  0.3252 -0.2415
 5055SOL    HW126798   2.626   4.311   2.435 -1.2313  0.4077 -0.4453
 5055SOL    HW226799   2.635   4.159   2.466  1.1585  1.3158  0.5927
 5056SOL     OW26800   3.212   4.673   2.800 -0.5951  0.2522 -0.1013
 5056SOL    HW126801   3.186   4.628   2.881  2.7598  1.0954  1.4548
 5056SOL    HW226802   3.157   0.015   2.794 -0.0455  0.5356 -1.4830
 5057SOL     OW26803   2.911   4.729   6.945  0.0341  0.0700  0.2196
 5057SOL    HW126804   2.840   4.722   7.008 -2.1929  2.5364 -1.9958
 5057SOL    HW226805   2.928   4.639   6.918 -1.1405 -0.1895  0.3450
 5058SOL     OW26806   4.229   0.592   4.761 -0.0171  0.2470  0.4237
 5058SOL    HW126807   4.158   0.540   4.724  0.8202 -0.4906 -0.1674
 5058SOL    HW226808   4.302   0.532   4.745  1.2437  1.2397  2.4055
 5059SOL     OW26809   4.524   2.062   4.185  0.8367 -0.5709  0.5520
 5059SOL    HW126810   4.541   2.149   4.221 -0.1908 -0.3903  0.5824
 5059SOL    HW226811   4.484   2.014   4.257  0.9287 -2.9220 -0.9500
 5060SOL     OW26812   0.150   0.972   8.176 -0.3583  0.7734 -0.0660
 5060SOL    HW126813   0.101   0.992   8.256  1.1162  3.3484  0.1820
 5060SOL    HW226814   0.081   0.990   8.112 -0.0218  0.2878 -0.5626
 5061SOL     OW26815   0.091   1.404   1.863  0.0671 -0.0370  0.1796
 5061SOL    HW126816   4.732   1.401   1.859  0.0807  0.9659 -0.8973
 5061SOL    HW226817   0.106   1.377   1.954 -1.5295 -2.5532 -0.3136
 5062SOL     OW26818   4.100   3.229  11.637 -0.5494  0.1317 -0.0361
 5062SOL    HW126819   4.108   3.197  11.726  2.7573 -0.3793 -0.5345
 5062SOL    HW226820   4.121   3.152  11.584 -0.1780 -1.3433  2.2838
 5063SOL     OW26821   4.670   2.842   7.647  0.0065  0.0912 -0.0751
 5063SOL    HW126822   4.734   2.789   7.694 -0.0688  0.2986  0.2571
 5063SOL    HW226823   4.586   2.820   7.688  1.9853 -2.9539  2.3604
 5064SOL     OW26824   1.892   2.139   2.124  0.7544  0.2808  0.1329
 5064SOL    HW126825   1.910   2.233   2.131 -0.8299  0.7760 -2.3924
 5064SOL    HW226826   1.967   2.116   2.178  1.9411  1.1437 -1.1578
 5065SOL     OW26827   2.031   3.578   8.447 -0.3277 -0.0052  0.3455
 5065SOL    HW126828   2.111   3.533   8.474  0.0305  0.7577  0.5569
 5065SOL    HW226829   2.048   3.672   8.438 -1.1628  0.3656  2.5142
 5066SOL     OW26830   4.145   0.928   7.818  0.0356 -0.3178 -0.0287
 5066SOL    HW126831   4.146   0.859   7.752  2.5935 -0.3664  0.0580
 5066SOL    HW226832   4.071   0.981   7.787 -0.3397 -0.4813  0.5870
 5067SOL     OW26833   2.148   4.348   6.646  0.0514  0.1971  0.1785
 5067SOL    HW126834   2.151   4.443   6.636  2.5874 -0.0010 -1.0794
 5067SOL    HW226835   2.066   4.331   6.599 -0.0948 -0.5309  0.6909
 5068SOL     OW26836   2.554   3.845   9.233  0.1539  0.7959 -0.5738
 5068SOL    HW126837   2.522   3.870   9.146 -2.6586 -0.9488 -0.0090
 5068SOL    HW226838   2.573   3.753   9.215 -0.9122  0.5181 -0.2911
 5069SOL     OW26839   3.447   3.640   5.412  0.0898  0.2184  0.1829
 5069SOL    HW126840   3.421   3.694   5.486 -0.3051 -1.0467  0.9730
 5069SOL    HW226841   3.484   3.567   5.462 -1.0548 -1.2101 -1.0667
 5070SOL     OW26842   1.308   4.367   8.176  0.0582  0.1246 -0.2219
 5070SOL    HW126843   1.278   4.331   8.093  0.3965  0.4438 -0.4833
 5070SOL    HW226844   1.228   4.379   8.227  1.8227  2.3458  2.0412
 5071SOL     OW26845   3.594   3.203   3.731  0.4183  0.0342 -0.4005
 5071SOL    HW126846   3.603   3.262   3.806 -2.7386 -0.3046  0.2526
 5071SOL    HW226847   3.682   3.177   3.705  0.0710 -1.1468 -0.3853
 5072SOL     OW26848   3.370   3.463   7.785 -0.1403  0.6400  0.5991
 5072SOL    HW126849   3.299   3.403   7.808  0.8329 -0.0482  1.7628
 5072SOL    HW226850   3.388   3.445   7.693  1.8928  1.0120  0.9351
 5073SOL     OW26851   1.509   1.768   7.478  0.3999 -0.0307 -0.3627
 5073SOL    HW126852   1.496   1.773   7.383  0.7067  0.3655 -0.3803
 5073SOL    HW226853   1.416   1.764   7.498  0.4983  1.1239  0.3141
 5074SOL     OW26854   1.722   0.103   3.377  0.4380 -0.1410  0.2073
 5074SOL    HW126855   1.669   0.171   3.419  0.5794 -1.7279  2.9732
 5074SOL    HW226856   1.675   0.021   3.390 -1.4192  0.9203  0.2216
 5075SOL     OW26857   0.280   2.988   7.028 -0.0746 -0.3790 -0.6902
 5075SOL    HW126858   0.281   2.925   6.956  1.4687 -2.1949  0.9115
 5075SOL    HW226859   0.206   2.966   7.084 -0.8979  0.7478 -1.3526
 5076SOL     OW26860   2.682   3.815   3.187 -0.7075 -0.5283 -0.2052
 5076SOL    HW126861   2.765   3.773   3.166 -0.1812 -0.5017  1.7628
 5076SOL    HW226862   2.711   3.906   3.183 -1.6700 -0.2781 -1.3186
 5077SOL     OW26863   1.671   0.108   8.538 -0.0646  0.0182  0.3134
 5077SOL    HW126864   1.670   0.080   8.629 -1.0600  0.7432  0.5207
 5077SOL    HW226865   1.673   0.202   8.553 -0.5615 -0.1758  1.5722
 5078SOL     OW26866   1.342   2.672   3.786 -0.4831 -0.7723  0.3018
 5078SOL    HW126867   1.403   2.730   3.832 -1.7461 -0.1815  1.2436
 5078SOL    HW226868   1.339   2.730   3.710 -2.3478 -3.2468 -1.5178
 5079SOL     OW26869   1.212   4.103   6.368 -0.1490  0.5525 -0.3506
 5079SOL    HW126870   1.274   4.172   6.391  0.7324 -1.0748  2.0892
 5079SOL    HW226871   1.159   4.111   6.447 -1.2423 -1.7240 -0.8558
 5080SOL     OW26872   2.555   3.556   3.838  0.3750  0.5896 -0.6123
 5080SOL    HW126873   2.643   3.526   3.817  0.3127 -0.7907  1.1271
 5080SOL    HW226874   2.525   3.571   3.749  1.2559  2.0727 -0.6683
 5081SOL     OW26875   3.823   0.149   6.153  0.2188 -0.2666  0.4110
 5081SOL    HW126876   3.826   0.134   6.248  0.2866  0.5746  0.5469
 5081SOL    HW226877   3.818   0.245   6.154 -1.4193 -0.3511 -1.2110
 5082SOL     OW26878   2.955   1.133   5.319  1.1918 -0.1001 -0.4424
 5082SOL    HW126879   2.996   1.059   5.365  0.4926 -0.6399 -0.6885
 5082SOL    HW226880   2.917   1.082   5.248  0.7920 -1.5608  0.8283
 5083SOL     OW26881   1.227   0.524   6.015 -0.3117  0.4978  0.5561
 5083SOL    HW126882   1.163   0.580   5.972  0.0442 -0.0968 -0.7630
 5083SOL    HW226883   1.184   0.492   6.094  1.5076 -0.4229  1.1827
 5084SOL     OW26884   0.232   0.582   7.063  0.2637  0.0984  0.5978
 5084SOL    HW126885   0.158   0.593   7.122 -1.6331  1.5745 -2.0374
 5084SOL    HW226886   0.302   0.558   7.123  0.6041 -0.7682 -0.1392
 5085SOL     OW26887   3.175   2.381  12.246 -0.3675 -0.8719 -0.7541
 5085SOL    HW126888   3.143   2.465  12.212 -2.0357 -0.0301  2.8263
 5085SOL    HW226889   3.243   2.347  12.189 -0.2445 -0.0583 -1.0865
 5086SOL     OW26890   2.808   3.665   9.968  0.1682 -0.1712 -0.1480
 5086SOL    HW126891   2.736   3.653  10.030  0.1445 -1.4588 -0.4225
 5086SOL    HW226892   2.855   3.582   9.980 -0.6139 -0.4766  0.7579
 5087SOL     OW26893   2.964   4.536   9.475 -0.1371 -0.3773 -0.6319
 5087SOL    HW126894   2.952   4.619   9.430 -0.2111 -0.8365 -1.4535
 5087SOL    HW226895   2.875   4.502   9.486 -0.9533  1.8238 -0.5997
 5088SOL     OW26896   3.457   0.857   9.309 -0.3854  0.0780  0.7681
 5088SOL    HW126897   3.389   0.860   9.242 -0.9882  0.5563  1.4043
 5088SOL    HW226898   3.438   0.943   9.347  2.6374  1.7794 -1.6016
 5089SOL     OW26899   0.357   1.270  10.392  0.1319 -0.0283  0.1227
 5089SOL    HW126900   0.320   1.282  10.479  0.5217 -1.4071  0.4732
 5089SOL    HW226901   0.291   1.214  10.352  1.5392 -1.1858 -0.6111
 5090SOL     OW26902   0.896   0.360   8.569 -0.0083 -0.3846  0.1500
 5090SOL    HW126903   0.846   0.407   8.637  1.6821  1.5494  0.0807
 5090SOL    HW226904   0.986   0.380   8.592  0.3506  0.7055 -2.2015
 5091SOL     OW26905   0.823   0.294  14.070 -0.2630  0.0047 -0.4975
 5091SOL    HW126906   0.770   0.367  14.036 -0.2183  0.2278 -0.0870
 5091SOL    HW226907   0.893   0.341  14.114 -1.2587  1.6746 -0.6882
 5092SOL     OW26908   0.658   1.120  13.586  0.2134 -0.3072 -0.3414
 5092SOL    HW126909   0.593   1.071  13.636 -2.2746  1.4839 -1.8507
 5092SOL    HW226910   0.634   1.211  13.597 -0.7500 -0.5705 -0.2891
 5093SOL     OW26911   3.607   4.617  15.733  0.2005  0.1976  0.2142
 5093SOL    HW126912   3.636   4.668  15.657 -0.3839 -1.9181 -1.4154
 5093SOL    HW226913   3.630   4.524  15.725  0.6518  0.3408 -0.1966
 5094SOL     OW26914   2.128   0.929   3.113 -0.3023 -0.3740 -0.1247
 5094SOL    HW126915   2.119   0.945   3.019  0.3941  1.3734  0.0976
 5094SOL    HW226916   2.053   0.879   3.144 -0.4744 -0.2518 -0.3399
 5095SOL     OW26917   0.602   4.571  15.335 -0.0781 -0.1812 -0.5561
 5095SOL    HW126918   0.672   4.552  15.397  1.4578 -0.9253 -2.5130
 5095SOL    HW226919   0.555   4.644  15.374  0.8660 -0.0192  0.2677
 5096SOL     OW26920   1.773   2.152   1.802 -0.4479 -0.5773 -0.4382
 5096SOL    HW126921   1.834   2.123   1.735 -1.3976 -2.0250 -0.6650
 5096SOL    HW226922   1.791   2.088   1.871 -0.3318  1.8777  1.8228
 5097SOL     OW26923   1.327   4.150   7.489  0.3459  0.5717  0.4191
 5097SOL    HW126924   1.312   4.224   7.429 -1.8495 -0.1710  0.0543
 5097SOL    HW226925   1.333   4.073   7.433  0.0117  0.8164  0.0425
 5098SOL     OW26926   3.126   4.531   6.425 -0.7015  0.1554  0.1382
 5098SOL    HW126927   3.149   4.623   6.422 -3.6683  0.8246 -1.6806
 5098SOL    HW226928   3.031   4.537   6.420 -0.5160  1.1532 -2.0106
 5099SOL     OW26929   4.127   0.053  17.105 -0.6237 -0.1075 -0.4560
 5099SOL    HW126930   4.102   0.065  17.013 -1.2223 -0.8607 -0.3900
 5099SOL    HW226931   4.076   0.126  17.143  1.6337  1.0142  0.4010
 5100SOL     OW26932   1.406   3.772   5.593 -0.1389 -0.5264 -0.1609
 5100SOL    HW126933   1.412   3.765   5.688 -1.7026 -0.4888 -0.0565
 5100SOL    HW226934   1.460   3.850   5.581 -0.2507 -0.5672 -0.9572
 5101SOL     OW26935   4.396   4.643   7.539 -0.8666  0.0831 -0.1283
 5101SOL    HW126936   4.473   4.638   7.595 -0.4262 -1.7497 -0.8825
 5101SOL    HW226937   4.433   4.581   7.476  1.6354 -1.5550  2.9626
 5102SOL     OW26938   0.595   3.234  13.535 -1.0522  0.0161  0.5845
 5102SOL    HW126939   0.594   3.166  13.602 -0.6371 -0.4215  0.1416
 5102SOL    HW226940   0.511   3.276  13.556 -0.7860  0.9787 -0.2876
 5103SOL     OW26941   4.158   2.060  17.051  0.3081  0.0070 -0.0025
 5103SOL    HW126942   4.187   2.123  17.117  1.1409  1.4946 -1.7788
 5103SOL    HW226943   4.156   2.118  16.975 -3.0161  1.0796  0.9467
 5104SOL     OW26944   0.443   4.651  12.217 -0.5662  0.0137 -0.2299
 5104SOL    HW126945   0.527   4.697  12.216 -0.3714 -0.2962  2.2655
 5104SOL    HW226946   0.476   4.592  12.149 -0.7310 -0.0625 -0.2451
 5105SOL     OW26947   3.189   0.659   6.865 -0.4166 -0.0969 -0.4360
 5105SOL    HW126948   3.208   0.735   6.920 -0.0890  0.9098 -1.9295
 5105SOL    HW226949   3.096   0.651   6.888 -0.3832  0.7037 -0.0565
 5106SOL     OW26950   4.536   2.444   3.951 -0.4777  0.3842  0.4155
 5106SOL    HW126951   4.531   2.362   3.902  1.2506  0.5208  0.0104
 5106SOL    HW226952   4.443   2.449   3.972 -0.1123  0.8218  1.9415
 5107SOL     OW26953   3.614   0.308   7.728 -0.4413 -0.6802 -0.1050
 5107SOL    HW126954   3.534   0.360   7.737  0.7172  1.3112 -1.3279
 5107SOL    HW226955   3.652   0.334   7.644  0.5785 -0.9281  0.2891
 5108SOL     OW26956   2.098   2.639   8.472  0.2388 -0.4771  0.0214
 5108SOL    HW126957   2.166   2.703   8.449  1.4300 -0.3782  3.8415
 5108SOL    HW226958   2.106   2.600   8.385  1.3812 -1.1269  0.4211
 5109SOL     OW26959   0.903   2.718  12.492  0.4459  0.2334  0.2049
 5109SOL    HW126960   0.924   2.668  12.571 -2.0570 -0.1999  0.6100
 5109SOL    HW226961   0.808   2.710  12.478  0.3328  3.6978 -0.9502
 5110SOL     OW26962   3.457   3.162   5.585  0.3854 -0.5987 -0.5604
 5110SOL    HW126963   3.457   3.126   5.496 -1.6864 -0.4676 -0.6183
 5110SOL    HW226964   3.465   3.081   5.634 -2.4432 -1.8780 -2.2149
 5111SOL     OW26965   3.164   1.857  17.056 -0.7462  0.1144  0.3335
 5111SOL    HW126966   3.165   1.777  17.003  2.5195 -0.0570  0.6358
 5111SOL    HW226967   3.092   1.832  17.114 -1.1066  1.5079  0.4786
 5112SOL     OW26968   1.754   0.245  16.001 -0.7504 -0.5805 -0.6465
 5112SOL    HW126969   1.708   0.262  16.083  1.5202  1.1764  0.2567
 5112SOL    HW226970   1.750   0.150  16.015  0.4769 -0.6368 -0.6617
 5113SOL     OW26971   1.394   1.218   8.409  0.0241 -0.1373  0.0381
 5113SOL    HW126972   1.302   1.198   8.390 -1.0519  4.2648  0.7478
 5113SOL    HW226973   1.420   1.150   8.471 -1.3561 -0.6450  0.0483
 5114SOL     OW26974   2.554   1.103   4.910  0.3328  0.0464  0.1315
 5114SOL    HW126975   2.529   1.193   4.890 -0.3659 -0.2251 -0.2215
 5114SOL    HW226976   2.503   1.041   4.857  3.2790 -2.1306 -0.1078
 5115SOL     OW26977   0.488   2.890   1.787 -0.4101 -0.6188  0.0887
 5115SOL    HW126978   0.480   2.912   1.880  1.6197 -0.8219  0.3182
 5115SOL    HW226979   0.443   2.967   1.752 -1.2483 -1.2799 -0.2937
 5116SOL     OW26980   0.811   3.072   9.265  0.2057 -0.5614 -0.3800
 5116SOL    HW126981   0.787   3.163   9.278  1.8402 -0.4772  2.0875
 5116SOL    HW226982   0.736   3.019   9.238  0.2138 -0.5869 -0.3535
 5117SOL     OW26983   1.465   1.716   2.332 -0.2279 -0.1473  0.4265
 5117SOL    HW126984   1.545   1.673   2.301  0.1365  0.8467  0.0115
 5117SOL    HW226985   1.473   1.722   2.427 -0.8197 -0.0566  0.4702
 5118SOL     OW26986   3.105   1.995   6.156  0.0201 -0.2106  0.7797
 5118SOL    HW126987   3.181   1.947   6.123  0.5753  0.8848  0.4638
 5118SOL    HW226988   3.047   1.923   6.133  0.7013 -0.4627 -0.1570
 5119SOL     OW26989   4.727   4.526   2.585  0.1850  0.7029  0.1588
 5119SOL    HW126990   0.077   4.500   2.617 -0.4196 -1.3248  0.1638
 5119SOL    HW226991   4.695   4.583   2.655 -0.9825 -0.7293  0.8019
 5120SOL     OW26992   2.988   0.897   9.213  0.7860  0.4469  0.5449
 5120SOL    HW126993   3.024   0.978   9.250  1.1488  0.7883 -0.5623
 5120SOL    HW226994   2.897   0.902   9.244  0.4996 -0.0772 -0.2159
 5121SOL     OW26995   1.916   2.643   6.658 -0.8610 -0.4081 -0.1967
 5121SOL    HW126996   1.878   2.729   6.676 -1.4931 -1.0721  1.6718
 5121SOL    HW226997   1.852   2.605   6.597 -0.3485 -0.7888 -0.4967
 5122SOL     OW26998   3.787   0.811   7.831 -0.1311  0.5694  0.1436
 5122SOL    HW126999   3.774   0.716   7.833 -0.6234  0.6819  2.0314
 5122SOL    HW227000   3.789   0.831   7.737  0.9935 -0.8742 -0.1498
 5123SOL     OW27001   0.068   3.024   8.612  0.0061  0.4585  0.3487
 5123SOL    HW127002   0.021   2.957   8.662 -0.9234 -0.4479 -1.7356
 5123SOL    HW227003   0.014   3.101   8.627 -0.4766  0.4550 -1.4334
 5124SOL     OW27004   3.919   2.929   2.837  0.3875  0.0146  0.2310
 5124SOL    HW127005   3.954   2.878   2.911 -0.6576 -0.5708  0.3294
 5124SOL    HW227006   3.827   2.903   2.849  1.3181 -2.4070  2.2338
 5125SOL     OW27007   2.875   4.137   7.366  0.0158 -0.0613  0.2913
 5125SOL    HW127008   2.888   4.185   7.284 -0.2540  0.0853  0.3331
 5125SOL    HW227009   2.945   4.072   7.368  0.8719  0.8343 -0.5687
 5126SOL     OW27010   0.474   2.996  13.318  0.2412 -0.2199 -0.3974
 5126SOL    HW127011   0.503   2.959  13.401 -1.2147 -2.2774 -0.8219
 5126SOL    HW227012   0.563   2.997  13.283  0.4267  2.4474  0.0995
 5127SOL     OW27013   0.838   2.419   5.824 -0.1417  0.3153  0.0000
 5127SOL    HW127014   0.852   2.454   5.736 -0.7622  0.6924  0.0465
 5127SOL    HW227015   0.783   2.343   5.802 -0.9770  0.9483 -0.1020
 5128SOL     OW27016   4.293   4.590   6.598  0.3013 -0.3637 -0.3466
 5128SOL    HW127017   4.333   4.670   6.632 -1.1516  0.2470 -0.0724
 5128SOL    HW227018   4.214   4.619   6.552 -1.3950 -1.5753  1.7718
 5129SOL     OW27019   0.266   3.121  12.061 -0.2033 -0.4648  0.0113
 5129SOL    HW127020   0.312   3.164  12.133  0.2505 -2.7533  1.0989
 5129SOL    HW227021   0.210   3.190  12.027  0.4577 -1.2645 -2.7043
 5130SOL     OW27022   4.445   0.870  17.211 -0.0250 -0.5779 -0.5648
 5130SOL    HW127023   4.451   0.774  17.210  0.2811 -0.5604 -0.0027
 5130SOL    HW227024   4.353   0.881  17.189  0.3600  3.6056  0.0553
 5131SOL     OW27025   1.860   0.187   8.148  0.0359 -0.2111  0.6762
 5131SOL    HW127026   1.870   0.092   8.160  1.3234  0.0416  1.5964
 5131SOL    HW227027   1.904   0.208   8.066 -0.4492  1.5569  0.8761
 5132SOL     OW27028   1.206   0.095   3.957 -0.3897  0.0646 -0.5662
 5132SOL    HW127029   1.189   0.092   3.863  0.1599  2.1897 -0.7372
 5132SOL    HW227030   1.299   0.071   3.952 -0.2880  0.0954  1.2712
 5133SOL     OW27031   2.208   1.477   2.357 -0.4400 -0.2394 -0.2742
 5133SOL    HW127032   2.244   1.540   2.420 -0.6514  0.6310 -1.0209
 5133SOL    HW227033   2.294   1.446   2.326  1.0104  1.7323  1.7807
 5134SOL     OW27034   4.701   2.625  11.361 -0.1919  0.0578 -0.4469
 5134SOL    HW127035   4.680   2.718  11.364  1.2835  0.3651  0.4425
 5134SOL    HW227036   0.054   2.616  11.394 -1.1394 -1.5998  1.6910
 5135SOL     OW27037   2.919   4.225   7.887  0.5278 -0.4934 -0.3541
 5135SOL    HW127038   2.919   4.130   7.898 -3.8783 -0.5681 -1.0073
 5135SOL    HW227039   2.981   4.242   7.816 -1.0173  0.1137 -1.5454
 5136SOL     OW27040   1.664   3.462   8.393 -0.0807  0.2245  0.2897
 5136SOL    HW127041   1.752   3.458   8.430  0.2211 -0.2366 -0.4867
 5136SOL    HW227042   1.646   3.370   8.372 -0.6245  0.8296 -1.9188
 5137SOL     OW27043   2.141   2.322  10.824 -0.5507  0.2328  0.1537
 5137SOL    HW127044   2.156   2.230  10.849  2.0178  0.5220 -0.3278
 5137SOL    HW227045   2.215   2.360  10.872 -2.2118 -0.0072  2.9197
 5138SOL     OW27046   3.575   4.689   9.995  0.1526 -0.1982  0.3254
 5138SOL    HW127047   3.491   4.648   9.977  0.2444 -0.0760 -0.3756
 5138SOL    HW227048   3.642   4.621   9.982 -0.8915 -1.7218  2.9428
 5139SOL     OW27049   1.876   0.353  17.140  0.3559  0.0093  0.1951
 5139SOL    HW127050   1.803   0.296  17.166  0.3110 -0.3042 -0.6199
 5139SOL    HW227051   1.828   0.424  17.096 -0.5063 -0.5764  0.1844
 5140SOL     OW27052   2.675   0.313   9.712  0.3124  0.0172  0.1344
 5140SOL    HW127053   2.602   0.324   9.773  0.6935 -0.0651  0.6052
 5140SOL    HW227054   2.717   0.238   9.755  1.0184 -1.0011 -2.3179
 5141SOL     OW27055   1.290   2.681   5.302 -0.2070  0.0341 -0.2382
 5141SOL    HW127056   1.379   2.650   5.317 -0.6562 -1.8113 -1.3543
 5141SOL    HW227057   1.249   2.597   5.281 -1.9336  0.4996  1.2892
 5142SOL     OW27058   2.582   2.996  16.418 -0.2808  0.7413 -0.1994
 5142SOL    HW127059   2.605   3.004  16.510 -1.4984  1.5357  0.0415
 5142SOL    HW227060   2.606   2.904  16.402 -1.8462  0.3426 -0.2691
 5143SOL     OW27061   4.570   2.585   2.540  0.0896  0.4425  0.1277
 5143SOL    HW127062   4.506   2.543   2.598  1.5869 -2.0318 -0.0092
 5143SOL    HW227063   4.575   2.519   2.472  0.6396  0.0544  0.5450
 5144SOL     OW27064   0.949   2.952   3.260  0.0091 -0.2898 -0.5648
 5144SOL    HW127065   0.862   2.986   3.239 -0.6451 -1.7632 -0.2723
 5144SOL    HW227066   0.925   2.869   3.302 -0.0618 -0.1402 -0.3162
 5145SOL     OW27067   3.984   1.054  17.354 -0.5711 -0.0538  1.3356
 5145SOL    HW127068   4.036   1.058  17.434 -0.4324 -0.3722  1.2617
 5145SOL    HW227069   4.043   1.008  17.294 -2.0178  1.0751 -0.9602
 5146SOL     OW27070   3.984   1.170   9.722 -0.2397  0.0057  0.7955
 5146SOL    HW127071   3.994   1.171   9.627  0.4263  0.2117  0.8697
 5146SOL    HW227072   3.991   1.264   9.737 -0.1819 -0.2023  2.0383
 5147SOL     OW27073   4.331   2.785   5.675  0.5315 -0.1142  0.2874
 5147SOL    HW127074   4.332   2.842   5.752 -1.7701  1.1974 -0.6687
 5147SOL    HW227075   4.424   2.795   5.655  0.0746  0.5590 -1.5125
 5148SOL     OW27076   2.699   0.981   3.701  0.4671 -0.0011 -0.1601
 5148SOL    HW127077   2.665   0.927   3.772 -0.8413  0.2296 -0.5967
 5148SOL    HW227078   2.661   0.938   3.624 -0.0036 -2.0801  1.2403
 5149SOL     OW27079   0.060   1.543  17.332 -0.1009 -0.6508  0.1039
 5149SOL    HW127080   0.052   1.618  17.272 -2.2544 -0.0533  1.1151
 5149SOL    HW227081   0.024   1.478  17.271 -3.3741  0.6145  0.6499
 5150SOL     OW27082   2.736   3.437   0.007  0.2033 -0.2244  0.1953
 5150SOL    HW127083   2.727   3.524  17.712 -1.3047 -1.1862 -1.5998
 5150SOL    HW227084   2.659   3.435   0.063  0.9902 -1.2128  1.2481
 5151SOL     OW27085   2.730   3.392   5.697  0.0518  0.3264 -0.3059
 5151SOL    HW127086   2.680   3.431   5.625 -0.3682 -1.8420 -1.2159
 5151SOL    HW227087   2.775   3.465   5.738  0.7413 -0.8236  0.9818
 5152SOL     OW27088   3.519   4.442   4.896 -0.1522 -0.6600  0.4170
 5152SOL    HW127089   3.600   4.442   4.845 -0.2182 -0.1285  0.3071
 5152SOL    HW227090   3.546   4.387   4.969  3.5777  0.5822 -0.0327
 5153SOL     OW27091   0.787   1.376   3.889 -0.3289  0.1677  0.0101
 5153SOL    HW127092   0.847   1.303   3.905 -0.3451  0.0432 -0.4869
 5153SOL    HW227093   0.784   1.414   3.977  0.5271 -1.5008  0.7662
 5154SOL     OW27094   2.318   1.175  17.106  0.0714 -0.2107  0.3800
 5154SOL    HW127095   2.382   1.122  17.059  2.0410  1.1784  1.4705
 5154SOL    HW227096   2.371   1.255  17.111 -0.6593  0.2931  0.1429
 5155SOL     OW27097   3.429   3.549  17.585 -0.5438  0.1014 -0.2891
 5155SOL    HW127098   3.365   3.540  17.515  0.8527 -1.7477 -1.3075
 5155SOL    HW227099   3.505   3.588  17.542  1.0425  0.6216  2.9563
 5156SOL     OW27100   0.845   1.573   3.042  0.7162  0.1460 -0.0137
 5156SOL    HW127101   0.854   1.512   2.969 -3.6488  0.3774 -0.7225
 5156SOL    HW227102   0.935   1.604   3.031  0.6844 -0.0550 -0.8824
 5157SOL     OW27103   4.494   4.587   1.324  0.4299  0.1188  0.1559
 5157SOL    HW127104   4.589   4.594   1.315  0.6532 -1.4294  1.3492
 5157SOL    HW227105   4.491   4.497   1.290 -1.9607  0.1167  0.3552
 5158SOL     OW27106   0.542   1.695  13.306  0.7752 -0.6851 -0.3838
 5158SOL    HW127107   0.510   1.731  13.388 -0.0117 -1.6763 -0.2597
 5158SOL    HW227108   0.493   1.614  13.289  0.6175 -0.3150 -1.7315
 5159SOL     OW27109   2.031   1.898   4.178 -0.6284 -0.3958 -0.5221
 5159SOL    HW127110   2.047   1.804   4.178  0.6573 -0.1965  3.1981
 5159SOL    HW227111   2.096   1.933   4.117  0.2050 -2.6672 -0.9272
 5160SOL     OW27112   4.458   4.121  10.525 -0.2662 -0.3786  0.2311
 5160SOL    HW127113   4.495   4.116  10.613  1.9936  0.4245 -0.6535
 5160SOL    HW227114   4.441   4.215  10.520 -1.0593 -0.5573 -0.3733
 5161SOL     OW27115   2.559   4.390   4.868  0.0110 -0.3360  0.4086
 5161SOL    HW127116   2.599   4.396   4.781 -0.6412 -1.5749  0.0330
 5161SOL    HW227117   2.624   4.420   4.932  1.5665 -1.3903 -0.6732
 5162SOL     OW27118   3.239   4.506   1.521  0.1212 -0.3437 -0.3318
 5162SOL    HW127119   3.288   4.428   1.545  0.1748  0.0766  0.9078
 5162SOL    HW227120   3.307   4.551   1.471  0.8521 -0.6943  0.3530
 5163SOL     OW27121   0.937   2.653   4.807 -0.0972  0.7583  0.2213
 5163SOL    HW127122   0.995   2.680   4.736 -0.2416 -0.6071 -0.4088
 5163SOL    HW227123   0.853   2.684   4.772  0.1814  1.6163  0.3109
 5164SOL     OW27124   1.101   2.002  10.330  0.1622 -0.0405 -0.0798
 5164SOL    HW127125   1.120   2.067  10.397 -1.4242 -0.1085  0.4543
 5164SOL    HW227126   1.191   1.977  10.308  0.2475  0.1221  0.0916
 5165SOL     OW27127   2.096   4.386   2.476 -0.0957 -0.4300  0.1018
 5165SOL    HW127128   2.033   4.315   2.464  0.4077 -1.0798  1.3155
 5165SOL    HW227129   2.108   4.415   2.386 -1.0196  0.1202  0.1634
 5166SOL     OW27130   2.702   4.265   6.120  0.1008 -0.4565  0.0874
 5166SOL    HW127131   2.630   4.209   6.090  1.2411 -0.9812 -1.6958
 5166SOL    HW227132   2.747   4.291   6.039 -2.1353 -2.5447 -1.8491
 5167SOL     OW27133   0.536   3.732   9.693  0.3723  0.4566 -0.1653
 5167SOL    HW127134   0.597   3.793   9.652 -0.2410 -0.4622 -2.4256
 5167SOL    HW227135   0.456   3.781   9.673 -0.0327 -0.5447 -0.9894
 5168SOL     OW27136   1.553   1.048   2.385 -0.3551 -0.0896 -0.1600
 5168SOL    HW127137   1.545   1.137   2.420  0.9211  0.1314 -0.4231
 5168SOL    HW227138   1.565   1.066   2.292 -1.5502  2.5005  0.1696
 5169SOL     OW27139   2.162   3.611   7.723  0.1817  0.3714 -0.0411
 5169SOL    HW127140   2.110   3.581   7.798  1.1135 -0.9338  0.0902
 5169SOL    HW227141   2.095   3.661   7.677  0.4097 -0.2507 -1.0439
 5170SOL     OW27142   3.845   3.466   6.849  0.4100  0.6739  0.1843
 5170SOL    HW127143   3.786   3.531   6.811  0.4584  0.7486  0.2381
 5170SOL    HW227144   3.788   3.395   6.878  3.4383 -1.1554  1.7301
 5171SOL     OW27145   1.267   2.787   4.353  0.1467 -0.3077  0.2975
 5171SOL    HW127146   1.252   2.839   4.274 -0.0916  0.2773  0.7297
 5171SOL    HW227147   1.228   2.704   4.324  1.1561 -1.4132  2.0971
 5172SOL     OW27148   4.311   1.762   5.410  0.0182 -0.0079 -0.3851
 5172SOL    HW127149   4.388   1.718   5.373  0.4314  1.7304 -1.6265
 5172SOL    HW227150   4.298   1.720   5.495 -2.1024 -1.2730 -1.3380
 5173SOL     OW27151   2.794   0.071   7.332 -0.0610  0.3642  0.4984
 5173SOL    HW127152   2.771   0.058   7.424 -0.2256  0.9334  0.5379
 5173SOL    HW227153   2.718   0.127   7.313  0.7659  1.3064 -0.0109
 5174SOL     OW27154   0.129   1.823   6.347 -0.0982  0.1005 -0.2972
 5174SOL    HW127155   0.218   1.813   6.313  0.5827  0.4969  1.3537
 5174SOL    HW227156   0.085   1.863   6.272  0.3170  1.0865 -0.0147
 5175SOL     OW27157   4.341   3.850   9.423  0.2426  0.0674  0.4183
 5175SOL    HW127158   4.322   3.775   9.366  0.7300 -1.7967  2.7349
 5175SOL    HW227159   4.385   3.828   9.505 -1.0461  0.1276  1.1140
 5176SOL     OW27160   3.012   2.339   7.749 -0.4700  0.4486 -0.4886
 5176SOL    HW127161   3.058   2.262   7.782 -0.4211  0.5991 -0.2017
 5176SOL    HW227162   2.922   2.322   7.779  0.2419 -3.1359 -0.3563
 5177SOL     OW27163   0.665   2.162   7.395  0.3899  0.4030  0.2543
 5177SOL    HW127164   0.632   2.204   7.474 -1.8515 -0.0528 -0.4077
 5177SOL    HW227165   0.595   2.105   7.361  0.9332 -0.2532  0.2320
 5178SOL     OW27166   1.268   4.216   9.328  0.2800 -0.2291 -0.3644
 5178SOL    HW127167   1.238   4.170   9.406  1.3867 -0.2456  0.0536
 5178SOL    HW227168   1.276   4.144   9.265  0.0095 -1.1618  0.6821
 5179SOL     OW27169   2.894   3.407  14.688 -0.2575 -0.6742  0.1392
 5179SOL    HW127170   2.911   3.498  14.665 -0.7023 -1.0078 -1.5296
 5179SOL    HW227171   2.951   3.364  14.624  0.2405  0.1651  0.0246
 5180SOL     OW27172   0.051   3.837  17.537  0.0409 -0.4330  0.0142
 5180SOL    HW127173   4.703   3.879  17.519  1.6684  2.3252 -1.2019
 5180SOL    HW227174   0.044   3.819  17.631  2.6522  0.1072  0.3077
 5181SOL     OW27175   0.473   4.493   5.736  0.6135 -0.0724 -0.6875
 5181SOL    HW127176   0.475   4.398   5.738  2.7540 -0.0402 -1.9597
 5181SOL    HW227177   0.448   4.510   5.827  2.4096 -0.5094 -0.1222
 5182SOL     OW27178   3.011   4.698  10.446  0.0827 -0.1152  0.0560
 5182SOL    HW127179   3.090   4.680  10.496  1.4491  1.9796 -1.3310
 5182SOL    HW227180   2.949   4.635  10.482 -0.4752  0.8854  0.8719
 5183SOL     OW27181   0.925   0.959   5.584  0.0319  0.0329 -0.3696
 5183SOL    HW127182   0.847   0.962   5.639  1.8982 -0.5558  2.2845
 5183SOL    HW227183   0.911   0.891   5.518 -0.6373 -0.9152  0.7713
 5184SOL     OW27184   3.332   4.201   6.808 -0.0842  0.5469  0.4993
 5184SOL    HW127185   3.422   4.177   6.828 -0.3119  0.3510  1.2827
 5184SOL    HW227186   3.346   4.271   6.744 -0.7039  1.0306  0.8846
 5185SOL     OW27187   2.802   4.034  15.311 -0.1122 -0.7811 -0.1544
 5185SOL    HW127188   2.720   3.985  15.317 -0.0110 -1.0955 -1.4193
 5185SOL    HW227189   2.784   4.110  15.368  1.3510 -0.7650  0.2745
 5186SOL     OW27190   0.184   1.408   9.584  0.2759  0.3727  0.7995
 5186SOL    HW127191   0.217   1.470   9.649  0.2555 -0.0576  1.2181
 5186SOL    HW227192   0.248   1.337   9.592 -0.3207 -0.4017 -1.4670
 5187SOL     OW27193   2.046   2.829   7.886 -0.0971  0.6407  0.4353
 5187SOL    HW127194   2.135   2.831   7.852 -0.5183 -0.9362 -0.7439
 5187SOL    HW227195   2.036   2.924   7.885 -2.8472  0.3677  0.9554
 5188SOL     OW27196   1.772   3.852   3.203 -0.1642 -0.2491 -0.1112
 5188SOL    HW127197   1.830   3.776   3.212  2.5537  1.8081 -0.1489
 5188SOL    HW227198   1.821   3.924   3.244 -0.8210  0.1000  0.0534
 5189SOL     OW27199   2.804   3.479   2.963  0.0817 -0.1648 -0.6000
 5189SOL    HW127200   2.837   3.540   2.897 -0.9869  0.0372 -0.9551
 5189SOL    HW227201   2.883   3.474   3.016 -0.3071  0.2644  0.0178
 5190SOL     OW27202   0.398   2.396   5.429  0.0335  0.1845  0.4503
 5190SOL    HW127203   0.460   2.465   5.454  2.5403 -2.6534  2.0855
 5190SOL    HW227204   0.362   2.383   5.517  1.5401  0.6398  1.1413
 5191SOL     OW27205   1.650   2.392   6.825  0.0114 -0.0486  0.1441
 5191SOL    HW127206   1.723   2.396   6.887  0.0942 -2.4330  0.2168
 5191SOL    HW227207   1.609   2.320   6.872  0.9894 -0.0096  1.0464
 5192SOL     OW27208   1.846   2.650   0.961  0.5563  0.3525 -0.6329
 5192SOL    HW127209   1.848   2.555   0.977  1.4343  0.7029  1.3380
 5192SOL    HW227210   1.847   2.684   1.050  1.8536  1.6478 -1.1468
 5193SOL     OW27211   2.357   3.814   6.819  0.0389  0.5347  0.5916
 5193SOL    HW127212   2.288   3.789   6.757  1.6273 -0.9264 -0.5697
 5193SOL    HW227213   2.329   3.772   6.901 -1.2663 -1.1088 -0.7000
 5194SOL     OW27214   4.090   4.593   2.385  0.7233 -0.7251  0.0773
 5194SOL    HW127215   4.002   4.555   2.388 -0.3161  1.5389 -2.2272
 5194SOL    HW227216   4.125   4.554   2.304 -1.1787 -2.4619  0.0822
 5195SOL     OW27217   2.778   3.797   4.098  0.0788  0.0699  0.1360
 5195SOL    HW127218   2.721   3.731   4.138  1.4033 -2.0620 -1.4559
 5195SOL    HW227219   2.746   3.877   4.140 -0.0304 -0.2623  0.6885
 5196SOL     OW27220   2.556   2.745   7.283 -0.0325  0.0117  0.5493
 5196SOL    HW127221   2.581   2.831   7.317  1.2220 -0.4712  0.8616
 5196SOL    HW227222   2.482   2.760   7.225  1.4777  1.3671 -1.0057
 5197SOL     OW27223   3.041   4.026  14.997  0.1745 -0.1496 -0.1319
 5197SOL    HW127224   2.971   3.961  15.009  0.7930 -0.9874 -1.0015
 5197SOL    HW227225   2.998   4.111  14.990  1.0221  0.4832  2.5643
 5198SOL     OW27226   1.251   4.419  13.224 -0.8898 -0.0908 -0.5283
 5198SOL    HW127227   1.240   4.396  13.316 -0.3023  0.6062 -0.2847
 5198SOL    HW227228   1.161   4.444  13.203 -1.1155  1.5418  2.3420
 5199SOL     OW27229   3.334   3.326   4.985  0.0435 -0.1731 -0.0554
 5199SOL    HW127230   3.369   3.391   5.046 -2.2619  0.7939  0.2075
 5199SOL    HW227231   3.409   3.276   4.953 -1.1225 -2.0519  0.1736
 5200SOL     OW27232   0.891   2.361   8.690 -0.7970 -0.2636 -0.0878
 5200SOL    HW127233   0.816   2.373   8.632  0.5927  1.4513 -1.5275
 5200SOL    HW227234   0.867   2.428   8.755  0.3158 -2.3551  2.4666
 5201SOL     OW27235   4.414   2.195   1.662  0.2742 -0.3535  0.7636
 5201SOL    HW127236   4.470   2.223   1.590 -0.1452 -2.0542 -0.2267
 5201SOL    HW227237   4.328   2.223   1.630  1.2241  1.1597 -0.4656
 5202SOL     OW27238   4.458   2.960  10.592 -0.3509  0.1074 -0.3231
 5202SOL    HW127239   4.465   2.935  10.684  2.3064  0.6440 -0.3566
 5202SOL    HW227240   4.503   2.887  10.549  1.7567  1.7183 -0.8593
 5203SOL     OW27241   3.936   1.941   7.950 -0.4246 -0.5196  0.6935
 5203SOL    HW127242   3.863   1.987   7.907  1.8277  2.9193  0.5418
 5203SOL    HW227243   3.968   1.874   7.890  2.2522  1.2449  0.1674
 5204SOL     OW27244   0.018   3.243   4.905 -0.6451 -0.3777 -0.2159
 5204SOL    HW127245   0.110   3.221   4.889 -0.5644 -0.4368  0.3031
 5204SOL    HW227246   4.708   3.168   4.867 -3.3529  1.3568 -0.3418
 5205SOL     OW27247   1.546   2.908   8.014  0.3604 -0.2203 -0.2228
 5205SOL    HW127248   1.510   2.899   8.102 -0.1234 -2.5956 -0.6771
 5205SOL    HW227249   1.474   2.940   7.960 -0.5918 -1.2326  0.4465
 5206SOL     OW27250   3.732   0.479   9.897  0.3257 -0.0148 -0.4962
 5206SOL    HW127251   3.639   0.466   9.913  0.5974 -2.8008 -1.0011
 5206SOL    HW227252   3.774   0.470   9.983 -0.4715 -0.9123 -0.1948
 5207SOL     OW27253   1.688   4.279   7.764  0.1773 -0.5093  0.6374
 5207SOL    HW127254   1.643   4.285   7.849 -1.2914  1.5407 -0.2769
 5207SOL    HW227255   1.682   4.370   7.734 -2.1596 -0.9781 -0.3175
 5208SOL     OW27256   0.805   2.027   6.085 -0.5557 -0.6659  0.2238
 5208SOL    HW127257   0.824   1.995   6.173 -2.8317 -0.5861  0.7426
 5208SOL    HW227258   0.876   1.996   6.028  1.4255  3.7061  0.3573
 5209SOL     OW27259   0.265   4.554   2.263 -0.4668 -0.4094  0.6451
 5209SOL    HW127260   0.298   4.487   2.324  0.2561  1.2376  2.0470
 5209SOL    HW227261   0.266   4.498   2.185 -0.2855  0.7375 -0.1678
 5210SOL     OW27262   0.688   2.703   5.149 -0.0046  0.8189  0.0287
 5210SOL    HW127263   0.704   2.687   5.056 -1.4578 -0.2779 -0.0327
 5210SOL    HW227264   0.769   2.687   5.197 -1.1580  0.5862  1.8836
 5211SOL     OW27265   3.527   2.180  13.808  0.0092  0.1033 -0.5764
 5211SOL    HW127266   3.505   2.256  13.753 -0.0363  2.5054  2.7850
 5211SOL    HW227267   3.622   2.183  13.815  0.0618  1.0514 -1.6118
 5212SOL     OW27268   0.117   3.666   1.253 -0.5309 -0.2528  0.0432
 5212SOL    HW127269   0.087   3.704   1.335  0.3095 -0.9405  0.6683
 5212SOL    HW227270   0.045   3.610   1.224 -0.3253 -0.3069 -0.3756
 5213SOL     OW27271   2.089   0.024  11.989 -0.2090  0.6736 -0.3862
 5213SOL    HW127272   2.030   0.008  11.916 -1.6133 -1.8156  1.3093
 5213SOL    HW227273   2.121   4.672  12.009 -0.3592  0.7642  0.2551
 5214SOL     OW27274   2.185   2.124   4.339  0.5870  0.3142 -0.0147
 5214SOL    HW127275   2.168   2.038   4.302  0.5234 -0.2683  1.3986
 5214SOL    HW227276   2.281   2.132   4.342  0.6184 -0.5278  1.0140
 5215SOL     OW27277   2.751   2.355   5.537  0.5951 -0.0130  0.0395
 5215SOL    HW127278   2.816   2.321   5.598  0.2240  0.0149  0.4516
 5215SOL    HW227279   2.698   2.276   5.523  2.4522 -1.0638 -1.0864
 5216SOL     OW27280   0.923   1.551   6.869 -0.1089 -0.9006 -0.4394
 5216SOL    HW127281   0.945   1.480   6.930 -0.8709 -0.7561  0.0069
 5216SOL    HW227282   1.005   1.598   6.885  0.0153 -1.3072  0.1274
 5217SOL     OW27283   3.040   3.851  11.135  0.7397  0.0423 -0.2784
 5217SOL    HW127284   2.972   3.883  11.075  0.2037  0.5203  0.5772
 5217SOL    HW227285   3.077   3.934  11.166 -2.3843  0.8550  1.2682
 5218SOL     OW27286   4.420   1.945   2.242  0.2783  0.8933  0.1052
 5218SOL    HW127287   4.398   2.038   2.230  1.1050  1.4268  2.9717
 5218SOL    HW227288   4.503   1.961   2.198 -0.2836  2.2569 -0.4756
 5219SOL     OW27289   2.519   1.300   1.519 -0.0013  0.5565 -0.6427
 5219SOL    HW127290   2.460   1.226   1.534  1.0144  0.1016  1.0712
 5219SOL    HW227291   2.572   1.302   1.599 -0.6261 -0.6077 -0.1957
 5220SOL     OW27292   4.552   2.345  15.026  0.5258  0.6910 -0.7674
 5220SOL    HW127293   4.615   2.356  14.954 -0.1589 -0.8315 -1.6140
 5220SOL    HW227294   4.499   2.423  15.016  0.1483  0.5770  0.4550
 5221SOL     OW27295   2.985   2.689   7.269  0.6237 -0.4107  0.3025
 5221SOL    HW127296   3.071   2.656   7.293  1.4547  1.6914  0.2018
 5221SOL    HW227297   2.993   2.770   7.319  0.2017  0.2415 -0.6808
 5222SOL     OW27298   1.675   4.124   7.435 -0.5764 -0.1370 -0.3565
 5222SOL    HW127299   1.630   4.073   7.368 -1.3404  1.1712 -0.8229
 5222SOL    HW227300   1.645   4.084   7.517 -2.2518 -1.3993 -1.5748
 5223SOL     OW27301   2.242   2.152   3.620 -0.4393 -0.5264 -0.2101
 5223SOL    HW127302   2.298   2.078   3.596  1.6251 -0.0645  3.2384
 5223SOL    HW227303   2.208   2.130   3.706  0.3266  0.0945  0.2609
 5224SOL     OW27304   4.384   2.925   5.898  0.0884 -0.2663 -0.2015
 5224SOL    HW127305   4.424   2.907   5.983  0.2116  0.2860 -0.1402
 5224SOL    HW227306   4.316   2.992   5.913 -0.3955 -0.6119 -0.8643
 5225SOL     OW27307   0.490   0.792   6.503 -0.1584 -0.1104  0.6864
 5225SOL    HW127308   0.404   0.759   6.531 -1.0372  0.6720 -1.0606
 5225SOL    HW227309   0.543   0.772   6.580  0.0159  0.6158  0.7576
 5226SOL     OW27310   3.464   3.046   2.795  0.1103 -0.2666  0.2004
 5226SOL    HW127311   3.460   3.029   2.701  0.7985  1.0666 -0.0669
 5226SOL    HW227312   3.373   3.063   2.820 -0.8151 -2.6621 -1.6606
 5227SOL     OW27313   4.402   3.786   5.132 -0.3657  0.1425  0.1940
 5227SOL    HW127314   4.350   3.851   5.180 -0.1662 -0.2815  0.9881
 5227SOL    HW227315   4.451   3.746   5.204 -2.5250 -1.6948  0.6092
 5228SOL     OW27316   0.714   3.869   4.322  0.3933 -0.0334 -0.7449
 5228SOL    HW127317   0.622   3.861   4.347  0.9812 -1.5207  0.9545
 5228SOL    HW227318   0.755   3.823   4.395 -0.9458 -1.1128 -0.6713
 5229SOL     OW27319   2.350   3.085  16.913 -0.0192  0.5854 -0.1968
 5229SOL    HW127320   2.312   3.009  16.868 -1.9003  0.3603  1.7429
 5229SOL    HW227321   2.424   3.099  16.855 -0.0085  0.1359 -0.2906
 5230SOL     OW27322   0.796   1.435   4.585  0.2526  0.0561 -0.1782
 5230SOL    HW127323   0.849   1.420   4.507  0.1689  1.2001 -0.4524
 5230SOL    HW227324   0.750   1.512   4.553 -1.9603 -1.0450  0.3332
 5231SOL     OW27325   2.692   3.443   7.782 -0.3053 -0.5160 -0.3927
 5231SOL    HW127326   2.629   3.502   7.823 -1.1377 -2.3515  0.9670
 5231SOL    HW227327   2.660   3.454   7.692  0.2050 -0.8467 -0.6136
 5232SOL     OW27328   3.236   4.138   5.158 -0.0437  0.0150  0.4236
 5232SOL    HW127329   3.234   4.226   5.119  0.5091 -0.2860 -0.2887
 5232SOL    HW227330   3.294   4.155   5.232 -1.3988 -0.1162  1.5143
 5233SOL     OW27331   4.522   4.701   8.363 -0.6019 -0.0363  0.1234
 5233SOL    HW127332   4.439   0.010   8.378 -1.4258 -0.8833 -1.8749
 5233SOL    HW227333   4.484   4.624   8.322 -0.5099 -0.0408  0.0461
 5234SOL     OW27334   2.916   3.323   7.117 -0.7840  0.5520 -0.5264
 5234SOL    HW127335   2.886   3.355   7.202 -1.9289  0.2890 -0.8277
 5234SOL    HW227336   2.838   3.297   7.067 -2.2040 -0.4538  2.1926
 5235SOL     OW27337   1.270   4.237   5.460 -0.2613 -0.0205 -0.2022
 5235SOL    HW127338   1.255   4.274   5.373  2.1440 -1.4081 -1.1886
 5235SOL    HW227339   1.315   4.156   5.436 -1.1537 -0.5640 -0.0452
 5236SOL     OW27340   2.413   1.056  14.065 -0.4215 -0.3388  0.1128
 5236SOL    HW127341   2.423   1.098  14.151 -0.5295  0.7846 -0.4219
 5236SOL    HW227342   2.319   1.051  14.051 -0.1011 -2.4257 -1.2281
 5237SOL     OW27343   3.233   1.504   5.831 -1.0431 -0.1930  0.0911
 5237SOL    HW127344   3.163   1.570   5.835  0.1472  1.0546  0.2734
 5237SOL    HW227345   3.218   1.465   5.917  0.9581  1.2477  1.0926
 5238SOL     OW27346   3.358   3.108   7.287 -0.1837  0.1210  0.0740
 5238SOL    HW127347   3.425   3.175   7.301 -1.7079  1.2001  2.2089
 5238SOL    HW227348   3.386   3.046   7.354 -1.5645  1.8944  2.2971
 5239SOL     OW27349   3.376   3.896   1.210 -0.3645  0.0414  0.0001
 5239SOL    HW127350   3.402   3.944   1.288  0.9592  0.1774 -0.5284
 5239SOL    HW227351   3.442   3.826   1.206 -0.1699  0.1168  1.7555
 5240SOL     OW27352   1.330   2.320   2.707 -0.3632  0.2078 -0.2327
 5240SOL    HW127353   1.314   2.404   2.751 -0.2282 -0.3038  0.7850
 5240SOL    HW227354   1.365   2.266   2.777 -0.9708 -0.8184 -0.7158
 5241SOL     OW27355   0.383   1.812   5.853  0.4057 -0.0426 -0.3281
 5241SOL    HW127356   0.440   1.889   5.844  0.8182 -0.1944  0.9564
 5241SOL    HW227357   0.430   1.750   5.797 -0.7006  0.0088 -1.3061
 5242SOL     OW27358   4.126   3.982  17.220  0.4865 -0.6581  0.1559
 5242SOL    HW127359   4.110   4.063  17.268  0.2429 -0.2636 -0.6058
 5242SOL    HW227360   4.074   3.988  17.140 -1.4752 -2.0019  1.3080
 5243SOL     OW27361   4.428   3.529   2.392  0.0576  0.3933 -0.7538
 5243SOL    HW127362   4.463   3.525   2.481 -2.4736  0.4365  0.2469
 5243SOL    HW227363   4.498   3.474   2.358  1.2975  2.1571 -1.0738
 5244SOL     OW27364   4.123   4.435   4.719  0.8886  0.2002 -0.3222
 5244SOL    HW127365   4.110   4.393   4.804  0.6537 -0.6235 -0.7607
 5244SOL    HW227366   4.068   4.370   4.675  1.5140 -0.9235  0.5402
 5245SOL     OW27367   4.098   2.193   2.953  0.2967 -0.4017 -0.2401
 5245SOL    HW127368   4.123   2.132   2.884 -0.0391  1.7194 -2.2204
 5245SOL    HW227369   4.181   2.197   3.001 -0.8755 -1.4416  1.9043
 5246SOL     OW27370   1.175   1.389  11.432 -0.2613 -1.2096  0.1643
 5246SOL    HW127371   1.129   1.462  11.472 -1.4338 -0.8691 -1.8523
 5246SOL    HW227372   1.263   1.403  11.469 -0.0551  1.7292 -1.4392
 5247SOL     OW27373   1.070   2.295   7.488 -0.3149 -0.2940  0.1180
 5247SOL    HW127374   1.057   2.205   7.518 -2.3754 -0.1170 -0.2626
 5247SOL    HW227375   1.099   2.325   7.575 -4.2908 -2.5043  2.1999
 5248SOL     OW27376   1.543   1.245   7.079 -0.3030 -0.4305 -0.1552
 5248SOL    HW127377   1.457   1.280   7.057  0.2912  0.9413 -0.3313
 5248SOL    HW227378   1.593   1.317   7.041 -2.1667 -0.3659 -2.4128
 5249SOL     OW27379   4.414   0.312   6.555 -0.0598  0.3991  0.0476
 5249SOL    HW127380   4.448   0.245   6.496  0.0475 -0.8821  1.5680
 5249SOL    HW227381   4.489   0.362   6.589 -1.4156  2.1229  0.5272
 5250SOL     OW27382   0.648   3.661   2.467 -0.1541  0.0115 -0.4052
 5250SOL    HW127383   0.653   3.643   2.561  0.5094  1.4720 -0.1649
 5250SOL    HW227384   0.602   3.745   2.465  0.9319  0.5855 -1.2251
 5251SOL     OW27385   0.977   1.895   7.282  0.1177 -0.3005  0.3849
 5251SOL    HW127386   0.908   1.840   7.320  0.8797 -0.2161  1.8864
 5251SOL    HW227387   0.969   1.957   7.356 -0.4238  0.2669 -0.1485
 5252SOL     OW27388   0.318   2.917   9.273 -0.4717 -0.1826  0.3260
 5252SOL    HW127389   0.407   2.951   9.282  0.5923 -2.5802 -1.1881
 5252SOL    HW227390   0.274   2.994   9.237 -0.3398  0.8766  2.4500
 5253SOL     OW27391   2.744   2.325   3.123  0.0067  0.0010  0.2297
 5253SOL    HW127392   2.764   2.415   3.097  0.9098 -0.6323 -1.2700
 5253SOL    HW227393   2.834   2.292   3.121  0.2448  0.6031  0.8634
 5254SOL     OW27394   3.884   3.795   8.270  0.2607  0.2647  0.2040
 5254SOL    HW127395   3.971   3.804   8.233  1.2453 -1.5191  2.0960
 5254SOL    HW227396   3.891   3.712   8.316 -1.0396 -1.3199 -2.4027
 5255SOL     OW27397   0.366   1.438   1.628  0.3323 -0.1336  0.5539
 5255SOL    HW127398   0.333   1.380   1.559 -0.4142 -1.0942  1.7138
 5255SOL    HW227399   0.414   1.377   1.684 -1.0997  1.4842  3.5830
 5256SOL     OW27400   0.095   2.782   1.221 -0.3826  0.1367 -0.4313
 5256SOL    HW127401   0.018   2.733   1.250 -1.2257  2.0414  0.5254
 5256SOL    HW227402   0.055   2.869   1.224 -2.3491 -0.7527 -0.3380
 5257SOL     OW27403   3.600   0.027   5.463  0.4360  0.2630  0.4197
 5257SOL    HW127404   3.678   0.051   5.414 -0.5294 -1.8389 -2.1312
 5257SOL    HW227405   3.588   0.096   5.528 -1.8953  0.6727 -0.4748
 5258SOL     OW27406   4.481   4.293  14.311  0.6065 -0.7416  0.2025
 5258SOL    HW127407   4.467   4.347  14.389 -2.9760 -1.3049 -0.0738
 5258SOL    HW227408   4.573   4.307  14.289 -0.0165  2.1316 -0.6558
 5259SOL     OW27409   1.920   3.820  17.020  0.4719 -0.6115  0.0028
 5259SOL    HW127410   1.830   3.831  17.050  0.4893 -1.2073  0.2763
 5259SOL    HW227411   1.938   3.731  17.050  1.2044 -0.6266 -0.4980
 5260SOL     OW27412   2.978   1.475  17.253 -0.2862 -0.2379  0.1195
 5260SOL    HW127413   2.945   1.394  17.213 -0.2069 -0.1550 -0.1161
 5260SOL    HW227414   3.006   1.447  17.340 -2.7767 -0.4515  0.8306
 5261SOL     OW27415   3.550   2.074  16.191 -0.0462 -0.1693 -0.8174
 5261SOL    HW127416   3.636   2.043  16.163  2.0375  2.0339  3.1998
 5261SOL    HW227417   3.575   2.136  16.260 -1.3282 -0.8366  0.2651
 5262SOL     OW27418   4.174   1.449   2.857  0.5824  0.2424  0.0691
 5262SOL    HW127419   4.255   1.425   2.902 -1.2870 -1.5394  2.4701
 5262SOL    HW227420   4.126   1.366   2.847  0.7427  0.4414 -2.2540
 5263SOL     OW27421   4.069   0.572   9.025 -0.5023  0.0656  0.1889
 5263SOL    HW127422   3.981   0.581   9.062 -0.6943 -1.7781  0.1607
 5263SOL    HW227423   4.110   0.572   9.111 -0.3675  0.7612  0.1276
 5264SOL     OW27424   1.827   1.362   1.596 -0.0797  0.5564  0.3504
 5264SOL    HW127425   1.912   1.347   1.638  0.5045  2.4593 -0.1134
 5264SOL    HW227426   1.775   1.305   1.651  0.1937 -0.7898 -0.7876
 5265SOL     OW27427   0.781   1.118  10.997 -0.2604  0.1380 -0.2711
 5265SOL    HW127428   0.836   1.058  11.047 -1.1003 -0.9543 -0.6538
 5265SOL    HW227429   0.695   1.079  11.010 -0.0062  0.3701  2.0572
 5266SOL     OW27430   0.006   1.293   4.192  0.1964 -0.4129 -0.2367
 5266SOL    HW127431   4.673   1.232   4.166 -0.4901 -1.4206  3.9773
 5266SOL    HW227432   0.051   1.243   4.260 -0.4561 -0.7266 -0.0277
 5267SOL     OW27433   0.542   0.044   6.007 -0.7584  0.4604  0.3392
 5267SOL    HW127434   0.625   0.005   5.981 -0.7997 -0.4280  1.5473
 5267SOL    HW227435   0.524   4.730   6.087 -0.1053 -3.5182 -2.0324
 5268SOL     OW27436   1.100   2.035   6.553 -0.7397  0.9901  0.8537
 5268SOL    HW127437   1.155   2.038   6.475 -0.2744 -0.6553  1.1236
 5268SOL    HW227438   1.161   2.058   6.624 -0.7089  1.9149  0.5252
 5269SOL     OW27439   2.035   1.951  15.801 -0.3241 -0.0872  0.3031
 5269SOL    HW127440   2.053   1.900  15.721 -0.1871 -0.0220  0.2915
 5269SOL    HW227441   1.984   1.884  15.846  0.7408  0.4373  2.2683
 5270SOL     OW27442   3.260   3.777  10.860  0.3308 -0.3872 -0.0492
 5270SOL    HW127443   3.307   3.703  10.822 -0.6055  0.2891 -2.5485
 5270SOL    HW227444   3.283   3.782  10.953  1.4149 -2.3094 -0.2203
 5271SOL     OW27445   3.105   0.195   1.459 -0.0526  0.2869 -0.7468
 5271SOL    HW127446   3.057   0.116   1.483 -0.2073  1.1338  1.6628
 5271SOL    HW227447   3.063   0.210   1.374 -0.0960  0.4869 -0.6898
 5272SOL     OW27448   0.415   1.617  11.501  0.9683  0.7397  0.3618
 5272SOL    HW127449   0.382   1.692  11.550  0.7582  1.2528 -0.5685
 5272SOL    HW227450   0.369   1.629  11.418  0.2358  2.5619  1.0387
 5273SOL     OW27451   4.713   3.401  13.658  0.0494  0.9117  0.1814
 5273SOL    HW127452   0.068   3.379  13.641 -0.1977 -0.1229  0.2286
 5273SOL    HW227453   4.680   3.437  13.575  1.3668 -2.3659 -1.7456
 5274SOL     OW27454   2.047   0.273  10.945  0.3186 -0.6031 -0.1595
 5274SOL    HW127455   2.124   0.236  10.902  1.7646 -1.2664  2.9681
 5274SOL    HW227456   2.072   0.365  10.946  1.1066 -0.8234  1.6434
 5275SOL     OW27457   4.668   4.558   8.610  0.7702 -0.1671  0.6571
 5275SOL    HW127458   4.674   4.574   8.516  2.6821  0.9261  0.9615
 5275SOL    HW227459   4.711   4.635   8.647  0.2168 -0.5018  2.0005
 5276SOL     OW27460   3.484   0.088  14.570  0.5027 -0.0474  0.3619
 5276SOL    HW127461   3.558   0.117  14.516  1.2409 -0.2927  1.2536
 5276SOL    HW227462   3.448   0.170  14.604  0.7596  0.0714  0.3486
 5277SOL     OW27463   4.098   0.908   6.646 -0.0012  0.4023  0.3434
 5277SOL    HW127464   4.177   0.925   6.596  1.4577 -0.8766  2.1884
 5277SOL    HW227465   4.088   0.986   6.700  2.3784  0.7293  0.2761
 5278SOL     OW27466   4.511   1.184   4.096 -0.1633  0.5275  0.9104
 5278SOL    HW127467   4.514   1.095   4.060  1.4326  0.5853  0.9073
 5278SOL    HW227468   4.427   1.214   4.063 -0.9237 -2.4864  0.1136
 5279SOL     OW27469   3.873   0.293  11.233  0.8012 -0.3834  0.2522
 5279SOL    HW127470   3.967   0.302  11.245  0.6271  0.0157  1.3832
 5279SOL    HW227471   3.836   0.382  11.239  0.5205 -0.3955 -1.3094
 5280SOL     OW27472   3.813   2.568   2.365 -0.3507 -0.1428  0.2573
 5280SOL    HW127473   3.838   2.642   2.309  0.2518 -1.9370 -1.8642
 5280SOL    HW227474   3.728   2.547   2.326  0.2304  0.3373 -1.3006
 5281SOL     OW27475   2.646   1.938  13.049 -0.0550  0.6002  0.0229
 5281SOL    HW127476   2.706   1.891  12.991 -2.0117 -0.5359 -1.0755
 5281SOL    HW227477   2.699   1.964  13.124  2.0152 -0.8290 -0.9179
 5282SOL     OW27478   2.450   2.343   9.149  0.3760 -0.1743  0.0765
 5282SOL    HW127479   2.534   2.375   9.118 -0.5462  2.0113 -0.1854
 5282SOL    HW227480   2.473   2.343   9.242  0.7011  0.1674 -0.0038
 5283SOL     OW27481   1.105   1.393   5.329  0.3988 -0.0152 -0.0180
 5283SOL    HW127482   1.123   1.332   5.401  0.3260 -1.1424 -0.9569
 5283SOL    HW227483   1.140   1.339   5.258 -0.7163 -1.7180  0.7340
 5284SOL     OW27484   2.964   0.155  12.065 -0.0132 -0.4256 -0.2744
 5284SOL    HW127485   2.940   0.244  12.091  1.4078  0.2387 -1.2011
 5284SOL    HW227486   3.047   0.181  12.025 -0.9568 -1.1378 -2.7262
 5285SOL     OW27487   0.440   4.402  17.437 -0.2461  0.5511  0.0840
 5285SOL    HW127488   0.390   4.458  17.376  0.0237  0.8296  0.1178
 5285SOL    HW227489   0.419   4.440  17.522  1.9605 -2.0149  1.7216
 5286SOL     OW27490   1.953   0.241   6.834  0.2106 -0.1082 -0.0229
 5286SOL    HW127491   1.975   0.219   6.743  1.2952  2.1981 -0.3354
 5286SOL    HW227492   2.025   0.300   6.858 -0.5201 -0.2389  2.4167
 5287SOL     OW27493   1.761   4.190  15.057 -0.4593 -0.3226 -0.5744
 5287SOL    HW127494   1.813   4.166  14.980  1.9614  1.2549  0.5564
 5287SOL    HW227495   1.709   4.263  15.022  0.7587 -0.9136 -3.6343
 5288SOL     OW27496   4.579   1.472   8.660 -0.1582  0.2290 -0.2477
 5288SOL    HW127497   4.493   1.508   8.681  0.7690  1.2216  1.8653
 5288SOL    HW227498   4.572   1.446   8.568 -0.3292  0.0652 -0.1879
 5289SOL     OW27499   0.525   0.658   5.292 -0.4746  0.6845  0.3065
 5289SOL    HW127500   0.439   0.685   5.324 -0.2981 -1.5501  2.6295
 5289SOL    HW227501   0.553   0.734   5.241  1.9227 -0.5152 -0.1389
 5290SOL     OW27502   4.051   0.137   2.414 -0.0092 -0.0186 -0.3645
 5290SOL    HW127503   4.072   0.048   2.443  2.3353  1.2156  1.7036
 5290SOL    HW227504   4.072   0.137   2.321 -0.6479 -0.5612 -0.5052
 5291SOL     OW27505   3.335   0.120   9.793  0.0186 -0.1725  0.5427
 5291SOL    HW127506   3.242   0.120   9.770  0.6154 -1.8040 -1.8955
 5291SOL    HW227507   3.343   0.027   9.773  2.2900  0.6751 -2.4174
 5292SOL     OW27508   3.307   1.619   5.066  0.3587 -0.0438 -0.0068
 5292SOL    HW127509   3.397   1.645   5.086  1.2638 -2.7395 -0.6789
 5292SOL    HW227510   3.312   1.560   4.991 -1.9220 -1.0760  0.6378
 5293SOL     OW27511   4.035   1.264   2.586  0.3029  0.4786  0.0131
 5293SOL    HW127512   4.040   1.358   2.569  0.4520 -0.0151 -2.5843
 5293SOL    HW227513   3.949   1.242   2.551  1.4809 -1.0835 -1.9029
 5294SOL     OW27514   0.150   2.579   8.223 -0.1187 -0.1414  0.0460
 5294SOL    HW127515   0.122   2.568   8.314 -0.6192 -1.1038 -0.2272
 5294SOL    HW227516   0.234   2.534   8.221 -1.0021 -1.7312 -0.9849
 5295SOL     OW27517   4.406   2.177   2.116  0.0521  0.2614 -0.5564
 5295SOL    HW127518   4.352   2.152   2.041 -1.0004 -2.0089  0.9656
 5295SOL    HW227519   4.375   2.258   2.156  1.3228 -0.6635  2.2794
 5296SOL     OW27520   4.488   0.984   9.326 -1.0036 -0.0979  0.1526
 5296SOL    HW127521   4.444   0.924   9.265  0.1429 -1.5503  0.7414
 5296SOL    HW227522   4.429   0.987   9.401 -0.2133  1.3901  0.7055
 5297SOL     OW27523   3.552   2.021   2.649 -0.3566 -0.1682 -0.3959
 5297SOL    HW127524   3.582   1.930   2.654 -0.4889 -0.3234 -2.2144
 5297SOL    HW227525   3.457   2.006   2.649 -0.2521 -0.8143  0.1512
 5298SOL     OW27526   2.521   1.250   6.993  0.2987 -0.1870 -0.6022
 5298SOL    HW127527   2.542   1.295   6.911 -1.1385 -1.3745 -1.6301
 5298SOL    HW227528   2.512   1.325   7.052  1.1184 -0.5270 -0.0482
 5299SOL     OW27529   3.056   4.607   8.456 -0.0820 -0.0611  0.8159
 5299SOL    HW127530   3.151   4.596   8.452  0.0522  0.6396  2.0050
 5299SOL    HW227531   3.047   4.679   8.393 -0.8922 -0.2542  0.7042
 5300SOL     OW27532   2.536   1.120  16.921 -0.3435 -0.1948  0.1959
 5300SOL    HW127533   2.553   1.055  16.852 -2.6993  0.8910 -1.4317
 5300SOL    HW227534   2.615   1.170  16.903 -1.3590  1.3138 -0.0161
 5301SOL     OW27535   4.374   1.115   8.420 -0.1601  0.7415 -0.4749
 5301SOL    HW127536   4.405   1.025   8.408  2.4548  1.2075  2.8245
 5301SOL    HW227537   4.346   1.112   8.511  0.9542  2.6119 -0.0763
 5302SOL     OW27538   0.864   3.881   0.485 -0.2584  0.1971 -0.0707
 5302SOL    HW127539   0.795   3.928   0.533  0.1551  2.1958 -1.4255
 5302SOL    HW227540   0.812   3.871   0.406 -0.6339 -0.5607  0.2720
 5303SOL     OW27541   3.103   0.418   5.576 -0.1168  0.1067  0.2040
 5303SOL    HW127542   3.086   0.338   5.526 -0.1883  0.2393  0.0169
 5303SOL    HW227543   3.133   0.467   5.500  2.2421  0.5236  1.4176
 5304SOL     OW27544   0.353   1.745   1.784  0.3593  0.4901 -0.3828
 5304SOL    HW127545   0.396   1.701   1.711 -1.7856 -0.9420 -0.7618
 5304SOL    HW227546   0.263   1.744   1.752  1.1032 -0.0586 -2.4446
 5305SOL     OW27547   4.655   2.240   6.125  0.2831  0.1678  0.6884
 5305SOL    HW127548   4.665   2.330   6.155  2.7769 -0.6723  2.3428
 5305SOL    HW227549   4.561   2.224   6.122  0.6225 -1.7507  0.2908
 5306SOL     OW27550   1.660   3.488   4.111  0.1200 -0.1952  0.4422
 5306SOL    HW127551   1.581   3.483   4.057  0.4417  1.4635 -0.1948
 5306SOL    HW227552   1.694   3.577   4.097 -2.7115  0.5534 -1.7349
 5307SOL     OW27553   1.839   4.155   0.770  0.0306 -0.2748  0.0127
 5307SOL    HW127554   1.918   4.209   0.759  0.6070 -1.0492  0.3193
 5307SOL    HW227555   1.849   4.106   0.852 -0.2503  0.7789  0.6756
 5308SOL     OW27556   4.253   0.175   8.324 -0.2429  0.0783 -0.4122
 5308SOL    HW127557   4.257   0.098   8.268 -1.4188  1.0674 -1.8368
 5308SOL    HW227558   4.256   0.126   8.406 -1.2742 -1.2390 -1.1750
 5309SOL     OW27559   3.197   3.415  12.045  0.0357 -0.1439 -0.2840
 5309SOL    HW127560   3.136   3.382  11.979  0.4935  1.8347 -1.6958
 5309SOL    HW227561   3.138   3.417  12.121 -0.7600  3.4005 -0.9802
 5310SOL     OW27562   1.807   0.892   9.073 -0.2232 -0.2917 -0.2524
 5310SOL    HW127563   1.849   0.923   9.153  0.5887 -0.1965 -0.7197
 5310SOL    HW227564   1.822   0.798   9.076 -3.3794 -0.7940 -0.5402
 5311SOL     OW27565   1.880   2.287   8.435  0.6250 -0.1870 -0.0522
 5311SOL    HW127566   1.958   2.282   8.490  1.2663 -0.5604 -1.0090
 5311SOL    HW227567   1.870   2.382   8.437  2.7397  0.0456 -0.6359
 5312SOL     OW27568   3.430   0.347   2.067  0.0834 -0.1182  0.4625
 5312SOL    HW127569   3.447   0.272   2.125  1.0062  2.0047  2.9084
 5312SOL    HW227570   3.341   0.328   2.037 -0.0391  3.8334 -1.6653
 5313SOL     OW27571   1.911   0.151   3.555  0.5832 -0.7011 -0.5291
 5313SOL    HW127572   1.883   0.241   3.568  0.6325 -0.6775 -0.5877
 5313SOL    HW227573   1.860   0.130   3.476  0.1171 -1.8746  0.0780
 5314SOL     OW27574   2.053   1.596   4.664 -0.5382 -0.1717  0.1081
 5314SOL    HW127575   1.958   1.595   4.649 -1.2068 -0.7034  4.3187
 5314SOL    HW227576   2.073   1.690   4.664  0.8322 -0.4625 -0.7998
 5315SOL     OW27577   4.250   0.608  13.489  0.0477 -0.2547 -0.0736
 5315SOL    HW127578   4.292   0.636  13.570 -1.3537  2.2651 -0.2289
 5315SOL    HW227579   4.169   0.568  13.522 -0.0594 -0.0861 -0.1303
 5316SOL     OW27580   3.337   3.601  15.061  0.1706 -0.4776  0.9884
 5316SOL    HW127581   3.315   3.509  15.079 -1.7537 -0.5710 -1.8658
 5316SOL    HW227582   3.269   3.618  14.996 -0.7937 -1.9463  1.5961
 5317SOL     OW27583   1.224   4.015   9.162  0.5732 -0.8120 -0.0771
 5317SOL    HW127584   1.150   3.960   9.141  1.5055 -1.2395 -2.2019
 5317SOL    HW227585   1.296   3.989   9.104 -0.2647 -0.9318 -1.0600
 5318SOL     OW27586   2.003   2.866   5.013 -0.4407 -0.5910 -0.2079
 5318SOL    HW127587   2.032   2.775   5.020 -1.5870 -0.8691  1.0523
 5318SOL    HW227588   2.077   2.908   5.055 -1.9821  0.6087  1.3242
 5319SOL     OW27589   2.906   0.422   0.760 -0.3342 -0.3164 -0.2021
 5319SOL    HW127590   2.871   0.421   0.671  2.4144  0.1153 -1.2910
 5319SOL    HW227591   2.999   0.445   0.750 -0.4361  0.2216  0.0910
 5320SOL     OW27592   3.268   4.722  16.143  0.2129  0.2311  0.7488
 5320SOL    HW127593   3.313   4.698  16.062  0.4348 -0.5124  1.0955
 5320SOL    HW227594   3.298   0.077  16.151 -2.5300  1.3262 -1.4206
 5321SOL     OW27595   2.678   1.841   8.016 -0.0971 -0.2442 -0.2211
 5321SOL    HW127596   2.683   1.748   8.037 -2.4498 -0.1558  0.6655
 5321SOL    HW227597   2.734   1.832   7.939  2.3759  1.7705  1.3406
 5322SOL     OW27598   0.147   0.438   6.049 -0.4588 -0.0521  0.1698
 5322SOL    HW127599   0.161   0.346   6.027  0.4622 -0.2768  1.7080
 5322SOL    HW227600   0.142   0.476   5.961  0.3029 -1.8027 -0.6373
 5323SOL     OW27601   2.953   2.857  13.324 -0.1603 -0.2649 -0.1758
 5323SOL    HW127602   3.026   2.888  13.376 -0.6729 -2.2749  1.7525
 5323SOL    HW227603   2.895   2.830  13.396 -2.1357 -0.2641 -1.7409
 5324SOL     OW27604   0.460   1.663   1.528  0.6091  0.0803 -0.1968
 5324SOL    HW127605   0.436   1.572   1.543  2.5327 -0.5252 -0.8693
 5324SOL    HW227606   0.544   1.650   1.485  1.0696 -2.2327  1.4062
 5325SOL     OW27607   1.900   3.999   7.284  0.1586 -0.2292 -0.2370
 5325SOL    HW127608   1.828   3.988   7.345  0.1730  1.5479  0.1236
 5325SOL    HW227609   1.936   3.913   7.264  0.3500 -0.1635 -0.1802
 5326SOL     OW27610   0.779   0.103   3.888  0.3540 -0.4731  0.0389
 5326SOL    HW127611   0.777   0.009   3.866 -2.9464 -0.7635  1.4796
 5326SOL    HW227612   0.809   0.132   3.802  0.3422  1.9737  0.8699
 5327SOL     OW27613   2.603   3.218   5.171  0.0643 -0.2123  0.4025
 5327SOL    HW127614   2.529   3.164   5.201 -0.3677  0.0244 -0.2314
 5327SOL    HW227615   2.559   3.288   5.124  1.6130  0.9422  0.6940
 5328SOL     OW27616   1.877   2.714  10.003 -0.1312 -0.3868  0.1473
 5328SOL    HW127617   1.842   2.732  10.090 -0.2205  2.0512 -0.3946
 5328SOL    HW227618   1.966   2.745  10.019 -0.5540 -0.5620  2.8840
 5329SOL     OW27619   3.918   0.257   7.579  0.0029 -0.4199  0.2582
 5329SOL    HW127620   3.854   0.187   7.589 -1.2176  0.6055 -0.3425
 5329SOL    HW227621   3.922   0.285   7.670 -0.6333 -1.8535  0.7183
 5330SOL     OW27622   4.677   0.907   2.383 -0.0465  0.1281 -0.1174
 5330SOL    HW127623   4.652   0.899   2.291 -1.6837  2.3328  0.1212
 5330SOL    HW227624   4.618   0.981   2.400  0.5692  0.3066  1.1671
 5331SOL     OW27625   3.520   3.890   3.578  0.2531 -0.0698 -0.0387
 5331SOL    HW127626   3.467   3.811   3.567  0.8225 -0.6089  1.1020
 5331SOL    HW227627   3.576   3.880   3.501 -1.6843 -0.8341 -1.3658
 5332SOL     OW27628   1.582   2.270   5.258  0.1749  0.0716 -0.2693
 5332SOL    HW127629   1.582   2.238   5.167  1.2126  0.8690 -0.5503
 5332SOL    HW227630   1.488   2.282   5.268 -0.1298 -0.0901 -2.9299
 5333SOL     OW27631   1.175   1.090   0.812 -0.2192 -0.1374  0.3437
 5333SOL    HW127632   1.185   1.133   0.726 -2.2778  0.3917  0.3689
 5333SOL    HW227633   1.108   1.030   0.779 -0.7334 -0.1730  1.4739
 5334SOL     OW27634   1.042   0.079  11.234 -0.6713 -0.4517  0.1551
 5334SOL    HW127635   0.978   0.072  11.163  0.5154 -0.5828 -0.9175
 5334SOL    HW227636   1.005   0.153  11.282  1.2859  0.9717 -0.5150
 5335SOL     OW27637   2.871   4.518   1.873  0.0767 -0.4638 -0.2951
 5335SOL    HW127638   2.963   4.507   1.846 -1.0406 -0.8591 -3.9497
 5335SOL    HW227639   2.881   4.504   1.967  0.7950  3.0161  0.1534
 5336SOL     OW27640   2.536   1.920   4.590 -0.5263 -0.1058 -0.0649
 5336SOL    HW127641   2.565   1.856   4.654 -0.8739  0.6570  0.8524
 5336SOL    HW227642   2.442   1.924   4.607 -0.4480  0.8222  0.1730
 5337SOL     OW27643   1.393   0.599   5.235 -0.0117 -0.0489  0.0579
 5337SOL    HW127644   1.438   0.602   5.151 -0.3800 -1.5888 -0.2119
 5337SOL    HW227645   1.453   0.629   5.303 -0.5365  0.2752  0.3730
 5338SOL     OW27646   2.563   1.938   5.787  0.2915 -0.5364 -0.5390
 5338SOL    HW127647   2.623   1.926   5.714  1.9301  1.5938  0.4576
 5338SOL    HW227648   2.589   1.864   5.842 -2.7424 -1.3503 -0.1971
 5339SOL     OW27649   2.730   0.410   6.519 -0.2354 -0.3267 -0.5307
 5339SOL    HW127650   2.787   0.487   6.529 -1.1563  0.2207  0.5233
 5339SOL    HW227651   2.656   0.438   6.466  0.8670  0.5947 -1.6004
 5340SOL     OW27652   0.805   4.437   6.845 -0.4531 -0.6758  0.5501
 5340SOL    HW127653   0.715   4.427   6.814 -0.3175 -1.2140  0.3334
 5340SOL    HW227654   0.799   4.502   6.915 -0.2275 -2.3616  2.1321
 5341SOL     OW27655   2.714   1.909   6.310 -0.0651  0.3490  0.3431
 5341SOL    HW127656   2.647   1.906   6.242  0.9361 -1.6503 -0.5637
 5341SOL    HW227657   2.688   1.831   6.359 -2.8449  2.2485  1.8704
 5342SOL     OW27658   0.598   4.565   4.824 -0.0271 -0.0997 -0.1982
 5342SOL    HW127659   0.580   4.546   4.732 -0.1317 -3.3483  0.5108
 5342SOL    HW227660   0.558   4.652   4.817  0.3824  0.1875  1.0354
 5343SOL     OW27661   3.451   0.543   6.933 -0.2661  0.1638  0.3249
 5343SOL    HW127662   3.358   0.540   6.912 -0.0301  0.9354 -0.8885
 5343SOL    HW227663   3.484   0.564   6.846  0.1613 -0.2441  0.3874
 5344SOL     OW27664   0.274   3.179   3.655 -0.2104 -0.1926  0.1317
 5344SOL    HW127665   0.301   3.270   3.650  1.3689 -0.6855 -0.4925
 5344SOL    HW227666   0.296   3.164   3.747  0.9804 -1.2755 -0.3135
 5345SOL     OW27667   0.638   2.635   2.639 -0.0625  0.2989  0.3431
 5345SOL    HW127668   0.661   2.672   2.554  0.3595  1.7874  1.1072
 5345SOL    HW227669   0.550   2.672   2.647 -0.3284 -0.4971  1.1216
 5346SOL     OW27670   2.597   1.603   7.810 -0.0520 -0.1564  0.1424
 5346SOL    HW127671   2.659   1.603   7.884 -0.5388 -1.8757  0.5511
 5346SOL    HW227672   2.521   1.554   7.841 -1.3224  0.5121 -1.9582
 5347SOL     OW27673   4.619   2.072  12.196  0.0774  0.4093  0.1374
 5347SOL    HW127674   4.643   2.002  12.258 -1.5430  0.3342  0.6815
 5347SOL    HW227675   4.699   2.093  12.149 -0.5119  0.1067 -0.9994
 5348SOL     OW27676   1.083   1.062  11.012  0.5966  0.5284  0.1596
 5348SOL    HW127677   1.150   1.099  11.070 -0.8948  0.9531  1.5909
 5348SOL    HW227678   1.012   1.127  11.015  2.6170  2.7002  0.9581
 5349SOL     OW27679   1.836   2.638   3.777 -0.3368 -0.1680 -0.1816
 5349SOL    HW127680   1.817   2.544   3.775 -0.8840 -0.0386 -1.2013
 5349SOL    HW227681   1.898   2.643   3.704 -0.9973 -1.1082 -0.8074
 5350SOL     OW27682   2.331   2.833   5.021 -0.2931 -0.1510 -0.3460
 5350SOL    HW127683   2.414   2.789   5.007 -0.5974 -0.3994 -1.3701
 5350SOL    HW227684   2.323   2.819   5.116 -0.2802  0.5786 -0.2388
 5351SOL     OW27685   0.807   4.433   8.537  0.1154  0.2643 -0.3372
 5351SOL    HW127686   0.833   4.356   8.487  3.9512  1.7849 -0.6538
 5351SOL    HW227687   0.749   4.392   8.602 -0.5602  2.5376  0.5253
 5352SOL     OW27688   3.764   2.512   7.239 -0.0322  0.1350  0.2059
 5352SOL    HW127689   3.794   2.541   7.152 -0.8565 -1.3509 -0.5707
 5352SOL    HW227690   3.824   2.558   7.297  0.1596 -1.7599  1.4982
 5353SOL     OW27691   4.617   0.269   9.311  0.1215  0.1268 -0.0435
 5353SOL    HW127692   4.671   0.300   9.383 -0.8263  0.2082  0.6362
 5353SOL    HW227693   4.580   0.192   9.355  1.6546  0.4470  1.7934
 5354SOL     OW27694   2.022   3.570   9.865  0.3763 -0.3649 -0.5469
 5354SOL    HW127695   2.104   3.612   9.890 -0.1857  1.3441 -1.6167
 5354SOL    HW227696   2.006   3.602   9.776  0.9009  0.1738 -0.4462
 5355SOL     OW27697   2.323   2.034   6.661  0.0134 -0.1002  0.6071
 5355SOL    HW127698   2.357   2.030   6.750 -0.5193 -2.3395  0.7228
 5355SOL    HW227699   2.372   2.102   6.616  1.2643 -1.9515 -0.8012
 5356SOL     OW27700   2.518   0.655  13.969  0.2399 -0.7281 -0.7296
 5356SOL    HW127701   2.514   0.568  13.930  1.5769 -1.4359  0.7341
 5356SOL    HW227702   2.493   0.711  13.895 -2.4760  2.4896  2.6407
 5357SOL     OW27703   4.041   3.236   7.043 -0.1617 -0.0727  0.2126
 5357SOL    HW127704   3.973   3.190   6.993  1.7184 -0.6966 -1.7347
 5357SOL    HW227705   4.011   3.326   7.033  0.5181  0.3617  2.0464
 5358SOL     OW27706   1.711   4.436   0.983 -0.1184 -0.1214  0.2904
 5358SOL    HW127707   1.779   4.496   0.952  0.8446 -1.7176 -0.7077
 5358SOL    HW227708   1.691   4.392   0.901  1.3153  0.0687 -0.1790
 5359SOL     OW27709   1.827   1.085   8.871 -0.5598  0.5298  0.2818
 5359SOL    HW127710   1.825   1.019   8.940 -2.1216 -0.2961 -0.5428
 5359SOL    HW227711   1.839   1.163   8.924 -1.6614  0.6722  0.3260
 5360SOL     OW27712   4.557   4.200   3.784 -0.0884 -0.0094 -0.0395
 5360SOL    HW127713   4.558   4.107   3.761  2.1601  0.0256 -0.0886
 5360SOL    HW227714   4.554   4.244   3.699  1.4350  0.7850  0.3342
 5361SOL     OW27715   3.794   0.742   7.380 -0.5997 -0.2093  0.5438
 5361SOL    HW127716   3.802   0.652   7.413  2.7318  0.2989  1.0974
 5361SOL    HW227717   3.828   0.728   7.291 -0.1612 -0.7954  0.7946
 5362SOL     OW27718   4.302   0.886   8.811 -0.4530 -0.0949  0.5714
 5362SOL    HW127719   4.221   0.839   8.791  0.5006 -0.8730 -1.5372
 5362SOL    HW227720   4.360   0.810   8.808 -1.0604 -0.5532  0.4300
 5363SOL     OW27721   3.921   2.219   4.148 -0.5316 -0.0345 -0.3433
 5363SOL    HW127722   3.950   2.259   4.066  1.1335  0.9089  0.7070
 5363SOL    HW227723   3.926   2.126   4.128  1.1176 -0.3928  1.7274
 5364SOL     OW27724   0.537   4.474   3.609 -0.5766  0.7651  0.0932
 5364SOL    HW127725   0.544   4.411   3.681  2.7554 -0.1271 -1.0024
 5364SOL    HW227726   0.580   4.428   3.537  1.2349  1.2297  0.8642
 5365SOL     OW27727   3.741   3.627   4.354  0.1669  0.1195 -0.2826
 5365SOL    HW127728   3.653   3.590   4.345 -0.4163  1.5480 -0.3904
 5365SOL    HW227729   3.763   3.629   4.447 -0.7317  0.2892 -0.0793
 5366SOL     OW27730   3.716   4.056   5.179  0.5058  0.2031  0.2423
 5366SOL    HW127731   3.748   4.113   5.249  1.9300  1.7804 -1.6778
 5366SOL    HW227732   3.636   4.023   5.218 -1.5379  2.5948 -1.8973
 5367SOL     OW27733   4.230   1.814   1.866 -0.5457  0.1415 -0.3275
 5367SOL    HW127734   4.264   1.870   1.796 -2.1985 -0.6248 -1.7372
 5367SOL    HW227735   4.201   1.736   1.820  1.2645 -1.4648  1.2760
 5368SOL     OW27736   3.028   0.932   2.010 -0.1674  0.0036 -0.1740
 5368SOL    HW127737   3.000   0.841   1.997 -0.2035 -0.1954  1.3515
 5368SOL    HW227738   3.012   0.935   2.104 -2.0632  1.3920 -0.5276
 5369SOL     OW27739   0.290   1.924   3.899 -0.3690  0.1073  0.4336
 5369SOL    HW127740   0.256   1.894   3.983 -0.2463 -1.5553 -0.1068
 5369SOL    HW227741   0.320   2.012   3.922 -1.5622  0.4668  0.5960
 5370SOL     OW27742   3.627   1.597   3.854 -0.0937 -0.2345 -0.1828
 5370SOL    HW127743   3.532   1.605   3.845  0.1530  2.0381 -0.9804
 5370SOL    HW227744   3.630   1.502   3.864  1.3775 -0.2593 -0.8986
 5371SOL     OW27745   0.456   4.060  15.588  0.1401 -0.0855 -0.4868
 5371SOL    HW127746   0.418   3.996  15.648  0.9095  1.4796  1.6573
 5371SOL    HW227747   0.497   4.123  15.646  0.1395 -0.7517  0.2365
 5372SOL     OW27748   1.799   0.765  10.384  0.9817 -0.4039 -0.1350
 5372SOL    HW127749   1.858   0.783  10.457  1.6755  1.8315 -1.2357
 5372SOL    HW227750   1.851   0.792  10.308 -1.1382 -0.5912 -1.6496
 5373SOL     OW27751   2.176   0.238   7.431 -0.0042 -0.0072  0.8767
 5373SOL    HW127752   2.136   0.323   7.412 -1.2940 -0.7430  0.3510
 5373SOL    HW227753   2.252   0.236   7.373 -1.3819 -3.1561 -0.7681
 5374SOL     OW27754   1.192   2.590   8.739 -0.0814  0.3152 -0.7797
 5374SOL    HW127755   1.168   2.556   8.826  3.2301 -2.9125 -1.1207
 5374SOL    HW227756   1.280   2.554   8.746 -0.3049 -0.6194 -2.8599
 5375SOL     OW27757   3.086   2.449   9.230  0.1117 -0.2437 -0.3406
 5375SOL    HW127758   3.145   2.523   9.246 -2.4867  1.9239 -0.8481
 5375SOL    HW227759   3.010   2.495   9.194  0.9501  1.7343  0.3819
 5376SOL     OW27760   0.609   3.511   1.882 -0.3777  0.8264  0.3972
 5376SOL    HW127761   0.593   3.528   1.789  2.1040  1.9974  0.1659
 5376SOL    HW227762   0.691   3.562   1.885 -1.1552  1.8995  3.1606
 5377SOL     OW27763   2.550   4.720  13.500 -0.5603  0.2171 -0.2961
 5377SOL    HW127764   2.614   4.649  13.502 -1.8804 -1.0021 -0.9855
 5377SOL    HW227765   2.474   4.673  13.534 -0.6655  0.9858  0.5353
 5378SOL     OW27766   4.667   0.774   2.654  0.0847 -0.1905 -0.8381
 5378SOL    HW127767   4.643   0.800   2.565 -1.4327 -1.6973 -0.8688
 5378SOL    HW227768   4.659   0.857   2.701  0.4476 -1.1388  0.8879
 5379SOL     OW27769   1.417   3.805   9.843  0.0786  0.3035  0.5777
 5379SOL    HW127770   1.330   3.812   9.805 -0.3014 -1.7205  1.0873
 5379SOL    HW227771   1.459   3.870   9.788 -0.3789  0.5689  0.5436
 5380SOL     OW27772   4.374   1.940   5.688  0.3131  0.2362  0.2676
 5380SOL    HW127773   4.410   2.002   5.751  1.0581  1.5811 -1.5131
 5380SOL    HW227774   4.321   1.880   5.742 -0.4017  1.0971  0.5253
 5381SOL     OW27775   2.375   1.018  14.883  0.8188 -0.2049  0.3148
 5381SOL    HW127776   2.465   1.051  14.882 -0.0468  2.2059  0.4976
 5381SOL    HW227777   2.391   0.950  14.948  1.0497  0.6505  1.1586
 5382SOL     OW27778   2.468   4.001   3.141  0.1253  0.4603  0.4519
 5382SOL    HW127779   2.496   4.070   3.201 -0.1489 -0.2333  1.3940
 5382SOL    HW227780   2.516   3.925   3.176 -1.6851 -0.5758  0.6625
 5383SOL     OW27781   0.894   2.890   5.985 -0.4018  0.2376 -0.7603
 5383SOL    HW127782   0.965   2.952   6.005 -1.3396  0.9312  0.4844
 5383SOL    HW227783   0.919   2.868   5.896 -0.3266  0.9000 -0.9019
 5384SOL     OW27784   3.666   4.389  12.059 -0.3156 -0.3362 -0.3496
 5384SOL    HW127785   3.632   4.473  12.090  1.4560  0.4202 -0.4270
 5384SOL    HW227786   3.717   4.359  12.134  0.1169  1.6646  0.1672
 5385SOL     OW27787   3.772   0.126  14.506  0.1891  0.6455  0.1026
 5385SOL    HW127788   3.858   0.105  14.543 -0.3263  0.6881  1.3317
 5385SOL    HW227789   3.785   0.221  14.500 -2.2533  1.0023  0.3002
 5386SOL     OW27790   3.216   4.472   2.120  0.1314  0.1681 -0.2829
 5386SOL    HW127791   3.127   4.490   2.151  0.3018 -1.2726  1.0661
 5386SOL    HW227792   3.242   4.430   2.202 -3.1679 -1.8181 -0.2531
 5387SOL     OW27793   4.355   0.603  17.224 -0.1137  0.0198  0.5084
 5387SOL    HW127794   4.338   0.530  17.164  0.9079 -1.9895  2.6466
 5387SOL    HW227795   4.441   0.570  17.252 -0.2736 -1.4224 -0.6837
 5388SOL     OW27796   4.227   2.577   9.785  0.0586  0.0246  0.2086
 5388SOL    HW127797   4.238   2.559   9.878  2.5168 -0.1207 -0.1144
 5388SOL    HW227798   4.132   2.593   9.782 -0.0918 -0.5896  1.7362
 5389SOL     OW27799   3.006   0.118  11.314 -0.2232  0.2710  0.0938
 5389SOL    HW127800   3.099   0.102  11.300  0.6698  0.8798  5.1655
 5389SOL    HW227801   2.965   0.039  11.279 -0.5756  1.5527 -2.3545
 5390SOL     OW27802   3.879   0.813   2.719 -0.8900  0.0933 -0.7083
 5390SOL    HW127803   3.950   0.871   2.747 -1.1499 -0.2695  0.7000
 5390SOL    HW227804   3.932   0.733   2.719  0.5176  1.0172  0.3174
 5391SOL     OW27805   4.460   3.082   7.318 -0.4688  0.0092 -0.8587
 5391SOL    HW127806   4.427   2.997   7.289  0.3569  0.0347 -1.8979
 5391SOL    HW227807   4.506   3.123   7.244  0.2225  2.9756  1.2249
 5392SOL     OW27808   1.242   1.498   5.065 -0.3045 -0.0313 -0.2818
 5392SOL    HW127809   1.281   1.580   5.034  0.4611 -0.8787 -1.5476
 5392SOL    HW227810   1.318   1.446   5.094 -1.4622  0.2414  3.3105
 5393SOL     OW27811   2.461   4.268   0.867 -0.8295 -0.1124 -0.0974
 5393SOL    HW127812   2.372   4.232   0.864 -0.8333 -0.0944 -0.2076
 5393SOL    HW227813   2.517   4.190   0.868  1.3324  1.4405  0.2482
 5394SOL     OW27814   0.937   4.487   0.230 -0.4500 -0.6991 -0.2008
 5394SOL    HW127815   0.944   4.421   0.162 -1.5200 -0.9851 -0.0398
 5394SOL    HW227816   0.898   4.562   0.186  0.4435 -0.0821  0.0577
 5395SOL     OW27817   3.474   4.564  10.390  0.7820 -0.1423 -0.1648
 5395SOL    HW127818   3.511   4.530  10.472 -1.0299 -1.4081  0.1213
 5395SOL    HW227819   3.557   4.603  10.362  0.9786 -0.4733 -0.0544
 5396SOL     OW27820   2.740   0.515  12.053 -0.2077  0.8969  0.1116
 5396SOL    HW127821   2.648   0.536  12.071  0.0323  0.8659  1.4025
 5396SOL    HW227822   2.763   0.465  12.131  0.9029  3.1106  1.2045
 5397SOL     OW27823   2.402   1.511  10.355 -0.3536 -0.4913 -0.6158
 5397SOL    HW127824   2.406   1.430  10.305 -1.7342 -0.4857 -0.7453
 5397SOL    HW227825   2.335   1.550  10.299  0.2921  1.7923  0.1958
 5398SOL     OW27826   4.318   4.582   3.976 -0.2057  0.4322 -0.0443
 5398SOL    HW127827   4.348   4.501   4.017  2.0119  1.1488 -0.2591
 5398SOL    HW227828   4.391   4.612   3.922 -0.0382 -0.9781 -0.6163
 5399SOL     OW27829   2.344   0.082   5.800 -0.5644 -0.2185 -0.2623
 5399SOL    HW127830   2.288   0.157   5.819 -0.9089 -0.1598 -1.4766
 5399SOL    HW227831   2.275   0.016   5.804 -0.2696 -0.5914 -1.1229
 5400SOL     OW27832   3.606   0.862   3.877 -0.2878  0.4014 -0.8172
 5400SOL    HW127833   3.690   0.903   3.857 -1.6719  3.4018 -0.3807
 5400SOL    HW227834   3.595   0.886   3.969  1.0828  0.2282 -0.6027
 5401SOL     OW27835   2.705   1.757   4.749 -0.5479  0.2894  0.0420
 5401SOL    HW127836   2.722   1.834   4.802 -2.0889 -0.1646  1.1642
 5401SOL    HW227837   2.680   1.691   4.814 -1.8681  1.8082  1.0713
 5402SOL     OW27838   4.640   0.459   3.602 -0.4447 -0.3253  0.3627
 5402SOL    HW127839   4.710   0.510   3.642 -1.7935  0.2684  1.9957
 5402SOL    HW227840   4.593   0.424   3.678 -1.6921  0.4657 -0.0442
 5403SOL     OW27841   4.260   0.613   9.576 -0.9394  0.2740  0.4134
 5403SOL    HW127842   4.248   0.551   9.648 -0.3105 -0.9126 -0.5033
 5403SOL    HW227843   4.168   0.640   9.584 -0.5675  1.1472  1.7863
 5404SOL     OW27844   4.034   0.324   2.672  0.1538  0.4978  0.0905
 5404SOL    HW127845   4.116   0.282   2.699  0.6834  1.4302 -0.0527
 5404SOL    HW227846   4.027   0.284   2.585  2.3525 -2.3686  1.2263
 5405SOL     OW27847   0.169   1.934   2.119  0.5007 -0.0881 -0.4701
 5405SOL    HW127848   0.227   1.861   2.095 -1.1335 -0.9038 -1.9896
 5405SOL    HW227849   0.231   2.004   2.100  0.3245 -0.3889 -2.1688
 5406SOL     OW27850   2.888   0.935   9.630  0.3101 -0.4323 -0.3477
 5406SOL    HW127851   2.819   1.000   9.619  1.2306  1.0409  2.8936
 5406SOL    HW227852   2.959   0.976   9.580  0.6699 -1.4998 -0.7156
 5407SOL     OW27853   4.457   0.282   4.226 -0.3960 -0.2662 -0.1665
 5407SOL    HW127854   4.479   0.376   4.224 -0.1027 -0.3104  0.9608
 5407SOL    HW227855   4.457   0.255   4.317 -0.4323  0.0067 -0.0844
 5408SOL     OW27856   4.012   3.106   1.237 -0.3896 -0.4998 -0.3296
 5408SOL    HW127857   3.926   3.112   1.195 -0.8965 -0.5892  0.7051
 5408SOL    HW227858   4.025   3.013   1.250  3.1044  0.3494  2.2524
 5409SOL     OW27859   4.331   0.216   9.007 -0.2915 -0.2029 -0.0630
 5409SOL    HW127860   4.254   0.263   8.977 -0.4987 -0.6329 -0.2020
 5409SOL    HW227861   4.383   0.205   8.928  1.3599  0.9310  0.8567
 5410SOL     OW27862   1.899   1.711   6.355 -0.6226  0.0632  0.0755
 5410SOL    HW127863   1.873   1.791   6.309 -1.0921 -1.0164 -1.5400
 5410SOL    HW227864   1.812   1.672   6.352 -1.7483  2.6877 -1.3837
 5411SOL     OW27865   2.216   1.334   9.182  0.2552  0.2099 -0.2392
 5411SOL    HW127866   2.144   1.328   9.244 -1.1073 -0.5833 -1.9234
 5411SOL    HW227867   2.204   1.419   9.140  0.2981 -0.6169 -1.9285
 5412SOL     OW27868   3.580   0.509   8.452  0.0163 -0.6212 -0.4196
 5412SOL    HW127869   3.491   0.490   8.481  0.1412  0.9874  0.9781
 5412SOL    HW227870   3.600   0.435   8.394  1.3085 -1.0138  0.5337
 5413SOL     OW27871   2.307   4.708  10.981 -0.0505 -0.0408 -0.1495
 5413SOL    HW127872   2.386   0.022  11.002  0.4645 -0.4716 -1.0959
 5413SOL    HW227873   2.286   0.024  10.904 -3.2391  0.0123  0.7370
 5414SOL     OW27874   4.673   3.672  14.741  0.5085  0.1675  0.3521
 5414SOL    HW127875   4.647   3.611  14.810 -1.0825 -0.0494 -0.4279
 5414SOL    HW227876   4.659   3.758  14.782  1.3182  0.2131  0.5237
 5415SOL     OW27877   3.715   3.322   6.372 -0.0296 -0.5250  0.1640
 5415SOL    HW127878   3.809   3.328   6.358 -0.0123  0.4064  0.6638
 5415SOL    HW227879   3.708   3.263   6.447 -2.3417  1.8878  1.8639
 5416SOL     OW27880   0.747   0.411   7.192  0.5660  0.4803  0.0662
 5416SOL    HW127881   0.833   0.372   7.182 -0.1162 -1.3208  1.2450
 5416SOL    HW227882   0.754   0.461   7.274  2.1995  0.6303 -0.1705
 5417SOL     OW27883   2.857   2.177  10.050  0.8634 -0.3993 -0.4765
 5417SOL    HW127884   2.926   2.205   9.990 -0.0748  0.8699 -0.9610
 5417SOL    HW227885   2.893   2.113  10.112  1.5765  0.7582  0.2932
 5418SOL     OW27886   0.061   1.547   4.326 -0.4653 -0.1773 -0.7721
 5418SOL    HW127887   4.728   1.562   4.390  0.2054  1.7588 -0.4862
 5418SOL    HW227888   0.003   1.505   4.262 -0.2701 -1.2092 -0.2658
 5419SOL     OW27889   2.507   2.061   2.443  0.4865  0.1493  0.8818
 5419SOL    HW127890   2.538   2.146   2.411  0.5530  1.2936  3.9341
 5419SOL    HW227891   2.415   2.083   2.447  1.0195  2.3182  1.0405
 5420SOL     OW27892   0.195   2.554  12.548  0.0400  0.0724  0.1628
 5420SOL    HW127893   0.198   2.572  12.454 -0.4405 -0.8033 -0.0108
 5420SOL    HW227894   0.168   2.638  12.585  1.5108  0.9599 -0.7749
 5421SOL     OW27895   0.272   2.231   8.674  0.2286 -0.1966 -0.1277
 5421SOL    HW127896   0.366   2.213   8.662  0.2309  0.2338 -0.7608
 5421SOL    HW227897   0.263   2.187   8.758 -1.9851  0.1581 -0.1833
 5422SOL     OW27898   4.692   3.044   6.187  0.2254  0.3001  0.3811
 5422SOL    HW127899   4.719   3.054   6.278  2.6060  0.8221 -0.3950
 5422SOL    HW227900   0.042   3.060   6.150 -1.0745 -0.1373 -2.8609
 5423SOL     OW27901   1.325   0.939   1.994  0.2995 -0.2516 -0.3545
 5423SOL    HW127902   1.351   0.847   1.999 -0.6980 -0.5356 -0.3769
 5423SOL    HW227903   1.344   0.942   1.900  1.6350 -1.8327 -0.1445
 5424SOL     OW27904   1.974   3.779   2.362  0.4621 -0.5672 -0.8353
 5424SOL    HW127905   1.910   3.767   2.292  1.3828 -1.7121 -1.4730
 5424SOL    HW227906   2.037   3.843   2.328 -0.0842 -0.0047 -0.7902
 5425SOL     OW27907   0.918   1.445   9.040  0.0689 -0.1464 -0.6754
 5425SOL    HW127908   0.965   1.425   8.959 -0.6966 -1.0617 -0.9011
 5425SOL    HW227909   0.882   1.532   9.022  0.7498  0.0849 -0.8893
 5426SOL     OW27910   2.949   1.780   6.164 -0.1169  0.4709 -0.0363
 5426SOL    HW127911   2.982   1.690   6.159  0.8537  0.8119  0.1964
 5426SOL    HW227912   2.945   1.780   6.260 -1.9201  2.1227 -0.1216
 5427SOL     OW27913   0.694   1.043   3.837 -0.5908  0.1510 -0.0777
 5427SOL    HW127914   0.773   1.096   3.828  1.1770 -2.4721  0.0909
 5427SOL    HW227915   0.721   0.960   3.878 -0.2171  0.8470  1.0788
 5428SOL     OW27916   0.083   4.142  13.447  0.2367 -0.7363 -0.2995
 5428SOL    HW127917   0.066   4.234  13.470  1.7555 -0.9686  1.7234
 5428SOL    HW227918   4.736   4.099  13.464  0.9250 -3.0167 -2.6555
 5429SOL     OW27919   2.148   1.039  13.202  0.9434 -0.1026 -0.2132
 5429SOL    HW127920   2.207   0.964  13.201  0.9468 -0.1065  0.9031
 5429SOL    HW227921   2.134   1.042  13.107  0.0114  1.2287 -0.0350
 5430SOL     OW27922   2.411   3.441  15.422 -0.3858  0.5446  0.0825
 5430SOL    HW127923   2.317   3.424  15.431  0.0127 -0.6595  1.9671
 5430SOL    HW227924   2.443   3.360  15.461 -0.8229  1.0292  1.4567
 5431SOL     OW27925   2.441   2.591   8.243 -0.0982  0.2279 -0.2696
 5431SOL    HW127926   2.440   2.526   8.172 -0.6034  1.6209 -1.5509
 5431SOL    HW227927   2.480   2.671   8.206  0.3275 -1.0687 -2.6201
 5432SOL     OW27928   2.330   3.574  11.377  0.0579  0.8696  0.1715
 5432SOL    HW127929   2.332   3.669  11.381 -0.0223  0.8401  0.9518
 5432SOL    HW227930   2.347   3.554  11.285 -0.2123  3.2137 -0.3812
 5433SOL     OW27931   0.224   0.756   4.456  0.4483 -0.2831 -0.1767
 5433SOL    HW127932   0.260   0.689   4.514  2.3433 -0.6559 -1.7673
 5433SOL    HW227933   0.206   0.827   4.517  0.7597 -1.1740  0.9522
 5434SOL     OW27934   1.493   1.705   0.986 -0.3533 -0.0129 -0.0809
 5434SOL    HW127935   1.538   1.733   1.065  0.2915 -1.1346 -0.0444
 5434SOL    HW227936   1.458   1.624   1.023 -1.2751 -0.4136 -1.8387
 5435SOL     OW27937   3.759   1.856   6.799 -0.2231 -0.3163 -0.7387
 5435SOL    HW127938   3.823   1.912   6.843 -2.5502  0.7862  1.2460
 5435SOL    HW227939   3.690   1.921   6.790  0.7461  0.6810 -0.8367
 5436SOL     OW27940   3.915   2.077   5.585 -0.3485 -0.3132 -0.5146
 5436SOL    HW127941   3.875   1.994   5.610 -3.7387  1.1693 -1.0086
 5436SOL    HW227942   4.005   2.073   5.618  0.1210  1.0630 -1.6246
 5437SOL     OW27943   3.974   3.523   7.421 -0.3846 -0.0963  0.3319
 5437SOL    HW127944   4.056   3.537   7.468 -0.1077 -1.4318  0.2473
 5437SOL    HW227945   3.948   3.457   7.485  2.4909  1.9717  3.6221
 5438SOL     OW27946   1.929   0.394   2.857  0.0785 -0.5076  0.3744
 5438SOL    HW127947   1.947   0.484   2.833  2.5428 -0.9140  0.7073
 5438SOL    HW227948   1.880   0.412   2.938 -0.9948 -0.5821 -0.2637
 5439SOL     OW27949   3.169   0.397   0.669  0.6855 -0.0818  0.7363
 5439SOL    HW127950   3.252   0.420   0.711  1.0685 -1.1628  0.5944
 5439SOL    HW227951   3.171   0.473   0.611 -0.5820 -0.0579  0.7291
 5440SOL     OW27952   1.243   4.570   8.785 -0.3473  0.6028 -0.6527
 5440SOL    HW127953   1.256   4.510   8.711  0.0263  1.7109 -1.4874
 5440SOL    HW227954   1.160   4.605   8.753 -1.4551 -1.9253 -0.5589
 5441SOL     OW27955   4.145   4.358  17.048 -0.1544 -0.6901  0.0378
 5441SOL    HW127956   4.063   4.408  17.046 -0.1764 -0.6917  1.2812
 5441SOL    HW227957   4.117   4.267  17.065  1.0431 -1.4953 -2.3148
 5442SOL     OW27958   2.372   0.632   6.212  0.0678 -0.1579 -0.4379
 5442SOL    HW127959   2.408   0.707   6.260  1.3585 -0.6857 -0.5684
 5442SOL    HW227960   2.450   0.625   6.157  0.3032 -2.5359  0.1968
 5443SOL     OW27961   0.088   2.677   2.520 -0.0413  0.4297  0.4490
 5443SOL    HW127962   0.004   2.650   2.554 -0.4834  0.1274 -0.8638
 5443SOL    HW227963   0.085   2.627   2.438 -1.7732 -0.6820  1.2109
 5444SOL     OW27964   3.690   4.665   3.230 -0.0700 -0.2947 -0.0575
 5444SOL    HW127965   3.676   4.571   3.237  3.2637 -0.6901  1.0262
 5444SOL    HW227966   3.752   4.679   3.302  0.2384 -3.8709  0.3658
 5445SOL     OW27967   0.775   0.553   4.638 -0.1206  0.1997  0.2045
 5445SOL    HW127968   0.805   0.521   4.723 -0.4488 -1.5066 -0.3241
 5445SOL    HW227969   0.820   0.498   4.574 -0.7736  0.6233 -0.6158
 5446SOL     OW27970   4.394   3.855  17.169  0.7058 -0.1432 -0.1800
 5446SOL    HW127971   4.335   3.915  17.215 -0.4751 -1.3546 -0.1314
 5446SOL    HW227972   4.354   3.772  17.194  1.6343  0.1829  2.3860
 5447SOL     OW27973   0.074   3.065   2.004  0.1743  0.4980 -0.0016
 5447SOL    HW127974   0.038   3.002   1.941 -0.3192  0.8878 -0.1145
 5447SOL    HW227975   0.158   3.078   1.960  1.2401 -1.8157  1.3305
 5448SOL     OW27976   4.197   2.798   2.492  0.1524 -0.7229  0.4377
 5448SOL    HW127977   4.130   2.831   2.552  0.8867 -0.6237  1.2001
 5448SOL    HW227978   4.208   2.876   2.439  0.1519 -2.0037 -1.4528
 5449SOL     OW27979   2.206   3.084   9.484  0.5405  0.6436 -0.4308
 5449SOL    HW127980   2.198   3.013   9.548 -0.7814  0.5318 -0.7233
 5449SOL    HW227981   2.121   3.092   9.441 -0.0164  0.0195  0.5617
 5450SOL     OW27982   4.143   1.817  17.287 -0.5587 -0.0162 -0.1056
 5450SOL    HW127983   4.048   1.813  17.281 -0.7999  2.3166  1.9876
 5450SOL    HW227984   4.167   1.729  17.256  0.9410 -0.2579  1.7047
 5451SOL     OW27985   1.715   4.383   9.285 -0.3865 -0.1482 -0.1367
 5451SOL    HW127986   1.698   4.409   9.194 -2.1407 -1.1697 -0.0897
 5451SOL    HW227987   1.634   4.420   9.319 -0.6896 -0.4081 -0.5833
 5452SOL     OW27988   3.848   0.121   3.068 -0.1447 -0.2146  0.9271
 5452SOL    HW127989   3.811   0.162   2.990  0.0228 -2.4481 -0.3122
 5452SOL    HW227990   3.778   0.064   3.100  0.0818 -1.1714 -0.2842
 5453SOL     OW27991   0.903   3.523   7.542 -0.0223 -0.8585 -0.4299
 5453SOL    HW127992   0.966   3.595   7.543  0.0055 -0.9073  0.9322
 5453SOL    HW227993   0.838   3.545   7.476 -1.6265  0.6939  1.6596
 5454SOL     OW27994   1.237   1.149  10.060 -0.2152  0.0496 -0.3925
 5454SOL    HW127995   1.200   1.095  10.130 -0.6598  1.2523  0.2971
 5454SOL    HW227996   1.232   1.238  10.095  0.2279 -0.2268  0.3619
 5455SOL     OW27997   1.059   1.859   8.092  0.1993 -0.0550  0.4487
 5455SOL    HW127998   0.985   1.812   8.128  0.9516  0.3393  2.5352
 5455SOL    HW227999   1.013   1.938   8.063 -0.5551 -1.2893 -1.6714
 5456SOL     OW28000   0.186   1.423   4.567 -0.2405 -0.0083 -0.3817
 5456SOL    HW128001   0.141   1.406   4.483 -2.8043  2.5037  0.4937
 5456SOL    HW228002   0.136   1.352   4.609  1.1879 -1.2995 -0.8628
 5457SOL     OW28003   3.198   0.575   8.310  0.2739  0.3318  0.0688
 5457SOL    HW128004   3.226   0.526   8.233 -0.3592  0.8379 -0.4835
 5457SOL    HW228005   3.103   0.578   8.297  0.1850 -1.9339  0.1763
 5458SOL     OW28006   3.580   3.938   8.615  0.4399  0.5457 -0.0212
 5458SOL    HW128007   3.527   3.957   8.692  0.3603 -0.8816  0.2691
 5458SOL    HW228008   3.509   3.898   8.565  0.4057  1.7780 -0.9439
 5459SOL     OW28009   2.408   3.593   2.819 -0.1896  0.0167 -0.1806
 5459SOL    HW128010   2.341   3.629   2.762 -0.0485 -0.4650 -0.6440
 5459SOL    HW228011   2.394   3.656   2.890 -0.5469 -1.4618  1.0342
 5460SOL     OW28012   0.983   4.287   6.008 -0.5427  0.0467 -0.1003
 5460SOL    HW128013   0.986   4.330   6.094 -0.1950 -1.6094  0.7179
 5460SOL    HW228014   1.017   4.198   6.020 -0.2573  0.1257 -0.3373
 5461SOL     OW28015   3.651   0.520   1.808 -0.1613 -0.4800  0.0646
 5461SOL    HW128016   3.673   0.548   1.897 -2.7512  0.1542  0.4808
 5461SOL    HW228017   3.631   0.602   1.763 -1.2064 -0.3908  0.7029
 5462SOL     OW28018   4.362   3.984   5.298  0.2874 -0.2749  0.2567
 5462SOL    HW128019   4.412   3.944   5.369 -0.8660 -0.6002  0.8849
 5462SOL    HW228020   4.423   4.053   5.272 -1.1848  0.6163 -0.7931
 5463SOL     OW28021   1.831   4.401   2.936 -0.0957 -0.0242 -0.0910
 5463SOL    HW128022   1.877   4.406   2.852 -0.1524 -1.1327 -0.1951
 5463SOL    HW228023   1.762   4.462   2.911 -2.0680 -2.1224  0.1808
 5464SOL     OW28024   4.311   1.900   0.298 -0.1390  0.2844  0.3287
 5464SOL    HW128025   4.281   1.949   0.221 -2.6694 -0.0354  1.1214
 5464SOL    HW228026   4.406   1.911   0.292 -0.0243 -0.8545  0.1310
 5465SOL     OW28027   2.446   3.214   1.770  0.2896  0.2788  0.7827
 5465SOL    HW128028   2.491   3.297   1.752  0.9555  0.1323  1.8097
 5465SOL    HW228029   2.424   3.191   1.679  2.0104  1.8798 -0.0325
 5466SOL     OW28030   1.826   0.659   5.717 -0.3839  0.1891 -0.2984
 5466SOL    HW128031   1.864   0.589   5.769 -0.0014 -2.1372 -3.6723
 5466SOL    HW228032   1.817   0.604   5.639 -1.1717 -0.4274  0.2243
 5467SOL     OW28033   3.097   0.272   4.309 -0.2789 -0.4654 -0.0685
 5467SOL    HW128034   3.023   0.266   4.369 -2.7766 -2.1010 -3.2516
 5467SOL    HW228035   3.146   0.341   4.353 -1.0897 -0.3943  0.7351
 5468SOL     OW28036   4.432   4.376   2.720 -0.5471 -0.0423 -0.1639
 5468SOL    HW128037   4.513   4.417   2.690 -0.8040 -0.5465 -1.5671
 5468SOL    HW228038   4.418   4.323   2.641 -2.1129 -0.8259  0.6452
 5469SOL     OW28039   2.384   2.675   8.743 -0.5039 -0.1995  0.3119
 5469SOL    HW128040   2.322   2.746   8.756  0.5208  0.2746  2.7639
 5469SOL    HW228041   2.449   2.722   8.692 -0.8970 -0.7341 -0.6802
 5470SOL     OW28042   0.241   3.344  13.631 -0.0393 -0.2354  0.1697
 5470SOL    HW128043   0.274   3.293  13.706 -1.1186  1.4625  1.8023
 5470SOL    HW228044   0.318   3.376  13.584 -0.0912 -1.0451 -0.4624
 5471SOL     OW28045   1.161   2.199  15.705  0.6976 -0.6306 -0.0769
 5471SOL    HW128046   1.175   2.130  15.769  1.8045  0.2390  0.6122
 5471SOL    HW228047   1.084   2.240  15.744 -0.8977 -2.1642 -1.6311
 5472SOL     OW28048   4.057   3.968   3.323  0.2993  0.5905  0.2571
 5472SOL    HW128049   3.970   4.002   3.300  1.0919  0.4718 -2.8579
 5472SOL    HW228050   4.118   4.025   3.277  2.1210 -1.2230  0.4201
 5473SOL     OW28051   3.322   0.693   7.219 -0.4558 -0.1730 -0.1406
 5473SOL    HW128052   3.412   0.681   7.189 -1.7129 -0.5029 -3.7686
 5473SOL    HW228053   3.295   0.752   7.149  2.3323 -0.9938 -1.8611
 5474SOL     OW28054   3.028   3.262  10.364 -0.1328  0.0575  0.4987
 5474SOL    HW128055   3.074   3.197  10.418  4.1056 -0.0160 -3.1922
 5474SOL    HW228056   3.093   3.273  10.295 -0.2708 -1.4421  0.1136
 5475SOL     OW28057   3.168   2.465   0.864  0.3021 -0.2230 -0.5957
 5475SOL    HW128058   3.124   2.388   0.829 -0.9858 -0.4127  1.4587
 5475SOL    HW228059   3.154   2.459   0.958  3.4411  3.7766  0.1566
 5476SOL     OW28060   4.421   1.826   7.817 -0.6477  0.2728  0.2570
 5476SOL    HW128061   4.422   1.911   7.774 -1.8272 -0.3766 -1.0753
 5476SOL    HW228062   4.337   1.793   7.785 -1.3491  1.5712  0.7590
 5477SOL     OW28063   4.193   4.204   3.851  0.1272 -0.6693 -0.8379
 5477SOL    HW128064   4.173   4.298   3.846  3.3525  0.0626 -0.5461
 5477SOL    HW228065   4.284   4.215   3.878  0.1314 -0.4532 -0.9383
 5478SOL     OW28066   4.010   0.487   4.377 -0.1064 -0.1625  0.5072
 5478SOL    HW128067   3.957   0.520   4.305 -0.8333  0.2846  1.2504
 5478SOL    HW228068   4.077   0.435   4.331  1.2901  0.7873  1.4565
 5479SOL     OW28069   2.296   3.008   2.978 -0.3681  0.0553  0.0316
 5479SOL    HW128070   2.272   3.038   3.066  1.1916  0.2458  0.3926
 5479SOL    HW228071   2.250   3.076   2.927 -1.0122  0.6795  1.4487
 5480SOL     OW28072   2.392   3.262   7.300  0.5219 -0.5494  0.0784
 5480SOL    HW128073   2.380   3.257   7.395 -2.2963  1.1383 -0.1843
 5480SOL    HW228074   2.406   3.172   7.272 -0.0294 -0.6418  0.0876
 5481SOL     OW28075   2.033   0.609   9.326 -0.2653 -0.8610  0.1273
 5481SOL    HW128076   2.069   0.605   9.238  2.3836 -2.1985  1.2848
 5481SOL    HW228077   2.014   0.516   9.328  0.0838 -0.9235  0.3717
 5482SOL     OW28078   4.460   1.664  14.219 -0.3972 -0.4183 -0.0248
 5482SOL    HW128079   4.548   1.640  14.247 -0.2061 -0.1092 -0.3630
 5482SOL    HW228080   4.473   1.699  14.131  0.7451 -0.4259  0.1405
 5483SOL     OW28081   3.447   0.824   0.008 -0.5298  0.6411  0.4581
 5483SOL    HW128082   3.390   0.860  17.684 -0.3558 -0.4920 -0.2842
 5483SOL    HW228083   3.388   0.828   0.083 -0.5302  0.5983  0.4601
 5484SOL     OW28084   4.110   2.761  12.809  0.2312  0.1864  0.0645
 5484SOL    HW128085   4.085   2.845  12.772  0.8699  0.5722  0.5052
 5484SOL    HW228086   4.072   2.778  12.896  0.2913  2.3689 -0.3328
 5485SOL     OW28087   3.601   4.588   2.907  0.0890 -0.1380  0.4138
 5485SOL    HW128088   3.577   4.656   2.969 -1.5756 -0.1536 -0.2167
 5485SOL    HW228089   3.651   4.630   2.837 -0.9281 -0.3610 -0.4524
 5486SOL     OW28090   3.037   2.761   7.640  0.3855 -0.0502 -0.0041
 5486SOL    HW128091   3.066   2.675   7.610  1.8688  1.0543 -1.7057
 5486SOL    HW228092   3.090   2.772   7.719  2.7353  0.2992 -1.6393
 5487SOL     OW28093   2.686   2.340   2.721 -0.0928  0.4249  0.0840
 5487SOL    HW128094   2.667   2.249   2.699  1.0160  0.6307 -1.7674
 5487SOL    HW228095   2.632   2.358   2.797 -0.9182  0.7894 -0.5876
 5488SOL     OW28096   2.410   4.508   3.026  0.2551  0.0802  0.0399
 5488SOL    HW128097   2.428   4.595   3.063  1.7633 -0.6041  0.9179
 5488SOL    HW228098   2.493   4.467   3.050 -0.2596  0.0358  1.7376
 5489SOL     OW28099   2.417   3.837   2.354 -0.0150 -0.1444 -0.1515
 5489SOL    HW128100   2.402   3.747   2.323 -0.1839 -1.0419  2.5289
 5489SOL    HW228101   2.511   3.838   2.368 -0.0564 -1.5133  0.2139
 5490SOL     OW28102   2.957   0.932   3.627  0.1625 -0.3917  0.0710
 5490SOL    HW128103   2.866   0.961   3.638  0.7026  2.0707 -2.0221
 5490SOL    HW228104   2.996   1.020   3.620  1.4442 -0.9509  0.2091
 5491SOL     OW28105   4.507   1.969  11.114 -0.4054 -0.1492  1.0345
 5491SOL    HW128106   4.435   1.934  11.062  1.9946 -1.1254 -1.6166
 5491SOL    HW228107   4.499   1.915  11.192  0.6057  0.3401  1.4822
 5492SOL     OW28108   0.491   3.629   3.939  0.3041  0.2363 -0.8642
 5492SOL    HW128109   0.411   3.575   3.935 -0.5973  1.5373 -0.3759
 5492SOL    HW228110   0.518   3.620   4.030  0.4148  0.3406 -0.8863
 5493SOL     OW28111   2.873   0.056  14.197 -0.2140 -0.1001  0.0072
 5493SOL    HW128112   2.950   0.024  14.244 -1.2587 -1.4562  0.7812
 5493SOL    HW228113   2.806   0.011  14.248 -0.2727 -0.6108 -0.5194
 5494SOL     OW28114   3.691   4.413   7.577  0.4536  0.6534 -0.5630
 5494SOL    HW128115   3.692   4.484   7.642 -1.4846  0.0720  0.0796
 5494SOL    HW228116   3.624   4.447   7.518 -1.5129 -0.1198  1.2089
 5495SOL     OW28117   1.183   1.712   1.593  0.2067 -0.5546  0.3295
 5495SOL    HW128118   1.270   1.746   1.614 -0.4520  1.9544 -1.1179
 5495SOL    HW228119   1.134   1.787   1.560 -0.3858 -0.3457  1.6903
 5496SOL     OW28120   4.357   2.093  12.334 -0.2075 -0.3535  0.6333
 5496SOL    HW128121   4.434   2.059  12.289  0.4864 -0.9372  2.2743
 5496SOL    HW228122   4.386   2.171  12.381  1.8502  0.3703 -1.8376
 5497SOL     OW28123   0.251   0.146   4.691  0.4911 -0.4160 -0.5535
 5497SOL    HW128124   0.251   0.205   4.615  1.4488  1.7116  1.0804
 5497SOL    HW228125   0.221   0.070   4.642  1.3271 -1.3524  0.3945
 5498SOL     OW28126   2.495   3.462   5.015 -0.5352  0.2857  0.3806
 5498SOL    HW128127   2.532   3.432   4.932 -0.6556 -2.6707  1.3964
 5498SOL    HW228128   2.567   3.519   5.039  0.3162 -0.1715 -1.0748
 5499SOL     OW28129   0.969   1.157   3.927 -0.1879  0.8238 -0.0820
 5499SOL    HW128130   1.042   1.115   3.882 -1.1629 -0.0037 -0.8783
 5499SOL    HW228131   0.975   1.104   4.007 -0.3569  0.5575 -0.2443
 5500SOL     OW28132   3.164   4.063  13.874  0.1162  0.2720  0.4095
 5500SOL    HW128133   3.127   4.137  13.825  0.2656 -0.2314 -0.4511
 5500SOL    HW228134   3.149   3.986  13.819 -0.2604 -0.5121  1.6099
 5501SOL     OW28135   0.757   3.213  13.122 -0.3817  0.9515  0.3104
 5501SOL    HW128136   0.749   3.222  13.217  1.1785 -0.8688  0.6211
 5501SOL    HW228137   0.739   3.121  13.103 -1.4827  0.9783  1.2517
 5502SOL     OW28138   3.357   1.544  13.328 -0.3347  0.3876 -0.0118
 5502SOL    HW128139   3.324   1.574  13.412  1.7038  3.5103 -0.2981
 5502SOL    HW228140   3.285   1.486  13.307  0.1564  0.4302 -1.8297
 5503SOL     OW28141   3.278   2.117   2.963 -0.3387 -0.8017 -0.1713
 5503SOL    HW128142   3.279   2.213   2.956 -1.8237 -0.8953 -1.7877
 5503SOL    HW228143   3.323   2.100   2.880  0.6441 -0.3128  0.2589
 5504SOL     OW28144   3.672   2.883   4.335  0.2087 -0.3161 -0.2556
 5504SOL    HW128145   3.722   2.934   4.271  1.1839 -2.7155 -1.4330
 5504SOL    HW228146   3.663   2.945   4.408  1.1353  0.1639 -0.5501
 5505SOL     OW28147   0.477   3.066   7.228  0.2423 -0.3011  0.4769
 5505SOL    HW128148   0.405   3.051   7.166 -0.2520 -1.2089  1.2735
 5505SOL    HW228149   0.555   3.058   7.173 -0.8576 -0.0557 -1.1174
 5506SOL     OW28150   4.223   2.725  10.152  0.0203 -0.1398  0.1465
 5506SOL    HW128151   4.306   2.732  10.104 -0.1533  0.3945 -0.0719
 5506SOL    HW228152   4.255   2.686  10.234 -0.7182  0.0917  0.5362
 5507SOL     OW28153   0.515   4.487  10.264  0.3169  0.8947 -0.1537
 5507SOL    HW128154   0.529   4.393  10.276 -1.2187  0.5975 -0.7606
 5507SOL    HW228155   0.450   4.490  10.194  0.3790  0.5003 -0.2278
 5508SOL     OW28156   4.584   2.577  14.053 -0.1520  0.2713 -0.0953
 5508SOL    HW128157   4.655   2.641  14.057 -1.3698  1.5442  1.4656
 5508SOL    HW228158   4.643   2.504  14.035 -0.1200  0.5486 -1.1203
 5509SOL     OW28159   4.723   0.622  12.041 -0.5539  0.1288  0.1620
 5509SOL    HW128160   0.053   0.687  12.020  0.4193 -0.5331  1.2178
 5509SOL    HW228161   4.651   0.657  11.989 -1.9449 -1.1259  1.2341
 5510SOL     OW28162   1.198   0.374   4.071 -0.0262 -0.7280 -0.5259
 5510SOL    HW128163   1.236   0.361   3.985 -1.3192  0.7674 -1.3317
 5510SOL    HW228164   1.120   0.318   4.074 -0.3851 -0.2224 -0.3860
 5511SOL     OW28165   3.511   0.532   6.178 -0.0707  0.3167  0.0913
 5511SOL    HW128166   3.421   0.557   6.158 -0.2065 -0.2534 -0.0342
 5511SOL    HW228167   3.531   0.462   6.115  0.4771 -1.6700  2.4613
 5512SOL     OW28168   0.651   4.360   2.473 -0.1865  0.5541  0.2065
 5512SOL    HW128169   0.739   4.362   2.437  0.4257  0.5865  1.6906
 5512SOL    HW228170   0.645   4.277   2.521 -0.5841  0.3704 -0.1596
 5513SOL     OW28171   4.140   3.681  10.014 -0.2966  0.4385 -0.1631
 5513SOL    HW128172   4.057   3.695  10.059 -0.3278  2.1447 -0.7434
 5513SOL    HW228173   4.200   3.682  10.088 -1.7830 -2.1049  1.0530
 5514SOL     OW28174   1.369   1.079   1.424  0.1859  0.1236  0.5473
 5514SOL    HW128175   1.291   1.025   1.417  1.6944 -1.8685 -0.8033
 5514SOL    HW228176   1.371   1.104   1.516  0.5559  0.2290  0.5112
 5515SOL     OW28177   1.769   4.341   2.250 -0.1138 -0.2251 -0.6559
 5515SOL    HW128178   1.802   4.251   2.243 -0.5929 -0.4545 -0.0570
 5515SOL    HW228179   1.834   4.389   2.199  0.6696 -0.5678  0.0104
 5516SOL     OW28180   1.481   4.725   1.541 -0.5323  0.4168  0.2181
 5516SOL    HW128181   1.565   4.693   1.576 -0.9851  0.7323  1.5897
 5516SOL    HW228182   1.432   4.695   1.618  0.2658 -0.5672  0.3555
 5517SOL     OW28183   1.381   0.490   5.765  0.0603  0.3491  0.4870
 5517SOL    HW128184   1.346   0.541   5.839  0.4073 -1.4276  1.8866
 5517SOL    HW228185   1.444   0.432   5.809  1.4008  2.4026  1.3181
 5518SOL     OW28186   1.413   2.486   1.298 -0.0357 -0.4135  0.0705
 5518SOL    HW128187   1.327   2.529   1.301  0.0734 -0.1772 -0.1638
 5518SOL    HW228188   1.428   2.497   1.204 -0.9385 -0.1503 -0.0463
 5519SOL     OW28189   0.089   4.188  15.057 -0.7173  0.2056 -0.3499
 5519SOL    HW128190   0.097   4.104  15.012  1.1192  0.4667 -0.5297
 5519SOL    HW228191   0.009   4.167  15.105  0.1565 -0.0048  1.0054
 5520SOL     OW28192   3.337   3.552   9.231  0.0535  0.1822 -0.0598
 5520SOL    HW128193   3.390   3.603   9.293 -1.7035  0.7148  1.0156
 5520SOL    HW228194   3.352   3.586   9.143  2.5599  0.6705  0.5515
 5521SOL     OW28195   1.973   1.459   8.702 -0.2836  0.1731 -0.4984
 5521SOL    HW128196   1.939   1.380   8.661  0.3118 -0.9833  1.2558
 5521SOL    HW228197   2.051   1.434   8.751  0.0758  0.1123 -1.0959
 5522SOL     OW28198   0.377   2.852  12.259  0.1529 -0.2098  0.4346
 5522SOL    HW128199   0.349   2.840  12.168 -0.8112 -2.5612  1.0307
 5522SOL    HW228200   0.470   2.871  12.248  0.6247 -3.8415 -1.8477
 5523SOL     OW28201   2.137   4.032  15.605  0.1530  0.1506 -0.2887
 5523SOL    HW128202   2.112   4.028  15.513  0.0416 -1.1024 -0.1955
 5523SOL    HW228203   2.108   4.120  15.630 -2.6028 -0.6037 -0.8921
 5524SOL     OW28204   4.144   3.937   7.873 -0.2677  0.0300  0.3682
 5524SOL    HW128205   4.225   3.982   7.849 -1.3616  0.8323 -1.7669
 5524SOL    HW228206   4.086   4.010   7.894 -0.7786  0.1059 -1.3256
 5525SOL     OW28207   3.782   1.042   3.194  0.2736  0.3040  1.1041
 5525SOL    HW128208   3.697   1.013   3.160  0.0614  0.9559  1.0868
 5525SOL    HW228209   3.755   1.069   3.282 -0.9230  1.3845  0.4008
 5526SOL     OW28210   2.151   2.236   4.585 -0.1217  0.3666 -0.3157
 5526SOL    HW128211   2.084   2.287   4.631 -1.0659  0.0370 -1.2962
 5526SOL    HW228212   2.130   2.251   4.492 -1.4586  2.5164  0.3386
 5527SOL     OW28213   1.474   3.933   9.066 -0.0625  0.1231 -0.2166
 5527SOL    HW128214   1.565   3.940   9.037 -0.2045  0.2752 -0.6305
 5527SOL    HW228215   1.473   3.860   9.128  0.5455  1.0176  0.8374
 5528SOL     OW28216   4.621   0.887   3.483  0.7888 -0.6812  0.1048
 5528SOL    HW128217   4.605   0.848   3.397 -1.4216  1.4343 -0.4268
 5528SOL    HW228218   4.656   0.971   3.454 -0.2265 -0.5193 -0.6627
 5529SOL     OW28219   3.562   2.426   3.502  0.8210  0.7123 -0.4093
 5529SOL    HW128220   3.592   2.493   3.441  2.8700 -1.2466 -1.5661
 5529SOL    HW228221   3.478   2.398   3.466  0.0447 -1.3340  2.9221
 5530SOL     OW28222   3.552   3.159   2.199 -0.2852  0.0914 -0.3062
 5530SOL    HW128223   3.506   3.242   2.212  2.1876  1.5698 -1.1088
 5530SOL    HW228224   3.519   3.136   2.112  0.1184 -2.0496  0.0904
 5531SOL     OW28225   2.203   0.651   7.967 -0.8170 -0.1319  0.6718
 5531SOL    HW128226   2.170   0.719   8.025 -1.7924 -0.3576  0.3905
 5531SOL    HW228227   2.291   0.688   7.977 -0.0310 -1.9834  0.4864
 5532SOL     OW28228   1.545   0.947   9.132  0.4881  0.1412 -0.4881
 5532SOL    HW128229   1.511   1.008   9.067  2.8966  2.2477  0.2140
 5532SOL    HW228230   1.639   0.943   9.112 -0.1572  0.5715 -3.5381
 5533SOL     OW28231   0.299   2.344   5.665 -0.2990 -0.3165 -0.4245
 5533SOL    HW128232   0.239   2.269   5.664 -0.7104 -0.0372  2.7012
 5533SOL    HW228233   0.296   2.361   5.759  0.2183 -0.4040 -0.3919
 5534SOL     OW28234   3.163   2.011  12.291  0.5655 -0.5093 -0.3411
 5534SOL    HW128235   3.257   2.014  12.304  0.4008 -1.0298  0.9252
 5534SOL    HW228236   3.149   1.925  12.332  0.0329 -0.3325 -0.1537
 5535SOL     OW28237   0.687   3.869   6.158 -0.6191  0.5798  0.2843
 5535SOL    HW128238   0.679   3.774   6.162 -0.8628  0.5695 -0.4422
 5535SOL    HW228239   0.761   3.870   6.218  0.7964  1.9711 -1.4901
 5536SOL     OW28240   1.013   3.507   9.025 -0.3609 -0.0755  0.1845
 5536SOL    HW128241   0.939   3.450   9.000 -0.8862  1.8584 -2.6634
 5536SOL    HW228242   0.981   3.591   8.994  1.7187  0.0249 -1.6315
 5537SOL     OW28243   3.637   4.062   9.067 -0.3976  0.2191 -0.5186
 5537SOL    HW128244   3.671   4.040   9.154  2.6155  3.1131 -0.9872
 5537SOL    HW228245   3.692   4.137   9.046 -0.1515 -0.5266 -2.5132
 5538SOL     OW28246   3.494   3.506   5.179  0.3938  0.3577 -0.0079
 5538SOL    HW128247   3.551   3.457   5.238  2.4137  1.1430 -1.3044
 5538SOL    HW228248   3.460   3.567   5.244  0.7543  0.4824  0.0626
 5539SOL     OW28249   2.937   0.942   2.790  0.1421  0.1666  0.4761
 5539SOL    HW128250   2.976   1.004   2.728  1.0371 -1.7560 -0.8884
 5539SOL    HW228251   2.882   0.999   2.844 -1.5547 -2.6731  1.7070
 5540SOL     OW28252   4.460   2.883   2.586  0.0663  0.5654 -0.1081
 5540SOL    HW128253   4.429   2.913   2.501 -2.3039 -1.0070  0.1744
 5540SOL    HW228254   4.469   2.789   2.573 -0.6797  0.3405  0.9676
 5541SOL     OW28255   0.688   4.317   2.094  0.1102 -0.0313  0.8564
 5541SOL    HW128256   0.676   4.225   2.118 -2.9446 -0.0794 -0.8455
 5541SOL    HW228257   0.768   4.348   2.137 -0.4591  1.2591  0.9808
 5542SOL     OW28258   3.974   1.218  12.229  0.5324  0.2809 -0.8504
 5542SOL    HW128259   3.895   1.273  12.228  0.2856 -0.0629 -0.2423
 5542SOL    HW228260   4.044   1.283  12.216 -0.9635  2.1046  0.2367
 5543SOL     OW28261   0.208   1.129   9.311 -0.0886  0.2724 -0.0968
 5543SOL    HW128262   0.127   1.097   9.352  0.1241 -1.1106 -0.7841
 5543SOL    HW228263   0.183   1.209   9.265 -0.3949  1.1894  1.6537
 5544SOL     OW28264   1.768   2.544   8.347  0.2404 -1.1436  0.5394
 5544SOL    HW128265   1.775   2.521   8.254 -1.5079 -2.5614  0.7591
 5544SOL    HW228266   1.835   2.611   8.361 -0.4431 -0.1200 -1.0559
 5545SOL     OW28267   2.834   2.535   4.213  0.1092  0.4475 -0.5127
 5545SOL    HW128268   2.885   2.605   4.174 -1.0094  1.4363 -0.2082
 5545SOL    HW228269   2.746   2.541   4.176 -0.7285 -1.3466  1.1376
 5546SOL     OW28270   1.599   0.940  12.450  0.1544  0.7639 -0.5336
 5546SOL    HW128271   1.622   1.014  12.507 -1.3638 -0.0736  1.1342
 5546SOL    HW228272   1.679   0.888  12.452 -1.1463 -1.1703  0.8437
 5547SOL     OW28273   2.853   1.433   8.253 -0.2129 -0.0529  0.2069
 5547SOL    HW128274   2.857   1.381   8.334 -1.1491  2.1416  1.6398
 5547SOL    HW228275   2.943   1.464   8.240 -0.5797  1.2885  0.9137
 5548SOL     OW28276   3.020   0.158   0.519  0.1487  0.3775  0.3645
 5548SOL    HW128277   3.061   0.234   0.559 -1.4901  2.0515 -1.1838
 5548SOL    HW228278   3.002   0.107   0.598 -1.8980 -0.7037 -0.8124
 5549SOL     OW28279   4.119   2.915   8.363 -0.5466 -0.2824 -0.7030
 5549SOL    HW128280   4.102   2.824   8.387 -1.0881 -0.2175 -0.8360
 5549SOL    HW228281   4.032   2.941   8.334 -0.1559 -0.5526 -2.1091
 5550SOL     OW28282   1.468   0.219   1.804  0.1497  0.0304  0.0851
 5550SOL    HW128283   1.481   0.218   1.709 -0.9931  2.7301 -0.1123
 5550SOL    HW228284   1.436   0.131   1.823  2.5777 -0.7716  0.4926
 5551SOL     OW28285   2.882   4.207   6.907  0.6174 -0.0498 -0.3014
 5551SOL    HW128286   2.921   4.217   6.994 -1.2551  0.6299  0.4591
 5551SOL    HW228287   2.931   4.140   6.859  2.3877 -0.3710  1.9333
 5552SOL     OW28288   3.786   1.695   5.435  0.3371  0.2114  0.2789
 5552SOL    HW128289   3.758   1.773   5.388 -0.2700 -0.7036 -0.8754
 5552SOL    HW228290   3.864   1.714   5.488  1.1561 -0.8487 -0.5354
 5553SOL     OW28291   1.540   3.573  16.613  0.4633  0.0319 -0.5292
 5553SOL    HW128292   1.485   3.645  16.582  0.9191  1.2071  1.4004
 5553SOL    HW228293   1.507   3.493  16.571  1.4306 -0.0998 -1.0401
 5554SOL     OW28294   1.260   2.328   9.397 -0.3319  0.0740 -0.2495
 5554SOL    HW128295   1.297   2.338   9.484 -0.7292 -0.5503 -0.0071
 5554SOL    HW228296   1.170   2.338   9.427 -0.4480 -1.3069 -0.1510
 5555SOL     OW28297   3.511   3.232  14.669 -0.0752 -0.2618  0.3822
 5555SOL    HW128298   3.552   3.146  14.672  0.7233  0.0922 -0.2745
 5555SOL    HW228299   3.551   3.269  14.748  2.0898 -0.6685 -0.5101
 5556SOL     OW28300   0.253   2.943   8.412  0.0685 -0.1336  0.2192
 5556SOL    HW128301   0.196   3.000   8.464 -2.3109 -1.6611 -0.6748
 5556SOL    HW228302   0.333   2.994   8.409  1.7520 -2.7920 -0.0942
 5557SOL     OW28303   1.360   2.046   7.875  0.8014 -0.1415  0.7189
 5557SOL    HW128304   1.280   2.059   7.824  1.7632  0.2503 -0.6992
 5557SOL    HW228305   1.331   2.098   7.950 -2.3804 -1.7812  0.6226
 5558SOL     OW28306   2.240   1.267  14.338 -0.0422  0.3785 -0.1109
 5558SOL    HW128307   2.181   1.259  14.263  1.7885  2.8957 -1.7961
 5558SOL    HW228308   2.176   1.283  14.408  2.6238 -1.2257  2.6729
 5559SOL     OW28309   3.769   2.772   4.769 -0.2973  0.0146 -0.2224
 5559SOL    HW128310   3.703   2.765   4.700 -0.8266 -0.7122  0.3583
 5559SOL    HW228311   3.847   2.774   4.713  0.7337 -1.4625  1.1532
 5560SOL     OW28312   0.453   2.063   7.882 -0.4446 -0.1931  0.0365
 5560SOL    HW128313   0.380   2.008   7.910  1.2655 -0.1662  4.6043
 5560SOL    HW228314   0.410   2.142   7.850 -1.3241 -0.6437  0.1112
 5561SOL     OW28315   0.497   0.416  11.665 -0.8791  0.5203  0.7108
 5561SOL    HW128316   0.466   0.395  11.577  1.0762 -2.5645  0.7652
 5561SOL    HW228317   0.528   0.506  11.654  1.2739 -0.1455  1.2514
 5562SOL     OW28318   2.074   2.508   1.900  0.1012  0.0820 -0.0119
 5562SOL    HW128319   2.166   2.480   1.903 -0.2177 -0.9192  0.5368
 5562SOL    HW228320   2.028   2.438   1.852  0.6936  1.7288 -3.0254
 5563SOL     OW28321   1.673   4.351   1.278 -0.0223 -0.4785 -0.2168
 5563SOL    HW128322   1.587   4.379   1.310  0.4730  0.4185  0.3170
 5563SOL    HW228323   1.672   4.357   1.182  0.6284 -1.2941 -0.2790
 5564SOL     OW28324   4.093   1.932   8.226 -0.2680 -0.0306  0.1334
 5564SOL    HW128325   4.143   1.886   8.294 -0.5383 -0.0103  0.3434
 5564SOL    HW228326   4.020   1.949   8.285 -0.5770  0.7122 -0.4520
 5565SOL     OW28327   4.146   4.022   1.748 -0.3486 -0.2503 -0.1760
 5565SOL    HW128328   4.068   3.969   1.735 -1.1338  0.4176  1.7546
 5565SOL    HW228329   4.171   4.038   1.657  2.0763 -2.1943  0.1564
 5566SOL     OW28330   2.229   1.148   4.890 -0.6166  0.5051  0.1192
 5566SOL    HW128331   2.246   1.231   4.846  0.4097 -0.1147 -0.6547
 5566SOL    HW228332   2.260   1.091   4.820 -1.7502 -0.8516  0.7237
 5567SOL     OW28333   4.652   1.166   9.642 -0.1970  0.0189 -0.3003
 5567SOL    HW128334   4.703   1.192   9.719  2.4072 -0.5875 -1.8076
 5567SOL    HW228335   4.627   1.255   9.616 -0.6151  0.2796  0.9791
 5568SOL     OW28336   3.478   4.430   8.312  0.3015  0.0795  0.0015
 5568SOL    HW128337   3.544   4.379   8.359  0.7012  1.1904  0.6449
 5568SOL    HW228338   3.467   4.388   8.227 -1.4308 -3.5473  2.0000
 5569SOL     OW28339   0.374   0.597   7.838  0.5106  0.4433 -0.7751
 5569SOL    HW128340   0.387   0.507   7.869 -1.9363  0.7478  1.1557
 5569SOL    HW228341   0.279   0.596   7.844  0.6123  0.3715  0.8014
 5570SOL     OW28342   3.207   1.563   2.260  0.4465  0.3082  0.5924
 5570SOL    HW128343   3.133   1.605   2.216  0.9564  1.9392  1.2910
 5570SOL    HW228344   3.231   1.627   2.327  1.2048  2.3353 -1.5834
 5571SOL     OW28345   4.306   3.252  16.436  0.0379  0.3127 -0.4004
 5571SOL    HW128346   4.277   3.161  16.430  2.3147 -0.3993 -0.3094
 5571SOL    HW228347   4.286   3.278  16.346  1.3761 -1.0675 -1.0849
 5572SOL     OW28348   0.384   4.629   7.047  0.0672 -0.6008 -0.0833
 5572SOL    HW128349   0.446   4.624   7.120  0.0781  1.9145  0.0983
 5572SOL    HW228350   0.300   4.601   7.082 -0.1087  1.1022  0.8621
 5573SOL     OW28351   1.565   3.285   8.670 -0.0225  0.4067 -0.2427
 5573SOL    HW128352   1.614   3.365   8.686  2.0774 -0.6408 -1.3219
 5573SOL    HW228353   1.593   3.262   8.581 -2.5309 -2.3447 -0.3465
 5574SOL     OW28354   1.589   1.937  11.536  0.4719  0.8840  0.5155
 5574SOL    HW128355   1.553   1.851  11.556  0.1173  1.4085  2.0956
 5574SOL    HW228356   1.545   1.989  11.603  0.0683  0.0435  0.8966
 5575SOL     OW28357   4.247   1.094   5.989 -0.0183 -0.2102 -0.8356
 5575SOL    HW128358   4.285   1.121   6.072 -1.3392  2.6867 -1.1726
 5575SOL    HW228359   4.189   1.167   5.970 -0.5047 -0.3235  0.2002
 5576SOL     OW28360   0.081   3.263  15.358  0.5007  0.5456 -0.5768
 5576SOL    HW128361   0.111   3.173  15.341 -0.8104  0.6765 -3.5448
 5576SOL    HW228362   0.086   3.266  15.454 -1.8458 -1.3716 -0.3864
 5577SOL     OW28363   3.396   1.759   3.382 -0.0344  0.7202  0.3185
 5577SOL    HW128364   3.347   1.818   3.325 -0.3974 -0.5108 -0.6471
 5577SOL    HW228365   3.410   1.690   3.317 -5.1949  0.5252 -0.5819
 5578SOL     OW28366   0.066   0.577   6.834  0.2335 -0.0116 -0.3004
 5578SOL    HW128367   0.150   0.567   6.881 -0.5510  1.4465  1.3863
 5578SOL    HW228368   0.026   0.654   6.874  2.2637  0.9831 -0.1721
 5579SOL     OW28369   0.208   0.518  11.733 -0.0902  0.4170  0.5189
 5579SOL    HW128370   0.297   0.488  11.751  0.2931  1.3178  0.1171
 5579SOL    HW228371   0.197   0.494  11.641  3.9274  0.9284 -0.0876
 5580SOL     OW28372   3.088   4.222   4.594  0.2984  0.1780  0.2760
 5580SOL    HW128373   3.105   4.274   4.515  0.5534  1.6757  1.3287
 5580SOL    HW228374   3.101   4.132   4.563  1.6559  0.9503 -1.4246
 5581SOL     OW28375   4.078   2.631   9.281  0.2583  0.4440 -0.3031
 5581SOL    HW128376   4.165   2.665   9.303 -0.4712  1.0609  1.6500
 5581SOL    HW228377   4.084   2.602   9.190  0.9895  0.4309 -0.2542
 5582SOL     OW28378   3.316   0.952   2.690  0.0921  0.1646 -0.6427
 5582SOL    HW128379   3.319   0.886   2.759 -2.9575 -0.3818 -1.0209
 5582SOL    HW228380   3.333   0.894   2.615 -1.8234 -0.3653 -0.6739
 5583SOL     OW28381   0.310   3.131   1.857  0.2663  0.8508  0.1105
 5583SOL    HW128382   0.314   3.145   1.762 -1.7668  0.0735 -0.0979
 5583SOL    HW228383   0.307   3.222   1.887  0.3843  0.4306  1.4066
 5584SOL     OW28384   1.522   4.270  14.857 -0.3223 -0.4859 -0.4529
 5584SOL    HW128385   1.584   4.338  14.883 -1.7942  0.0500  1.6578
 5584SOL    HW228386   1.563   4.234  14.778  1.3954  0.9089 -0.1920
 5585SOL     OW28387   0.676   3.594  16.481 -0.1882  0.3270 -0.2023
 5585SOL    HW128388   0.627   3.676  16.489 -2.8541 -1.2313 -0.6781
 5585SOL    HW228389   0.751   3.618  16.427  0.7269  3.1715  2.2923
 5586SOL     OW28390   0.021   2.816   1.879 -0.4803 -0.3945  0.2715
 5586SOL    HW128391   4.726   2.817   1.970  0.0560 -0.7571  0.4562
 5586SOL    HW228392   0.089   2.750   1.887  1.8231  1.8666 -0.5177
 5587SOL     OW28393   2.190   1.656  14.177 -0.1309  0.0922 -0.0591
 5587SOL    HW128394   2.125   1.720  14.148  1.5080  1.8847  0.2143
 5587SOL    HW228395   2.155   1.639  14.264  0.1497 -0.4133 -0.0425
 5588SOL     OW28396   1.138   2.957   4.577 -0.2421  0.4030 -0.4981
 5588SOL    HW128397   1.193   2.955   4.655 -0.2154  2.2631 -0.4781
 5588SOL    HW228398   1.194   2.940   4.501 -1.9552 -1.8414 -1.2782
 5589SOL     OW28399   3.591   2.178   6.192  0.2443 -0.7919 -0.4937
 5589SOL    HW128400   3.591   2.240   6.265 -0.2182 -0.3704 -0.8552
 5589SOL    HW228401   3.680   2.171   6.159  1.2731 -0.6338  2.2450
 5590SOL     OW28402   1.298   3.717   9.298  0.1984  0.3690 -0.2717
 5590SOL    HW128403   1.363   3.775   9.337 -0.0712 -0.9969  2.2514
 5590SOL    HW228404   1.212   3.755   9.317  0.2718 -0.7821  2.3924
 5591SOL     OW28405   2.667   2.899   0.577 -0.1090 -0.2999  0.4390
 5591SOL    HW128406   2.761   2.894   0.598  0.5320 -1.6180 -2.8388
 5591SOL    HW228407   2.636   2.956   0.648  1.7146  1.6354 -0.3139
 5592SOL     OW28408   1.799   4.481  14.536  0.8058 -0.0266 -0.1523
 5592SOL    HW128409   1.817   4.570  14.568  0.3746  0.0200 -0.0388
 5592SOL    HW228410   1.710   4.499  14.504  0.3622 -0.2154  0.9737
 5593SOL     OW28411   4.529   0.401  13.718 -0.1605  0.1174 -0.1381
 5593SOL    HW128412   4.563   0.406  13.628  4.3837 -0.4936  1.5327
 5593SOL    HW228413   4.531   0.495  13.736 -1.9083  0.4770 -1.7770
 5594SOL     OW28414   3.151   2.534   5.179  0.3935 -0.1834  0.0526
 5594SOL    HW128415   3.122   2.625   5.177  4.9670  1.1706 -1.6399
 5594SOL    HW228416   3.160   2.519   5.274 -0.1648  0.1063  0.1563
 5595SOL     OW28417   0.787   4.336   6.530 -0.1642  0.1186 -0.3996
 5595SOL    HW128418   0.803   4.279   6.455 -1.9776 -1.5531  0.4692
 5595SOL    HW228419   0.692   4.327   6.528 -0.3580  2.0015  0.3690
 5596SOL     OW28420   2.219   2.876   8.694  0.6825 -0.6871  0.0480
 5596SOL    HW128421   2.137   2.829   8.677  0.1584  0.3292 -0.2556
 5596SOL    HW228422   2.197   2.942   8.759 -2.5540 -0.1277 -1.5978
 5597SOL     OW28423   4.191   0.459  12.917 -1.0398  0.3002 -0.2705
 5597SOL    HW128424   4.124   0.433  12.981  1.7151  1.0209  2.8966
 5597SOL    HW228425   4.273   0.422  12.950 -1.2468 -0.9545 -1.1824
 5598SOL     OW28426   2.540   0.780   3.487  0.6711  0.0574  0.4198
 5598SOL    HW128427   2.555   0.720   3.560 -2.2934  1.8727  2.5099
 5598SOL    HW228428   2.530   0.712   3.420  3.3224  1.1812 -1.1234
 5599SOL     OW28429   3.887   2.705   3.449 -0.4766  0.1397  0.4576
 5599SOL    HW128430   3.904   2.638   3.515  0.8430  0.4307  0.4094
 5599SOL    HW228431   3.965   2.760   3.458  0.2124 -0.4953 -1.6141
 5600SOL     OW28432   4.360   0.581   3.660 -0.0573 -0.0736 -0.3184
 5600SOL    HW128433   4.336   0.489   3.647 -0.6055  0.4769 -3.0903
 5600SOL    HW228434   4.304   0.620   3.594  0.6179 -0.9105 -1.3910
 5601SOL     OW28435   4.212   2.848   6.263  0.1811 -0.3075 -0.0979
 5601SOL    HW128436   4.296   2.870   6.220 -1.3007  2.2522 -1.7399
 5601SOL    HW228437   4.213   2.921   6.325 -0.5024 -0.5148  0.1501
 5602SOL     OW28438   3.137   2.022   8.309  0.6725  0.0682  0.6631
 5602SOL    HW128439   3.094   1.947   8.349 -1.4024  0.3670 -0.9921
 5602SOL    HW228440   3.207   1.980   8.259  0.5985  1.5967 -0.7377
 5603SOL     OW28441   2.217   1.396   6.538  0.4596 -0.3536 -0.7457
 5603SOL    HW128442   2.174   1.480   6.556 -0.0958 -1.1983  1.9440
 5603SOL    HW228443   2.169   1.348   6.606 -0.7642  1.5327 -0.2641
 5604SOL     OW28444   3.220   0.927   9.650 -0.3411  0.0799  0.1939
 5604SOL    HW128445   3.178   1.006   9.684 -2.4539 -1.2567  0.6725
 5604SOL    HW228446   3.257   0.889   9.729  2.2186  0.5905 -0.7576
 5605SOL     OW28447   0.490   0.438   4.274  0.1733 -0.5207  0.2693
 5605SOL    HW128448   0.509   0.416   4.365 -0.0186 -1.3595  0.0986
 5605SOL    HW228449   0.463   0.357   4.231  2.9440 -1.2287 -0.0960
 5606SOL     OW28450   0.565   0.714   4.912  0.2130 -0.1989 -0.1881
 5606SOL    HW128451   0.620   0.641   4.941  0.6922  0.5661  0.8082
 5606SOL    HW228452   0.610   0.789   4.951  0.5601 -0.5128  0.0135
 5607SOL     OW28453   2.638   3.023   2.289  0.3705  0.3467  0.0549
 5607SOL    HW128454   2.551   3.031   2.250  1.0248  1.5053 -1.1648
 5607SOL    HW228455   2.693   3.059   2.220  4.5142  0.8509  3.5925
 5608SOL     OW28456   3.127   0.501   9.694 -0.0585  0.0464  0.2423
 5608SOL    HW128457   3.055   0.471   9.749 -1.1622  1.5281 -0.3794
 5608SOL    HW228458   3.081   0.520   9.613  0.1157 -0.7458 -0.0421
 5609SOL     OW28459   3.450   4.673  12.169  0.6680 -0.5237  0.7909
 5609SOL    HW128460   3.395   4.726  12.227 -0.2420 -2.9336  2.1380
 5609SOL    HW228461   3.392   4.657  12.095  1.5399 -1.4587  0.3057
 5610SOL     OW28462   1.716   0.743   0.996  0.2154  0.2735  0.0839
 5610SOL    HW128463   1.693   0.670   0.939  2.1820  0.9171 -1.5272
 5610SOL    HW228464   1.808   0.755   0.972  0.2780  0.8645  0.6152
 5611SOL     OW28465   1.634   3.482  11.014  0.4975 -0.1024 -0.1181
 5611SOL    HW128466   1.568   3.499  10.946 -0.8479 -1.8415  0.7680
 5611SOL    HW228467   1.597   3.547  11.074  0.6916 -0.8029  0.7536
 5612SOL     OW28468   2.593   4.454   5.613  0.0917  0.3490 -0.4525
 5612SOL    HW128469   2.661   4.507   5.572  0.5774  1.2259  1.5192
 5612SOL    HW228470   2.516   4.488   5.566  1.7522  2.3546 -1.7227
 5613SOL     OW28471   1.875   2.410   6.970  0.3124 -0.1633 -0.3703
 5613SOL    HW128472   1.927   2.482   7.006 -1.1488  1.0880 -0.7784
 5613SOL    HW228473   1.851   2.353   7.043  1.8612  0.5545  0.6938
 5614SOL     OW28474   4.401   3.423   8.429  0.1387  0.3923 -0.2129
 5614SOL    HW128475   4.342   3.403   8.502  1.1917 -1.0148  0.2692
 5614SOL    HW228476   4.411   3.517   8.444 -0.2585  0.1331  1.7486
 5615SOL     OW28477   2.494   4.184   6.350  0.3374  0.0628  0.4894
 5615SOL    HW128478   2.512   4.117   6.284 -2.0952  1.0285 -1.1346
 5615SOL    HW228479   2.463   4.252   6.291  2.4247  0.1262 -0.4976
 5616SOL     OW28480   2.250   0.274   7.772  0.1006 -0.1291  0.5782
 5616SOL    HW128481   2.300   0.201   7.735 -0.7385  0.0478 -0.8922
 5616SOL    HW228482   2.245   0.244   7.863  2.8115 -0.8856  0.4903
 5617SOL     OW28483   2.936   4.533   0.603  0.0701 -0.4303  0.0181
 5617SOL    HW128484   2.916   4.605   0.543  0.5060 -1.5121 -1.4388
 5617SOL    HW228485   2.851   4.526   0.646  0.3856 -0.8991  0.5644
 5618SOL     OW28486   4.197   4.244  11.408  0.1462  0.1750  0.7925
 5618SOL    HW128487   4.236   4.311  11.464  0.0460  1.1022 -0.2498
 5618SOL    HW228488   4.253   4.167  11.418  0.7726  0.5341  0.0822
 5619SOL     OW28489   1.837   3.065   7.696 -0.0198 -0.2595 -0.1006
 5619SOL    HW128490   1.858   2.977   7.666  1.4887  0.6656 -1.8161
 5619SOL    HW228491   1.797   3.044   7.780  1.9778 -0.8185  0.7045
 5620SOL     OW28492   4.419   4.226   8.574  0.4480  0.0393 -0.2009
 5620SOL    HW128493   4.485   4.225   8.505 -0.2448 -0.3964 -0.8629
 5620SOL    HW228494   4.452   4.162   8.637  4.6693  1.8627 -0.5961
 5621SOL     OW28495   4.378   4.265  16.893 -0.3797 -0.7970 -0.0973
 5621SOL    HW128496   4.338   4.262  16.806 -2.7052  1.5190  0.8865
 5621SOL    HW228497   4.305   4.302  16.943 -0.2255 -0.2062 -0.3124
 5622SOL     OW28498   4.735   1.616  17.062 -0.3963 -0.1771 -0.1217
 5622SOL    HW128499   0.064   1.597  16.994  0.1107 -1.8201  0.8192
 5622SOL    HW228500   4.687   1.536  17.082  1.0536 -1.4023 -1.4538
 5623SOL     OW28501   1.222   0.518   5.545 -0.0673 -0.3511 -0.5141
 5623SOL    HW128502   1.238   0.439   5.493  3.2640  1.3988 -2.1384
 5623SOL    HW228503   1.291   0.504   5.611  1.2946  0.2082 -1.8255
 5624SOL     OW28504   3.815   3.500   4.097  0.0464 -0.2101  0.5962
 5624SOL    HW128505   3.722   3.522   4.089 -0.2088 -1.4859  0.0848
 5624SOL    HW228506   3.868   3.579   4.081  0.2545 -0.8044 -1.7312
 5625SOL     OW28507   1.844   0.830  11.910 -0.0943 -0.4029  0.3729
 5625SOL    HW128508   1.819   0.922  11.923 -0.1605 -0.2712 -0.6792
 5625SOL    HW228509   1.842   0.799  12.001 -3.2797 -1.4867 -0.0856
 5626SOL     OW28510   0.061   3.671   9.302 -0.5119 -0.7320  0.1014
 5626SOL    HW128511   4.716   3.622   9.304 -0.5314 -0.7355 -1.1124
 5626SOL    HW228512   0.030   3.743   9.357  3.6149 -0.3524  1.9830
 5627SOL     OW28513   4.149   3.901   7.465  0.6181 -0.1431  0.2336
 5627SOL    HW128514   4.053   3.905   7.469  0.7191  1.6134  0.4852
 5627SOL    HW228515   4.168   3.882   7.557  2.0367  1.0469  0.1755
 5628SOL     OW28516   3.489   2.657   3.904 -0.5105 -0.5086  0.0248
 5628SOL    HW128517   3.553   2.722   3.876 -0.1403 -0.1636  1.6640
 5628SOL    HW228518   3.555   2.603   3.947 -0.9771 -0.1916  1.1375
 5629SOL     OW28519   4.150   3.332  10.390 -0.1495  0.4998  0.4185
 5629SOL    HW128520   4.190   3.307  10.473 -3.1616 -1.7550  1.1692
 5629SOL    HW228521   4.074   3.276  10.403  0.0884 -0.1109 -0.8396
 5630SOL     OW28522   4.127   1.114   6.378  0.0281  0.2576  0.3564
 5630SOL    HW128523   4.183   1.060   6.434  0.6035  0.1318 -0.3277
 5630SOL    HW228524   4.075   1.142   6.453 -0.4012 -0.5903  0.3762
 5631SOL     OW28525   2.451   0.546   2.065  0.4977 -0.1817 -0.3870
 5631SOL    HW128526   2.449   0.543   2.160  0.4344 -1.0510 -0.4122
 5631SOL    HW228527   2.407   0.463   2.044 -0.5095  0.6434 -1.5458
 5632SOL     OW28528   4.176   4.506   7.319 -0.4007 -0.5817 -0.4849
 5632SOL    HW128529   4.270   4.494   7.307 -0.0257  1.8223  0.0979
 5632SOL    HW228530   4.166   4.581   7.377  0.8240  0.0930 -1.1457
 5633SOL     OW28531   1.727   2.456   5.903  0.3672 -0.3126 -0.2490
 5633SOL    HW128532   1.752   2.383   5.961  1.5747 -0.0427 -0.4394
 5633SOL    HW228533   1.777   2.526   5.945 -1.2319  0.4638  0.3693
 5634SOL     OW28534   2.160   3.350   4.895  0.2714  0.1589  0.4275
 5634SOL    HW128535   2.219   3.333   4.822  0.7836  0.3605  0.7989
 5634SOL    HW228536   2.212   3.404   4.954  1.5363 -0.2219 -0.3367
 5635SOL     OW28537   1.089   1.410   7.891 -0.1109 -0.3629  0.5981
 5635SOL    HW128538   1.005   1.366   7.901 -0.6421  0.1075 -1.7517
 5635SOL    HW228539   1.069   1.502   7.872  1.3477 -0.5169 -1.7061
 5636SOL     OW28540   1.754   3.848   4.341  0.9926 -0.0852  0.3140
 5636SOL    HW128541   1.825   3.796   4.303 -1.8539 -2.4757 -1.7161
 5636SOL    HW228542   1.750   3.917   4.275  0.6584 -0.9542 -0.5652
 5637SOL     OW28543   0.304   1.307  15.331  0.1057  0.3582  0.0607
 5637SOL    HW128544   0.209   1.321  15.332  0.1326  0.6128 -0.8794
 5637SOL    HW228545   0.314   1.220  15.370 -0.3267  0.0964 -0.4113
 5638SOL     OW28546   0.085   4.216  13.980  0.7318 -0.6445 -0.3623
 5638SOL    HW128547   0.153   4.222  13.913  0.3009 -0.3536 -0.7779
 5638SOL    HW228548   0.066   4.124  13.998 -0.2026 -0.3888 -0.0505
 5639SOL     OW28549   1.412   1.037  12.213 -0.0556  0.6489 -0.1633
 5639SOL    HW128550   1.343   1.059  12.151  1.4213 -0.8949 -2.3346
 5639SOL    HW228551   1.402   1.092  12.291  2.8137 -1.4415  1.6882
 5640SOL     OW28552   2.570   1.167   8.737  0.1744 -0.4306 -0.0632
 5640SOL    HW128553   2.532   1.140   8.820  0.8038 -0.8902  0.0728
 5640SOL    HW228554   2.555   1.262   8.741  0.2804 -0.5315  2.4960
 5641SOL     OW28555   2.351   3.211   6.983 -0.0730  0.3195  0.2725
 5641SOL    HW128556   2.319   3.189   6.895 -0.8935 -2.4895  1.2919
 5641SOL    HW228557   2.276   3.249   7.028  0.1773  1.1732 -0.0218
 5642SOL     OW28558   3.807   1.766  13.168  0.1645 -0.0258  0.4379
 5642SOL    HW128559   3.845   1.822  13.237  0.7514 -0.1684  0.2259
 5642SOL    HW228560   3.716   1.793  13.183  0.7189  2.5360 -0.8799
 5643SOL     OW28561   0.151   4.578   3.011 -0.1807 -0.1506 -0.0734
 5643SOL    HW128562   0.138   4.553   3.102 -0.7280 -1.9853 -0.6474
 5643SOL    HW228563   0.231   4.628   3.023 -1.5591  2.2095 -0.6167
 5644SOL     OW28564   3.297   0.622   0.585 -1.2889 -0.0740  0.5586
 5644SOL    HW128565   3.360   0.634   0.514 -0.7755 -0.8541  0.8777
 5644SOL    HW228566   3.227   0.685   0.566  0.6239  1.7566 -0.3622
 5645SOL     OW28567   0.712   3.318  16.571  0.1374  0.1045 -0.0305
 5645SOL    HW128568   0.650   3.385  16.542 -0.2378  0.5696  1.8189
 5645SOL    HW228569   0.796   3.364  16.567  0.7824 -1.4322 -3.3227
 5646SOL     OW28570   1.682   1.534   1.838 -0.6811 -0.4522  0.3509
 5646SOL    HW128571   1.684   1.447   1.799 -0.6272 -0.4120  0.2646
 5646SOL    HW228572   1.662   1.515   1.930 -1.6285  0.0453  0.2518
 5647SOL     OW28573   4.702   3.771  11.305  0.1147 -0.2954 -0.0799
 5647SOL    HW128574   4.716   3.866  11.315  1.3149 -0.5349  0.4849
 5647SOL    HW228575   0.057   3.745  11.292 -0.7045 -2.6280 -1.0801
 5648SOL     OW28576   4.706   0.981   7.962 -0.0054  0.0639  0.1689
 5648SOL    HW128577   4.700   0.942   7.875  1.2771 -3.2560  1.5816
 5648SOL    HW228578   4.621   0.962   8.003  1.0218 -0.5887  2.0022
 5649SOL     OW28579   4.530   3.962  17.533  0.2042 -0.0101  0.0751
 5649SOL    HW128580   4.510   4.037  17.590 -0.1534 -0.0744  0.0337
 5649SOL    HW228581   4.499   3.999  17.450 -0.9341 -3.9770 -1.2389
 5650SOL     OW28582   1.429   4.675   7.392  0.0649 -0.2317  0.0352
 5650SOL    HW128583   1.391   4.696   7.477  1.2821  0.7230  0.3493
 5650SOL    HW228584   1.522   4.699   7.401 -0.4965  1.1979  1.9958
 5651SOL     OW28585   2.290   2.876   9.164 -0.0097 -0.2192 -0.0946
 5651SOL    HW128586   2.325   2.957   9.202  2.5556 -0.2586 -2.3650
 5651SOL    HW228587   2.200   2.874   9.198 -0.5960 -1.6445 -1.7871
 5652SOL     OW28588   3.374   2.735   8.655  0.6494 -0.4110  0.4675
 5652SOL    HW128589   3.280   2.754   8.647  0.7494 -0.3622 -0.7073
 5652SOL    HW228590   3.394   2.670   8.587  2.2496  0.1682  0.4021
 5653SOL     OW28591   2.730   0.562   5.062 -0.3639 -0.1659 -0.0063
 5653SOL    HW128592   2.697   0.558   5.152 -1.1354 -1.5167 -0.3396
 5653SOL    HW228593   2.652   0.562   5.007 -1.2487 -0.3456  1.2388
 5654SOL     OW28594   1.240   1.273   6.263  0.1878 -0.0383  0.2297
 5654SOL    HW128595   1.161   1.240   6.305 -0.1549  0.5665  0.0684
 5654SOL    HW228596   1.235   1.243   6.172  1.2850  0.1078  0.1198
 5655SOL     OW28597   1.198   1.275   9.257 -0.0011 -0.7946  0.6788
 5655SOL    HW128598   1.217   1.207   9.321  2.3392  1.5706  2.5250
 5655SOL    HW228599   1.275   1.329   9.275  0.6336 -1.4320 -0.1255
 5656SOL     OW28600   4.513   1.672   3.971 -0.9310 -0.6447  0.0468
 5656SOL    HW128601   4.540   1.601   4.029  0.7921  0.3836  0.5233
 5656SOL    HW228602   4.576   1.743   3.984 -1.0153 -0.0332 -2.7768
 5657SOL     OW28603   4.653   1.211   9.202 -0.6037 -0.2155  0.4078
 5657SOL    HW128604   4.633   1.305   9.204 -0.1475 -0.0960 -0.8173
 5657SOL    HW228605   4.575   1.168   9.240  0.6103 -1.2935  1.6966
 5658SOL     OW28606   3.589   0.442  12.252  0.3608  0.0593  0.1685
 5658SOL    HW128607   3.631   0.488  12.179  1.4147 -1.6545 -0.3013
 5658SOL    HW228608   3.576   0.512  12.315 -0.7000  1.0655 -1.1749
 5659SOL     OW28609   2.820   1.047   8.330  0.3577  0.1472 -0.1950
 5659SOL    HW128610   2.744   1.091   8.368 -1.1488 -1.4935 -1.3541
 5659SOL    HW228611   2.867   1.121   8.291  1.6239 -1.1153 -1.0785
 5660SOL     OW28612   4.394   1.870   4.336  0.2765  0.1538  0.0071
 5660SOL    HW128613   4.408   1.889   4.429  3.8589 -1.5287 -0.2155
 5660SOL    HW228614   4.300   1.852   4.334  0.4951 -0.9033 -0.6744
 5661SOL     OW28615   4.171   3.941  17.508 -0.0972  0.3720 -0.3753
 5661SOL    HW128616   4.154   4.015  17.450  0.9381  0.7873 -0.1599
 5661SOL    HW228617   4.213   3.895  17.435  0.9749  2.0039 -0.7990
 5662SOL     OW28618   0.993   0.634   8.785  0.0700 -0.7379 -0.3063
 5662SOL    HW128619   1.043   0.676   8.715 -1.2362  1.0944 -0.1542
 5662SOL    HW228620   0.906   0.635   8.746 -0.0323 -1.6544 -0.1060
 5663SOL     OW28621   1.284   0.164  11.732  0.2675 -0.2600 -0.2239
 5663SOL    HW128622   1.256   0.252  11.757  0.1097 -0.3237 -0.1774
 5663SOL    HW228623   1.379   0.171  11.718  0.1547  1.4727 -0.1072
 5664SOL     OW28624   2.019   3.828  12.723 -0.6002  0.6205  0.4013
 5664SOL    HW128625   1.953   3.767  12.756 -1.0793  0.7499 -0.3207
 5664SOL    HW228626   2.093   3.775  12.752 -1.1295 -1.6698 -2.4629
 5665SOL     OW28627   3.354   0.623   6.654  0.6612 -0.3644 -0.1361
 5665SOL    HW128628   3.343   0.538   6.611  2.5131  0.5045 -2.3123
 5665SOL    HW228629   3.288   0.626   6.723 -0.6428 -1.9521 -1.3138
 5666SOL     OW28630   1.838   2.324   3.031 -0.0337  0.0397 -0.0744
 5666SOL    HW128631   1.896   2.397   3.048  1.0036 -0.6674 -0.5928
 5666SOL    HW228632   1.888   2.243   3.044 -1.0788 -0.8808 -1.6680
 5667SOL     OW28633   3.557   0.266   8.038 -0.5053 -0.2123 -0.2915
 5667SOL    HW128634   3.587   0.256   7.948 -0.6256 -2.0756 -0.1295
 5667SOL    HW228635   3.545   0.361   8.037 -0.4633 -0.1938  1.1292
 5668SOL     OW28636   1.923   0.196  10.708  0.0310 -0.0267 -0.3784
 5668SOL    HW128637   1.840   0.163  10.742 -0.1087  0.4069 -0.2965
 5668SOL    HW228638   1.972   0.223  10.786  1.1077 -2.0305 -0.3566
 5669SOL     OW28639   3.274   0.698  16.223 -0.1217 -0.2534 -0.4049
 5669SOL    HW128640   3.284   0.777  16.170 -0.2747 -0.8728 -1.3606
 5669SOL    HW228641   3.242   0.641  16.153 -0.4629  0.8611 -1.1513
 5670SOL     OW28642   0.208   2.230  14.730 -0.2293  0.1169  0.0881
 5670SOL    HW128643   0.268   2.174  14.682  0.0936  0.8775 -0.3928
 5670SOL    HW228644   0.260   2.251  14.807  0.0540  0.3059 -0.1580
 5671SOL     OW28645   0.742   0.452   7.595  0.3875  0.5866 -0.2476
 5671SOL    HW128646   0.726   0.536   7.550 -0.6777  0.9899  0.8915
 5671SOL    HW228647   0.656   0.411   7.590 -0.9095  3.1283  1.3205
 5672SOL     OW28648   3.419   1.070   3.450  0.3277  0.3600  0.5951
 5672SOL    HW128649   3.338   1.094   3.495  0.2131 -0.2024  0.6969
 5672SOL    HW228650   3.485   1.110   3.506  2.7287 -1.4750 -0.9147
 5673SOL     OW28651   0.894   2.615  12.754 -0.0706 -0.0410  0.1420
 5673SOL    HW128652   0.824   2.551  12.764 -1.4735  1.5638  0.5172
 5673SOL    HW228653   0.961   2.573  12.808 -0.8829  0.0417  1.2188
 5674SOL     OW28654   0.877   2.272   6.499 -0.2156  0.6278 -0.1329
 5674SOL    HW128655   0.946   2.208   6.520  0.3719  1.6594  1.0921
 5674SOL    HW228656   0.875   2.327   6.578 -2.2128  1.2050 -0.5848
 5675SOL     OW28657   1.823   1.661   5.996 -0.1189 -0.3569 -0.5491
 5675SOL    HW128658   1.769   1.608   6.055  1.3394  0.7604  1.8017
 5675SOL    HW228659   1.801   1.743   6.040  0.1427 -0.9422  0.6760
 5676SOL     OW28660   3.452   1.644   8.184  0.3225  0.1680 -0.2366
 5676SOL    HW128661   3.479   1.663   8.094  0.0981 -0.5654 -0.4588
 5676SOL    HW228662   3.518   1.581   8.211  0.2771 -0.4176 -1.5204
 5677SOL     OW28663   3.859   0.134  12.799 -0.1701 -0.2958 -0.7144
 5677SOL    HW128664   3.818   0.207  12.845 -1.3753 -1.7525  0.5112
 5677SOL    HW228665   3.921   0.183  12.745  0.0160  1.0164  0.7075
 5678SOL     OW28666   4.314   0.078   2.108  0.0621 -0.1322 -0.2308
 5678SOL    HW128667   4.222   0.099   2.123  0.1091  0.3102 -0.5866
 5678SOL    HW228668   4.334   0.163   2.068  1.3208 -0.8509 -1.1644
 5679SOL     OW28669   2.471   1.413   2.270  0.3488  0.5130 -0.1633
 5679SOL    HW128670   2.547   1.355   2.266 -0.4647 -0.6696  1.5723
 5679SOL    HW228671   2.511   1.497   2.248  0.4869  0.4016 -0.3340
 5680SOL     OW28672   2.483   3.544   7.970 -0.0984  1.1155 -0.1781
 5680SOL    HW128673   2.478   3.451   7.948 -1.1216  1.1960 -0.2946
 5680SOL    HW228674   2.419   3.562   8.039 -0.8584  0.3525 -0.6884
 5681SOL     OW28675   2.770   0.101   0.174  0.3137 -0.0330 -0.5624
 5681SOL    HW128676   2.785   0.121   0.082 -0.2753  1.2601 -0.3737
 5681SOL    HW228677   2.707   0.171   0.190 -0.6283 -0.4034 -2.6205
 5682SOL     OW28678   0.351   1.632   2.913 -0.1562 -0.3289 -0.6407
 5682SOL    HW128679   0.397   1.697   2.967 -0.9613 -1.6251  1.6271
 5682SOL    HW228680   0.427   1.577   2.894 -0.1833 -0.3495 -0.6893
 5683SOL     OW28681   0.763   1.328   2.529 -0.5888  0.0429 -0.0349
 5683SOL    HW128682   0.721   1.407   2.562  0.5298  0.9292 -0.7418
 5683SOL    HW228683   0.829   1.356   2.466  1.2654 -0.1965  1.7605
 5684SOL     OW28684   2.913   3.354   7.892  0.0458 -0.7757 -0.6344
 5684SOL    HW128685   2.891   3.401   7.973 -0.0389 -1.3907 -0.2979
 5684SOL    HW228686   2.831   3.348   7.844  0.4220 -2.0338 -1.1181
 5685SOL     OW28687   3.844   0.478   2.288 -0.2908 -0.1373 -0.0958
 5685SOL    HW128688   3.909   0.428   2.239  1.6287  0.5224  1.7846
 5685SOL    HW228689   3.891   0.507   2.366 -1.1799 -0.2341  0.4705
 5686SOL     OW28690   1.208   3.055   9.651  0.0791 -0.6818  0.0133
 5686SOL    HW128691   1.137   3.027   9.709 -0.0899  0.5942  0.4387
 5686SOL    HW228692   1.274   3.071   9.718 -1.0081  1.7385  0.5286
 5687SOL     OW28693   3.979   4.100  17.005 -0.0757  0.3054  0.0630
 5687SOL    HW128694   4.009   4.149  16.928  1.8304 -1.8634 -0.5611
 5687SOL    HW228695   3.884   4.109  16.997 -0.1587 -1.0009 -0.3485
 5688SOL     OW28696   2.640   3.337   4.341 -0.1439  0.2422  0.1526
 5688SOL    HW128697   2.630   3.268   4.407 -0.1854 -0.0007 -0.1033
 5688SOL    HW228698   2.694   3.281   4.285  0.3770  0.2390  0.6534
 5689SOL     OW28699   1.264   3.488  12.799  0.1789 -0.3913 -0.0681
 5689SOL    HW128700   1.200   3.549  12.835  0.6952 -0.2302  0.5614
 5689SOL    HW228701   1.240   3.491  12.706  0.4058 -0.1530 -0.1204
 5690SOL     OW28702   4.216   0.480   6.757 -0.1235 -0.5722  0.0582
 5690SOL    HW128703   4.152   0.548   6.781 -0.9262 -1.6131  0.9151
 5690SOL    HW228704   4.299   0.526   6.766 -0.2536  0.3218 -3.1480
 5691SOL     OW28705   1.054   3.282   3.696 -0.2920 -0.1180 -0.0588
 5691SOL    HW128706   1.024   3.217   3.634 -3.1245 -0.7053  1.9381
 5691SOL    HW228707   1.020   3.244   3.777 -0.6823 -0.2175 -0.2699
 5692SOL     OW28708   4.507   2.297   5.312  0.0578 -0.2086  0.4520
 5692SOL    HW128709   4.442   2.269   5.376  1.0310  0.0187  1.5441
 5692SOL    HW228710   4.588   2.262   5.349  0.8170 -1.4514 -2.3600
 5693SOL     OW28711   0.681   1.751   6.650  0.2697  0.2186 -0.5856
 5693SOL    HW128712   0.751   1.694   6.617 -1.4113 -1.5376 -1.1360
 5693SOL    HW228713   0.731   1.833   6.657  1.1917 -0.3444 -0.5939
 5694SOL     OW28714   1.487   1.714  11.650 -0.3578 -0.0081 -0.0959
 5694SOL    HW128715   1.393   1.720  11.668 -0.1956  1.0999  0.3778
 5694SOL    HW228716   1.503   1.723  11.744  0.0927  0.3360 -0.2097
 5695SOL     OW28717   2.842   3.440   2.130  0.4670  0.1175  0.1997
 5695SOL    HW128718   2.786   3.388   2.073  0.1758  1.0333 -0.3517
 5695SOL    HW228719   2.780   3.446   2.203  0.3312 -0.1328  0.1015
 5696SOL     OW28720   0.444   1.820   5.509  0.3362  0.0179 -0.0613
 5696SOL    HW128721   0.399   1.826   5.425  2.1805 -2.2850 -1.2014
 5696SOL    HW228722   0.532   1.827   5.472  1.1198 -1.9684  1.4673
 5697SOL     OW28723   3.854   2.667  15.428 -0.6819  0.2705  0.2631
 5697SOL    HW128724   3.841   2.762  15.427  0.7332  0.4797  2.3605
 5697SOL    HW228725   3.861   2.658  15.523  1.6256 -1.1909 -0.0517
 5698SOL     OW28726   2.220   0.842   5.346  0.1038  0.1766 -0.6695
 5698SOL    HW128727   2.209   0.807   5.257 -2.2611  0.7231 -0.5889
 5698SOL    HW228728   2.129   0.856   5.371  0.3729 -2.6400  1.9171
 5699SOL     OW28729   2.595   3.177   7.684  0.4195  0.4245 -0.2632
 5699SOL    HW128730   2.628   3.111   7.744  0.4436 -0.0784 -0.8276
 5699SOL    HW228731   2.534   3.224   7.740 -2.3460 -1.1034 -1.9827
 5700SOL     OW28732   0.640   0.414   8.045 -0.5452  0.0407 -0.1471
 5700SOL    HW128733   0.700   0.434   8.116 -0.2681  2.8018 -1.1628
 5700SOL    HW228734   0.704   0.410   7.974 -1.8480 -2.4322 -1.2054
 5701SOL     OW28735   0.195   0.347  16.290 -0.0399 -0.3098 -0.0294
 5701SOL    HW128736   0.154   0.327  16.374 -0.0797  0.4706  0.1351
 5701SOL    HW228737   0.157   0.283  16.229 -1.0394 -0.0571  0.3318
 5702SOL     OW28738   2.421   4.318  13.592  0.4843 -0.0510  0.0941
 5702SOL    HW128739   2.396   4.305  13.683  0.9720 -0.0071  0.2310
 5702SOL    HW228740   2.456   4.406  13.602 -2.3131  1.1532 -0.8203
 5703SOL     OW28741   2.844   4.610  11.291 -0.2043 -0.2205 -0.4442
 5703SOL    HW128742   2.820   4.634  11.380  1.5314 -0.4604  0.0922
 5703SOL    HW228743   2.784   4.536  11.281  1.0878 -1.1230 -1.5790
 5704SOL     OW28744   2.020   0.766  10.545  0.7931 -0.0840  0.2312
 5704SOL    HW128745   2.052   0.840  10.596 -0.6757 -0.9131  2.3322
 5704SOL    HW228746   2.102   0.748  10.500  1.7531  0.7887  1.6246
 5705SOL     OW28747   3.876   4.244  15.604  0.2321 -0.6449  0.2516
 5705SOL    HW128748   3.839   4.156  15.597  1.7570 -1.3359  0.9013
 5705SOL    HW228749   3.831   4.278  15.682 -0.8633 -1.7296  0.1103
 5706SOL     OW28750   3.473   0.744   3.427 -0.3428  0.1516 -0.6742
 5706SOL    HW128751   3.497   0.825   3.381  0.1511  0.1474 -0.4271
 5706SOL    HW228752   3.390   0.765   3.470 -0.5867 -0.9020 -0.6378
 5707SOL     OW28753   2.518   1.574  15.510 -0.1627  0.3440  0.0707
 5707SOL    HW128754   2.540   1.482  15.527 -0.7125  0.1123 -0.4690
 5707SOL    HW228755   2.557   1.612  15.588 -0.9072 -0.5617  0.8940
 5708SOL     OW28756   2.462   0.732   7.991 -0.0064 -0.1036  0.2884
 5708SOL    HW128757   2.551   0.697   7.994  1.4329  3.5057 -0.4885
 5708SOL    HW228758   2.469   0.809   7.935 -1.2552 -0.5487 -0.4958
 5709SOL     OW28759   0.733   1.110   3.120 -0.0829  0.5662  0.0013
 5709SOL    HW128760   0.651   1.063   3.134 -0.1345  1.4706  2.6974
 5709SOL    HW228761   0.715   1.203   3.136 -1.1333  0.4585 -0.5485
 5710SOL     OW28762   3.480   2.078   5.428  0.5122 -0.5019  0.2279
 5710SOL    HW128763   3.501   2.153   5.483  0.0135 -0.3309  0.1921
 5710SOL    HW228764   3.384   2.070   5.421  0.4589 -0.1579  0.5851
 5711SOL     OW28765   0.906   0.206  13.814 -0.5128  0.0991 -0.0423
 5711SOL    HW128766   0.846   0.135  13.792  0.6543 -0.8457 -0.2177
 5711SOL    HW228767   0.866   0.251  13.888 -2.0298 -1.2567 -0.0405
 5712SOL     OW28768   1.029   3.172   8.983  0.2285  0.3503  0.1729
 5712SOL    HW128769   1.048   3.173   8.890 -1.2576 -1.0084 -0.1549
 5712SOL    HW228770   1.006   3.081   9.002  0.0873  0.0931 -1.2521
 5713SOL     OW28771   4.095   1.748   7.220 -0.2269 -0.1309 -0.2051
 5713SOL    HW128772   4.073   1.656   7.236  2.1269 -0.5975  0.3253
 5713SOL    HW228773   4.148   1.729   7.142 -1.3722 -2.0508 -0.5121
 5714SOL     OW28774   2.727   1.869   2.433  0.1985  0.4915 -0.2698
 5714SOL    HW128775   2.648   1.921   2.451  2.4847  3.2603  1.7477
 5714SOL    HW228776   2.692   1.782   2.451  2.5064 -0.6739 -1.4411
 5715SOL     OW28777   3.939   2.846  14.223 -0.7505 -0.9344  0.0908
 5715SOL    HW128778   3.871   2.828  14.159 -0.3377  0.4312 -0.7253
 5715SOL    HW228779   4.020   2.805  14.194 -0.3758 -0.2748  0.2085
 5716SOL     OW28780   2.218   4.289  16.542 -0.2295  0.0086  0.0070
 5716SOL    HW128781   2.131   4.262  16.571 -0.1538 -1.3217 -0.9736
 5716SOL    HW228782   2.198   4.378  16.513 -0.4327  0.3662  1.2663
 5717SOL     OW28783   4.015   0.666   6.733 -0.0424  0.2096 -0.3749
 5717SOL    HW128784   3.970   0.654   6.649  1.1384 -0.1251 -0.9638
 5717SOL    HW228785   4.067   0.741   6.703 -2.4186  2.1140  0.2836
 5718SOL     OW28786   1.235   2.871   2.712  0.3951  0.3895 -0.2283
 5718SOL    HW128787   1.144   2.901   2.706 -0.2460 -1.5868 -0.3863
 5718SOL    HW228788   1.274   2.935   2.772 -1.1403  0.2360  0.9445
 5719SOL     OW28789   0.812   4.344   5.585 -0.5297  0.1875  0.1377
 5719SOL    HW128790   0.898   4.309   5.604  0.2673  2.1742  0.2281
 5719SOL    HW228791   0.790   4.375   5.673 -0.1809  2.6293 -0.6281
 5720SOL     OW28792   1.950   0.653   1.421 -0.3173  0.1908  0.4044
 5720SOL    HW128793   1.888   0.726   1.414  1.0997  1.3384 -0.3427
 5720SOL    HW228794   1.929   0.618   1.507 -1.7194 -0.1592 -0.0788
 5721SOL     OW28795   2.847   1.342   5.893 -0.5391  0.1832 -0.5565
 5721SOL    HW128796   2.765   1.322   5.848 -0.4067 -0.4056 -0.5391
 5721SOL    HW228797   2.912   1.341   5.823  1.8771  1.0515  1.6947
 5722SOL     OW28798   4.243   1.813  10.646  0.1703  0.2890 -0.2560
 5722SOL    HW128799   4.167   1.815  10.705 -0.1995  0.3416 -0.7368
 5722SOL    HW228800   4.317   1.838  10.702  2.1411 -0.8496 -2.3758
 5723SOL     OW28801   3.847   2.171   9.412 -0.0771  0.0834  0.6115
 5723SOL    HW128802   3.903   2.248   9.417 -1.3096  0.8681  2.5171
 5723SOL    HW228803   3.812   2.175   9.322  1.6601  1.9696  0.0169
 5724SOL     OW28804   1.124   0.690   4.117  0.7930 -0.0487  0.1505
 5724SOL    HW128805   1.051   0.749   4.098 -1.8034 -2.1191  3.7522
 5724SOL    HW228806   1.096   0.610   4.073  1.0721 -0.1908  0.2337
 5725SOL     OW28807   2.632   1.973  11.085 -0.2967  0.1137  0.6136
 5725SOL    HW128808   2.646   1.910  11.156  0.1033  1.6895  1.9511
 5725SOL    HW228809   2.714   1.963  11.037  1.0690 -0.6682  3.0742
 5726SOL     OW28810   1.037   4.133  16.960 -0.0935 -0.6971  0.1886
 5726SOL    HW128811   1.014   4.048  16.923  0.8596 -0.8818  0.0351
 5726SOL    HW228812   0.952   4.159  16.997 -0.4791 -0.1023 -1.1265
 5727SOL     OW28813   1.169   3.852   5.480  0.8421 -0.1577 -0.4012
 5727SOL    HW128814   1.241   3.797   5.510 -0.5643 -2.0947 -0.6141
 5727SOL    HW228815   1.111   3.780   5.459 -0.6839  0.6096  1.2239
 5728SOL     OW28816   3.233   1.395   7.173  0.0078  0.4573 -0.1109
 5728SOL    HW128817   3.187   1.462   7.222 -0.3557 -0.0523  0.2438
 5728SOL    HW228818   3.177   1.384   7.096 -1.8944 -1.5082  1.5685
 5729SOL     OW28819   2.290   3.824   6.289  1.2233 -0.2464  0.1077
 5729SOL    HW128820   2.264   3.896   6.232 -2.4639 -0.6114  1.2923
 5729SOL    HW228821   2.378   3.843   6.322  1.1087  1.1648 -0.3871
 5730SOL     OW28822   0.993   0.437   0.936  0.6204  0.8116  0.0997
 5730SOL    HW128823   0.999   0.353   0.892  2.5274  0.5152  0.9111
 5730SOL    HW228824   1.078   0.447   0.980  0.9224  0.6407 -0.4418
 5731SOL     OW28825   3.112   4.289  10.660  0.2713  0.2236 -0.2055
 5731SOL    HW128826   3.133   4.210  10.711 -0.2323  0.1412 -0.1277
 5731SOL    HW228827   3.187   4.345  10.680  2.0225 -2.3024  0.4139
 5732SOL     OW28828   0.319   4.675   7.474 -0.3398  0.6176 -0.5816
 5732SOL    HW128829   0.232   4.658   7.436 -0.3564  1.8227 -1.0765
 5732SOL    HW228830   0.287   4.695   7.562  0.1034 -0.1065 -0.2508
 5733SOL     OW28831   0.099   3.875   6.414  0.1147  0.6393 -0.4528
 5733SOL    HW128832   0.144   3.947   6.458 -2.1805  0.4198  2.2282
 5733SOL    HW228833   0.145   3.880   6.331 -0.0131  1.2394 -0.4860
 5734SOL     OW28834   1.221   3.500   3.800 -0.1624 -0.3521  0.1528
 5734SOL    HW128835   1.163   3.576   3.809 -1.1938 -1.0112 -0.9651
 5734SOL    HW228836   1.160   3.443   3.754 -0.3065  0.8309 -1.1410
 5735SOL     OW28837   3.120   4.714   0.759  0.2362 -0.4355  0.1987
 5735SOL    HW128838   3.060   0.027   0.815  1.0167  1.2395 -0.4420
 5735SOL    HW228839   3.076   4.635   0.728  0.4482 -0.0098 -1.1819
 5736SOL     OW28840   1.680   1.037   6.789  0.4578 -0.0265 -0.0332
 5736SOL    HW128841   1.591   1.011   6.765  1.4115 -1.5808 -1.9266
 5736SOL    HW228842   1.733   0.959   6.772  1.3255  0.4596  0.4356
 5737SOL     OW28843   3.407   2.869   9.577  0.0465 -0.2674  0.5095
 5737SOL    HW128844   3.315   2.852   9.597  0.3102 -0.8845  1.2168
 5737SOL    HW228845   3.412   2.965   9.573  1.8367 -0.3514  0.7067
 5738SOL     OW28846   4.612   1.036   6.087  0.2507 -0.6248 -0.0680
 5738SOL    HW128847   4.543   1.087   6.129  0.1539 -0.8436  0.0368
 5738SOL    HW228848   4.630   0.970   6.154 -1.5106 -0.6042  0.4221
 5739SOL     OW28849   3.247   4.210   3.267  0.2576 -0.1654 -0.6883
 5739SOL    HW128850   3.248   4.277   3.199  0.4502  2.7693  2.2300
 5739SOL    HW228851   3.342   4.193   3.266  0.2545 -0.2296  0.5197
 5740SOL     OW28852   2.174   3.922  10.541  0.0902 -0.2178  0.0551
 5740SOL    HW128853   2.236   3.991  10.518 -0.3313 -0.1475 -0.8596
 5740SOL    HW228854   2.101   3.979  10.564  1.1409  0.1046  2.6163
 5741SOL     OW28855   1.364   0.657   6.353  0.2853  0.1876 -0.3253
 5741SOL    HW128856   1.347   0.579   6.301 -1.0172 -0.7965  1.5612
 5741SOL    HW228857   1.374   0.631   6.445  1.0264  0.4525 -0.3301
 5742SOL     OW28858   2.826   0.673  17.146  0.2103  0.3264  0.1079
 5742SOL    HW128859   2.779   0.748  17.110 -3.0619 -1.2116  1.2086
 5742SOL    HW228860   2.883   0.652  17.072 -1.6445 -0.5332 -1.0793
 5743SOL     OW28861   1.214   4.013   9.507 -0.3868  0.0385 -0.3982
 5743SOL    HW128862   1.176   3.947   9.449  2.3228 -1.2712 -0.6973
 5743SOL    HW228863   1.218   3.967   9.592  1.5229 -0.0488 -0.5243
 5744SOL     OW28864   2.316   2.279   4.836 -0.5554  0.7658 -0.1973
 5744SOL    HW128865   2.230   2.259   4.871  1.2471 -3.7743  1.6714
 5744SOL    HW228866   2.308   2.234   4.752 -2.7442  0.9381 -0.0657
 5745SOL     OW28867   0.527   0.340   4.960 -0.1124  0.3507  0.0727
 5745SOL    HW128868   0.616   0.334   4.924  0.0805 -1.1517  0.7641
 5745SOL    HW228869   0.551   0.354   5.052  1.1491  0.3749 -0.2638
 5746SOL     OW28870   3.040   4.193   8.335  0.0803 -0.1844 -0.0119
 5746SOL    HW128871   3.100   4.181   8.262 -1.0645  0.8346 -1.1101
 5746SOL    HW228872   2.978   4.256   8.299 -1.6183 -0.8780  1.6793
 5747SOL     OW28873   2.974   2.626   5.722  0.6330  0.2563 -0.2110
 5747SOL    HW128874   2.927   2.568   5.783  0.6032  1.6219  1.0614
 5747SOL    HW228875   2.912   2.628   5.649  0.9143  2.0923 -0.3914
 5748SOL     OW28876   1.358   3.568   7.929 -0.0228 -0.3975  0.0530
 5748SOL    HW128877   1.441   3.541   7.969  0.1638 -1.1797 -0.8522
 5748SOL    HW228878   1.393   3.587   7.842  2.2619 -0.8134  0.8584
 5749SOL     OW28879   4.719   3.505  10.581 -0.4787  0.2135  0.1425
 5749SOL    HW128880   4.656   3.466  10.520 -0.0628 -0.5951  0.2268
 5749SOL    HW228881   4.674   3.588  10.596  1.9700  1.3091  1.3765
 5750SOL     OW28882   0.826   4.401   2.829 -0.2535  0.1132 -0.0533
 5750SOL    HW128883   0.889   4.363   2.768  0.6512  0.9432  0.3662
 5750SOL    HW228884   0.866   4.486   2.843  3.2491 -1.2682 -1.5473
 5751SOL     OW28885   1.815   1.550   4.588  0.4330  0.5319  0.7748
 5751SOL    HW128886   1.834   1.487   4.519 -1.3826  0.5440  0.2803
 5751SOL    HW228887   1.722   1.556   4.568  1.2253  3.9472 -1.9444
 5752SOL     OW28888   4.631   1.636   3.694 -0.0045  0.5908 -0.2578
 5752SOL    HW128889   4.674   1.721   3.699  0.9979  0.0146  0.9688
 5752SOL    HW228890   4.577   1.631   3.772 -1.6988 -2.1312 -1.5919
 5753SOL     OW28891   4.346   3.792   2.405 -0.1519  0.1865 -0.3905
 5753SOL    HW128892   4.394   3.709   2.412 -1.9783 -0.9453 -1.4238
 5753SOL    HW228893   4.262   3.765   2.442 -1.1131  2.2186 -1.1427
 5754SOL     OW28894   3.467   2.600  12.298 -0.2039 -0.0583 -0.5178
 5754SOL    HW128895   3.468   2.608  12.202 -0.3370  1.2518 -0.4153
 5754SOL    HW228896   3.548   2.553  12.316  0.7468  2.1591  1.0193
 5755SOL     OW28897   1.907   2.817   7.626 -0.1516 -0.5590  0.6252
 5755SOL    HW128898   1.975   2.783   7.683 -0.6556 -1.0732  0.9254
 5755SOL    HW228899   1.868   2.741   7.583  1.8662  0.2041 -2.5191
 5756SOL     OW28900   3.885   1.957   8.380 -0.2147 -0.0544 -0.0683
 5756SOL    HW128901   3.901   1.963   8.475  1.0349 -0.7245 -0.2294
 5756SOL    HW228902   3.803   1.909   8.372  0.3773 -1.3029  1.1504
 5757SOL     OW28903   2.135   3.745   6.690 -0.1316 -0.2260  0.0738
 5757SOL    HW128904   2.044   3.741   6.721 -0.2344  1.7088  0.0059
 5757SOL    HW228905   2.139   3.673   6.627  1.1919 -1.3482  1.4354
 5758SOL     OW28906   2.985   4.515   4.051 -0.3110  0.3020  0.5732
 5758SOL    HW128907   3.000   4.551   4.138  0.8369  0.8858  0.1255
 5758SOL    HW228908   2.945   4.589   4.006 -1.5365 -0.0725  1.0422
 5759SOL     OW28909   2.950   3.603  11.197  0.1366 -0.6707  0.2866
 5759SOL    HW128910   2.986   3.688  11.170 -0.4779 -0.4331  0.2275
 5759SOL    HW228911   3.028   3.568  11.242  0.6885  0.3916  0.1581
 5760SOL     OW28912   3.610   0.992   0.906  0.0363  0.0080  0.0860
 5760SOL    HW128913   3.582   1.014   0.995 -0.6615  0.7286 -0.3053
 5760SOL    HW228914   3.527   0.964   0.868  0.0208 -1.4174  1.1762
 5761SOL     OW28915   4.032   4.414  14.619 -0.0888 -0.3708  0.4656
 5761SOL    HW128916   4.064   4.437  14.532  0.3631  0.3328  0.8258
 5761SOL    HW228917   4.023   4.319  14.612  0.6040 -0.3908 -0.0633
 5762SOL     OW28918   2.075   1.240  14.123  0.1813 -0.2370  0.0092
 5762SOL    HW128919   1.981   1.230  14.106 -0.0718  0.7974  0.8132
 5762SOL    HW228920   2.102   1.160  14.077  3.0548  0.0121  1.2721
 5763SOL     OW28921   2.845   0.617  12.542  0.5578 -0.0778  0.2939
 5763SOL    HW128922   2.922   0.625  12.599  1.4705  1.2634 -1.1609
 5763SOL    HW228923   2.867   0.679  12.473 -0.1044 -2.3535 -1.9306
 5764SOL     OW28924   3.643   2.339   7.454 -0.1778  0.1441 -0.1196
 5764SOL    HW128925   3.650   2.380   7.368  0.5077  1.3355  0.5061
 5764SOL    HW228926   3.730   2.322   7.488  0.3057 -0.2544 -1.5579
 5765SOL     OW28927   1.454   1.106   1.160  0.1364  0.3168  0.3297
 5765SOL    HW128928   1.377   1.161   1.144 -0.4270  0.3530  3.1587
 5765SOL    HW228929   1.435   1.090   1.253 -0.6855  1.3122  0.3254
 5766SOL     OW28930   3.812   2.924  14.780  0.4392 -0.1498  0.0812
 5766SOL    HW128931   3.748   2.993  14.766 -1.5338 -1.3824  2.9545
 5766SOL    HW228932   3.898   2.957  14.754  0.5398  0.4091  1.1345
 5767SOL     OW28933   3.591   0.239  15.542 -0.1287  0.1600 -0.1295
 5767SOL    HW128934   3.501   0.218  15.568  0.6510 -0.6308  1.9756
 5767SOL    HW228935   3.613   0.172  15.478 -4.0278  0.7700 -2.1068
 5768SOL     OW28936   4.719   1.737  10.187 -0.0969 -0.1465 -1.0640
 5768SOL    HW128937   4.681   1.710  10.271  2.0466  2.1203  0.6080
 5768SOL    HW228938   0.010   1.825  10.211 -1.6824 -0.4050  1.6609
 5769SOL     OW28939   1.359   2.804   9.081  0.2365 -0.0907 -0.4988
 5769SOL    HW128940   1.298   2.742   9.041 -0.3342 -1.3650  2.3094
 5769SOL    HW228941   1.447   2.769   9.066  1.3518  1.3719  2.6505
 5770SOL     OW28942   0.903   2.304  17.066  0.4755 -0.3610  0.2963
 5770SOL    HW128943   0.869   2.350  16.989 -0.7642 -1.2603  0.3042
 5770SOL    HW228944   0.937   2.374  17.122  1.3222 -1.4076  1.1053
 5771SOL     OW28945   4.030   2.373   1.790  0.2398  0.4676 -0.7126
 5771SOL    HW128946   3.961   2.407   1.734 -0.9530  1.1903  1.1959
 5771SOL    HW228947   4.055   2.456   1.830 -1.1216 -0.2346  1.5726
 5772SOL     OW28948   0.500   0.255   1.845  0.0176  0.4491  0.1487
 5772SOL    HW128949   0.545   0.231   1.926 -0.2238  1.1635  0.5037
 5772SOL    HW228950   0.423   0.291   1.890 -0.3696  0.4171 -0.4881
 5773SOL     OW28951   3.587   2.633  11.075 -0.2343  0.4889 -0.5612
 5773SOL    HW128952   3.506   2.682  11.061 -1.1178 -1.1849 -1.3205
 5773SOL    HW228953   3.603   2.578  10.998 -2.6086 -0.5543 -0.3292
 5774SOL     OW28954   3.187   1.127  11.069  0.3549 -0.2068 -0.0070
 5774SOL    HW128955   3.191   1.207  11.122 -1.9958  0.2608 -0.5251
 5774SOL    HW228956   3.232   1.062  11.122 -0.3499  0.1151  0.9922
 5775SOL     OW28957   4.132   0.221   6.803 -0.5080 -0.0654  0.1159
 5775SOL    HW128958   4.080   0.245   6.879  0.6261  0.6351  0.6648
 5775SOL    HW228959   4.161   0.311   6.784  0.8008 -0.7332 -1.0279
 5776SOL     OW28960   0.273   4.284  15.216  0.4671 -0.0754  0.3572
 5776SOL    HW128961   0.339   4.339  15.173 -0.7068  1.3985  0.4614
 5776SOL    HW228962   0.214   4.271  15.142 -0.5049  3.9882  0.4482
 5777SOL     OW28963   1.790   0.085   3.959  0.2552  0.4640  0.2160
 5777SOL    HW128964   1.804   0.026   3.885 -1.7817 -1.2878  1.2340
 5777SOL    HW228965   1.811   0.026   4.031  1.1846  0.5292 -0.0005
 5778SOL     OW28966   4.274   4.159   3.230 -0.9039  0.2050 -0.3814
 5778SOL    HW128967   4.361   4.191   3.203 -0.0584 -0.8439  1.0913
 5778SOL    HW228968   4.230   4.191   3.151 -0.5519 -3.5238 -2.1214
 5779SOL     OW28969   3.876   2.988   8.251 -0.0324  0.3093  0.3133
 5779SOL    HW128970   3.789   3.014   8.221  1.3913  1.2365 -3.0291
 5779SOL    HW228971   3.918   3.074   8.239  0.2871  0.2961  1.3161
 5780SOL     OW28972   3.238   4.232   9.129 -0.2582 -0.0174  0.5436
 5780SOL    HW128973   3.157   4.272   9.161 -0.1113  1.1611 -0.5410
 5780SOL    HW228974   3.218   4.204   9.040  1.5601 -1.4079  0.5907
 5781SOL     OW28975   3.604   4.383   0.722 -0.7212 -0.1801 -0.3859
 5781SOL    HW128976   3.614   4.344   0.809  0.5294 -1.0706 -0.9292
 5781SOL    HW228977   3.511   4.358   0.717 -1.1263  1.4218 -0.8612
 5782SOL     OW28978   0.690   4.108   5.219 -0.3768  0.2432 -0.5022
 5782SOL    HW128979   0.722   4.019   5.229 -2.2735 -0.0702  2.6668
 5782SOL    HW228980   0.652   4.130   5.304 -0.1838  2.6242 -1.0274
 5783SOL     OW28981   1.452   0.359   6.058 -0.2705 -0.2823 -0.5230
 5783SOL    HW128982   1.371   0.393   6.020 -0.0011 -0.0599 -0.9062
 5783SOL    HW228983   1.417   0.314   6.134 -0.2909  1.0693  0.2770
 5784SOL     OW28984   0.493   4.054  16.363  0.2720 -0.1156 -0.2882
 5784SOL    HW128985   0.491   4.144  16.331 -1.6563 -0.1845 -0.3708
 5784SOL    HW228986   0.421   4.052  16.426  0.3391  0.0370 -0.2081
 5785SOL     OW28987   3.052   0.117   7.215 -0.1929  0.2021 -0.0209
 5785SOL    HW128988   3.020   0.207   7.219 -0.3108  0.1073  1.3909
 5785SOL    HW228989   2.978   0.071   7.255  1.2373 -0.9365  1.3477
 5786SOL     OW28990   1.117   1.333   9.747  0.2915  0.2921  0.6021
 5786SOL    HW128991   1.060   1.372   9.680 -0.9103 -1.3684  0.6587
 5786SOL    HW228992   1.201   1.336   9.701  0.4191 -1.5376  0.7085
 5787SOL     OW28993   3.074   3.475   7.681  0.5629  0.3383 -0.5712
 5787SOL    HW128994   3.067   3.405   7.616 -2.3346  0.9100 -0.8754
 5787SOL    HW228995   3.036   3.429   7.756  0.9438  2.5000  0.9634
 5788SOL     OW28996   2.780   2.269   7.942 -0.3412  0.1901  0.1221
 5788SOL    HW128997   2.740   2.186   7.964  2.6502 -0.7830  1.9478
 5788SOL    HW228998   2.857   2.272   8.000  0.0091 -0.8938 -0.2960
 5789SOL     OW28999   2.371   0.451   9.162 -0.3055 -0.5681  0.3549
 5789SOL    HW129000   2.344   0.419   9.248 -1.7985 -0.7327 -0.1791
 5789SOL    HW229001   2.466   0.441   9.164 -0.2416 -0.0098  0.2971
 5790SOL     OW29002   0.966   4.286   3.675  0.6322 -0.9938 -0.0139
 5790SOL    HW129003   0.873   4.310   3.676  0.4618 -1.6165 -0.5084
 5790SOL    HW229004   0.993   4.340   3.749 -0.3718  1.3000 -1.3069
 5791SOL     OW29005   1.658   3.002   9.166  0.2549 -0.2082 -0.4419
 5791SOL    HW129006   1.669   3.062   9.092  0.4830 -1.3475 -1.3205
 5791SOL    HW229007   1.701   2.921   9.141  1.3100  0.1058  0.3854
 5792SOL     OW29008   3.176   3.881   6.846 -0.0444 -0.1567 -0.6822
 5792SOL    HW129009   3.144   3.970   6.832 -1.1034 -0.6476 -1.3910
 5792SOL    HW229010   3.267   3.895   6.874 -0.1553 -1.4996  0.3395
 5793SOL     OW29011   3.756   0.633   4.662  0.4129 -0.2106 -0.6600
 5793SOL    HW129012   3.823   0.687   4.704 -0.3063 -0.2069  0.4767
 5793SOL    HW229013   3.804   0.558   4.626  2.9558  1.4387 -0.6877
 5794SOL     OW29014   0.854   1.488   3.636  0.4428  0.2617 -0.5912
 5794SOL    HW129015   0.780   1.532   3.597 -1.8771 -0.6631  2.7554
 5794SOL    HW229016   0.807   1.422   3.688  0.4547 -0.2117 -1.1853
 5795SOL     OW29017   1.012   2.444  11.150  0.3676 -0.1010  0.3139
 5795SOL    HW129018   0.931   2.416  11.192 -0.5760  0.7423 -0.9382
 5795SOL    HW229019   0.986   2.535  11.132 -0.8067 -0.7719 -1.4155
 5796SOL     OW29020   1.196   0.142   9.631  0.7150 -0.2277  0.0564
 5796SOL    HW129021   1.254   0.088   9.577  0.1300  0.0079 -0.8049
 5796SOL    HW229022   1.211   0.216   9.572 -3.3560 -0.2943 -1.0677
 5797SOL     OW29023   3.922   0.092   7.923 -0.4604  0.3187  0.2010
 5797SOL    HW129024   3.915   0.094   8.018 -1.3205  0.0610  0.1472
 5797SOL    HW229025   3.893   0.180   7.899  1.2242  0.6266 -0.7303
 5798SOL     OW29026   3.968   2.315  14.095  0.0825  0.3810  0.5411
 5798SOL    HW129027   4.042   2.305  14.034  1.0375 -1.5895  2.0372
 5798SOL    HW229028   4.018   2.339  14.173 -0.5254 -1.4581  1.4919
 5799SOL     OW29029   3.258   2.897   6.546 -0.2907 -0.5299  0.4011
 5799SOL    HW129030   3.263   2.974   6.490  0.5694  0.0713  1.3207
 5799SOL    HW229031   3.273   2.827   6.481  0.2142 -1.0006  1.0287
 5800SOL     OW29032   0.759   2.413   9.359  0.7613  0.3793 -0.3448
 5800SOL    HW129033   0.814   2.397   9.282  2.3023 -0.4849  0.9353
 5800SOL    HW229034   0.816   2.384   9.431  1.0973 -2.1083 -1.6370
 5801SOL     OW29035   3.851   4.240   9.067  0.3153  0.3873 -0.5417
 5801SOL    HW129036   3.874   4.296   9.141  0.2240 -1.1830  0.6832
 5801SOL    HW229037   3.933   4.234   9.018  1.4577 -1.4521  1.5754
 5802SOL     OW29038   0.315   0.721  10.833  0.2168  0.1256 -0.5004
 5802SOL    HW129039   0.259   0.750  10.761  0.2383 -1.6408 -1.2241
 5802SOL    HW229040   0.310   0.803  10.883  2.3700 -0.0504 -0.0187
 5803SOL     OW29041   0.718   3.691   6.805  0.1184 -0.0900 -0.1073
 5803SOL    HW129042   0.691   3.746   6.732 -0.6544 -2.4980 -1.6288
 5803SOL    HW229043   0.657   3.617   6.800 -0.5294  0.5923 -1.9817
 5804SOL     OW29044   3.403   3.415   6.012 -0.8708  0.5170 -0.4598
 5804SOL    HW129045   3.322   3.458   6.040 -0.8317  0.0465  0.3891
 5804SOL    HW229046   3.414   3.355   6.086 -1.5081  1.6691  0.5592
 5805SOL     OW29047   1.262   1.601  11.792 -0.0593  0.2618  0.0377
 5805SOL    HW129048   1.217   1.616  11.875  0.3655 -1.0769  0.5093
 5805SOL    HW229049   1.198   1.539  11.758  1.5290 -3.1709  3.3594
 5806SOL     OW29050   3.864   0.119   8.433  0.2967 -0.3697  0.8214
 5806SOL    HW129051   3.775   0.087   8.446  0.5473 -0.6651  1.8492
 5806SOL    HW229052   3.892   0.066   8.507 -1.8906 -0.2016  1.7521
 5807SOL     OW29053   1.504   1.010   5.046 -0.4348 -0.2481 -0.2276
 5807SOL    HW129054   1.429   0.992   5.101 -0.2045 -1.0155 -0.1704
 5807SOL    HW229055   1.528   0.920   5.024  0.2617 -0.0321 -0.3733
 5808SOL     OW29056   3.207   0.611  15.980  0.5031  0.4390 -0.8091
 5808SOL    HW129057   3.122   0.614  15.936 -0.3620 -3.1236  0.6666
 5808SOL    HW229058   3.271   0.615  15.909  2.8113  2.2886  1.3821
 5809SOL     OW29059   4.524   0.871  13.393  0.2356  0.2429  0.7689
 5809SOL    HW129060   4.513   0.915  13.309  2.5001 -0.3854  0.1360
 5809SOL    HW229061   4.444   0.905  13.433 -1.2661  3.2319 -4.8390
 5810SOL     OW29062   4.461   0.222   8.747  0.3275  0.8024  0.1601
 5810SOL    HW129063   4.489   0.308   8.780  1.5122  0.7191 -0.6172
 5810SOL    HW229064   4.410   0.247   8.670 -0.4731  0.4201  0.5743
 5811SOL     OW29065   2.622   2.954   5.400 -0.2424 -0.2233 -0.4044
 5811SOL    HW129066   2.611   2.911   5.315  1.3785  1.3316 -1.3962
 5811SOL    HW229067   2.584   2.892   5.463 -1.8059  1.7542  0.5730
 5812SOL     OW29068   1.645   1.680   3.468  0.0805 -0.0031  0.1427
 5812SOL    HW129069   1.626   1.724   3.385  1.9475  2.3130  0.9106
 5812SOL    HW229070   1.616   1.591   3.451 -1.3479  0.2606  1.2033
 5813SOL     OW29071   2.494   2.469   3.667  0.0197  0.4870  0.5668
 5813SOL    HW129072   2.586   2.496   3.670  0.0991  0.3323 -0.6387
 5813SOL    HW229073   2.460   2.516   3.744 -0.7841  0.5868  0.1507
 5814SOL     OW29074   2.615   3.784   8.819  0.2949  0.0750 -0.3261
 5814SOL    HW129075   2.654   3.870   8.833 -0.3325  0.0679  1.3859
 5814SOL    HW229076   2.551   3.790   8.890  3.2462 -0.7385  2.3829
 5815SOL     OW29077   1.069   4.476  10.268  0.2885 -0.1895  0.7774
 5815SOL    HW129078   1.037   4.527  10.194  1.1850 -0.5797  0.1350
 5815SOL    HW229079   0.992   4.472  10.325 -2.8456 -0.1071 -3.5036
 5816SOL     OW29080   3.361   0.966   7.521  0.3651  0.6524  0.2375
 5816SOL    HW129081   3.289   0.951   7.460 -0.5660  0.6488  1.3390
 5816SOL    HW229082   3.312   1.000   7.596 -0.5316 -2.1940  0.9578
 5817SOL     OW29083   0.381   4.432   4.948  0.3658 -0.2351  0.0354
 5817SOL    HW129084   0.333   4.510   4.977 -0.2124 -0.5673 -0.0315
 5817SOL    HW229085   0.469   4.467   4.960  0.9964 -2.0467  0.7232
 5818SOL     OW29086   0.829   0.379   5.732 -0.3706  0.2682 -0.1980
 5818SOL    HW129087   0.873   0.464   5.724  0.1144  0.2219  1.8999
 5818SOL    HW229088   0.764   0.408   5.795  1.1399 -0.0880  1.5264
 5819SOL     OW29089   0.438   1.311   4.605 -0.0282  0.6213  0.5003
 5819SOL    HW129090   0.479   1.371   4.667 -3.0917  0.9416  2.2285
 5819SOL    HW229091   0.346   1.335   4.593  0.0712  0.7535  0.0004
 5820SOL     OW29092   4.484   0.403   2.788  0.6889 -0.4615  0.2761
 5820SOL    HW129093   4.424   0.357   2.730  0.6108  1.6188 -1.2739
 5820SOL    HW229094   4.436   0.475   2.830  1.3832 -0.2944  0.7911
 5821SOL     OW29095   0.891   1.691  14.410  0.0003  0.4957  0.2232
 5821SOL    HW129096   0.959   1.757  14.393  0.5015 -0.1137 -0.1540
 5821SOL    HW229097   0.818   1.746  14.436 -0.8488  0.3760 -1.9168
 5822SOL     OW29098   2.090   2.068   2.359 -0.5584 -1.0553  0.5312
 5822SOL    HW129099   2.155   2.129   2.393 -0.4876 -1.1254  0.5230
 5822SOL    HW229100   2.048   2.036   2.439  0.3228 -0.0607  1.3845
 5823SOL     OW29101   2.537   1.678   8.799 -0.0285 -0.0971 -0.2378
 5823SOL    HW129102   2.550   1.709   8.889  0.9948 -1.0710 -0.0493
 5823SOL    HW229103   2.603   1.729   8.752  0.2904 -1.0420 -0.8297
 5824SOL     OW29104   0.200   1.596   3.304  0.1508 -0.4678 -0.2722
 5824SOL    HW129105   0.139   1.599   3.230 -1.8528  0.6771  1.4424
 5824SOL    HW229106   0.208   1.501   3.315 -1.0535 -0.4725  0.5222
 5825SOL     OW29107   1.604   0.533  12.491 -0.4818  0.0750 -0.2449
 5825SOL    HW129108   1.517   0.498  12.473 -0.9408  0.0720  1.9021
 5825SOL    HW229109   1.653   0.515  12.411  1.2116  0.1887  0.7531
 5826SOL     OW29110   3.963   0.448   4.913 -0.4817 -0.1121 -0.5010
 5826SOL    HW129111   3.945   0.429   4.821 -0.4124 -0.1103 -0.5150
 5826SOL    HW229112   3.947   0.362   4.953  1.9739  0.5700  1.9359
 5827SOL     OW29113   3.116   0.933   7.383 -0.0625 -0.2559 -0.2038
 5827SOL    HW129114   3.084   1.002   7.441 -1.1569 -1.3284  0.4809
 5827SOL    HW229115   3.061   0.936   7.305  0.5393 -1.2480 -0.6656
 5828SOL     OW29116   0.641   0.750  11.840  1.0114 -0.3733  0.1324
 5828SOL    HW129117   0.621   0.804  11.917 -2.9439  0.1620 -1.2830
 5828SOL    HW229118   0.687   0.673  11.873 -2.7920 -1.5370  2.6752
 5829SOL     OW29119   4.646   2.506   9.236 -0.6073 -0.1481 -1.3518
 5829SOL    HW129120   4.720   2.458   9.198  0.1133 -2.1012  2.5265
 5829SOL    HW229121   4.670   2.532   9.324 -0.3719 -1.4300 -1.0289
 5830SOL     OW29122   4.265   0.103   9.608  0.1622  0.0166  0.6479
 5830SOL    HW129123   4.177   0.110   9.643 -0.2112 -0.7048 -0.1596
 5830SOL    HW229124   4.283   0.190   9.572 -0.4170  0.6419  1.8587
 5831SOL     OW29125   4.460   2.884   6.169  0.3996  0.9849 -0.0214
 5831SOL    HW129126   4.522   2.957   6.165  0.2708  1.0249 -1.2743
 5831SOL    HW229127   4.499   2.832   6.240 -1.2703 -0.4188 -0.1500
 5832SOL     OW29128   1.444   1.228   6.446 -0.3284 -0.2949 -0.2843
 5832SOL    HW129129   1.496   1.148   6.438  0.4161  0.0436  1.0106
 5832SOL    HW229130   1.375   1.230   6.380  0.1750  1.7658 -0.7452
 5833SOL     OW29131   4.504   3.288   3.604  0.0679 -0.4547 -0.0197
 5833SOL    HW129132   4.580   3.240   3.571  0.8390  0.2969  0.6538
 5833SOL    HW229133   4.523   3.377   3.574 -0.0682 -0.5095 -0.2733
 5834SOL     OW29134   0.065   0.682   8.372 -0.0563 -0.4946  0.5342
 5834SOL    HW129135   4.709   0.703   8.387 -0.7617 -3.0924 -0.2278
 5834SOL    HW229136   0.105   0.709   8.455 -2.0392 -1.5250  1.8382
 5835SOL     OW29137   3.044   1.143  13.028  0.2930 -0.3092  0.5885
 5835SOL    HW129138   2.977   1.078  13.006  1.6480 -1.8426  0.9697
 5835SOL    HW229139   2.991   1.208  13.074 -0.3493  0.0410 -0.6462
 5836SOL     OW29140   2.291   0.272   5.260 -0.0116 -0.0248 -0.6298
 5836SOL    HW129141   2.302   0.356   5.305  1.5879 -0.1269 -0.8371
 5836SOL    HW229142   2.351   0.284   5.187  0.1578 -0.9031 -0.6365
 5837SOL     OW29143   0.663   3.709   0.344 -0.4252 -0.5328 -0.3590
 5837SOL    HW129144   0.717   3.630   0.335 -1.0775 -1.0196 -0.0053
 5837SOL    HW229145   0.575   3.682   0.371 -1.1192  0.1159 -1.9932
 5838SOL     OW29146   3.114   1.705   5.432 -0.0823 -0.2511  0.0188
 5838SOL    HW129147   3.109   1.792   5.472  0.1848 -0.1731 -0.1192
 5838SOL    HW229148   3.181   1.655   5.478 -0.7586 -1.4510 -0.2968
 5839SOL     OW29149   0.192   2.147  10.426  0.1225 -0.9050 -0.4382
 5839SOL    HW129150   0.150   2.199  10.495  1.6639 -1.1151  0.6624
 5839SOL    HW229151   0.284   2.160  10.447 -0.0205  0.9097 -0.9300
 5840SOL     OW29152   3.215   0.401   7.379 -0.1682  0.2554 -0.3646
 5840SOL    HW129153   3.294   0.450   7.400 -0.1401 -0.2945  0.8004
 5840SOL    HW229154   3.247   0.311   7.373 -1.2791 -0.1847  0.4506
 5841SOL     OW29155   2.355   3.509   5.239 -0.4260 -0.0091 -0.0327
 5841SOL    HW129156   2.409   3.485   5.163  2.0836  2.5136  0.9462
 5841SOL    HW229157   2.347   3.421   5.274 -1.1174  0.0563 -0.0257
 5842SOL     OW29158   0.757   2.542   8.858  0.0946 -0.4581 -0.0494
 5842SOL    HW129159   0.695   2.475   8.889 -0.8254  0.7745  0.7546
 5842SOL    HW229160   0.778   2.580   8.943  1.8953 -1.4042 -0.0734
 5843SOL     OW29161   0.360   2.786   4.536  0.3065  0.0997  0.0238
 5843SOL    HW129162   0.380   2.809   4.627  3.4794 -4.6753  0.5363
 5843SOL    HW229163   0.435   2.732   4.509 -0.3754 -1.2441  0.7937
 5844SOL     OW29164   3.258   1.399   4.709 -0.1864  0.4376  0.3200
 5844SOL    HW129165   3.190   1.345   4.669  1.1222 -1.2024  0.3251
 5844SOL    HW229166   3.240   1.378   4.801  2.4378  0.8374  0.9370
 5845SOL     OW29167   3.428   1.550  12.061 -0.3148 -0.0993 -0.2508
 5845SOL    HW129168   3.339   1.572  12.089 -0.1168 -0.4523  0.6479
 5845SOL    HW229169   3.470   1.623  12.107 -0.5088 -0.2909  0.2205
 5846SOL     OW29170   1.290   3.007   7.095 -0.1937 -0.1718 -0.1348
 5846SOL    HW129171   1.313   2.942   7.162 -0.6305  0.6846  0.8342
 5846SOL    HW229172   1.216   3.040   7.146  0.0507  1.9675 -1.1995
 5847SOL     OW29173   4.402   1.229   6.205 -0.0852 -0.2497 -0.0112
 5847SOL    HW129174   4.417   1.323   6.196  0.9300 -0.3997  0.0985
 5847SOL    HW229175   4.406   1.214   6.299  1.9820 -0.2211 -0.0863
 5848SOL     OW29176   1.488   3.311   6.162 -0.0767 -0.5380  0.4882
 5848SOL    HW129177   1.554   3.243   6.174 -0.5504 -0.8760  1.2040
 5848SOL    HW229178   1.472   3.310   6.068  1.3956 -2.8142  0.2701
 5849SOL     OW29179   2.213   3.967   2.252 -0.3686 -0.0071 -0.1850
 5849SOL    HW129180   2.276   3.907   2.292 -0.4409  1.5785  2.3090
 5849SOL    HW229181   2.255   4.050   2.269  0.2922 -0.2676 -0.5692
 5850SOL     OW29182   0.207   3.710  11.222 -0.5380  0.0519 -0.1206
 5850SOL    HW129183   0.280   3.649  11.231 -0.5569 -0.1125 -1.1313
 5850SOL    HW229184   0.251   3.795  11.230  0.3558 -0.5982  1.9311
 5851SOL     OW29185   0.033   3.404   6.519  0.0105 -0.1924  0.0420
 5851SOL    HW129186   4.708   3.404   6.593 -1.1593 -0.1408 -0.9324
 5851SOL    HW229187   0.096   3.334   6.540  1.5174  0.4918 -2.2491
 5852SOL     OW29188   3.618   1.465  13.231 -0.7309 -0.3464 -0.0668
 5852SOL    HW129189   3.527   1.470  13.259 -0.9304  0.3761 -0.8474
 5852SOL    HW229190   3.652   1.429  13.313 -1.8951 -0.3087  0.4346
 5853SOL     OW29191   2.312   1.325   2.783  0.2918 -0.3855  0.2755
 5853SOL    HW129192   2.362   1.317   2.702 -0.6284 -1.0928 -0.2263
 5853SOL    HW229193   2.227   1.300   2.747  1.1173 -1.1166 -1.1764
 5854SOL     OW29194   4.087   4.217   2.028  0.1862 -0.3383  0.4285
 5854SOL    HW129195   4.096   4.129   2.065  2.5778 -0.0320  0.5776
 5854SOL    HW229196   4.143   4.217   1.950 -1.7176  0.4502 -0.9293
 5855SOL     OW29197   2.772   0.294  13.137 -0.0548  0.3744  0.0144
 5855SOL    HW129198   2.708   0.225  13.155 -0.0245  0.6996  1.3828
 5855SOL    HW229199   2.757   0.282  13.043  0.4789  1.4505 -0.2001
 5856SOL     OW29200   3.201   3.979   1.523  0.1677 -0.0244 -0.3846
 5856SOL    HW129201   3.282   3.980   1.473  1.3947 -0.8951  1.5972
 5856SOL    HW229202   3.193   3.886   1.545  0.1692  0.6755  2.5538
 5857SOL     OW29203   4.390   4.008  12.537  0.4219 -0.0666 -0.1114
 5857SOL    HW129204   4.341   4.049  12.466 -0.9351 -1.9152 -0.2499
 5857SOL    HW229205   4.326   3.940  12.561  0.6868 -0.9532 -1.8919
 5858SOL     OW29206   1.010   1.507   7.497  0.4091  0.2246 -0.0498
 5858SOL    HW129207   0.945   1.446   7.531 -0.8586  2.2113  1.1015
 5858SOL    HW229208   1.067   1.451   7.444  0.0670  0.7582 -0.9950
 5859SOL     OW29209   2.657   2.718   9.000  0.1808 -0.1956  0.0742
 5859SOL    HW129210   2.578   2.678   9.037 -0.8659  1.1983 -0.6245
 5859SOL    HW229211   2.696   2.747   9.082  0.3708 -0.8525  0.2142
 5860SOL     OW29212   2.147   1.131   9.572 -0.4405 -0.3116 -0.2944
 5860SOL    HW129213   2.159   1.092   9.659  2.6644  2.2440  0.4157
 5860SOL    HW229214   2.183   1.059   9.519  1.1826 -0.3024  0.7903
 5861SOL     OW29215   2.496   2.490  17.721 -0.1065  0.4900 -0.2042
 5861SOL    HW129216   2.430   2.426   0.005 -1.6961  0.3025 -4.3811
 5861SOL    HW229217   2.571   2.431  17.711 -0.3994  0.0655  0.0745
 5862SOL     OW29218   2.560   4.151   1.167  0.2258  0.4838  0.5449
 5862SOL    HW129219   2.631   4.147   1.103 -0.6564 -0.2891 -0.3842
 5862SOL    HW229220   2.514   4.229   1.137 -2.0006 -1.3342 -0.7111
 5863SOL     OW29221   3.328   3.768  11.165  0.0782  0.1007  0.0873
 5863SOL    HW129222   3.261   3.701  11.178  0.3842  0.1213  1.6928
 5863SOL    HW229223   3.292   3.850  11.199  3.0031  0.2257  2.8569
 5864SOL     OW29224   0.257   4.049  14.567  0.2747 -0.4633  0.1093
 5864SOL    HW129225   0.189   4.033  14.632 -2.2509  1.3586 -2.0468
 5864SOL    HW229226   0.285   3.962  14.539  0.6330 -0.5949  0.8719
 5865SOL     OW29227   0.951   0.938  11.611  1.0163 -0.3947 -0.1994
 5865SOL    HW129228   0.907   0.984  11.539  0.2941 -1.1524 -0.2372
 5865SOL    HW229229   0.940   1.002  11.682  0.9255 -0.0543 -0.5179
 5866SOL     OW29230   0.454   4.572   7.759 -0.0207 -0.1595  0.8839
 5866SOL    HW129231   0.414   4.638   7.702 -0.1576 -0.5989  0.4754
 5866SOL    HW229232   0.412   4.601   7.840  0.0521  2.4615 -0.0148
 5867SOL     OW29233   3.102   3.017   7.483 -0.1035 -0.2251  0.4526
 5867SOL    HW129234   3.165   3.043   7.551 -2.0175  3.2492  0.8732
 5867SOL    HW229235   3.054   2.950   7.533  2.8793 -1.0279  2.2383
 5868SOL     OW29236   1.757   0.865   5.377  0.2270  0.4782  0.1798
 5868SOL    HW129237   1.833   0.830   5.425  0.6490  0.8483 -0.2239
 5868SOL    HW229238   1.805   0.919   5.314  0.6803  2.9927  2.6447
 5869SOL     OW29239   0.806   4.275   9.541  0.2867 -0.9594 -0.2694
 5869SOL    HW129240   0.723   4.239   9.573  0.0666 -0.5083 -0.3336
 5869SOL    HW229241   0.862   4.206   9.506  2.2005  0.7393 -0.5907
 5870SOL     OW29242   0.982   2.621   0.336  0.5512 -0.1241 -0.1637
 5870SOL    HW129243   0.944   2.623   0.424  1.5756 -2.1055  0.3165
 5870SOL    HW229244   1.026   2.536   0.328  1.9952  0.5810  0.2324
 5871SOL     OW29245   0.448   3.386   7.196  0.4312  0.2187  0.3336
 5871SOL    HW129246   0.524   3.438   7.223 -0.6601  1.1059  1.7418
 5871SOL    HW229247   0.471   3.296   7.221 -0.6716  0.3155  1.7253
 5872SOL     OW29248   4.556   1.490   9.193 -0.2370 -0.2010 -0.0993
 5872SOL    HW129249   4.516   1.543   9.262  1.5091 -0.4137  1.0800
 5872SOL    HW229250   4.638   1.538   9.180  0.9704 -2.0420  0.7609
 5873SOL     OW29251   3.492   1.123   2.585 -0.0505  0.1882  0.2693
 5873SOL    HW129252   3.433   1.069   2.638 -0.4759 -0.1124 -0.5121
 5873SOL    HW229253   3.434   1.180   2.535 -0.3482 -0.5425 -0.2303
 5874SOL     OW29254   1.561   0.580  10.649  0.2976  0.1667 -0.1315
 5874SOL    HW129255   1.646   0.587  10.604 -0.2114 -0.1134 -1.1353
 5874SOL    HW229256   1.507   0.527  10.591  2.5509 -2.4102  0.1281
 5875SOL     OW29257   3.732   0.755   3.569  0.2926 -0.4538  0.2940
 5875SOL    HW129258   3.726   0.847   3.593 -0.4542 -0.2189 -0.7788
 5875SOL    HW229259   3.667   0.750   3.499  0.3948  0.6094  0.1248
 5876SOL     OW29260   2.196   0.464   4.626 -0.6652 -0.1144  0.0720
 5876SOL    HW129261   2.183   0.405   4.700 -0.9041  0.8433  0.7983
 5876SOL    HW229262   2.145   0.542   4.649  1.8204  2.0270 -1.7076
 5877SOL     OW29263   1.491   0.006   5.029 -0.3832  0.3453  0.5312
 5877SOL    HW129264   1.548   0.013   4.952 -1.1314  2.1613  0.1646
 5877SOL    HW229265   1.567   4.715   5.081 -0.0338  2.0810  0.9383
 5878SOL     OW29266   1.840   0.156   6.275 -0.5715 -0.6614 -0.1669
 5878SOL    HW129267   1.780   0.145   6.349  0.2055 -0.3683  0.5012
 5878SOL    HW229268   1.874   0.066   6.274  1.8417  0.2315  0.4399
 5879SOL     OW29269   0.294   0.375   8.850 -0.7023 -0.2378 -0.1148
 5879SOL    HW129270   0.341   0.297   8.881  1.3784  0.8568 -0.5691
 5879SOL    HW229271   0.251   0.340   8.772  1.2413 -2.2352 -0.2823
 5880SOL     OW29272   2.558   1.323   6.709 -0.5710  0.1043 -0.2597
 5880SOL    HW129273   2.541   1.383   6.636 -2.9073 -1.8480 -1.3257
 5880SOL    HW229274   2.650   1.297   6.701 -1.2178 -1.2337 -3.3141
 5881SOL     OW29275   0.269   1.413   8.055 -0.0548 -0.2148  0.1372
 5881SOL    HW129276   0.224   1.465   8.121 -1.3921 -0.7293 -0.3436
 5881SOL    HW229277   0.352   1.460   8.053  1.0102 -2.1559 -1.6595
 5882SOL     OW29278   3.216   3.512   6.195 -0.4047 -0.1326  0.3951
 5882SOL    HW129279   3.227   3.499   6.289  0.4701 -0.1288  0.2962
 5882SOL    HW229280   3.137   3.463   6.175 -1.2832  1.9924 -1.3452
 5883SOL     OW29281   0.410   4.586   6.766 -0.3938 -0.3546 -0.0742
 5883SOL    HW129282   0.326   4.605   6.725 -1.2360 -2.1995  0.7743
 5883SOL    HW229283   0.381   4.590   6.857 -0.8841 -1.1865 -0.1923
 5884SOL     OW29284   4.098   3.545   5.151 -0.2459  0.2442 -0.2061
 5884SOL    HW129285   4.024   3.573   5.204  0.0459  0.6880 -0.0287
 5884SOL    HW229286   4.105   3.449   5.158  2.6725  0.5083  0.5300
 5885SOL     OW29287   0.485   1.041  10.745  0.3123 -0.5535  0.0476
 5885SOL    HW129288   0.432   1.117  10.722  1.3282 -0.2047 -1.1046
 5885SOL    HW229289   0.453   1.026  10.834 -1.9478 -0.5617 -0.7618
 5886SOL     OW29290   2.286   4.330   8.631  0.5266 -0.3677 -0.4211
 5886SOL    HW129291   2.361   4.354   8.576  1.3367  0.0641  0.8551
 5886SOL    HW229292   2.326   4.264   8.687  0.7878  1.6763  1.8190
 5887SOL     OW29293   1.426   1.466   8.349  1.0653  0.2436 -0.4213
 5887SOL    HW129294   1.362   1.448   8.280 -0.1983  2.8937  0.0594
 5887SOL    HW229295   1.448   1.375   8.366  2.1978  0.6557  0.2930
 5888SOL     OW29296   2.200   0.672  13.041  0.0682  0.0569 -0.0478
 5888SOL    HW129297   2.280   0.620  13.052  1.4170  1.9173 -1.0545
 5888SOL    HW229298   2.216   0.731  12.967  0.0604 -3.2532 -2.7117
 5889SOL     OW29299   0.374   2.087   2.133 -0.1855  0.1906  0.2047
 5889SOL    HW129300   0.424   2.167   2.148  0.2970 -0.2405  0.8788
 5889SOL    HW229301   0.446   2.023   2.134  0.5049  0.9580 -0.0989
 5890SOL     OW29302   2.509   0.825   5.305 -0.4095  0.1503  0.2631
 5890SOL    HW129303   2.417   0.837   5.327 -0.1487 -0.5125  1.7225
 5890SOL    HW229304   2.539   0.916   5.302  0.5561 -0.2037 -0.8429
 5891SOL     OW29305   2.989   2.665   2.430 -0.0331  0.2742  0.1539
 5891SOL    HW129306   3.058   2.731   2.423 -0.3181  0.6360  0.7650
 5891SOL    HW229307   2.978   2.651   2.524  2.1291  0.7442  0.4792
 5892SOL     OW29308   2.645   0.574   3.703  0.1306 -0.3448  0.1517
 5892SOL    HW129309   2.577   0.511   3.724  1.4955 -2.3592 -1.4557
 5892SOL    HW229310   2.728   0.529   3.688  0.7253  1.7924 -3.0918
 5893SOL     OW29311   3.117   0.079   8.253 -0.0791 -0.4590  0.1920
 5893SOL    HW129312   3.136   0.122   8.169 -1.1938  2.0504  1.2277
 5893SOL    HW229313   3.040   0.129   8.282  1.8591  1.6505  1.6822
 5894SOL     OW29314   4.237   1.588   3.959 -0.3621  0.3090  0.0878
 5894SOL    HW129315   4.215   1.672   3.918  0.5564  0.8584  0.7028
 5894SOL    HW229316   4.331   1.604   3.967 -0.1800 -1.1970  0.9175
 5895SOL     OW29317   3.829   3.569   6.283 -0.0154  0.0510  0.1483
 5895SOL    HW129318   3.917   3.559   6.319 -0.9877 -1.3527  2.0837
 5895SOL    HW229319   3.769   3.514   6.332  0.7174 -0.0568  0.9135
 5896SOL     OW29320   0.850   2.846   6.252 -0.2462 -0.1124 -0.4610
 5896SOL    HW129321   0.819   2.860   6.162 -3.7341  0.0969  0.7973
 5896SOL    HW229322   0.766   2.830   6.294  0.4766 -0.5781  0.8098
 5897SOL     OW29323   1.118   2.105   3.571  0.1916 -0.2986 -0.6293
 5897SOL    HW129324   1.074   2.106   3.656  0.4888 -0.3884 -0.4742
 5897SOL    HW229325   1.044   2.139   3.521  0.9827  1.6760 -0.4526
 5898SOL     OW29326   0.580   1.855   2.368 -0.2416  0.1002 -0.2511
 5898SOL    HW129327   0.513   1.919   2.390 -1.4521 -2.0187  2.2248
 5898SOL    HW229328   0.658   1.905   2.390 -0.8728  1.3532 -0.8296
 5899SOL     OW29329   1.084   2.102   8.415 -0.0498 -0.0934  0.0139
 5899SOL    HW129330   1.167   2.139   8.445  0.6758 -0.9750 -0.9257
 5899SOL    HW229331   1.101   2.010   8.399  0.0871  0.2184 -1.6135
 5900SOL     OW29332   3.541   1.566   4.232 -0.5468  0.2375 -0.0830
 5900SOL    HW129333   3.625   1.611   4.246 -1.1574  0.6911  2.1266
 5900SOL    HW229334   3.480   1.639   4.225 -0.5159  0.3561  0.9071
 5901SOL     OW29335   2.490   3.491  10.353 -0.7258 -0.1571 -0.3843
 5901SOL    HW129336   2.440   3.432  10.297  2.0813  1.2253 -4.3588
 5901SOL    HW229337   2.470   3.459  10.441  0.5996  2.5455  0.8978
 5902SOL     OW29338   4.404   2.598   7.476 -0.4937  0.3524 -0.7904
 5902SOL    HW129339   4.427   2.601   7.569 -0.7328 -0.3804 -0.7061
 5902SOL    HW229340   4.384   2.691   7.465 -1.7619  0.6771  4.5814
 5903SOL     OW29341   0.688   2.326   7.660 -0.0902  0.1564  0.0270
 5903SOL    HW129342   0.689   2.371   7.745 -2.7268  0.1959  0.0245
 5903SOL    HW229343   0.662   2.390   7.594  1.8942 -0.0410 -0.9335
 5904SOL     OW29344   4.593   2.304   2.371 -1.0467 -0.3702  0.2030
 5904SOL    HW129345   4.518   2.363   2.367  0.7305  1.6821 -2.1979
 5904SOL    HW229346   4.567   2.235   2.433 -0.0901  0.4160  1.4546
 5905SOL     OW29347   0.138   4.600  13.942 -0.2119 -0.2612 -0.0964
 5905SOL    HW129348   0.127   4.636  14.030  2.9117 -0.8843  0.5602
 5905SOL    HW229349   0.205   4.666  13.926  0.5037 -1.5576 -2.5410
 5906SOL     OW29350   0.536   3.901   2.465  0.1164  0.1622 -0.3713
 5906SOL    HW129351   0.568   3.966   2.527 -0.3652 -0.7516  0.8272
 5906SOL    HW229352   0.475   3.962   2.421 -2.1874 -1.5750  0.3993
 5907SOL     OW29353   4.488   0.644   8.170 -0.3452  0.7023 -0.0037
 5907SOL    HW129354   4.453   0.623   8.256  0.0610  0.4823  0.1067
 5907SOL    HW229355   4.421   0.638   8.102  0.6052 -2.7172 -0.6080
 5908SOL     OW29356   1.936   0.992   5.875  0.0975  0.4337 -0.2610
 5908SOL    HW129357   1.968   1.045   5.802  0.7369 -1.3613 -1.2760
 5908SOL    HW229358   1.895   1.057   5.932 -3.2786 -1.0418 -0.9925
 5909SOL     OW29359   1.690   2.535   6.554  0.4157 -0.4773  0.0196
 5909SOL    HW129360   1.632   2.477   6.505  0.6801 -0.3563 -0.4367
 5909SOL    HW229361   1.686   2.503   6.644  1.1403 -4.0895 -1.2102
 5910SOL     OW29362   4.243   0.688   2.008 -0.1792 -0.1498 -0.2071
 5910SOL    HW129363   4.231   0.603   1.966 -1.1645 -0.2865  0.3404
 5910SOL    HW229364   4.150   0.710   2.008  0.1768  1.3240  1.2104
 5911SOL     OW29365   2.311   2.000  16.946  0.2845  0.0663  0.6086
 5911SOL    HW129366   2.334   1.950  17.025 -0.3314 -0.6190  0.3525
 5911SOL    HW229367   2.318   2.093  16.969 -1.9884  0.0197  1.4417
 5912SOL     OW29368   3.645   3.049  12.189  0.2661  0.1035  0.2416
 5912SOL    HW129369   3.667   3.009  12.273 -0.7630 -0.0129  0.4587
 5912SOL    HW229370   3.573   3.101  12.224 -0.0146  0.0303 -0.2195
 5913SOL     OW29371   1.882   3.286   8.856 -0.4627 -0.6476 -0.0138
 5913SOL    HW129372   1.803   3.276   8.910 -0.5051  0.8802  0.2090
 5913SOL    HW229373   1.942   3.324   8.920 -1.3829  0.7427  0.0258
 5914SOL     OW29374   4.027   3.159   4.982 -0.0215 -0.1594  0.2367
 5914SOL    HW129375   4.001   3.219   4.911  1.5417 -2.2945 -2.1517
 5914SOL    HW229376   3.982   3.080   4.952 -1.4454  0.8426 -0.3183
 5915SOL     OW29377   2.125   1.517   8.106  0.3403 -0.1823 -0.5998
 5915SOL    HW129378   2.128   1.606   8.071 -3.8108  0.1419 -0.1890
 5915SOL    HW229379   2.035   1.514   8.139  1.1323  0.4898  1.6066
 5916SOL     OW29380   1.767   2.706   2.598  0.1195  0.5552 -0.2894
 5916SOL    HW129381   1.702   2.744   2.539  0.3271  1.5498  0.1320
 5916SOL    HW229382   1.765   2.780   2.658  3.3785  0.2217  0.2479
 5917SOL     OW29383   0.953   0.056   4.640  0.4792 -0.1246  0.5476
 5917SOL    HW129384   0.915   4.708   4.616  1.0828 -0.5617  1.1578
 5917SOL    HW229385   1.025   0.033   4.697  0.6658 -3.3512 -1.0185
 5918SOL     OW29386   3.255   4.030   8.398 -0.6525  0.5362  0.4337
 5918SOL    HW129387   3.285   3.941   8.416 -0.3625  0.5625  0.0971
 5918SOL    HW229388   3.160   4.022   8.404 -0.5734  1.1333  2.2824
 5919SOL     OW29389   2.022   0.879   8.797 -0.2047  0.6259 -0.4920
 5919SOL    HW129390   2.084   0.926   8.742  0.2783 -0.4364 -0.8561
 5919SOL    HW229391   1.987   0.948   8.853 -0.8251 -0.0116 -0.0827
 5920SOL     OW29392   3.694   0.265   6.665 -0.2617 -0.0080 -0.2275
 5920SOL    HW129393   3.712   0.321   6.590  0.8286 -1.4039 -0.9977
 5920SOL    HW229394   3.605   0.290   6.691 -0.2108  1.9084 -1.9216
 5921SOL     OW29395   3.998   3.242   6.385  0.5441  0.2495  0.0137
 5921SOL    HW129396   3.937   3.179   6.347 -1.0052  3.3845 -2.7610
 5921SOL    HW229397   4.080   3.193   6.378  0.1430 -0.0250 -2.9515
 5922SOL     OW29398   1.854   2.081  14.402 -0.1270 -1.3375 -0.0793
 5922SOL    HW129399   1.766   2.064  14.368 -0.2631 -0.2629 -0.2553
 5922SOL    HW229400   1.845   2.133  14.482 -0.8785 -0.5972 -0.6465
 5923SOL     OW29401   2.317   4.554   1.512 -0.1603  0.4832 -0.1378
 5923SOL    HW129402   2.344   4.626   1.569  1.4340 -0.3906  0.2022
 5923SOL    HW229403   2.373   4.573   1.437 -1.4476  0.7810 -1.0096
 5924SOL     OW29404   0.590   4.116   8.466  0.2028 -0.1669  0.6883
 5924SOL    HW129405   0.658   4.180   8.447  1.9344 -2.3779 -0.5208
 5924SOL    HW229406   0.649   4.045   8.492 -2.1261 -2.5978 -0.5352
 5925SOL     OW29407   4.218   4.658   5.859 -0.4561  0.4619 -0.2207
 5925SOL    HW129408   4.206   4.705   5.942  1.5017  0.8620 -0.1678
 5925SOL    HW229409   4.190   4.726   5.797 -1.3309 -0.8801 -1.2870
 5926SOL     OW29410   3.230   0.246   6.853 -0.0878 -0.2847  0.3497
 5926SOL    HW129411   3.241   0.159   6.892  0.4547 -0.0010  0.8279
 5926SOL    HW229412   3.240   0.301   6.931 -0.2200 -0.4288  0.4689
 5927SOL     OW29413   3.775   3.381   7.928 -0.3722  0.1807  0.0951
 5927SOL    HW129414   3.758   3.361   7.836 -0.4748 -1.3195  0.4240
 5927SOL    HW229415   3.690   3.411   7.960 -0.2014  0.7949 -0.0436
 5928SOL     OW29416   4.447   3.677  11.860  0.4166 -0.2840  0.1008
 5928SOL    HW129417   4.395   3.711  11.933  1.2412 -0.9174  0.9804
 5928SOL    HW229418   4.501   3.608  11.897  0.2677 -0.5175 -0.1211
 5929SOL     OW29419   0.385   3.105   2.950  0.3937 -0.4239 -0.2689
 5929SOL    HW129420   0.386   3.044   3.024  0.1163 -0.8498 -0.6209
 5929SOL    HW229421   0.300   3.084   2.913 -0.0272 -1.4735  1.2704
 5930SOL     OW29422   1.925   2.451  11.110 -0.4537  0.2332 -0.6258
 5930SOL    HW129423   1.861   2.482  11.173 -1.1049 -2.3025 -0.0804
 5930SOL    HW229424   1.960   2.379  11.162 -1.1581  0.4351  0.1195
 5931SOL     OW29425   2.999   0.460   3.874 -0.3758  0.3750 -0.2630
 5931SOL    HW129426   3.004   0.383   3.930  1.4044  0.5896 -0.1059
 5931SOL    HW229427   2.946   0.427   3.801  2.0440 -1.2424 -1.2870
 5932SOL     OW29428   4.585   3.965   1.285  0.2595 -0.0077 -0.4582
 5932SOL    HW129429   4.621   4.016   1.357 -1.3404 -1.0636  1.0858
 5932SOL    HW229430   4.590   3.873   1.311  1.1488  0.8378  2.3830
 5933SOL     OW29431   3.267   3.077   2.361 -0.1736 -0.3856 -0.9284
 5933SOL    HW129432   3.338   3.107   2.304  0.6182 -0.7546 -0.1300
 5933SOL    HW229433   3.222   3.154   2.395 -0.4086 -1.0745  0.3035
 5934SOL     OW29434   3.403   0.253  12.128 -0.5738  0.0583 -0.5611
 5934SOL    HW129435   3.455   0.330  12.147 -0.5879 -0.1456  0.2751
 5934SOL    HW229436   3.382   0.223  12.216  0.2693 -0.3280 -0.4877
 5935SOL     OW29437   3.858   2.353   4.713  0.0208  0.4007 -0.6975
 5935SOL    HW129438   3.918   2.425   4.732 -0.7222  1.5429 -2.6845
 5935SOL    HW229439   3.917   2.280   4.731 -0.2368  0.3997  0.1522
 5936SOL     OW29440   2.594   0.599  12.649 -0.5513  0.1002 -0.3385
 5936SOL    HW129441   2.595   0.596  12.745 -0.5202 -2.0776 -0.4174
 5936SOL    HW229442   2.685   0.610  12.624 -1.6067  1.3928 -3.5997
 5937SOL     OW29443   1.650   0.862   8.768 -0.2583 -0.5143  0.0927
 5937SOL    HW129444   1.729   0.913   8.784  0.6327 -2.0947  0.7149
 5937SOL    HW229445   1.690   0.778   8.788 -0.0603 -0.8727 -1.8117
 5938SOL     OW29446   3.212   1.666   7.758  0.5661  0.0009  0.3466
 5938SOL    HW129447   3.137   1.620   7.722  1.2117  0.1466 -1.2022
 5938SOL    HW229448   3.270   1.593   7.779 -1.1128 -1.1982  0.7987
 5939SOL     OW29449   4.016   4.257   2.487  0.1644  0.6011 -0.5963
 5939SOL    HW129450   3.929   4.294   2.471  0.4590  2.5635  2.3811
 5939SOL    HW229451   4.036   4.279   2.578  0.4351  0.1404 -0.5493
 5940SOL     OW29452   3.291   4.062   3.571  0.4531 -0.0809  0.5264
 5940SOL    HW129453   3.308   4.129   3.637  1.0733  1.0034 -0.7198
 5940SOL    HW229454   3.378   4.022   3.571 -0.1699 -1.4169 -0.9090
 5941SOL     OW29455   0.821   3.161   5.576 -0.5553 -0.4081 -0.4724
 5941SOL    HW129456   0.812   3.066   5.588 -2.8785 -0.1612 -0.3330
 5941SOL    HW229457   0.834   3.166   5.481 -0.2307  2.1690 -0.2773
 5942SOL     OW29458   1.618   2.830   1.264 -0.4050 -0.1520 -0.3134
 5942SOL    HW129459   1.643   2.890   1.194  2.0210 -0.7083  0.1079
 5942SOL    HW229460   1.676   2.755   1.255 -0.4282 -0.2271  0.1863
 5943SOL     OW29461   2.094   0.580   1.913 -0.7762  0.8831  0.1118
 5943SOL    HW129462   2.058   0.640   1.978 -0.4800  1.4093 -0.2098
 5943SOL    HW229463   2.063   0.503   1.959 -0.6744  1.3674  0.9956
 5944SOL     OW29464   2.761   2.792   1.644  0.3196  0.3927  0.1741
 5944SOL    HW129465   2.818   2.850   1.594 -0.8315  0.8301 -0.6438
 5944SOL    HW229466   2.827   2.742   1.693 -0.2500 -0.7924 -0.2596
 5945SOL     OW29467   2.594   0.059   4.986 -0.6894 -0.1143  0.7042
 5945SOL    HW129468   2.512   0.106   5.002 -0.6522  0.9640 -2.3080
 5945SOL    HW229469   2.645   0.128   4.943 -0.6903 -0.9566 -0.6491
 5946SOL     OW29470   0.568   0.859   3.600  0.3366  0.0579 -0.4710
 5946SOL    HW129471   0.563   0.780   3.653  0.3751  0.3091 -0.0951
 5946SOL    HW229472   0.620   0.919   3.653  2.4612 -2.6560  0.5065
 5947SOL     OW29473   0.004   2.661   7.849  0.1019 -0.3228  0.2282
 5947SOL    HW129474   4.714   2.640   7.939  0.9629  0.9749  0.7947
 5947SOL    HW229475   0.048   2.579   7.829 -0.1007 -1.1539  3.1468
 5948SOL     OW29476   2.295   1.845   3.265 -0.0772  0.2469  0.1341
 5948SOL    HW129477   2.312   1.917   3.205 -1.5957  2.6498  2.5679
 5948SOL    HW229478   2.337   1.880   3.344  1.9751  1.6408 -1.5916
 5949SOL     OW29479   2.717   4.652   5.465 -0.1714 -0.0455 -0.3259
 5949SOL    HW129480   2.680   4.684   5.383 -0.5208 -1.9407 -0.9203
 5949SOL    HW229481   2.730   4.736   5.509  1.0377 -0.7660  0.6752
 5950SOL     OW29482   0.976   4.602   7.939 -0.4353  0.1460 -0.5245
 5950SOL    HW129483   1.064   4.640   7.939 -0.2788 -0.2242  1.1204
 5950SOL    HW229484   0.985   4.508   7.957  0.8231  0.2431 -0.6321
 5951SOL     OW29485   1.247   3.674   3.241 -0.1528  0.4301  0.0423
 5951SOL    HW129486   1.211   3.587   3.226  0.8140 -0.1595  1.0893
 5951SOL    HW229487   1.244   3.677   3.337  2.7811  0.5355  0.1313
 5952SOL     OW29488   4.508   4.410  13.627  0.0503  0.0675  0.4186
 5952SOL    HW129489   4.513   4.487  13.572 -1.5818  0.5659  0.9714
 5952SOL    HW229490   4.577   4.428  13.691  1.8753  0.9208 -1.8032
 5953SOL     OW29491   3.949   2.123   3.682  0.0078  0.3785  0.2393
 5953SOL    HW129492   4.003   2.094   3.609 -0.9526 -2.0709  0.5029
 5953SOL    HW229493   3.889   2.185   3.641 -1.9613 -0.6694  1.5141
 5954SOL     OW29494   0.152   0.246   2.842  0.3818 -0.6661  0.1204
 5954SOL    HW129495   0.155   0.225   2.749  0.7962  0.1595 -0.0489
 5954SOL    HW229496   0.238   0.284   2.856 -0.6909  1.6425  0.3526
 5955SOL     OW29497   2.359   4.280   2.250 -0.0816 -0.3538  0.1515
 5955SOL    HW129498   2.381   4.226   2.174 -4.5357  1.3876 -2.3888
 5955SOL    HW229499   2.440   4.297   2.297  0.8789 -0.3454 -1.5326
 5956SOL     OW29500   1.255   2.930   5.093 -0.0045  0.6630 -0.0270
 5956SOL    HW129501   1.286   2.840   5.078  4.1664  1.9339  0.8826
 5956SOL    HW229502   1.320   2.986   5.050  1.0642 -1.3185 -1.0626
 5957SOL     OW29503   1.604   4.371   0.453  0.1344 -0.0163  0.0820
 5957SOL    HW129504   1.616   4.465   0.470 -0.8500  0.2800 -0.8692
 5957SOL    HW229505   1.525   4.384   0.401 -0.0031 -1.9980 -0.2102
 5958SOL     OW29506   3.482   3.338   6.666 -0.2103  0.2312 -0.2170
 5958SOL    HW129507   3.389   3.361   6.672  0.3868  2.0484  2.1872
 5958SOL    HW229508   3.471   3.280   6.590  1.6265  0.6539 -0.7831
 5959SOL     OW29509   0.666   2.310  17.207  0.6241 -0.6245 -0.1630
 5959SOL    HW129510   0.746   2.308  17.156  1.5581  0.3771  1.2660
 5959SOL    HW229511   0.611   2.368  17.154 -0.0334  0.9820  2.2803
 5960SOL     OW29512   3.976   1.766  12.966 -0.3564  0.0151 -0.0611
 5960SOL    HW129513   3.927   1.777  13.048  0.4189  2.0748  0.1050
 5960SOL    HW229514   4.067   1.770  12.996 -1.3110 -1.4077  3.0922
 5961SOL     OW29515   3.913   1.220  10.535 -0.5114  0.0507  0.5781
 5961SOL    HW129516   3.941   1.129  10.522 -2.2387 -0.5927  1.3877
 5961SOL    HW229517   3.886   1.245  10.447  0.7773  0.4478  0.2952
 5962SOL     OW29518   1.385   4.725   4.649  0.0168 -0.0843 -0.2023
 5962SOL    HW129519   1.353   4.656   4.591 -0.4582  0.4948 -0.6232
 5962SOL    HW229520   1.448   4.675   4.701 -0.7743 -0.6265  0.2178
 5963SOL     OW29521   3.775   3.574   0.327 -0.5917 -0.1790  0.9207
 5963SOL    HW129522   3.844   3.513   0.351  2.0660  2.3184 -0.4465
 5963SOL    HW229523   3.785   3.581   0.233 -0.7438 -0.3083  0.8955
 5964SOL     OW29524   3.081   3.062  12.045 -0.1472  0.0534  0.6920
 5964SOL    HW129525   3.149   3.001  12.075 -1.3086 -1.6893 -0.2266
 5964SOL    HW229526   3.099   3.066  11.952  1.0626  1.9712  1.0076
 5965SOL     OW29527   2.156   4.460   2.217  0.1667 -0.2548  0.2456
 5965SOL    HW129528   2.233   4.405   2.235  0.7955  1.6803  3.4810
 5965SOL    HW229529   2.177   4.496   2.131 -1.2323 -1.4684 -0.6060
 5966SOL     OW29530   3.446   1.346   4.367  0.5006 -0.3599 -0.1265
 5966SOL    HW129531   3.487   1.416   4.316  0.5877 -0.6867 -0.5103
 5966SOL    HW229532   3.360   1.386   4.354 -0.1112 -0.4635  3.6529
 5967SOL     OW29533   1.306   2.680   6.908 -0.2970  0.3884 -0.6092
 5967SOL    HW129534   1.297   2.594   6.948  0.3775 -0.2403 -1.7918
 5967SOL    HW229535   1.275   2.728   6.984  0.0809 -1.4339  0.7069
 5968SOL     OW29536   4.695   2.952   0.947  0.3887  0.1722  0.5232
 5968SOL    HW129537   4.601   2.954   0.967  0.7133 -0.5296  2.1291
 5968SOL    HW229538   4.689   2.901   0.866  2.0417  1.0505 -0.1410
 5969SOL     OW29539   2.152   4.152   3.745  0.2476  0.6353 -0.6056
 5969SOL    HW129540   2.242   4.163   3.715  0.3346  2.3605  0.2720
 5969SOL    HW229541   2.120   4.090   3.679 -1.3436  2.0076 -1.1182
 5970SOL     OW29542   1.665   2.507  10.018 -0.1731  0.0112  0.3199
 5970SOL    HW129543   1.754   2.542  10.028  0.8166 -1.8121 -2.1745
 5970SOL    HW229544   1.662   2.484   9.925 -0.4258 -0.8684  0.5497
 5971SOL     OW29545   4.628   4.629  14.908 -0.5333  0.1404 -0.1371
 5971SOL    HW129546   4.705   4.596  14.862 -1.0196 -0.9686 -0.1685
 5971SOL    HW229547   4.659   4.715  14.935 -0.9854  0.3349 -0.2307
 5972SOL     OW29548   0.643   2.731   6.432  0.1765  0.2537  0.1903
 5972SOL    HW129549   0.669   2.734   6.524 -0.1731  0.0957  0.2938
 5972SOL    HW229550   0.702   2.661   6.403  0.2620 -0.7211  2.7276
 5973SOL     OW29551   1.381   0.360  17.697 -0.0158 -0.3303 -0.1718
 5973SOL    HW129552   1.299   0.312  17.710 -0.0419 -0.0705  0.5947
 5973SOL    HW229553   1.409   0.358   0.045 -2.0863 -1.3592  0.4369
 5974SOL     OW29554   0.442   2.125   8.429 -0.3320 -0.3181  0.2044
 5974SOL    HW129555   0.475   2.160   8.512  2.1223 -0.6978 -0.6279
 5974SOL    HW229556   0.348   2.129   8.447 -0.4720  1.8141 -1.0661
 5975SOL     OW29557   4.009   1.770  11.092 -0.0170 -0.9097 -0.0729
 5975SOL    HW129558   3.958   1.837  11.138 -0.7494 -1.6798  0.2344
 5975SOL    HW229559   4.085   1.762  11.150 -1.4380 -0.1607  1.9087
 5976SOL     OW29560   4.735   1.065   8.973  0.7304 -0.3592  0.3611
 5976SOL    HW129561   4.679   1.118   8.916  2.1548  0.8192  0.0523
 5976SOL    HW229562   4.723   1.111   9.056 -1.1169 -1.0927  0.5196
 5977SOL     OW29563   4.018   3.676   3.180  0.4228 -0.2188  0.3864
 5977SOL    HW129564   4.047   3.755   3.226  0.1578  0.7882 -1.1747
 5977SOL    HW229565   3.991   3.614   3.247  0.5545  0.0755  0.7148
 5978SOL     OW29566   1.409   1.182   5.306  0.0802  0.0110  0.2275
 5978SOL    HW129567   1.328   1.179   5.254  1.0235  1.0476 -1.2950
 5978SOL    HW229568   1.386   1.120   5.375  0.3286 -0.5521 -0.1950
 5979SOL     OW29569   1.895   2.603   9.493 -0.4588 -0.3448 -0.1551
 5979SOL    HW129570   1.931   2.576   9.578 -1.4916 -0.8722  0.1052
 5979SOL    HW229571   1.803   2.583   9.507 -0.4619 -0.3990 -0.2609
 5980SOL     OW29572   1.032   0.796   7.369  0.2254 -0.1090  0.1376
 5980SOL    HW129573   1.066   0.885   7.376  1.5506 -0.5628 -0.4792
 5980SOL    HW229574   0.962   0.812   7.306  0.6606  2.8163  0.4248
 5981SOL     OW29575   0.080   1.850   3.080 -0.0182 -0.0890 -0.1107
 5981SOL    HW129576   0.175   1.853   3.088 -0.0411  1.4188 -0.3946
 5981SOL    HW229577   0.056   1.765   3.118  1.7010  0.4356  2.0935
 5982SOL     OW29578   3.835   3.857  10.673  0.1070 -0.2225 -0.2473
 5982SOL    HW129579   3.755   3.805  10.687 -0.6349  0.6882 -1.1145
 5982SOL    HW229580   3.902   3.789  10.663  2.0426  1.4842  1.2758
 5983SOL     OW29581   2.804   4.548   0.109 -0.0961  0.1922  0.1529
 5983SOL    HW129582   2.799   4.637   0.144  0.1300  0.4615 -0.5050
 5983SOL    HW229583   2.743   4.495   0.160 -0.3662 -0.4957 -0.8888
 5984SOL     OW29584   0.030   0.074  15.907 -0.1431  0.1960  0.5262
 5984SOL    HW129585   4.683   0.037  15.875  0.2267  0.4659 -0.7545
 5984SOL    HW229586   0.059   0.128  15.834 -3.8949  1.6335  0.1098
 5985SOL     OW29587   1.948   2.358   6.686  0.2704  0.2638 -0.0691
 5985SOL    HW129588   1.890   2.422   6.645  1.3337  2.1712  1.4139
 5985SOL    HW229589   1.923   2.373   6.777 -2.6041 -0.6104 -0.7268
 5986SOL     OW29590   1.997   3.204   5.498  0.4255 -0.3436 -0.3533
 5986SOL    HW129591   2.065   3.183   5.434  1.0756 -1.9878  0.8672
 5986SOL    HW229592   2.032   3.172   5.582 -0.1678  2.7138  1.0445
 5987SOL     OW29593   3.129   2.238   2.637 -0.1288 -0.3657  0.3923
 5987SOL    HW129594   3.063   2.231   2.568  0.0666 -0.4865  0.2207
 5987SOL    HW229595   3.075   2.250   2.715 -0.9049 -1.2378 -0.0088
 5988SOL     OW29596   3.205   2.281   8.196  0.8545 -0.0136  0.2818
 5988SOL    HW129597   3.125   2.308   8.151 -0.2458 -3.7918 -0.0337
 5988SOL    HW229598   3.188   2.188   8.213  1.3071 -0.1807 -0.1461
 5989SOL     OW29599   0.552   1.478   2.107 -0.3637  0.9263  0.3348
 5989SOL    HW129600   0.545   1.383   2.122  1.3488  1.1468  2.6346
 5989SOL    HW229601   0.533   1.509   2.196 -0.2657 -0.1824  0.7462
 5990SOL     OW29602   1.741   2.371   5.019  0.2968 -0.2037 -0.2777
 5990SOL    HW129603   1.745   2.452   4.967 -3.4292  2.0485  2.9394
 5990SOL    HW229604   1.646   2.362   5.023  0.2599  0.4786  0.3175
 5991SOL     OW29605   3.820   1.773   1.851 -0.1021  0.1633 -0.4110
 5991SOL    HW129606   3.854   1.742   1.767  0.6266  1.7629 -0.7127
 5991SOL    HW229607   3.843   1.699   1.906  1.8342  0.6260 -0.6091
 5992SOL     OW29608   1.210   2.791   0.416  0.4802  0.1605  0.5929
 5992SOL    HW129609   1.138   2.761   0.361 -0.4287  2.7620  0.3495
 5992SOL    HW229610   1.269   2.718   0.399  0.1302  0.0761 -0.2463
 5993SOL     OW29611   2.241   3.601  14.211 -0.5032 -0.2038 -0.0391
 5993SOL    HW129612   2.280   3.560  14.133 -1.1413  0.9704 -0.9619
 5993SOL    HW229613   2.308   3.664  14.238 -0.8039  0.3645 -0.6191
 5994SOL     OW29614   4.222   3.009  10.423  0.3977  0.3629  0.2866
 5994SOL    HW129615   4.292   3.040  10.481 -0.2437  0.5222  0.9897
 5994SOL    HW229616   4.256   3.045  10.341 -1.3079  0.0115 -0.5815
 5995SOL     OW29617   2.838   3.473   3.741  0.0866  0.0205 -0.5739
 5995SOL    HW129618   2.870   3.552   3.697 -0.1003 -0.0722 -0.8735
 5995SOL    HW229619   2.827   3.405   3.675 -2.6854 -2.8076  2.8171
 5996SOL     OW29620   4.139   1.864  13.611 -0.0814  0.4841  0.0410
 5996SOL    HW129621   4.058   1.875  13.660 -0.4491  2.0877 -0.9001
 5996SOL    HW229622   4.125   1.908  13.526 -0.1542 -0.0733 -0.2350
 5997SOL     OW29623   1.220   0.917   9.159 -0.0371 -0.7180 -0.0028
 5997SOL    HW129624   1.307   0.950   9.182 -0.5625 -0.4283  1.6340
 5997SOL    HW229625   1.241   0.891   9.070 -0.1782  1.8794 -0.7897
 5998SOL     OW29626   2.581   0.701   1.388 -0.0700 -0.2219 -0.1159
 5998SOL    HW129627   2.544   0.729   1.305 -2.9687 -0.0214  1.2168
 5998SOL    HW229628   2.504   0.652   1.419 -2.0533  1.3971 -2.4824
 5999SOL     OW29629   2.960   0.938  11.164 -0.1744 -0.5788  0.1636
 5999SOL    HW129630   2.908   1.014  11.190  2.6016  1.8658 -1.4270
 5999SOL    HW229631   2.972   0.968  11.073 -0.4729 -1.1590 -0.0619
 6000SOL     OW29632   0.912   4.122   8.897 -0.1211  0.3294 -0.0522
 6000SOL    HW129633   0.843   4.085   8.953  1.4019 -0.3640  1.3902
 6000SOL    HW229634   0.989   4.106   8.952 -0.4838  0.0453  0.3785
 6001SOL     OW29635   2.239   2.838   8.325 -0.1193  0.2507 -0.6620
 6001SOL    HW129636   2.258   2.864   8.235  1.9225  2.0196  0.2556
 6001SOL    HW229637   2.288   2.903   8.376 -0.6987 -0.3971  0.7109
 6002SOL     OW29638   2.700   4.499   0.743  0.6548  0.0995  0.2387
 6002SOL    HW129639   2.617   4.538   0.771  1.1095  0.5066  1.0220
 6002SOL    HW229640   2.709   4.419   0.795  1.8688  1.2544  1.8223
 6003SOL     OW29641   4.597   4.649   9.591  0.4922 -0.1560  0.0474
 6003SOL    HW129642   4.544   4.573   9.568  0.0298  0.5593 -1.2496
 6003SOL    HW229643   4.543   4.721   9.558  2.1870  0.8663 -0.4773
 6004SOL     OW29644   1.367   4.465  11.325  0.5140  0.5756  0.0068
 6004SOL    HW129645   1.329   4.498  11.243 -2.3210 -1.1025  0.6358
 6004SOL    HW229646   1.297   4.475  11.390  0.7761  2.0008  0.0712
 6005SOL     OW29647   1.830   2.858   4.484 -0.5296 -0.1769  0.3209
 6005SOL    HW129648   1.896   2.790   4.471  0.6163  0.9024  0.3913
 6005SOL    HW229649   1.822   2.884   4.392  0.6765  1.1290  0.5772
 6006SOL     OW29650   3.659   1.304   5.693  0.2318  0.5198 -0.0697
 6006SOL    HW129651   3.639   1.348   5.611 -2.4240 -2.4689 -1.0077
 6006SOL    HW229652   3.600   1.343   5.758  0.3349 -0.0898  0.3947
 6007SOL     OW29653   3.647   3.171   9.062 -0.2494 -0.2254 -0.3622
 6007SOL    HW129654   3.694   3.254   9.055 -0.5422 -0.3866 -4.1608
 6007SOL    HW229655   3.675   3.129   9.144  0.8094 -0.0063 -0.6124
 6008SOL     OW29656   4.493   2.605   8.649 -0.2318  0.5294  0.7566
 6008SOL    HW129657   4.568   2.597   8.707  1.2279  0.5097 -1.1357
 6008SOL    HW229658   4.527   2.655   8.575  0.5131 -0.7268  0.2504
 6009SOL     OW29659   0.434   0.484   6.624  0.3607  0.0400 -0.1928
 6009SOL    HW129660   0.370   0.553   6.642  2.0364  1.9019 -1.3953
 6009SOL    HW229661   0.507   0.521   6.674 -1.6953 -0.3954  3.1325
 6010SOL     OW29662   0.125   3.814   9.074 -0.0350  0.2813  0.0176
 6010SOL    HW129663   0.093   3.758   9.004 -1.4888  1.5584 -0.3386
 6010SOL    HW229664   0.094   3.756   9.144 -2.4070 -2.1872 -3.1060
 6011SOL     OW29665   4.670   1.480   5.926  0.6594  0.0804  0.4907
 6011SOL    HW129666   0.022   1.515   5.933  1.6913 -1.9805 -2.3272
 6011SOL    HW229667   4.681   1.387   5.946 -0.5369  0.5702  3.4649
 6012SOL     OW29668   4.032   2.895  17.698 -0.1445 -0.7006 -0.0575
 6012SOL    HW129669   4.006   2.865   0.042 -1.1470  2.3567  0.6785
 6012SOL    HW229670   3.947   2.911  17.656  0.0104  0.3872  0.0457
 6013SOL     OW29671   0.598   3.019   9.668 -0.6487  0.2528 -0.2831
 6013SOL    HW129672   0.555   3.103   9.681  0.3742  0.4336  1.9335
 6013SOL    HW229673   0.601   2.983   9.757 -1.8780 -0.3018 -0.4645
 6014SOL     OW29674   3.197   0.824  12.205  0.1080 -0.6147  0.3175
 6014SOL    HW129675   3.218   0.834  12.297  1.7164 -0.9587 -0.0058
 6014SOL    HW229676   3.280   0.842  12.160  0.1888 -0.5147  0.5080
 6015SOL     OW29677   1.774   1.966   8.914  0.4565  0.1056  0.1973
 6015SOL    HW129678   1.840   1.898   8.898 -1.1661 -1.1916 -0.9854
 6015SOL    HW229679   1.766   1.951   9.008 -0.0005  0.1085  0.1596
 6016SOL     OW29680   0.544   3.786   1.646  0.4616 -0.2032  0.2831
 6016SOL    HW129681   0.525   3.693   1.634 -0.8737  0.0449  0.4027
 6016SOL    HW229682   0.636   3.798   1.622  0.4284  0.0872  0.2971
 6017SOL     OW29683   4.545   1.075   7.710 -0.8222  0.5839 -0.4033
 6017SOL    HW129684   4.515   1.049   7.797  0.1319  0.0973 -0.2234
 6017SOL    HW229685   4.545   1.170   7.717  1.9418  0.5926 -0.3212
 6018SOL     OW29686   1.795   1.531   1.133  0.1143 -0.4655 -0.2695
 6018SOL    HW129687   1.744   1.464   1.089  0.2517  0.3306 -1.6379
 6018SOL    HW229688   1.885   1.506   1.114  0.0747 -1.0815  0.3707
 6019SOL     OW29689   4.561   4.280   3.521 -0.4743 -0.0579 -0.0088
 6019SOL    HW129690   4.623   4.207   3.535 -0.8836  0.1114  2.8275
 6019SOL    HW229691   4.557   4.285   3.426  0.1322  0.4671 -0.0103
 6020SOL     OW29692   4.730   3.535  11.654  0.1392  0.4215  0.7855
 6020SOL    HW129693   0.005   3.499  11.742 -0.6163  0.2507  0.8185
 6020SOL    HW229694   4.714   3.627  11.677 -0.8128 -0.3219  3.1195
 6021SOL     OW29695   0.492   3.952   7.920 -0.3864 -0.1264  0.5083
 6021SOL    HW129696   0.538   4.029   7.888 -0.1071 -0.7429 -0.5533
 6021SOL    HW229697   0.531   3.882   7.868  1.8002  1.0216  0.6371
 6022SOL     OW29698   1.269   4.371   3.268  0.7514  0.9989 -0.2208
 6022SOL    HW129699   1.186   4.327   3.251  0.0576  2.5865 -1.0130
 6022SOL    HW229700   1.317   4.313   3.327  1.2690  1.7180  0.0768
 6023SOL     OW29701   1.675   1.365   7.405  0.3675 -0.2173 -0.0147
 6023SOL    HW129702   1.685   1.270   7.392  0.8636 -0.6499  3.6143
 6023SOL    HW229703   1.724   1.398   7.330 -0.3192 -1.9040 -1.2050
 6024SOL     OW29704   0.062   0.774  12.415  0.5825 -0.1182 -0.2257
 6024SOL    HW129705   0.092   0.779  12.324  1.6241  1.1557  0.1806
 6024SOL    HW229706   0.049   0.679  12.423 -1.7452  0.3255  1.1876
 6025SOL     OW29707   0.082   2.696   0.783  0.1557  0.3257  0.2436
 6025SOL    HW129708   0.137   2.766   0.819 -0.2252  1.5990 -1.6775
 6025SOL    HW229709   0.150   2.648   0.735  1.4364  0.8574  1.5223
 6026SOL     OW29710   3.898   2.277   7.002  0.4471  0.0617 -0.9729
 6026SOL    HW129711   3.915   2.369   6.984 -3.1656  1.0173  0.4272
 6026SOL    HW229712   3.813   2.273   6.958 -0.4257  0.7277  0.6304
 6027SOL     OW29713   3.448   4.071  14.475 -0.0859  0.1052 -0.1180
 6027SOL    HW129714   3.507   4.028  14.413 -1.2483 -0.1083 -1.0878
 6027SOL    HW229715   3.365   4.062  14.428 -1.0025  1.5970  1.2062
 6028SOL     OW29716   2.973   0.498   9.440 -0.0721  0.0696  0.3407
 6028SOL    HW129717   3.036   0.437   9.402 -1.1253 -1.1992  0.6204
 6028SOL    HW229718   3.019   0.577   9.412  0.3717 -0.3144 -0.0175
 6029SOL     OW29719   2.955   1.042   6.852  0.4287 -0.1534 -0.1229
 6029SOL    HW129720   3.006   1.079   6.924  0.7194  0.0511 -0.4339
 6029SOL    HW229721   3.033   1.013   6.805 -0.5025 -1.4567 -0.8808
 6030SOL     OW29722   2.107   2.251   2.739 -0.2056 -0.0818  0.2427
 6030SOL    HW129723   2.163   2.235   2.663  0.2147 -0.8172  0.7174
 6030SOL    HW229724   2.025   2.226   2.697 -1.6480  0.2937  2.8498
 6031SOL     OW29725   1.917   3.935   2.632 -0.7268 -0.6824  0.2668
 6031SOL    HW129726   2.004   3.895   2.625 -0.3886 -0.1107  1.2450
 6031SOL    HW229727   1.928   4.011   2.575 -0.6334 -2.1162 -1.6618
 6032SOL     OW29728   3.436   2.692  15.460 -0.3848 -0.2036 -0.5161
 6032SOL    HW129729   3.493   2.656  15.392  1.1279  1.8217 -0.3125
 6032SOL    HW229730   3.348   2.666  15.434 -0.9523  0.1951  0.9767
 6033SOL     OW29731   1.772   0.744  12.171  0.4822 -0.7651  0.2971
 6033SOL    HW129732   1.761   0.729  12.264 -1.6259 -1.6828 -0.0953
 6033SOL    HW229733   1.732   0.831  12.163  0.3117 -0.8174  0.6033
 6034SOL     OW29734   1.827   2.636   7.444 -0.1106 -0.3244  0.1724
 6034SOL    HW129735   1.870   2.565   7.396  0.6404  1.2560 -1.5060
 6034SOL    HW229736   1.764   2.665   7.378 -0.2966  0.9216  0.8991
 6035SOL     OW29737   3.639   1.456   8.223 -0.1659 -0.4179 -0.4305
 6035SOL    HW129738   3.615   1.402   8.298  0.3399  1.6153  1.1911
 6035SOL    HW229739   3.734   1.450   8.231 -0.0438  3.2899  0.7470
 6036SOL     OW29740   4.304   0.495   1.434  0.0358  0.0577 -0.1063
 6036SOL    HW129741   4.384   0.443   1.421 -0.3127  0.1624 -2.6949
 6036SOL    HW229742   4.336   0.578   1.399 -0.4759 -0.0955 -0.9504
 6037SOL     OW29743   0.653   3.673   9.042  0.7725  0.6447  0.2790
 6037SOL    HW129744   0.704   3.596   9.069  2.0220  1.5423  0.4532
 6037SOL    HW229745   0.658   3.731   9.118  1.1255 -0.2692  0.9618
 6038SOL     OW29746   4.535   3.927   9.184 -0.4246 -0.0492 -0.1903
 6038SOL    HW129747   4.444   3.902   9.199 -0.6371  1.1287  0.4916
 6038SOL    HW229748   4.573   3.856   9.132 -1.7176 -0.9318  0.0644
 6039SOL     OW29749   2.952   1.467   6.215  0.2343  0.3635  0.0770
 6039SOL    HW129750   2.870   1.464   6.166  0.1837  0.6992  0.1453
 6039SOL    HW229751   3.010   1.401   6.176 -1.3270 -1.4866  0.8553
 6040SOL     OW29752   0.412   1.667  17.378 -0.2104  0.2350  0.0212
 6040SOL    HW129753   0.480   1.731  17.400  0.1287 -0.3636  0.7239
 6040SOL    HW229754   0.402   1.679  17.284  1.3001 -2.8776 -0.5339
 6041SOL     OW29755   0.830   4.618  16.351  0.7451 -0.1833  0.0163
 6041SOL    HW129756   0.765   4.688  16.355  2.3581  1.2744  1.1056
 6041SOL    HW229757   0.905   4.670  16.379  0.3733 -0.7620  2.1137
 6042SOL     OW29758   4.394   1.467   5.261 -0.5634 -0.1906 -0.4370
 6042SOL    HW129759   4.340   1.418   5.198 -1.1640  2.1852 -1.7707
 6042SOL    HW229760   4.451   1.509   5.197 -0.7151 -0.8346 -0.9984
 6043SOL     OW29761   0.237   0.685   6.647 -0.3572 -0.4812 -0.0102
 6043SOL    HW129762   0.218   0.757   6.586  1.8074 -1.0824 -1.3766
 6043SOL    HW229763   0.151   0.669   6.687 -0.9533  0.5972 -0.8590
 6044SOL     OW29764   2.961   4.097   0.689 -0.1370  0.3623 -0.4930
 6044SOL    HW129765   2.997   4.009   0.704  0.7964  0.5526 -1.5835
 6044SOL    HW229766   2.883   4.068   0.640 -1.3600  2.5869  0.1638
 6045SOL     OW29767   0.441   1.088   5.050  0.2013  0.0731 -0.1100
 6045SOL    HW129768   0.453   1.023   5.120  0.0180  0.2912  0.1256
 6045SOL    HW229769   0.373   1.055   4.991  0.5659 -0.9041  0.0026
 6046SOL     OW29770   1.455   1.262   4.935  0.2434 -0.3770 -0.2252
 6046SOL    HW129771   1.470   1.170   4.954  2.0424 -0.0106  0.0887
 6046SOL    HW229772   1.364   1.252   4.907  0.3785  1.4678 -1.3208
 6047SOL     OW29773   1.308   3.391   4.263 -0.3531  0.2598 -0.0333
 6047SOL    HW129774   1.280   3.303   4.236  0.4945 -0.0403  0.0294
 6047SOL    HW229775   1.332   3.422   4.176  1.1888  0.7095  0.5472
 6048SOL     OW29776   4.355   1.754   0.616 -0.3270  0.1380  0.2347
 6048SOL    HW129777   4.303   1.833   0.601 -1.1540 -0.2944  0.8329
 6048SOL    HW229778   4.355   1.755   0.712  1.2240 -0.4713  0.2424
 6049SOL     OW29779   2.225   2.450   6.913 -0.3996  0.3388  0.2469
 6049SOL    HW129780   2.192   2.360   6.918  1.9641 -0.6547 -1.7593
 6049SOL    HW229781   2.267   2.444   6.827 -0.3401  0.1185  0.2912
 6050SOL     OW29782   2.727   4.603   4.454  0.4194  0.1972 -0.0480
 6050SOL    HW129783   2.650   4.614   4.398 -0.7313 -0.2901  1.4239
 6050SOL    HW229784   2.687   4.644   4.531  1.1099 -0.5091  0.6940
 6051SOL     OW29785   2.447   2.648   9.150  0.6237  0.1187 -0.0134
 6051SOL    HW129786   2.470   2.643   9.243 -1.7762  0.1950  0.5706
 6051SOL    HW229787   2.391   2.723   9.165 -0.3539 -0.3905 -1.1335
 6052SOL     OW29788   0.880   3.785   6.994 -0.4955  0.2192  0.3832
 6052SOL    HW129789   0.808   3.791   7.057 -2.0959  2.4819 -1.6865
 6052SOL    HW229790   0.835   3.754   6.915 -0.0395  0.9931 -0.1836
 6053SOL     OW29791   3.319   2.582   2.346  0.3141  0.1493  0.1769
 6053SOL    HW129792   3.279   2.524   2.410 -1.3994  2.5435  1.3024
 6053SOL    HW229793   3.309   2.665   2.393  2.4199  0.1070  0.6753
 6054SOL     OW29794   3.939   1.570   2.539  0.1560 -0.2201 -0.6187
 6054SOL    HW129795   3.923   1.664   2.535  1.8929  0.1018  0.2514
 6054SOL    HW229796   4.010   1.552   2.478  0.2207 -0.3627 -0.5020
 6055SOL     OW29797   0.267   2.284   5.201 -0.1027  0.2660  0.0078
 6055SOL    HW129798   0.318   2.316   5.126  0.0492 -0.2213 -0.0983
 6055SOL    HW229799   0.329   2.294   5.274  0.2274  1.3303 -0.4083
 6056SOL     OW29800   0.587   3.514  16.080 -0.3990 -0.1845 -0.2963
 6056SOL    HW129801   0.550   3.480  16.162 -1.5265 -1.7896 -1.4833
 6056SOL    HW229802   0.583   3.604  16.113 -0.1272 -1.1725  2.3959
 6057SOL     OW29803   0.670   2.320   9.037 -0.5483  0.1974 -0.0548
 6057SOL    HW129804   0.747   2.349   9.086 -1.3185  3.6579 -0.8923
 6057SOL    HW229805   0.701   2.251   8.978  1.7570  1.0836  0.1342
 6058SOL     OW29806   2.021   2.005   7.147  0.6870 -0.6144 -0.1135
 6058SOL    HW129807   1.990   2.003   7.238  0.2554  0.4470 -0.2289
 6058SOL    HW229808   1.953   1.953   7.104  2.6958 -3.1652 -0.1798
 6059SOL     OW29809   1.530   3.854   8.750  0.7430  0.3648  0.1007
 6059SOL    HW129810   1.528   3.775   8.804 -3.7708  0.9466  0.8400
 6059SOL    HW229811   1.459   3.825   8.692 -0.0686 -0.6024  1.5704
 6060SOL     OW29812   0.047   3.532   7.703 -0.1117 -0.2342 -0.0696
 6060SOL    HW129813   0.034   3.439   7.719  0.7106 -0.4541 -0.7002
 6060SOL    HW229814   0.068   3.567   7.790  1.0923 -1.2773  0.0533
 6061SOL     OW29815   3.658   2.617   8.489 -0.2628 -0.6593 -0.4351
 6061SOL    HW129816   3.690   2.706   8.500  0.4896 -1.1702  1.5763
 6061SOL    HW229817   3.701   2.583   8.567 -0.2073  2.4087  0.8414
 6062SOL     OW29818   1.080   3.862   8.506 -0.2387  0.5097  0.6788
 6062SOL    HW129819   1.159   3.839   8.458  0.9109  0.9253  2.3769
 6062SOL    HW229820   1.059   3.949   8.473  0.2065  1.5718  3.1706
 6063SOL     OW29821   4.388   4.227   0.607  0.1557  0.2992  0.0895
 6063SOL    HW129822   4.317   4.170   0.636  1.2500 -1.7474 -1.2515
 6063SOL    HW229823   4.469   4.180   0.628 -0.7575 -0.6135  1.5128
 6064SOL     OW29824   1.422   1.699   3.769  0.5274 -0.5438 -0.0454
 6064SOL    HW129825   1.490   1.723   3.832  0.2744  1.3471 -0.4834
 6064SOL    HW229826   1.410   1.786   3.730  1.5155 -0.3307  0.1343
 6065SOL     OW29827   1.651   2.643   9.570  0.3479  0.5329  0.3870
 6065SOL    HW129828   1.577   2.678   9.621 -0.9898 -1.1686 -0.3929
 6065SOL    HW229829   1.602   2.607   9.496 -1.0927  2.5836  0.3245
 6066SOL     OW29830   4.555   1.432   6.631  0.6083  0.2002 -0.2017
 6066SOL    HW129831   4.651   1.428   6.628  0.5472 -1.3042 -0.3743
 6066SOL    HW229832   4.546   1.412   6.724 -1.6769 -2.4027 -0.9756
 6067SOL     OW29833   1.672   3.000   3.534 -0.0868  0.0216  0.3981
 6067SOL    HW129834   1.648   3.092   3.521  1.6913  0.2394 -1.4253
 6067SOL    HW229835   1.739   2.988   3.466 -0.2802  4.1493 -0.5046
 6068SOL     OW29836   0.206   2.670   1.982 -0.4504 -0.0325 -0.2941
 6068SOL    HW129837   0.262   2.705   2.051  1.1022 -1.1491 -0.9920
 6068SOL    HW229838   0.269   2.632   1.921 -0.0277  1.3971 -0.7572
 6069SOL     OW29839   2.383   3.055   0.991  0.2385  0.5910 -0.0276
 6069SOL    HW129840   2.366   3.128   1.051 -1.8547 -0.4790  0.6790
 6069SOL    HW229841   2.302   3.033   0.944  1.2846 -2.0905 -0.5880
 6070SOL     OW29842   1.964   3.984   8.123 -0.4419 -0.0084 -0.2319
 6070SOL    HW129843   1.918   4.051   8.174  0.8431  2.1620 -1.9658
 6070SOL    HW229844   1.899   3.916   8.142  0.1203 -0.3427  0.5002
 6071SOL     OW29845   2.691   0.188   3.145 -0.1592 -0.5824 -0.2765
 6071SOL    HW129846   2.691   0.256   3.212  0.3680 -0.0438 -0.8152
 6071SOL    HW229847   2.669   0.245   3.071 -1.2757  0.7150  1.0445
 6072SOL     OW29848   2.043   4.403  17.543  0.3486 -0.2302 -0.6272
 6072SOL    HW129849   2.038   4.356  17.460  0.6769 -1.0722 -0.1740
 6072SOL    HW229850   2.098   4.354  17.605 -1.2894  0.8409  1.6801
 6073SOL     OW29851   3.982   2.149  13.086 -0.0351 -0.2104  0.0183
 6073SOL    HW129852   4.064   2.153  13.038  1.7804 -0.9546  3.0606
 6073SOL    HW229853   4.016   2.101  13.161  2.6397  0.3809 -0.8220
 6074SOL     OW29854   2.025   1.965   1.636  0.8713 -0.4188 -0.7800
 6074SOL    HW129855   2.050   1.892   1.692 -0.1923 -0.5731 -0.5121
 6074SOL    HW229856   1.932   1.948   1.648  0.4249  1.6593 -1.2809
 6075SOL     OW29857   4.530   0.681   6.028 -0.0626  0.1650  0.2101
 6075SOL    HW129858   4.478   0.693   5.949 -0.7898 -1.4923  0.4177
 6075SOL    HW229859   4.617   0.716   6.011  0.0471 -0.4215 -0.4639
 6076SOL     OW29860   2.931   0.658   4.080  0.2660  0.6860  0.5035
 6076SOL    HW129861   2.888   0.600   4.017  2.1710 -0.5877  0.3696
 6076SOL    HW229862   2.967   0.723   4.020 -1.6792  0.0737 -1.3294
 6077SOL     OW29863   3.879   3.229   7.447  0.2359 -0.0893 -0.1698
 6077SOL    HW129864   3.843   3.143   7.468  1.7903 -1.1535 -1.8206
 6077SOL    HW229865   3.871   3.238   7.353 -1.5207 -1.2247 -0.1370
 6078SOL     OW29866   1.983   0.293  11.262  0.1170 -0.1765  0.2782
 6078SOL    HW129867   2.034   0.341  11.196 -0.5093  1.3337  0.8852
 6078SOL    HW229868   2.003   0.206  11.229  1.3382 -0.4617  1.7815
 6079SOL     OW29869   2.586   2.481  15.431 -0.0544 -0.2697  0.0373
 6079SOL    HW129870   2.498   2.445  15.439 -0.8822  1.9326  0.8411
 6079SOL    HW229871   2.626   2.403  15.394  0.4398  0.6351 -1.3416
 6080SOL     OW29872   0.156   1.844   7.276 -0.5039  0.3248  0.3380
 6080SOL    HW129873   0.165   1.840   7.371 -1.0730 -1.5189  0.3028
 6080SOL    HW229874   0.245   1.841   7.240  0.0376  2.0209  1.5375
 6081SOL     OW29875   3.309   3.642   2.878  0.8174 -0.6741 -0.3182
 6081SOL    HW129876   3.347   3.591   2.950  0.2679 -0.5555  0.0494
 6081SOL    HW229877   3.245   3.690   2.930  1.3002 -1.4835  1.0456
 6082SOL     OW29878   1.939   3.550   7.012  0.0883 -0.2264  0.7253
 6082SOL    HW129879   1.870   3.525   6.951  1.8319  0.8607 -1.6906
 6082SOL    HW229880   1.983   3.465   7.004  1.0047  0.3949 -0.9860
 6083SOL     OW29881   3.711   0.322   3.337  0.3220 -0.6181 -0.0711
 6083SOL    HW129882   3.639   0.276   3.379  0.6205 -0.4591  0.6121
 6083SOL    HW229883   3.673   0.407   3.313 -0.2757 -1.4166 -1.9996
 6084SOL     OW29884   2.634   2.255   2.294 -0.6917 -0.2220  0.3899
 6084SOL    HW129885   2.661   2.337   2.336 -1.4000  1.1039 -1.7243
 6084SOL    HW229886   2.719   2.232   2.257 -0.5493  0.4549  0.2873
 6085SOL     OW29887   2.565   3.089   6.776 -0.0569  0.4153  0.6709
 6085SOL    HW129888   2.503   3.017   6.767  0.1612  0.3910 -0.6444
 6085SOL    HW229889   2.545   3.148   6.704 -2.0151  1.4821  2.1158
 6086SOL     OW29890   2.835   0.932  11.970 -0.2099  0.2305 -0.1887
 6086SOL    HW129891   2.752   0.895  11.940  0.4646 -0.7352 -0.8732
 6086SOL    HW229892   2.800   0.966  12.052 -0.8835 -0.2559 -0.2753
 6087SOL     OW29893   0.124   2.913   9.474  0.8151 -0.1085 -0.0963
 6087SOL    HW129894   0.188   2.898   9.404  2.5803  2.4658  0.9320
 6087SOL    HW229895   0.104   2.821   9.493 -0.8983  0.6353  1.6692
 6088SOL     OW29896   2.067   2.362   3.587 -0.3186 -0.2653 -0.0034
 6088SOL    HW129897   2.125   2.415   3.532  2.2271 -1.5174  1.4604
 6088SOL    HW229898   2.116   2.280   3.578 -2.3132 -1.6723  2.1944
 6089SOL     OW29899   1.121   3.696  12.946 -0.5837 -0.3437 -0.0606
 6089SOL    HW129900   1.051   3.752  12.981 -2.0840 -2.0664 -0.3254
 6089SOL    HW229901   1.188   3.714  13.012 -0.0594  0.8940 -0.9229
 6090SOL     OW29902   2.076   1.075   9.031  0.2153  0.1522  0.1937
 6090SOL    HW129903   2.091   1.053   9.122  0.0160  2.1504  0.7052
 6090SOL    HW229904   2.021   1.151   9.052 -2.0373 -0.8550 -2.0668
 6091SOL     OW29905   3.452   1.603  16.206 -0.3453  0.4097  0.0422
 6091SOL    HW129906   3.511   1.678  16.211 -0.5819  0.5774  0.3176
 6091SOL    HW229907   3.432   1.582  16.114 -0.7105  3.9538 -0.6997
 6092SOL     OW29908   0.995   3.983   5.673 -0.2242 -0.0453  0.1644
 6092SOL    HW129909   1.025   3.984   5.582  0.8951 -3.9310  0.4916
 6092SOL    HW229910   1.012   4.074   5.695  3.0117 -0.5660 -0.2188
 6093SOL     OW29911   2.593   0.644   6.949  0.4109 -0.5136 -0.5310
 6093SOL    HW129912   2.548   0.638   6.865 -1.9772  0.9948  0.6587
 6093SOL    HW229913   2.608   0.738   6.953  0.2240 -0.4661 -0.9373
 6094SOL     OW29914   3.220   2.774   5.040  0.3384  0.7068 -0.0760
 6094SOL    HW129915   3.160   2.812   4.976 -0.7649 -0.3732  0.3153
 6094SOL    HW229916   3.171   2.798   5.119  1.1363 -0.9141  0.9242
 6095SOL     OW29917   3.232   4.083   5.932 -0.0376 -0.2148  0.4974
 6095SOL    HW129918   3.279   4.124   6.005  0.8668 -1.0688  0.3935
 6095SOL    HW229919   3.143   4.120   5.940  0.8884  2.1014  0.1183
 6096SOL     OW29920   3.002   2.655   3.733  0.0109 -0.8170  0.1062
 6096SOL    HW129921   3.047   2.732   3.767 -2.2518  0.5392  0.0519
 6096SOL    HW229922   3.074   2.595   3.752 -0.1087 -0.7344  0.8332
 6097SOL     OW29923   2.646   0.377   3.321 -0.4883  0.1978 -0.0522
 6097SOL    HW129924   2.700   0.425   3.383 -0.2858  0.5051 -0.4670
 6097SOL    HW229925   2.556   0.376   3.353 -0.8557 -0.3488 -1.0789
 6098SOL     OW29926   3.703   0.512   3.976 -0.3884 -0.0974 -0.3361
 6098SOL    HW129927   3.677   0.575   3.909 -0.1441  0.7781  0.3905
 6098SOL    HW229928   3.632   0.535   4.036 -1.2188  0.2154 -1.4633
 6099SOL     OW29929   2.049   3.371  16.303 -0.0066 -0.2299 -0.3156
 6099SOL    HW129930   2.089   3.446  16.260  2.1911 -0.8149  0.6987
 6099SOL    HW229931   2.092   3.376  16.388 -2.1454 -1.0335  0.8120
 6100SOL     OW29932   2.428   1.406  10.822 -0.2726 -0.5647  0.4161
 6100SOL    HW129933   2.399   1.480  10.769 -0.9975 -2.0380 -1.2343
 6100SOL    HW229934   2.461   1.362  10.744 -2.0029 -0.4173 -0.4090
 6101SOL     OW29935   4.686   2.673   4.735 -0.2000 -0.2146  0.2489
 6101SOL    HW129936   4.701   2.601   4.797  0.8354 -0.1954  0.0268
 6101SOL    HW229937   0.009   2.643   4.666 -0.2026  0.7061 -0.1549
 6102SOL     OW29938   3.831   1.308   3.045  0.2448 -0.6144  0.0697
 6102SOL    HW129939   3.898   1.304   2.977 -0.8938  0.9114 -1.1544
 6102SOL    HW229940   3.799   1.218   3.053 -1.5473 -0.0814 -1.1079
 6103SOL     OW29941   1.635   1.227   1.723 -0.6279 -0.2062 -0.2928
 6103SOL    HW129942   1.571   1.236   1.652  1.0314  3.3429 -1.3389
 6103SOL    HW229943   1.609   1.139   1.751 -0.5662  0.0041  0.4103
 6104SOL     OW29944   1.879   3.440  14.016 -0.7444  0.0942  0.1917
 6104SOL    HW129945   1.817   3.483  14.074 -0.6703  0.5936 -0.0960
 6104SOL    HW229946   1.933   3.517  14.001  0.6065 -1.0095 -0.5963
 6105SOL     OW29947   1.497   3.100   2.259 -0.0060  0.3073 -0.5448
 6105SOL    HW129948   1.431   3.167   2.239  0.7426  1.2157  0.0251
 6105SOL    HW229949   1.454   3.027   2.215 -0.3157  0.5579 -0.6619
 6106SOL     OW29950   1.908   0.222  12.081 -0.8640 -0.4536  0.3064
 6106SOL    HW129951   1.989   0.201  12.035 -0.3279 -3.3607  2.5294
 6106SOL    HW229952   1.928   0.310  12.111 -0.7519 -0.4500  0.2190
 6107SOL     OW29953   2.290   3.594   0.012 -0.2676  0.0620  0.6431
 6107SOL    HW129954   2.293   3.635  17.669  1.3252 -2.6336 -0.5680
 6107SOL    HW229955   2.203   3.621   0.039 -0.1997 -1.1901  2.1415
 6108SOL     OW29956   0.392   4.364   2.399  0.5640  0.3844 -0.4319
 6108SOL    HW129957   0.367   4.276   2.371  2.6251 -0.4737  0.4415
 6108SOL    HW229958   0.486   4.353   2.415  0.6946  0.6544 -1.0094
 6109SOL     OW29959   2.224   3.590  14.600 -0.1299  0.1180  0.0472
 6109SOL    HW129960   2.150   3.586  14.540  0.8241  0.4060 -1.1469
 6109SOL    HW229961   2.274   3.635  14.532 -0.6510  1.4324  0.5333
 6110SOL     OW29962   2.400   0.093   4.229  0.1734  0.1845  0.1438
 6110SOL    HW129963   2.432   0.142   4.305  1.4308 -1.4069  0.6461
 6110SOL    HW229964   2.444   0.010   4.247 -0.7150 -0.3800 -0.2742
 6111SOL     OW29965   1.971   0.014   1.393 -0.0637  0.0480 -0.2398
 6111SOL    HW129966   1.993   0.007   1.300  1.4876 -0.3970  0.1688
 6111SOL    HW229967   1.936   4.661   1.402  2.5998 -1.0162 -0.3847
 6112SOL     OW29968   2.029   0.137   6.045 -0.5654  0.1022  0.1461
 6112SOL    HW129969   2.056   0.207   5.986  0.7192  0.4753  1.1837
 6112SOL    HW229970   1.938   0.158   6.065 -0.8395 -1.2274  0.2910
 6113SOL     OW29971   4.298   4.469  14.723 -0.7886  0.2369  0.6061
 6113SOL    HW129972   4.283   4.521  14.801 -1.3325 -0.1507  0.7596
 6113SOL    HW229973   4.212   4.432  14.701 -0.5561 -0.9391  1.6681
 6114SOL     OW29974   3.414   0.402   1.685  0.6645  0.3708 -0.1632
 6114SOL    HW129975   3.500   0.417   1.725  0.0547  1.4697  0.7425
 6114SOL    HW229976   3.432   0.403   1.591  3.6278 -3.1578  0.3252
 6115SOL     OW29977   0.438   1.612   7.967 -0.0625  0.0698 -0.2828
 6115SOL    HW129978   0.365   1.657   7.923  1.5120  1.5329 -1.3767
 6115SOL    HW229979   0.502   1.680   7.987  2.3444 -1.3188 -3.1402
 6116SOL     OW29980   3.442   2.742   7.631  0.2312 -0.0187 -0.3271
 6116SOL    HW129981   3.383   2.671   7.658  1.9972 -1.1629  0.5291
 6116SOL    HW229982   3.488   2.745   7.715  1.8073 -0.4422 -1.1776
 6117SOL     OW29983   1.318   3.346   8.166  0.0197  0.0899 -0.3939
 6117SOL    HW129984   1.232   3.346   8.126  0.5278 -0.8527 -1.4933
 6117SOL    HW229985   1.337   3.438   8.183 -0.7215  0.0242  0.7672
 6118SOL     OW29986   0.190   1.447   9.234  0.2617  0.5118  0.4417
 6118SOL    HW129987   0.173   1.431   9.327  0.8264  0.2702  0.5028
 6118SOL    HW229988   0.147   1.533   9.234  0.4497  0.6097  0.6594
 6119SOL     OW29989   3.048   1.691   1.905  0.1579  0.0417  0.1536
 6119SOL    HW129990   3.034   1.609   1.858 -1.5571  0.6768 -0.4258
 6119SOL    HW229991   2.990   1.750   1.858 -0.8422 -1.3124 -0.2904
 6120SOL     OW29992   2.135   2.247   9.232 -0.7396  0.2193 -0.5296
 6120SOL    HW129993   2.061   2.277   9.180 -0.9457 -0.2945 -0.5352
 6120SOL    HW229994   2.214   2.259   9.179  0.0439 -2.6215 -0.0083
 6121SOL     OW29995   2.703   2.617   3.158 -0.1018  0.2723  0.0667
 6121SOL    HW129996   2.647   2.591   3.085  1.9102  1.4746 -1.8946
 6121SOL    HW229997   2.679   2.710   3.164  1.9688  0.7512  0.7993
 6122SOL     OW29998   0.807   1.514   6.595 -0.4152 -0.1396  0.1098
 6122SOL    HW129999   0.848   1.489   6.513  0.3837  1.6757 -0.0380
 6122SOL    HW230000   0.884   1.536   6.648  0.2214 -1.4927 -0.2437
 6123SOL     OW30001   0.810   2.520   6.365  0.2573  0.1716  0.1639
 6123SOL    HW130002   0.767   2.487   6.286  1.3990 -0.2086 -0.2988
 6123SOL    HW230003   0.837   2.440   6.410  0.4738 -0.2650 -0.7376
 6124SOL     OW30004   1.407   0.619   2.380 -0.0925  0.4668 -0.0331
 6124SOL    HW130005   1.394   0.709   2.351  1.0752  1.1528  1.6167
 6124SOL    HW230006   1.474   0.582   2.323 -1.8925 -2.2492 -0.4281
 6125SOL     OW30007   1.788   3.775   7.937  0.2267  0.1118  0.5047
 6125SOL    HW130008   1.768   3.763   8.030 -1.7064  0.5138  0.1431
 6125SOL    HW230009   1.851   3.703   7.928  0.0693 -0.0448  0.6355
 6126SOL     OW30010   0.973   2.795   1.294  0.0259 -0.0807 -0.1446
 6126SOL    HW130011   1.035   2.808   1.222 -0.5958 -1.2192 -0.8980
 6126SOL    HW230012   0.903   2.859   1.290  1.9058  2.1090  2.0928
 6127SOL     OW30013   1.729   3.291  15.291 -0.2244 -0.5040  0.2342
 6127SOL    HW130014   1.660   3.225  15.283 -0.5352 -0.0113 -1.0920
 6127SOL    HW230015   1.707   3.342  15.213  1.1176 -0.9160 -0.4100
 6128SOL     OW30016   4.273   3.038   8.563 -0.3723  0.2106 -0.1115
 6128SOL    HW130017   4.365   3.044   8.537  0.0606 -1.6833  0.9760
 6128SOL    HW230018   4.234   2.990   8.490  0.0757  0.4336 -0.4999
 6129SOL     OW30019   2.400   0.600   3.308  0.0821 -0.2465 -0.0911
 6129SOL    HW130020   2.330   0.596   3.373  1.0661  1.2531  1.0237
 6129SOL    HW230021   2.353   0.576   3.227 -0.5828  1.3633 -0.1690
 6130SOL     OW30022   4.663   0.921   4.443 -0.2192 -0.2913  0.3393
 6130SOL    HW130023   4.574   0.956   4.450  0.3627  1.8063 -2.6188
 6130SOL    HW230024   4.655   0.866   4.366  2.0796 -0.2366  0.0712
 6131SOL     OW30025   3.508   0.678  13.728  0.4912 -0.3167 -0.5251
 6131SOL    HW130026   3.489   0.584  13.720 -0.8296 -0.0180 -0.9242
 6131SOL    HW230027   3.491   0.699  13.636 -0.2326  0.7729 -0.1322
 6132SOL     OW30028   0.401   2.320   3.282  0.0948  0.2907 -0.1279
 6132SOL    HW130029   0.426   2.256   3.216 -1.6574 -0.8540  0.3094
 6132SOL    HW230030   0.437   2.399   3.241  0.4334 -1.2049 -2.7261
 6133SOL     OW30031   2.361   3.141   3.520 -0.2634  0.6326 -0.0381
 6133SOL    HW130032   2.292   3.084   3.554  0.0014  1.0679  1.2178
 6133SOL    HW230033   2.425   3.139   3.592  1.5420  0.2976 -1.6423
 6134SOL     OW30034   2.587   0.216  16.574  0.2612 -0.1017  0.4590
 6134SOL    HW130035   2.623   0.242  16.659 -0.5767 -0.4231  0.9189
 6134SOL    HW230036   2.501   0.259  16.572  1.2409  1.8482  0.9300
 6135SOL     OW30037   3.641   2.937  10.035 -0.2378 -0.0029 -0.0912
 6135SOL    HW130038   3.562   2.884  10.040 -0.4161  0.2784  0.0531
 6135SOL    HW230039   3.691   2.877   9.979  3.3478  1.1895  1.8404
 6136SOL     OW30040   0.568   2.973   8.777  0.4372  0.3193 -0.3248
 6136SOL    HW130041   0.634   3.019   8.829  0.2687  0.4610 -0.2397
 6136SOL    HW230042   0.505   3.045   8.769  0.2335  0.2435  0.6220
 6137SOL     OW30043   4.030   0.534   5.456 -0.0873 -0.3382  0.3720
 6137SOL    HW130044   4.113   0.497   5.487 -0.7216 -0.6370  1.6985
 6137SOL    HW230045   4.024   0.616   5.504  0.3477  0.7762 -1.4728
 6138SOL     OW30046   1.457   4.178   7.158  0.3456 -0.0375 -0.1255
 6138SOL    HW130047   1.532   4.239   7.159 -0.2795  0.8036 -3.1116
 6138SOL    HW230048   1.498   4.100   7.194  1.7971  0.3122 -0.9803
 6139SOL     OW30049   1.743   1.533  15.271 -0.0075  0.2052 -0.0642
 6139SOL    HW130050   1.702   1.452  15.300  0.9727  0.0306  0.8399
 6139SOL    HW230051   1.736   1.531  15.175  2.0829 -1.1247 -0.1983
 6140SOL     OW30052   1.024   3.301   6.526  0.0760  0.4875 -0.3506
 6140SOL    HW130053   0.954   3.290   6.461 -0.2087  1.0910 -0.1473
 6140SOL    HW230054   1.100   3.310   6.469 -1.0006 -0.3360 -1.9088
 6141SOL     OW30055   4.688   0.345   6.971 -0.0381  0.4236  0.2731
 6141SOL    HW130056   4.596   0.350   6.944 -0.2547  2.3150  1.3487
 6141SOL    HW230057   4.721   0.419   6.922  0.8145 -0.4758 -0.4954
 6142SOL     OW30058   1.191   3.386   7.527 -0.1568  0.0684  0.5352
 6142SOL    HW130059   1.112   3.333   7.519  0.9432 -1.3346 -1.1926
 6142SOL    HW230060   1.167   3.459   7.470  0.6815  0.7284  1.0289
 6143SOL     OW30061   3.690   4.708  14.818  0.2468  0.2058  0.6164
 6143SOL    HW130062   3.755   4.731  14.751  2.4355 -1.3527  2.2196
 6143SOL    HW230063   3.679   4.615  14.798  1.5560  0.4834 -1.4512
 6144SOL     OW30064   3.236   2.036   2.028 -0.3293 -0.2002  0.4973
 6144SOL    HW130065   3.149   2.050   1.989 -0.6510 -2.0562  0.5463
 6144SOL    HW230066   3.207   2.058   2.116 -0.1222  1.9492  0.0316
 6145SOL     OW30067   1.098   3.045   5.334 -0.1106  0.0865 -0.4922
 6145SOL    HW130068   1.060   2.964   5.300 -1.8112  0.5911  0.2299
 6145SOL    HW230069   1.170   3.007   5.386  0.1977  1.1703 -0.1366
 6146SOL     OW30070   1.531   1.751  12.440  0.4418 -0.1028 -0.0279
 6146SOL    HW130071   1.525   1.659  12.413 -0.7124 -0.4252  1.3263
 6146SOL    HW230072   1.509   1.734  12.532 -0.3513  3.0186  0.3756
 6147SOL     OW30073   3.828   2.313   3.527 -0.5542  0.1703 -1.1044
 6147SOL    HW130074   3.846   2.272   3.442 -0.1974 -1.1495 -0.3934
 6147SOL    HW230075   3.733   2.322   3.525 -0.4633  1.3393  0.2076
 6148SOL     OW30076   1.321   2.794   7.299  0.2402  0.3733 -0.3449
 6148SOL    HW130077   1.234   2.779   7.336  1.0505 -1.2246  0.9186
 6148SOL    HW230078   1.371   2.805   7.380  1.4655 -3.0899 -0.6311
 6149SOL     OW30079   0.635   4.333   7.197 -0.1526 -0.5606 -0.0126
 6149SOL    HW130080   0.646   4.342   7.292  0.6139  2.5712 -0.4068
 6149SOL    HW230081   0.546   4.303   7.179  0.4397 -0.8542 -2.5019
 6150SOL     OW30082   1.604   3.770   3.569 -0.0380 -0.1626 -0.1379
 6150SOL    HW130083   1.576   3.740   3.482  3.9498 -1.6855 -0.8975
 6150SOL    HW230084   1.622   3.696   3.627  2.0073 -0.5731 -1.2625
 6151SOL     OW30085   0.879   2.666   0.593 -0.0147  0.3888 -0.1330
 6151SOL    HW130086   0.827   2.643   0.669 -1.4295 -0.5982 -1.4078
 6151SOL    HW230087   0.811   2.722   0.554  0.2783  1.2956  0.6469
 6152SOL     OW30088   2.635   3.733   1.594 -0.0171  0.4528  0.1850
 6152SOL    HW130089   2.716   3.781   1.611 -0.8923  2.1058 -0.3026
 6152SOL    HW230090   2.571   3.805   1.592 -0.1213  0.3474 -0.2043
 6153SOL     OW30091   3.707   4.468   0.166  0.2137  0.0565 -0.1244
 6153SOL    HW130092   3.719   4.384   0.123 -0.8183 -0.1756  0.0473
 6153SOL    HW230093   3.640   4.444   0.230  1.5032  1.4553  1.7918
 6154SOL     OW30094   0.703   3.499   3.830  0.0048 -0.1403  0.3531
 6154SOL    HW130095   0.627   3.539   3.872  1.1758 -0.0312  2.3438
 6154SOL    HW230096   0.760   3.509   3.906 -0.7492 -0.1447  0.9222
 6155SOL     OW30097   4.662   1.818   4.303  0.1308  0.1605 -0.5223
 6155SOL    HW130098   4.569   1.835   4.288 -0.0299  2.0416  2.6744
 6155SOL    HW230099   4.659   1.730   4.341 -0.2631  0.4712  0.1747
 6156SOL     OW30100   4.673   2.077   3.206 -0.2188 -0.6249  0.2043
 6156SOL    HW130101   4.729   2.001   3.189 -1.9224 -1.1436 -2.9399
 6156SOL    HW230102   4.723   2.119   3.276 -0.5029 -0.4144  0.2825
 6157SOL     OW30103   0.938   3.931   4.731 -0.6192 -0.1664 -0.1406
 6157SOL    HW130104   1.024   3.966   4.754 -1.3959  0.4331  1.8566
 6157SOL    HW230105   0.949   3.837   4.746 -0.7778  0.3176  2.8719
 6158SOL     OW30106   3.850   1.880   7.216 -0.6983 -0.2846 -0.2880
 6158SOL    HW130107   3.854   1.975   7.225 -2.0193 -0.0754 -1.8528
 6158SOL    HW230108   3.937   1.842   7.205 -0.4518  0.6764 -1.6411
 6159SOL     OW30109   3.001   1.629   9.209 -0.6281  0.1206  0.0886
 6159SOL    HW130110   2.955   1.600   9.130  0.2276  0.4215 -0.5244
 6159SOL    HW230111   3.057   1.699   9.174 -1.2656 -0.0612 -1.2996
 6160SOL     OW30112   4.211   3.795   8.283 -0.6640 -0.3409  0.0229
 6160SOL    HW130113   4.216   3.889   8.264  1.1020 -0.4795 -0.1390
 6160SOL    HW230114   4.203   3.756   8.196  0.0374 -0.9516  0.2301
 6161SOL     OW30115   4.034   2.157   5.876 -0.2965  0.7892  0.1017
 6161SOL    HW130116   4.093   2.134   5.948  1.9425  2.1535 -1.2970
 6161SOL    HW230117   3.954   2.146   5.927  0.3658  3.0932  1.6435
 6162SOL     OW30118   2.914   1.139  15.535  0.2779  1.0781 -0.7824
 6162SOL    HW130119   2.937   1.232  15.529 -0.8215  1.5261  1.7115
 6162SOL    HW230120   2.954   1.121  15.450 -0.4010  0.3363 -0.9497
 6163SOL     OW30121   4.284   4.607  15.920  0.1512 -0.5246 -0.1437
 6163SOL    HW130122   4.352   4.636  15.860 -0.1152  0.3718 -0.0127
 6163SOL    HW230123   4.327   4.617  16.005 -0.6248 -1.4638  0.3652
 6164SOL     OW30124   3.701   0.393  14.465 -0.3775  0.8066 -0.5381
 6164SOL    HW130125   3.649   0.424  14.539 -1.2846 -2.5151  0.2390
 6164SOL    HW230126   3.765   0.464  14.458  0.0390  0.6828  2.1925
 6165SOL     OW30127   0.301   3.523  16.274 -0.4643 -0.2320 -0.4673
 6165SOL    HW130128   0.329   3.607  16.310  1.5217 -1.8408  1.6777
 6165SOL    HW230129   0.298   3.540  16.179  0.8287 -0.4819 -0.5550
 6166SOL     OW30130   3.902   2.365   6.683 -0.1573 -0.0766 -0.2096
 6166SOL    HW130131   3.821   2.356   6.734 -0.0856 -0.1466 -0.1082
 6166SOL    HW230132   3.927   2.457   6.690 -1.7052  0.3602 -0.4091
 6167SOL     OW30133   2.624   4.480   2.219 -0.9213  0.8118 -0.0129
 6167SOL    HW130134   2.705   4.460   2.171 -1.9037 -1.1774 -0.8879
 6167SOL    HW230135   2.580   4.536   2.155 -2.5598  0.0015  0.3906
 6168SOL     OW30136   1.728   3.234  11.072  0.4981  0.3070 -0.2580
 6168SOL    HW130137   1.661   3.166  11.069  0.3655  0.4285 -0.0457
 6168SOL    HW230138   1.688   3.315  11.041 -1.0944 -0.4202 -0.1034
 6169SOL     OW30139   2.126   3.033  17.425 -0.3800 -0.0646  0.4353
 6169SOL    HW130140   2.173   3.054  17.344 -2.5806  0.8213 -0.5934
 6169SOL    HW230141   2.203   3.011  17.478 -0.7280  0.4925  1.1690
 6170SOL     OW30142   0.042   3.202   8.160  0.3000  0.6607 -0.0360
 6170SOL    HW130143   0.132   3.199   8.191  0.8416 -2.3800 -1.9664
 6170SOL    HW230144   4.728   3.227   8.238  0.7146  0.8324  0.1734
 6171SOL     OW30145   4.400   3.095   4.201  0.6288 -0.4124  0.1112
 6171SOL    HW130146   4.348   3.163   4.244  1.8387  0.4012  0.3015
 6171SOL    HW230147   4.404   3.032   4.273  0.5232  0.0364  0.5157
 6172SOL     OW30148   1.729   0.064  12.746  0.0753 -0.2042  0.0456
 6172SOL    HW130149   1.644   0.031  12.777 -0.4564  1.6412  0.5356
 6172SOL    HW230150   1.775   4.717  12.754 -0.5950 -0.6275 -0.4674
 6173SOL     OW30151   1.399   1.252  11.995  0.0251 -0.1596  0.1417
 6173SOL    HW130152   1.440   1.184  12.048  1.0766  0.5577  0.2576
 6173SOL    HW230153   1.393   1.321  12.062 -0.5225 -0.9280  0.8820
 6174SOL     OW30154   3.669   2.924   7.929 -0.4912  0.5699 -0.0964
 6174SOL    HW130155   3.716   2.840   7.933  1.2922  1.6560  1.5110
 6174SOL    HW230156   3.736   2.992   7.940 -2.3679  2.2534  0.7560
 6175SOL     OW30157   4.019   1.451   7.158 -0.0685 -0.1824 -0.3692
 6175SOL    HW130158   3.929   1.438   7.189  0.1513 -0.1751  0.2845
 6175SOL    HW230159   4.055   1.405   7.234 -2.3473 -3.1713 -1.0964
 6176SOL     OW30160   1.196   2.506   3.925  0.2210  0.0672 -0.3259
 6176SOL    HW130161   1.231   2.426   3.886  1.0041  1.1821 -1.9159
 6176SOL    HW230162   1.246   2.572   3.877  0.4859  0.7714  0.9305
 6177SOL     OW30163   4.394   2.976   5.397  0.1994 -0.3193  0.3327
 6177SOL    HW130164   4.358   2.928   5.322  0.2457 -0.4086  0.3684
 6177SOL    HW230165   4.311   3.005   5.435  1.5967  3.3370  0.6272
 6178SOL     OW30166   0.974   1.875   8.932 -0.4572  0.2529  0.4547
 6178SOL    HW130167   0.951   1.899   8.842  1.4787  2.7021  0.5926
 6178SOL    HW230168   1.069   1.875   8.929 -0.4549  0.0684  0.5286
 6179SOL     OW30169   4.466   0.331   4.489 -0.2623  0.9891  0.2332
 6179SOL    HW130170   4.546   0.381   4.478  0.0021 -0.1084 -2.9121
 6179SOL    HW230171   4.428   0.357   4.572  0.5104 -1.3340  1.3231
 6180SOL     OW30172   4.435   4.713   4.229 -0.4691  0.2486  0.1092
 6180SOL    HW130173   4.357   0.019   4.265 -0.8908  0.2547 -0.8085
 6180SOL    HW230174   4.450   4.636   4.284 -0.8387  0.0415 -0.0803
 6181SOL     OW30175   1.843   3.488   4.862  0.0490  0.1582 -0.3405
 6181SOL    HW130176   1.886   3.465   4.779 -2.2524 -0.6402 -1.3327
 6181SOL    HW230177   1.914   3.505   4.923  0.1405  0.5261 -0.5516
 6182SOL     OW30178   0.280   2.355  12.688  0.5653 -0.3689  0.6167
 6182SOL    HW130179   0.269   2.432  12.632 -1.7787 -2.7617 -2.2142
 6182SOL    HW230180   0.360   2.321  12.646  1.6635  2.1292  0.6947
 6183SOL     OW30181   1.475   3.829   1.175 -0.1870  0.0374 -0.2192
 6183SOL    HW130182   1.502   3.921   1.185 -0.1922 -0.1846  2.0051
 6183SOL    HW230183   1.526   3.801   1.100  0.7598  1.5698 -0.1522
 6184SOL     OW30184   4.285   4.041   9.091 -0.5068  0.0584  0.1700
 6184SOL    HW130185   4.261   4.128   9.059  0.9964  1.3006  2.4349
 6184SOL    HW230186   4.210   4.033   9.150 -1.7529 -1.1899 -1.5666
 6185SOL     OW30187   1.782   1.580  11.842 -0.8842  0.2280  0.0163
 6185SOL    HW130188   1.686   1.583  11.843 -0.8893 -0.3862  0.7629
 6185SOL    HW230189   1.793   1.666  11.883 -0.7577  0.8689 -1.3325
 6186SOL     OW30190   4.248   3.764   9.036  0.1556 -0.0306 -0.2357
 6186SOL    HW130191   4.192   3.759   8.958 -1.1901 -0.0714  0.7303
 6186SOL    HW230192   4.253   3.857   9.058 -0.1506  0.6246 -2.9374
 6187SOL     OW30193   2.358   2.746   3.043  0.1808 -0.4865  0.2715
 6187SOL    HW130194   2.391   2.795   2.968 -2.5713 -0.3909 -0.8385
 6187SOL    HW230195   2.314   2.814   3.094  0.5505 -1.2492  1.6109
 6188SOL     OW30196   1.208   0.382   1.397  0.2150 -0.2063 -0.3277
 6188SOL    HW130197   1.210   0.426   1.313  0.7155 -1.3908 -0.9385
 6188SOL    HW230198   1.261   0.304   1.383 -1.1265 -1.3130  0.6851
 6189SOL     OW30199   0.712   1.120   4.714 -0.0212  0.0535  0.0128
 6189SOL    HW130200   0.686   1.165   4.633  0.7587  1.6670  0.6394
 6189SOL    HW230201   0.656   1.043   4.709  1.1048 -0.8783  1.9936
 6190SOL     OW30202   2.895   2.882  15.619 -0.4728 -0.7622  0.3333
 6190SOL    HW130203   2.906   2.972  15.650 -1.1336 -0.4165 -0.4193
 6190SOL    HW230204   2.843   2.901  15.541  2.6969  0.9953 -1.3930
 6191SOL     OW30205   3.015   4.415  15.299  0.4214 -0.1399  0.0608
 6191SOL    HW130206   3.039   4.324  15.316 -0.3339 -0.3881 -0.1903
 6191SOL    HW230207   2.985   4.420  15.208  0.8233  1.4486  0.0203
 6192SOL     OW30208   1.120   3.536   6.318  0.5099  0.1853  0.0530
 6192SOL    HW130209   1.178   3.608   6.342 -0.7615  0.6032  1.8164
 6192SOL    HW230210   1.178   3.468   6.354  1.5513 -0.2410 -2.4123
 6193SOL     OW30211   3.051   0.656   9.147  0.8425 -0.1460 -0.2806
 6193SOL    HW130212   3.017   0.743   9.169 -0.3717  0.0988 -3.1230
 6193SOL    HW230213   3.039   0.647   9.052  0.7269 -0.9906 -0.1850
 6194SOL     OW30214   4.257   1.245   9.225  0.4631  0.3920 -0.3706
 6194SOL    HW130215   4.187   1.306   9.247  1.8277  1.6970  0.2726
 6194SOL    HW230216   4.323   1.270   9.289 -1.2685  1.9289  0.7992
 6195SOL     OW30217   2.388   3.367  14.900 -0.1526  0.5825  0.1645
 6195SOL    HW130218   2.456   3.346  14.836 -0.5002 -0.7940  0.2492
 6195SOL    HW230219   2.316   3.368  14.838  0.5732 -1.0152 -0.7056
 6196SOL     OW30220   0.635   4.149   7.818 -0.1832 -0.1329  0.2864
 6196SOL    HW130221   0.559   4.199   7.847  0.1785 -0.1924  1.3476
 6196SOL    HW230222   0.695   4.222   7.800 -0.4080  0.2187  0.9746
 6197SOL     OW30223   0.116   4.423  14.909 -0.2816 -0.1257  0.3630
 6197SOL    HW130224   0.144   4.393  14.823 -2.0502 -0.9169  0.0582
 6197SOL    HW230225   0.125   4.346  14.966  0.6457 -0.7325 -0.6151
 6198SOL     OW30226   3.772   3.935   1.372  0.0386 -0.2673  0.1282
 6198SOL    HW130227   3.847   3.878   1.355 -1.7131 -2.6057  0.2623
 6198SOL    HW230228   3.814   4.021   1.379  0.0209 -0.0808 -1.9036
 6199SOL     OW30229   1.258   0.423   2.520 -0.1867 -0.0617  0.2172
 6199SOL    HW130230   1.174   0.466   2.507 -0.0623 -0.4551 -1.9658
 6199SOL    HW230231   1.317   0.483   2.477  0.3368 -2.5759 -2.5783
 6200SOL     OW30232   2.362   1.820   5.333  0.0696  0.3325  0.1124
 6200SOL    HW130233   2.433   1.762   5.305 -0.6737  0.2455 -1.6223
 6200SOL    HW230234   2.408   1.888   5.381 -1.5326 -0.1070  2.2980
 6201SOL     OW30235   3.895   2.775   9.440  0.5933  0.0155  0.0613
 6201SOL    HW130236   3.957   2.720   9.393  0.3248  1.0857 -1.5486
 6201SOL    HW230237   3.882   2.834   9.366 -0.9444  1.3240  1.3761
 6202SOL     OW30238   3.397   0.250   9.001 -0.5528 -0.3438  0.5228
 6202SOL    HW130239   3.323   0.310   8.995 -0.3521 -0.1324  0.1488
 6202SOL    HW230240   3.469   0.302   9.036 -0.2094 -2.4315  2.8994
 6203SOL     OW30241   4.274   1.032   5.640 -0.0459 -0.0847 -0.0443
 6203SOL    HW130242   4.285   0.997   5.552  0.6836  1.6180 -0.6375
 6203SOL    HW230243   4.325   0.975   5.698 -1.2803 -1.4786 -0.3382
 6204SOL     OW30244   2.808   0.114   2.841 -0.2069  0.2611  1.0959
 6204SOL    HW130245   2.814   0.207   2.864 -0.8033  0.7713 -0.8508
 6204SOL    HW230246   2.903   0.109   2.836 -0.0757  1.7827  2.1744
 6205SOL     OW30247   1.132   0.026   7.420  0.2698 -0.2095 -0.1140
 6205SOL    HW130248   1.158   0.115   7.445 -0.0892  0.4034 -1.9496
 6205SOL    HW230249   1.198   4.705   7.460 -0.5530 -0.9300  0.1969
 6206SOL     OW30250   0.895   1.400   6.070  0.4336 -0.1729  0.0181
 6206SOL    HW130251   0.987   1.393   6.046 -0.4308 -0.8128 -2.9971
 6206SOL    HW230252   0.859   1.329   6.017 -0.0421  0.9140 -1.1313
 6207SOL     OW30253   1.280   4.332   3.568  0.1087  0.1039 -0.6662
 6207SOL    HW130254   1.260   4.357   3.658  0.7533 -0.1164 -0.4596
 6207SOL    HW230255   1.228   4.254   3.550 -1.8975  1.0875  0.9438
 6208SOL     OW30256   2.949   3.912   5.041  0.6751  0.3100 -0.2837
 6208SOL    HW130257   3.018   3.908   5.107  0.5954 -0.2438 -0.2343
 6208SOL    HW230258   2.953   3.824   5.003 -0.0816 -0.5273  1.6030
 6209SOL     OW30259   0.820   3.497   8.250  0.0119  0.2052  0.3273
 6209SOL    HW130260   0.873   3.421   8.225 -0.3156  0.2839 -0.6229
 6209SOL    HW230261   0.860   3.523   8.332 -0.5827  0.4824  0.5322
 6210SOL     OW30262   0.988   0.575   8.097 -0.5535  0.1316  0.1719
 6210SOL    HW130263   0.927   0.645   8.121 -1.2298  0.1042 -1.4797
 6210SOL    HW230264   0.949   0.498   8.139  1.5351 -2.6142 -2.9538
 6211SOL     OW30265   0.538   4.218   9.645 -0.2443 -0.3829 -0.0347
 6211SOL    HW130266   0.546   4.295   9.701  0.3280  0.0096 -0.6508
 6211SOL    HW230267   0.444   4.212   9.626  0.4589  0.5563 -3.8452
 6212SOL     OW30268   1.463   1.780   1.535 -0.0030 -0.4516  0.3120
 6212SOL    HW130269   1.431   1.772   1.445 -1.2416  1.7118  0.5548
 6212SOL    HW230270   1.517   1.701   1.532 -1.0538 -1.1455 -0.2609
 6213SOL     OW30271   3.400   0.527   2.975 -0.4416 -0.1767 -0.4071
 6213SOL    HW130272   3.460   0.488   2.912 -1.2857 -2.6531  0.2899
 6213SOL    HW230273   3.363   0.446   3.011  0.8171  0.0484  1.3881
 6214SOL     OW30274   4.553   3.826   2.047 -0.3561  0.4034 -0.8321
 6214SOL    HW130275   4.566   3.921   2.055  1.4789 -0.0702  1.5923
 6214SOL    HW230276   4.624   3.824   1.983  0.5922 -0.6194  0.2743
 6215SOL     OW30277   3.515   2.848   8.876 -0.5455 -0.0418 -0.3061
 6215SOL    HW130278   3.595   2.832   8.825 -1.4896 -0.9131 -1.5198
 6215SOL    HW230279   3.444   2.819   8.819 -0.6022  0.6617 -0.5939
 6216SOL     OW30280   3.863   0.982   3.773  0.2470  0.3372 -0.2754
 6216SOL    HW130281   3.821   1.030   3.702 -1.9482 -0.3687  0.5325
 6216SOL    HW230282   3.940   1.038   3.779 -0.1651  0.9584 -0.7494
 6217SOL     OW30283   4.353   1.556  11.610  0.4622 -0.0356 -0.2997
 6217SOL    HW130284   4.401   1.633  11.639 -3.0658  2.1241 -0.1823
 6217SOL    HW230285   4.282   1.606  11.568 -1.2570 -1.4127  0.9759
 6218SOL     OW30286   2.125   3.415   5.778 -0.4390  0.4376 -0.4062
 6218SOL    HW130287   2.204   3.364   5.793 -1.9928 -1.9593 -0.2267
 6218SOL    HW230288   2.051   3.354   5.784 -2.3631  2.9952  1.7357
 6219SOL     OW30289   1.622   2.329   9.255 -0.5869  0.0582  0.4106
 6219SOL    HW130290   1.585   2.241   9.256  0.8143 -0.5047  3.2924
 6219SOL    HW230291   1.610   2.346   9.349 -0.5748 -0.7143  0.5517
 6220SOL     OW30292   4.331   2.972   8.209 -0.5324 -0.1559 -0.2654
 6220SOL    HW130293   4.253   3.024   8.187  1.2293  1.9013 -1.6403
 6220SOL    HW230294   4.290   2.910   8.269 -0.6505 -0.2681 -0.4613
 6221SOL     OW30295   4.517   4.269   7.720 -0.4999  0.2403  0.0524
 6221SOL    HW130296   4.490   4.240   7.632 -2.7722  1.2228  0.4123
 6221SOL    HW230297   4.600   4.312   7.699 -0.2836  0.4443  1.3461
 6222SOL     OW30298   3.130   1.141   7.067 -0.1282 -0.0390  0.7572
 6222SOL    HW130299   3.211   1.179   7.099 -0.1424  0.9535 -0.3886
 6222SOL    HW230300   3.072   1.157   7.142 -0.4211 -0.4516  0.6212
 6223SOL     OW30301   3.964   3.743  14.517 -0.0214  0.1133  0.2229
 6223SOL    HW130302   3.986   3.835  14.527  0.2129 -0.1167  1.8513
 6223SOL    HW230303   4.003   3.718  14.601  1.9253 -0.1524 -0.7588
 6224SOL     OW30304   2.183   2.791   5.459 -0.4285  0.5036  0.2823
 6224SOL    HW130305   2.100   2.749   5.435 -1.4111  2.6446 -0.1155
 6224SOL    HW230306   2.206   2.725   5.523 -0.7391 -0.0126 -0.1405
 6225SOL     OW30307   3.977   2.660  10.231 -0.0078 -0.2215 -0.2868
 6225SOL    HW130308   4.054   2.707  10.200 -0.8132  0.7616 -0.8013
 6225SOL    HW230309   3.954   2.717  10.305 -0.9621  0.9164 -1.4525
 6226SOL     OW30310   2.922   2.131   7.485  0.5613 -0.1932 -0.0258
 6226SOL    HW130311   2.926   2.209   7.431 -3.4841  2.3165  3.2590
 6226SOL    HW230312   3.011   2.125   7.520  0.3387  1.0398  0.7129
 6227SOL     OW30313   0.652   0.831   6.095 -0.0936  0.7608 -0.2344
 6227SOL    HW130314   0.600   0.758   6.061  2.2710 -0.7880 -0.5684
 6227SOL    HW230315   0.714   0.789   6.154 -0.3122  0.3654 -0.2862
 6228SOL     OW30316   0.240   2.604  15.713  0.3511  0.1913  0.0808
 6228SOL    HW130317   0.183   2.573  15.642  0.5728 -0.1663  0.0619
 6228SOL    HW230318   0.172   2.625  15.778 -0.5499 -0.5366 -0.6248
 6229SOL     OW30319   3.032   0.865  17.468 -0.9228 -0.3361 -0.3480
 6229SOL    HW130320   3.119   0.903  17.478 -1.0423 -0.5012  1.3522
 6229SOL    HW230321   2.989   0.893  17.549 -1.5970 -2.3662 -0.0081
 6230SOL     OW30322   0.893   0.279   3.648  0.3041 -0.3712 -0.0912
 6230SOL    HW130323   0.886   0.310   3.558  4.4090  0.3087 -0.1841
 6230SOL    HW230324   0.822   0.323   3.694 -0.4307 -0.7400 -0.8659
 6231SOL     OW30325   4.292   1.465   8.709 -0.0430  0.5166  0.1953
 6231SOL    HW130326   4.337   1.434   8.788 -1.4660 -0.1388  0.7446
 6231SOL    HW230327   4.202   1.446   8.736 -0.5470  1.9010 -0.5372
 6232SOL     OW30328   0.570   3.780  10.466  0.3754 -0.0844 -0.0813
 6232SOL    HW130329   0.515   3.729  10.407 -0.4294  2.8051 -1.7830
 6232SOL    HW230330   0.614   3.705  10.506 -0.5961 -0.0620  1.0394
 6233SOL     OW30331   0.414   2.972   2.467  0.7411 -0.3224  0.0156
 6233SOL    HW130332   0.457   3.030   2.530  0.0487  0.9063 -0.6510
 6233SOL    HW230333   0.323   2.986   2.494  0.9395 -0.1831  0.6259
 6234SOL     OW30334   2.405   3.675   4.772  0.2322 -0.2944  0.1571
 6234SOL    HW130335   2.448   3.649   4.853 -1.9495  0.6020  1.5939
 6234SOL    HW230336   2.343   3.737   4.809 -0.3039 -0.8530  0.1961
 6235SOL     OW30337   4.023   1.195   2.862 -0.0724 -0.2853  0.1485
 6235SOL    HW130338   4.045   1.104   2.881  1.3362 -0.2885 -1.4997
 6235SOL    HW230339   4.000   1.188   2.769  0.4769 -3.0036  0.2291
 6236SOL     OW30340   3.103   4.240  16.059  0.3331  0.1755  0.2703
 6236SOL    HW130341   3.160   4.302  16.103  0.7955  0.1189 -0.2492
 6236SOL    HW230342   3.029   4.232  16.120  0.5570 -0.9486  0.4066
 6237SOL     OW30343   2.229   4.671   1.881 -0.4741 -0.0013  0.3753
 6237SOL    HW130344   2.162   4.663   1.813 -0.3154  1.0797  0.1040
 6237SOL    HW230345   2.225   0.022   1.919  0.5680 -0.0742  0.6606
 6238SOL     OW30346   0.184   1.414   2.897  0.6448 -0.0035  0.5919
 6238SOL    HW130347   0.162   1.362   2.974  1.1904 -0.5804  0.3493
 6238SOL    HW230348   0.265   1.454   2.927  0.5364  1.0958 -0.5727
 6239SOL     OW30349   3.204   4.359   3.971  0.2507  0.3717  0.4667
 6239SOL    HW130350   3.175   4.451   3.972 -1.1463 -0.0281 -2.4068
 6239SOL    HW230351   3.149   4.316   4.037 -1.5323  0.0455 -1.2297
 6240SOL     OW30352   4.397   0.890  13.703 -0.6505 -0.1456 -0.0731
 6240SOL    HW130353   4.372   0.932  13.620 -2.7906 -0.4109  0.4473
 6240SOL    HW230354   4.386   0.959  13.768  0.2296 -1.9674  1.9898
 6241SOL     OW30355   0.839   0.431   7.858  0.2833  0.1580 -0.4280
 6241SOL    HW130356   0.906   0.472   7.804  0.4328 -0.3951 -0.6551
 6241SOL    HW230357   0.756   0.456   7.817  0.0573 -0.0272 -0.0914
 6242SOL     OW30358   2.778   3.258  14.973 -0.0288  0.2945 -0.3551
 6242SOL    HW130359   2.835   3.335  14.979 -0.6343  0.9348 -2.8424
 6242SOL    HW230360   2.737   3.275  14.889 -0.7814 -0.7130 -0.1919
 6243SOL     OW30361   1.411   1.266   3.741 -0.3536 -0.3736  0.0140
 6243SOL    HW130362   1.441   1.336   3.683 -0.2164  0.6290  1.2808
 6243SOL    HW230363   1.336   1.313   3.778 -2.7045 -2.7193 -1.7893
 6244SOL     OW30364   4.471   1.658   5.965 -0.2231  0.0667 -0.1602
 6244SOL    HW130365   4.554   1.609   5.965  0.4551  1.2177  0.3253
 6244SOL    HW230366   4.420   1.611   5.899 -0.4727  0.4291 -0.2235
 6245SOL     OW30367   4.409   0.647  13.290 -0.2329  0.2047  0.1635
 6245SOL    HW130368   4.340   0.628  13.354 -0.7142  0.0858 -0.3924
 6245SOL    HW230369   4.458   0.718  13.332  1.0610 -0.0217 -0.9732
 6246SOL     OW30370   0.313   2.765   7.695 -0.2795  0.1473  0.1113
 6246SOL    HW130371   0.286   2.775   7.604  0.8789  1.3605 -0.0877
 6246SOL    HW230372   0.251   2.698   7.724 -0.0722  0.1316  0.5145
 6247SOL     OW30373   3.174   2.949   6.218  0.6825 -0.2221  0.1647
 6247SOL    HW130374   3.166   3.002   6.138 -3.3329 -0.7757  0.1888
 6247SOL    HW230375   3.125   3.007   6.275  1.7737  0.3025  0.5609
 6248SOL     OW30376   1.244   1.119   9.471 -0.3020  0.2292  0.4905
 6248SOL    HW130377   1.325   1.108   9.521  0.5089 -3.6275 -1.6626
 6248SOL    HW230378   1.174   1.101   9.535 -0.3541  1.2755  0.7317
 6249SOL     OW30379   3.716   2.731  10.814  0.2010  0.0945 -0.3546
 6249SOL    HW130380   3.794   2.682  10.790  1.0849  0.4837  1.7840
 6249SOL    HW230381   3.747   2.821  10.803  1.2815 -0.2935 -0.4122
 6250SOL     OW30382   1.310   1.348   6.973 -0.0137  0.0993 -0.1610
 6250SOL    HW130383   1.294   1.309   6.887  2.9308 -0.9590 -0.2360
 6250SOL    HW230384   1.242   1.415   6.972 -0.9873 -0.8870 -1.4717
 6251SOL     OW30385   2.362   1.657  11.556  0.2518  0.7432 -0.0844
 6251SOL    HW130386   2.286   1.614  11.595 -0.2234  1.5494 -0.1134
 6251SOL    HW230387   2.397   1.582  11.507  0.9485  1.4476 -0.6689
 6252SOL     OW30388   2.417   0.236   1.473 -0.2126 -0.0624  0.4336
 6252SOL    HW130389   2.512   0.235   1.468 -0.2868  1.0478 -1.1761
 6252SOL    HW230390   2.398   0.165   1.535  0.2436 -0.5783 -0.0268
 6253SOL     OW30391   4.351   2.904   7.916 -0.7304  0.5950 -0.0097
 6253SOL    HW130392   4.330   2.926   8.006  2.0600  0.3685  0.6864
 6253SOL    HW230393   4.441   2.935   7.914  0.0660 -1.6757 -0.0425
 6254SOL     OW30394   1.111   2.986   2.115 -0.4684 -0.2777 -0.4050
 6254SOL    HW130395   1.057   3.046   2.064 -0.8659 -0.7580 -0.5371
 6254SOL    HW230396   1.043   2.964   2.178 -1.9042  0.7133 -1.6311
 6255SOL     OW30397   2.508   2.256   7.547  0.3068 -0.2238 -0.3581
 6255SOL    HW130398   2.548   2.314   7.482 -0.1315  0.6976  0.1970
 6255SOL    HW230399   2.415   2.272   7.529 -0.3413 -1.1595  2.2588
 6256SOL     OW30400   0.314   1.090   9.958 -0.1248 -0.2487  0.3530
 6256SOL    HW130401   0.408   1.096   9.937  0.3317  0.3257  2.6107
 6256SOL    HW230402   0.298   1.183   9.970  0.2528 -0.0461 -0.6459
 6257SOL     OW30403   3.059   4.306   0.550  0.2842 -0.3091  0.3745
 6257SOL    HW130404   3.022   4.243   0.613 -2.3862 -0.1846 -1.0703
 6257SOL    HW230405   3.017   4.385   0.582  1.5006  0.7128 -0.5620
 6258SOL     OW30406   2.116   4.626   6.601  0.5670  0.0617 -0.2941
 6258SOL    HW130407   2.187   4.668   6.553  1.5025 -1.1927 -0.0281
 6258SOL    HW230408   2.111   4.680   6.680  0.4662  2.6143 -2.0492
 6259SOL     OW30409   1.672   3.331   3.821 -0.2065  0.1185 -0.1362
 6259SOL    HW130410   1.677   3.266   3.751  1.2245 -2.4706  2.3491
 6259SOL    HW230411   1.630   3.269   3.881  2.3888 -0.2540  1.3070
 6260SOL     OW30412   3.475   4.117  15.368  0.4168  0.1861 -0.4155
 6260SOL    HW130413   3.410   4.105  15.437  0.2496  0.0511 -0.5989
 6260SOL    HW230414   3.419   4.090  15.295  0.7851  0.4582 -0.8000
 6261SOL     OW30415   1.945   2.007   5.543 -0.0588  0.1656  0.1522
 6261SOL    HW130416   1.962   2.100   5.558 -0.8930 -0.0756  2.5521
 6261SOL    HW230417   1.854   2.008   5.515  0.0488 -0.6609 -0.2280
 6262SOL     OW30418   3.691   2.027   9.193 -0.3990  0.5020  0.1783
 6262SOL    HW130419   3.649   1.997   9.274  0.6712  1.1232  0.9620
 6262SOL    HW230420   3.619   2.067   9.144  0.2957  0.0983 -1.1661
 6263SOL     OW30421   3.873   0.746   1.670  0.0024 -0.2845 -0.7906
 6263SOL    HW130422   3.916   0.830   1.663  1.0635 -0.5968  2.1458
 6263SOL    HW230423   3.787   0.775   1.702  1.1910  0.9940  1.2086
 6264SOL     OW30424   2.139   2.462   2.424  0.0530  0.1233  0.2846
 6264SOL    HW130425   2.061   2.517   2.431  0.0494  0.1532 -0.0008
 6264SOL    HW230426   2.213   2.523   2.429 -1.7095  2.3277 -0.4623
 6265SOL     OW30427   3.815   2.402   0.797  0.2829 -0.0457 -0.0668
 6265SOL    HW130428   3.843   2.445   0.716  2.9173  1.6648  1.7560
 6265SOL    HW230429   3.900   2.382   0.838  1.9717  1.4557 -2.8064
 6266SOL     OW30430   2.799   0.112   3.541 -0.2064  0.1150 -0.5029
 6266SOL    HW130431   2.820   0.113   3.447 -0.4798 -0.5794 -0.5759
 6266SOL    HW230432   2.721   0.057   3.548 -0.3810  0.5803  1.0424
 6267SOL     OW30433   1.282   1.171   2.136 -0.4394 -0.4206 -0.3732
 6267SOL    HW130434   1.297   1.089   2.089 -1.0364 -1.2709  0.9228
 6267SOL    HW230435   1.220   1.158   2.207 -0.2825 -1.6001 -0.4464
 6268SOL     OW30436   0.266   3.661   2.589  0.4039 -0.0518 -0.0847
 6268SOL    HW130437   0.325   3.734   2.609  0.1790  0.5281 -1.6230
 6268SOL    HW230438   0.216   3.697   2.516 -0.1130  1.4637  1.0265
 6269SOL     OW30439   0.431   1.060   7.276  0.2479  0.1502 -0.0703
 6269SOL    HW130440   0.393   0.984   7.319  0.9493  0.1702  0.5990
 6269SOL    HW230441   0.442   1.112   7.356  1.5867 -0.3259  0.0520
 6270SOL     OW30442   3.755   3.900   4.337  0.3969 -0.2182  0.2445
 6270SOL    HW130443   3.746   3.805   4.327  0.0472  0.0377 -1.8954
 6270SOL    HW230444   3.838   3.919   4.293 -0.2179 -0.7406 -1.1570
 6271SOL     OW30445   4.707   0.980  10.348  0.0677  0.8418 -0.8003
 6271SOL    HW130446   4.681   1.063  10.386 -2.7448 -2.2597  4.0994
 6271SOL    HW230447   4.619   0.941  10.344  1.5473 -2.7271  1.2861
 6272SOL     OW30448   4.492   3.693   7.788 -0.0583 -0.3459  0.2887
 6272SOL    HW130449   4.479   3.647   7.871  0.9540 -0.6261  0.2925
 6272SOL    HW230450   4.559   3.760   7.800 -1.1980  0.3318  2.9775
 6273SOL     OW30451   3.581   1.656   5.708 -0.5638 -0.2131  0.5432
 6273SOL    HW130452   3.531   1.593   5.760 -0.0725  1.4646  3.0419
 6273SOL    HW230453   3.588   1.615   5.622  1.2262  0.8337  0.1722
 6274SOL     OW30454   4.693   0.197   4.767  0.1202 -0.3361 -0.2319
 6274SOL    HW130455   0.050   0.201   4.744  0.4647  0.4998  1.3278
 6274SOL    HW230456   4.664   0.123   4.714 -0.6827 -2.1281  2.7268
 6275SOL     OW30457   0.118   0.130   9.692 -0.2657 -0.7213  0.5331
 6275SOL    HW130458   0.175   0.207   9.700 -1.2574 -0.2314  2.9610
 6275SOL    HW230459   0.114   0.133   9.596  0.3993  1.1217  0.5574
 6276SOL     OW30460   4.175   0.432   6.461 -0.0562 -0.4819 -0.0992
 6276SOL    HW130461   4.115   0.418   6.533  0.9849  0.7043  1.0039
 6276SOL    HW230462   4.252   0.399   6.509  1.3045  0.8306 -1.3680
 6277SOL     OW30463   3.986   1.606   3.209 -0.2457  0.3970 -0.0085
 6277SOL    HW130464   3.976   1.514   3.232  0.0311  0.7095  1.3486
 6277SOL    HW230465   4.081   1.615   3.206 -0.1902 -0.6098 -1.5150
 6278SOL     OW30466   0.235   1.457  12.704  0.3555 -0.2996  0.3801
 6278SOL    HW130467   0.141   1.435  12.709 -0.1507  1.1342 -2.6332
 6278SOL    HW230468   0.243   1.540  12.750  0.3498 -1.6311  2.7755
 6279SOL     OW30469   0.737   2.946   1.700 -0.4212  0.1043  0.0678
 6279SOL    HW130470   0.734   3.026   1.648  0.7133  0.9790  1.3417
 6279SOL    HW230471   0.660   2.956   1.756 -0.0707  0.9020  0.4080
 6280SOL     OW30472   4.665   1.071   3.901  0.0592 -0.4865 -0.1254
 6280SOL    HW130473   4.625   1.154   3.928 -2.2323 -1.1271 -1.5151
 6280SOL    HW230474   0.006   1.104   3.855 -0.6410  0.5285 -0.5880
 6281SOL     OW30475   0.249   1.094  15.530 -0.0252  0.6752  0.6140
 6281SOL    HW130476   0.320   1.113  15.592  0.8513  0.8600 -0.4454
 6281SOL    HW230477   0.176   1.129  15.581  1.7981  0.9185  3.0573
 6282SOL     OW30478   1.463   2.038   6.851 -0.5687  0.7636  0.7502
 6282SOL    HW130479   1.506   2.038   6.766 -1.5471  0.6139  0.2607
 6282SOL    HW230480   1.392   1.976   6.834  1.0197 -1.0710  0.8733
 6283SOL     OW30481   4.324   1.495   6.489  0.1518 -0.6270  0.0413
 6283SOL    HW130482   4.361   1.466   6.406 -3.3994 -2.1700 -0.9966
 6283SOL    HW230483   4.399   1.488   6.548  0.2026  1.8485  0.2912
 6284SOL     OW30484   3.839   1.726   9.113 -0.5315 -0.8056  0.4304
 6284SOL    HW130485   3.823   1.654   9.175 -1.5662 -1.9401 -1.1587
 6284SOL    HW230486   3.861   1.799   9.171  1.4426 -0.6969 -0.4499
 6285SOL     OW30487   2.972   1.888   1.065 -0.2329  0.1614 -0.1902
 6285SOL    HW130488   3.060   1.907   1.033  0.7233 -1.7541  1.3341
 6285SOL    HW230489   2.972   1.895   1.161 -1.1371  0.0984 -0.1835
 6286SOL     OW30490   2.543   0.279  11.797 -0.1470  0.3332  0.4239
 6286SOL    HW130491   2.632   0.300  11.825  0.7681 -4.2755  0.9020
 6286SOL    HW230492   2.506   0.366  11.813  1.7953  0.9790  1.3794
 6287SOL     OW30493   1.955   1.285   7.748 -0.1850 -0.0278  0.4194
 6287SOL    HW130494   1.994   1.270   7.834 -1.3088 -2.1180  0.5750
 6287SOL    HW230495   1.925   1.375   7.748 -0.9554 -0.2903  0.7023
 6288SOL     OW30496   1.052   3.334   9.480 -0.1175 -0.0932 -0.4773
 6288SOL    HW130497   1.116   3.349   9.411 -0.1537  1.3745 -0.1749
 6288SOL    HW230498   0.972   3.323   9.428 -0.6017  0.3956  0.1686
 6289SOL     OW30499   1.120   2.782   8.189 -0.2819  0.0994 -0.3901
 6289SOL    HW130500   1.143   2.710   8.248  0.7416  0.2892 -0.5680
 6289SOL    HW230501   1.032   2.745   8.179  0.7277 -2.0506 -1.2628
 6290SOL     OW30502   0.393   2.036   2.425 -0.2967  0.4709  0.7256
 6290SOL    HW130503   0.381   2.125   2.458  0.8813  1.3287 -1.1766
 6290SOL    HW230504   0.357   2.047   2.336  2.1518 -0.8358 -0.4029
 6291SOL     OW30505   1.380   2.656  14.923  0.0547  0.0656  0.3126
 6291SOL    HW130506   1.299   2.659  14.873  0.8033  0.7472 -0.8454
 6291SOL    HW230507   1.347   2.638  15.011  1.8254 -2.2381  0.5296
 6292SOL     OW30508   0.789   4.430   5.860 -0.4879 -0.1973  0.3422
 6292SOL    HW130509   0.705   4.411   5.900  0.2593 -2.6483  0.7687
 6292SOL    HW230510   0.842   4.368   5.909  0.5269 -0.1277 -0.6513
 6293SOL     OW30511   4.720   3.912  10.451 -0.2677  0.3307 -0.2877
 6293SOL    HW130512   0.060   3.966  10.473 -0.6712  0.8398 -0.1535
 6293SOL    HW230513   4.661   3.979  10.416  1.6091  1.7054 -0.8426
 6294SOL     OW30514   0.667   1.784   3.060  0.1083 -0.5866 -0.4979
 6294SOL    HW130515   0.707   1.697   3.061  1.4351 -0.0016 -1.5515
 6294SOL    HW230516   0.696   1.816   2.975  0.2087 -0.1580 -0.3004
 6295SOL     OW30517   0.741   4.719   1.813 -0.4676 -0.3248 -0.1280
 6295SOL    HW130518   0.712   0.047   1.878 -0.3484 -1.3659  0.9474
 6295SOL    HW230519   0.707   0.025   1.734  0.4551 -0.7446 -0.7510
 6296SOL     OW30520   3.607   4.590   5.654  0.0075  0.0131 -0.1522
 6296SOL    HW130521   3.596   4.637   5.571  1.6380 -2.3614 -1.7077
 6296SOL    HW230522   3.570   4.511   5.615  0.3764 -1.6740  2.9240
 6297SOL     OW30523   3.427   3.548   6.471  0.3721  0.2657 -0.1194
 6297SOL    HW130524   3.469   3.634   6.478  0.9140  0.1692 -2.1848
 6297SOL    HW230525   3.371   3.555   6.549  2.0260 -1.6480  1.2330
 6298SOL     OW30526   2.530   4.100   5.157 -0.8058 -0.1695 -0.7203
 6298SOL    HW130527   2.511   4.135   5.070 -1.2768 -1.2155 -1.0381
 6298SOL    HW230528   2.571   4.178   5.195 -1.7325 -0.7029  1.3445
 6299SOL     OW30529   2.984   3.113   4.339 -0.4050 -0.4173 -0.2607
 6299SOL    HW130530   2.996   3.174   4.412 -0.1282 -0.5364 -0.2078
 6299SOL    HW230531   3.054   3.134   4.278 -0.8166 -1.0189 -0.9428
 6300SOL     OW30532   2.765   4.452  17.366 -0.3150 -0.4637 -0.1869
 6300SOL    HW130533   2.695   4.394  17.337 -0.1813 -1.4853  1.4921
 6300SOL    HW230534   2.756   4.446  17.461  0.0420 -0.0045 -0.1262
 6301SOL     OW30535   1.216   1.942   2.598  0.3566  0.2606  0.0453
 6301SOL    HW130536   1.274   2.013   2.571  0.6390  0.0092 -0.0175
 6301SOL    HW230537   1.227   1.880   2.526  0.5362 -1.7621  1.7794
 6302SOL     OW30538   3.899   1.003  14.301 -0.1823  0.5631  0.3309
 6302SOL    HW130539   3.879   1.047  14.384  0.1376  0.9702  0.1915
 6302SOL    HW230540   3.828   1.043  14.252 -1.6588 -1.4767  0.7912
 6303SOL     OW30541   0.968   0.579  14.114 -0.2978  0.0074 -0.2092
 6303SOL    HW130542   1.056   0.551  14.140  0.0259  0.1176 -1.1911
 6303SOL    HW230543   0.975   0.674  14.130 -0.1493  0.0241 -0.3700
 6304SOL     OW30544   4.654   2.574  11.097  0.1948  0.4164 -0.2711
 6304SOL    HW130545   4.733   2.568  11.043 -0.3338 -0.7622 -0.8965
 6304SOL    HW230546   4.693   2.565  11.185  1.1252  1.6187 -0.5637
 6305SOL     OW30547   0.468   1.027   3.166  0.5045  0.2293 -0.5422
 6305SOL    HW130548   0.487   0.947   3.216  0.0577  0.1076 -0.5736
 6305SOL    HW230549   0.412   1.078   3.224  0.1391  0.7033 -1.3203
 6306SOL     OW30550   4.113   4.053   9.614  0.1257 -0.1387  0.3387
 6306SOL    HW130551   4.052   4.106   9.562 -1.0156  1.4963  3.3129
 6306SOL    HW230552   4.156   4.012   9.539 -1.7492  0.4083 -1.0470
 6307SOL     OW30553   0.352   4.587   9.534  0.3878 -0.2988 -0.0155
 6307SOL    HW130554   0.260   4.581   9.559  0.7929 -1.2584  1.2306
 6307SOL    HW230555   0.377   4.678   9.552  2.5834 -0.7519 -0.8017
 6308SOL     OW30556   0.763   0.211  12.813 -0.9627 -0.2845  0.2157
 6308SOL    HW130557   0.680   0.201  12.766  0.3897  1.6968 -2.6088
 6308SOL    HW230558   0.826   0.189  12.744 -0.6652 -1.6334  0.9098
 6309SOL     OW30559   4.475   1.094   7.065  0.7966  0.1949  1.0254
 6309SOL    HW130560   4.569   1.079   7.062  0.9239  1.4860 -1.2634
 6309SOL    HW230561   4.449   1.150   6.992 -0.7060 -1.7765  0.0599
 6310SOL     OW30562   2.019   1.531   7.009  0.3985 -0.0979  0.4508
 6310SOL    HW130563   2.070   1.609   7.033 -0.0453  0.2036  0.4024
 6310SOL    HW230564   2.025   1.484   7.092 -0.1609 -1.3034 -0.1941
 6311SOL     OW30565   4.388   2.070   3.379  0.1942  0.0922 -0.2331
 6311SOL    HW130566   4.364   2.038   3.292  0.8539 -0.8899 -0.0462
 6311SOL    HW230567   4.483   2.065   3.380  0.2374  0.7754 -1.1593
 6312SOL     OW30568   2.066   1.628   6.580 -0.0860  0.2816  0.1349
 6312SOL    HW130569   2.015   1.622   6.661  1.9336  0.6028  1.4306
 6312SOL    HW230570   2.009   1.684   6.528 -0.2197  0.3628  0.3689
 6313SOL     OW30571   0.450   4.358  11.882  0.0014  0.2556  0.0638
 6313SOL    HW130572   0.483   4.407  11.958 -0.5808  1.2145 -0.3074
 6313SOL    HW230573   0.489   4.408  11.811  2.1288  0.4003  1.3247
 6314SOL     OW30574   2.308   4.101   5.307  0.1396 -0.1633 -0.0387
 6314SOL    HW130575   2.377   4.098   5.241  0.7746 -1.9433  0.7047
 6314SOL    HW230576   2.249   4.166   5.269 -1.2928 -1.1217  0.5132
 6315SOL     OW30577   2.876   4.554   6.357 -0.4568  0.5724  0.2986
 6315SOL    HW130578   2.869   4.461   6.336 -1.6305  1.1655 -1.9982
 6315SOL    HW230579   2.799   4.589   6.312 -0.6465 -0.0211  0.1574
 6316SOL     OW30580   0.031   0.349   0.623  0.2153 -0.5873  0.2771
 6316SOL    HW130581   4.721   0.353   0.540 -0.8519  1.8778  1.0147
 6316SOL    HW230582   0.054   0.441   0.628 -4.1245  0.5781 -2.0952
 6317SOL     OW30583   0.272   3.814   4.120 -0.6935 -0.2459  0.2396
 6317SOL    HW130584   0.200   3.862   4.079 -0.5622  1.4880  2.0448
 6317SOL    HW230585   0.314   3.790   4.037 -0.8650  0.0249  0.0735
 6318SOL     OW30586   0.759   3.569   5.766  0.0221 -0.0743 -0.3101
 6318SOL    HW130587   0.731   3.497   5.709 -0.3776 -1.6905  1.9160
 6318SOL    HW230588   0.852   3.588   5.752 -0.2133  0.3301 -1.3415
 6319SOL     OW30589   1.386   3.149   8.346 -0.4949 -0.0922 -0.4541
 6319SOL    HW130590   1.328   3.117   8.415  0.9699 -2.2411 -0.1987
 6319SOL    HW230591   1.346   3.212   8.287  0.8244  1.9668  0.8498
 6320SOL     OW30592   1.244   1.177   7.971 -0.4749  0.0214  0.4465
 6320SOL    HW130593   1.199   1.251   7.931  0.6974  0.8258  0.6185
 6320SOL    HW230594   1.187   1.116   7.924 -0.6956  1.6477 -1.3986
 6321SOL     OW30595   1.233   1.441  12.335 -0.0705 -0.4749  0.0333
 6321SOL    HW130596   1.252   1.365  12.390 -1.9706 -1.5697 -0.8318
 6321SOL    HW230597   1.321   1.477  12.323  0.3539 -1.7818 -0.8708
 6322SOL     OW30598   2.320   0.527   8.326 -0.2848 -0.2051 -0.5858
 6322SOL    HW130599   2.259   0.597   8.352  0.8374  0.7142 -0.4453
 6322SOL    HW230600   2.404   0.568   8.347  0.3755 -0.2393 -3.2188
 6323SOL     OW30601   1.864   1.900   6.892 -0.9467  0.1639  0.3534
 6323SOL    HW130602   1.889   1.813   6.863  4.0680  1.6971  0.0049
 6323SOL    HW230603   1.899   1.951   6.819  0.5686 -1.9190 -0.3696
 6324SOL     OW30604   2.539   0.387  16.964 -0.5578  0.2185 -0.2464
 6324SOL    HW130605   2.466   0.349  17.013 -1.7953  0.7920 -1.6426
 6324SOL    HW230606   2.575   0.319  16.907  0.4813  0.7939 -0.2603
 6325SOL     OW30607   0.999   2.393   9.516 -0.2507 -0.5228  0.0910
 6325SOL    HW130608   0.962   2.357   9.596  3.4695 -1.8520  1.2057
 6325SOL    HW230609   1.001   2.486   9.540  0.3960 -0.2281 -1.0610
 6326SOL     OW30610   0.627   1.784  15.406  0.6742  0.3646  0.7206
 6326SOL    HW130611   0.680   1.705  15.394  0.1265  0.3654 -1.8248
 6326SOL    HW230612   0.541   1.744  15.393  0.9325  0.2717 -0.7153
 6327SOL     OW30613   3.322   0.948  10.580 -0.2123 -0.2617 -1.0299
 6327SOL    HW130614   3.277   0.869  10.548 -1.3694  1.4423 -3.5779
 6327SOL    HW230615   3.348   0.983  10.495  0.9035 -1.4591 -1.1842
 6328SOL     OW30616   3.573   2.831   1.693 -0.0270 -0.2161 -0.1677
 6328SOL    HW130617   3.528   2.815   1.776  0.1385 -0.3319 -0.1006
 6328SOL    HW230618   3.622   2.907   1.723 -0.5476  0.3139 -0.6529
 6329SOL     OW30619   1.224   3.619   3.521 -0.3714  0.6829 -0.4193
 6329SOL    HW130620   1.272   3.577   3.593 -0.2207  0.4154 -0.6760
 6329SOL    HW230621   1.134   3.589   3.529 -0.0454 -0.2364 -0.2332
 6330SOL     OW30622   3.579   3.090   5.879  0.0597 -0.0431  0.3694
 6330SOL    HW130623   3.636   3.132   5.942  0.8977  0.2209 -0.5810
 6330SOL    HW230624   3.643   3.067   5.812  0.8667 -0.5163  1.2983
 6331SOL     OW30625   1.667   4.114   9.272 -0.3179  0.7236 -0.2737
 6331SOL    HW130626   1.612   4.135   9.196 -1.5325  2.7883  1.1737
 6331SOL    HW230627   1.671   4.197   9.318 -1.1678 -0.6963  2.3678
 6332SOL     OW30628   0.631   1.101   8.031  0.0195 -0.0131 -0.1861
 6332SOL    HW130629   0.548   1.070   8.068 -1.4528  2.9479 -1.0076
 6332SOL    HW230630   0.610   1.193   8.016 -1.3583 -0.0989  1.1389
 6333SOL     OW30631   1.271   1.365   5.663  0.2531 -0.4095  0.1912
 6333SOL    HW130632   1.283   1.289   5.606  1.2068  0.0114 -0.1787
 6333SOL    HW230633   1.180   1.378   5.636 -0.4121 -0.6640  2.3851
 6334SOL     OW30634   2.760   2.023   3.065  0.8909  0.0536 -0.0002
 6334SOL    HW130635   2.782   2.056   3.152 -0.0814  1.4368 -0.2693
 6334SOL    HW230636   2.667   2.046   3.063  0.7137 -0.7757 -1.7563
 6335SOL     OW30637   3.777   0.130  11.044 -0.3333  0.1917  0.3839
 6335SOL    HW130638   3.806   0.047  11.082  2.2263  0.2809 -1.3742
 6335SOL    HW230639   3.815   0.186  11.112 -2.0225  1.4689  0.2799
 6336SOL     OW30640   2.285   1.572   4.366 -0.0126 -0.2165  0.3545
 6336SOL    HW130641   2.247   1.485   4.373  0.0082 -0.3101 -0.6843
 6336SOL    HW230642   2.223   1.623   4.313  1.7796  2.2529  0.6290
 6337SOL     OW30643   2.108   2.759   2.641 -0.3190 -0.7426 -0.6922
 6337SOL    HW130644   2.042   2.752   2.572  0.0684  3.2046 -1.4765
 6337SOL    HW230645   2.084   2.842   2.682 -1.6630 -1.4868  0.0082
 6338SOL     OW30646   1.899   2.902   1.877 -0.1316 -0.0785 -0.1616
 6338SOL    HW130647   1.916   2.923   1.786  2.6962 -0.7303  0.2012
 6338SOL    HW230648   1.833   2.966   1.901 -0.3452  0.1560 -1.4178
 6339SOL     OW30649   2.982   1.234   3.675  0.0364  0.1802 -0.6039
 6339SOL    HW130650   3.004   1.324   3.698  1.6318 -0.6363  1.0759
 6339SOL    HW230651   3.057   1.205   3.623  0.3853 -1.5426  0.8668
 6340SOL     OW30652   3.453   4.254   1.544 -0.1196  0.2014  0.3300
 6340SOL    HW130653   3.386   4.269   1.610 -0.8418  1.5937 -0.7090
 6340SOL    HW230654   3.488   4.343   1.532 -0.4563  0.1275 -1.2407
 6341SOL     OW30655   1.562   2.860   8.729  0.6349  0.3402  0.2431
 6341SOL    HW130656   1.593   2.790   8.671  2.0024 -0.0885  1.4704
 6341SOL    HW230657   1.574   2.810   8.810 -1.8411  0.4457  0.6716
 6342SOL     OW30658   1.784   0.211   4.370 -0.3644  0.2545 -0.0637
 6342SOL    HW130659   1.745   0.228   4.456 -1.1005  0.4797 -0.4424
 6342SOL    HW230660   1.706   0.188   4.320  0.5657 -1.5544 -0.6614
 6343SOL     OW30661   1.512   0.345   9.080 -0.4696 -0.5797 -0.1020
 6343SOL    HW130662   1.600   0.352   9.118 -0.1391 -1.7945 -0.6604
 6343SOL    HW230663   1.500   0.432   9.041  0.7983 -1.0550 -1.5573
 6344SOL     OW30664   2.283   2.859  15.043  0.0356 -0.2025  0.1134
 6344SOL    HW130665   2.357   2.844  15.103  0.1831  0.1682  0.0225
 6344SOL    HW230666   2.330   2.892  14.966 -0.3698  2.4185  1.0236
 6345SOL     OW30667   1.091   3.885  14.432  0.1911  0.2543 -0.2881
 6345SOL    HW130668   1.051   3.870  14.346 -1.6381  0.0021  0.6071
 6345SOL    HW230669   1.020   3.861  14.492  0.9482 -2.5296 -0.5141
 6346SOL     OW30670   4.368   4.595   4.621 -0.2890  0.3260 -0.1997
 6346SOL    HW130671   4.359   4.548   4.538  0.3926  0.5709 -0.4162
 6346SOL    HW230672   4.293   4.562   4.670  0.4739 -0.4198  0.4803
 6347SOL     OW30673   0.651   1.195   8.764  0.4638 -0.0058 -0.8252
 6347SOL    HW130674   0.593   1.177   8.839  1.5762 -1.1094 -0.2231
 6347SOL    HW230675   0.733   1.171   8.806  0.1459  1.8727  0.8599
 6348SOL     OW30676   3.829   3.767   7.717 -0.0274 -0.3055 -0.2359
 6348SOL    HW130677   3.805   3.789   7.807 -2.1779  2.2896 -1.4533
 6348SOL    HW230678   3.924   3.774   7.727 -0.0963 -3.1474  2.4352
 6349SOL     OW30679   0.733   0.827   2.995 -0.4073 -0.3140 -0.3419
 6349SOL    HW130680   0.695   0.898   2.943  2.1214  1.0457 -0.3383
 6349SOL    HW230681   0.651   0.799   3.037  0.4094 -1.3730  0.5305
 6350SOL     OW30682   4.316   2.031  10.141 -0.0728  0.0673 -0.2423
 6350SOL    HW130683   4.309   1.942  10.105  0.5738 -0.1227  0.0988
 6350SOL    HW230684   4.316   2.006  10.233 -0.4034 -2.1216 -0.8255
 6351SOL     OW30685   1.623   3.511   6.999 -0.1559  0.1839  0.2419
 6351SOL    HW130686   1.621   3.438   7.060 -2.5412 -0.4330 -0.5888
 6351SOL    HW230687   1.564   3.472   6.934  1.0650 -2.2764  0.6088
 6352SOL     OW30688   4.474   2.626  15.663 -0.0595 -0.1923 -0.0588
 6352SOL    HW130689   4.569   2.616  15.668 -0.0671 -0.2388 -0.0008
 6352SOL    HW230690   4.447   2.558  15.601 -1.5077 -1.0369  1.4728
 6353SOL     OW30691   0.251   4.541  12.760 -0.7339  0.1505  0.1045
 6353SOL    HW130692   0.162   4.573  12.774 -1.1099 -1.7187  2.0020
 6353SOL    HW230693   0.266   4.564  12.668 -0.4032 -0.9859 -0.1275
 6354SOL     OW30694   3.629   0.411   7.408  0.2505 -0.1101  0.2325
 6354SOL    HW130695   3.570   0.411   7.333 -0.5892  0.7302  0.8848
 6354SOL    HW230696   3.719   0.397   7.378  0.4965  2.1552 -0.1226
 6355SOL     OW30697   3.632   0.330   9.386  0.4589 -0.7400  0.5415
 6355SOL    HW130698   3.683   0.340   9.466  0.1782  2.6555  0.2600
 6355SOL    HW230699   3.570   0.267   9.423  0.4346 -0.3322  1.1746
 6356SOL     OW30700   3.414   2.708  11.826  0.0784 -0.3714  0.0565
 6356SOL    HW130701   3.443   2.635  11.771  0.0477 -1.0008  0.8819
 6356SOL    HW230702   3.465   2.683  11.903  1.2661  2.9108  0.3239
 6357SOL     OW30703   0.430   0.550  12.021 -0.5806 -0.5011 -0.1781
 6357SOL    HW130704   0.416   0.497  12.099 -0.7227  0.7939  0.6747
 6357SOL    HW230705   0.511   0.598  12.036 -0.4749 -0.9379  0.6082
 6358SOL     OW30706   0.813   2.763   4.203 -0.4627 -0.1850 -0.2703
 6358SOL    HW130707   0.899   2.736   4.170 -0.6674  0.8554 -1.6809
 6358SOL    HW230708   0.834   2.781   4.294 -1.2062  0.2934 -0.1990
 6359SOL     OW30709   2.433   1.966   1.449  0.4661  0.3771  0.3280
 6359SOL    HW130710   2.365   1.946   1.514 -0.1258  0.8760 -0.1388
 6359SOL    HW230711   2.411   2.053   1.416  0.8494 -0.2425 -1.5568
 6360SOL     OW30712   3.752   1.250   2.538 -0.1803 -0.0852 -0.3767
 6360SOL    HW130713   3.671   1.201   2.547  1.2446 -2.0504  1.6805
 6360SOL    HW230714   3.722   1.338   2.562  1.7851  1.4729 -3.5404
 6361SOL     OW30715   0.133   3.006   2.830  0.5043  0.0842 -0.3673
 6361SOL    HW130716   0.106   2.961   2.750 -2.2659 -0.1262  0.6767
 6361SOL    HW230717   0.045   3.025   2.864  0.2883 -1.1989 -0.1995
 6362SOL     OW30718   0.855   1.946   6.675  0.1127 -0.1998 -0.3904
 6362SOL    HW130719   0.940   1.943   6.631  0.5804 -0.7500  0.5448
 6362SOL    HW230720   0.872   1.969   6.767 -1.8067  0.4584 -0.2020
 6363SOL     OW30721   0.794   2.753   9.788  0.0730 -0.0284  0.3117
 6363SOL    HW130722   0.802   2.666   9.748 -0.4928 -0.0227  0.1857
 6363SOL    HW230723   0.761   2.731   9.875 -1.6263 -2.3753 -0.9080
 6364SOL     OW30724   0.037   3.745   9.931 -0.0795  0.3206 -0.1708
 6364SOL    HW130725   0.014   3.838   9.935  0.8112  0.5007  0.6859
 6364SOL    HW230726   4.706   3.705   9.876  1.2387 -1.1077 -0.7416
 6365SOL     OW30727   3.881   4.729   1.616 -0.1177 -0.0325  0.5169
 6365SOL    HW130728   3.911   0.084   1.623 -1.4044  0.4481 -0.2440
 6365SOL    HW230729   3.963   4.685   1.592 -1.8951 -2.0903 -1.7666
 6366SOL     OW30730   0.097   3.018  11.536 -0.4619 -0.3637  0.5409
 6366SOL    HW130731   0.167   3.057  11.485  1.5788 -2.3384  1.8512
 6366SOL    HW230732   0.119   3.046  11.625 -0.0311  0.2841  0.2295
 6367SOL     OW30733   4.467   2.567   6.000  0.5845  0.1812  0.0652
 6367SOL    HW130734   4.539   2.560   5.938 -0.5308  2.1106 -1.4454
 6367SOL    HW230735   4.402   2.624   5.959 -0.7362 -0.0452  1.8431
 6368SOL     OW30736   1.954   3.256  17.374 -0.4274 -0.1281 -0.1524
 6368SOL    HW130737   1.923   3.256  17.283  1.3725 -0.6679 -0.7643
 6368SOL    HW230738   2.002   3.174  17.382  2.7511  1.6539 -0.9329
 6369SOL     OW30739   0.702   2.937  13.204  0.5740  0.0931  0.3740
 6369SOL    HW130740   0.699   2.869  13.138  0.7969 -0.9773  1.4739
 6369SOL    HW230741   0.792   2.929  13.237  0.5907 -0.6035  0.1471
 6370SOL     OW30742   2.968   0.926  17.742  0.8905 -0.1285  0.3486
 6370SOL    HW130743   3.024   0.944   0.074  1.2408 -3.0640  0.7719
 6370SOL    HW230744   2.949   1.017  17.721  1.8065 -0.0979 -0.3449
 6371SOL     OW30745   4.010   1.556   3.631 -0.4875  0.4307 -0.0762
 6371SOL    HW130746   3.920   1.586   3.616 -1.0609 -0.0229  2.3844
 6371SOL    HW230747   4.056   1.636   3.604  0.1819  0.8334  2.2687
 6372SOL     OW30748   1.466   3.037  15.464  0.0702 -0.0842 -0.7367
 6372SOL    HW130749   1.399   3.048  15.396 -1.9117 -0.2677  1.1865
 6372SOL    HW230750   1.538   3.005  15.409  0.3459 -0.6550 -0.0437
 6373SOL     OW30751   0.037   0.231   2.266  0.3024 -0.3958  0.0033
 6373SOL    HW130752   0.112   0.182   2.233  1.0584  0.9460 -0.2838
 6373SOL    HW230753   0.005   0.169   2.331  0.9417  0.1147  0.8197
 6374SOL     OW30754   3.019   1.284  13.785 -0.5929  0.0736 -0.4579
 6374SOL    HW130755   3.089   1.220  13.775 -0.1653  0.2674  1.3290
 6374SOL    HW230756   2.937   1.234  13.787 -0.0980 -0.8017 -2.5686
 6375SOL     OW30757   1.462   4.161   4.653 -0.2442  0.6613 -0.2170
 6375SOL    HW130758   1.504   4.231   4.603  0.5879  0.3347  0.0211
 6375SOL    HW230759   1.390   4.143   4.594 -0.1024 -1.3625  0.2284
 6376SOL     OW30760   2.722   2.192   0.154 -0.4020  0.2935 -0.7110
 6376SOL    HW130761   2.714   2.264   0.091 -0.8486  1.7910  1.0606
 6376SOL    HW230762   2.788   2.227   0.214 -1.0512  1.6995 -0.8186
 6377SOL     OW30763   0.073   2.975  14.622  0.2789 -0.6658  0.4223
 6377SOL    HW130764   0.085   3.068  14.637 -1.4466 -0.2819 -0.5699
 6377SOL    HW230765   0.164   2.945  14.618  0.4205 -0.1670 -0.0282
 6378SOL     OW30766   1.533   3.556  12.612  0.5464 -0.2465 -0.8075
 6378SOL    HW130767   1.573   3.473  12.637 -1.2229 -1.6242 -2.5496
 6378SOL    HW230768   1.602   3.613  12.578  0.6887 -0.4690 -0.8945
 6379SOL     OW30769   0.345   3.803  11.732  0.4703 -0.4340  0.3064
 6379SOL    HW130770   0.389   3.888  11.734 -0.3829  0.0292 -0.4353
 6379SOL    HW230771   0.251   3.823  11.722  0.3358 -0.8816  0.6764
 6380SOL     OW30772   4.122   2.388   5.762  0.5841  0.4054  0.0074
 6380SOL    HW130773   4.086   2.307   5.798 -0.0302  0.8613  0.4060
 6380SOL    HW230774   4.153   2.435   5.840  0.7775  3.0767 -1.6795
 6381SOL     OW30775   2.571   1.874   3.598 -0.5657 -0.3959 -0.3414
 6381SOL    HW130776   2.531   1.895   3.682 -0.8359  0.6079 -0.7212
 6381SOL    HW230777   2.522   1.925   3.534  0.4720  1.6881  0.5462
 6382SOL     OW30778   3.560   1.807   7.574 -0.1165  0.2108 -0.7405
 6382SOL    HW130779   3.559   1.858   7.494  0.7367  0.1890 -0.7665
 6382SOL    HW230780   3.526   1.722   7.546  0.5206  0.0191 -0.9447
 6383SOL     OW30781   0.252   0.032   7.772  0.1561 -0.0712 -0.1742
 6383SOL    HW130782   0.315   0.068   7.835  0.2380 -0.6199  0.0570
 6383SOL    HW230783   0.165   0.049   7.808 -0.2858 -1.3308 -0.6449
 6384SOL     OW30784   1.941   0.167   7.651 -1.2037  0.6455 -0.2811
 6384SOL    HW130785   1.993   0.218   7.590  0.6207 -1.2056 -0.2655
 6384SOL    HW230786   1.850   0.184   7.626 -1.2171 -1.8772 -1.8997
 6385SOL     OW30787   0.940   1.292   4.986 -0.1994 -0.4632 -0.3954
 6385SOL    HW130788   0.845   1.298   5.000 -0.0094 -2.6869  1.7616
 6385SOL    HW230789   0.974   1.375   4.953  1.0129 -1.2001 -1.0100
 6386SOL     OW30790   3.494   1.723   2.643 -0.3516  0.9421 -0.0846
 6386SOL    HW130791   3.481   1.639   2.598 -0.2152 -0.5810  2.6607
 6386SOL    HW230792   3.580   1.741   2.606 -0.3536  2.1339  0.4802
 6387SOL     OW30793   3.558   3.560   6.813  0.3658 -0.1389  0.4171
 6387SOL    HW130794   3.521   3.499   6.749 -3.0162  1.9213  0.3622
 6387SOL    HW230795   3.540   3.513   6.895 -0.8222  1.4595  1.0835
 6388SOL     OW30796   3.902   1.395   7.663 -0.6690  0.2400  0.5301
 6388SOL    HW130797   3.907   1.353   7.749 -3.3144  1.4424  1.2610
 6388SOL    HW230798   3.885   1.323   7.602  0.5963 -1.8710  2.6413
 6389SOL     OW30799   4.666   4.337  14.617 -0.5736  0.2928  0.2067
 6389SOL    HW130800   0.022   4.318  14.634 -0.0917  0.7639 -2.0120
 6389SOL    HW230801   4.662   4.381  14.533  0.5255 -0.6150 -0.3173
 6390SOL     OW30802   0.038   2.713  11.891 -0.0946  0.6547 -0.2236
 6390SOL    HW130803   0.020   2.647  11.958  0.6479  0.6338 -0.0537
 6390SOL    HW230804   0.051   2.791  11.945  1.4023 -0.6418  1.2869
 6391SOL     OW30805   4.383   3.083   3.357  0.3369  0.0404 -0.0875
 6391SOL    HW130806   4.461   3.038   3.391 -0.2842  0.1071  1.4255
 6391SOL    HW230807   4.355   3.128   3.436  0.9989 -1.0204  0.7547
 6392SOL     OW30808   3.360   2.535   4.972 -0.3677  0.2746  0.2919
 6392SOL    HW130809   3.307   2.602   5.015  1.6537 -0.2077  3.5957
 6392SOL    HW230810   3.449   2.569   4.969  0.2246 -1.3418 -0.4773
 6393SOL     OW30811   3.197   3.613   7.334 -0.2156  0.1328 -0.3483
 6393SOL    HW130812   3.172   3.610   7.241 -1.0732 -0.3520 -0.1052
 6393SOL    HW230813   3.200   3.519   7.355  0.0564  0.1972 -0.1168
 6394SOL     OW30814   4.529   3.211   1.949 -0.5621 -0.1749 -0.6487
 6394SOL    HW130815   4.556   3.183   1.862  1.0792  0.1958 -0.2527
 6394SOL    HW230816   4.614   3.226   1.991  0.4199  1.1652 -3.1525
 6395SOL     OW30817   1.316   1.395   0.421  0.5139  0.1826  0.0233
 6395SOL    HW130818   1.373   1.362   0.351 -0.1482 -1.7033  0.3752
 6395SOL    HW230819   1.329   1.489   0.408  0.0135  0.0384 -1.6153
 6396SOL     OW30820   2.144   2.544   8.232 -0.0390  0.1578  0.2748
 6396SOL    HW130821   2.240   2.551   8.238 -0.1249  0.9407  0.7383
 6396SOL    HW230822   2.122   2.565   8.141 -0.7925  1.2844  0.7176
 6397SOL     OW30823   3.483   3.701   9.450  0.7179  0.0953  0.1457
 6397SOL    HW130824   3.502   3.681   9.542  0.0572  2.6580  0.8204
 6397SOL    HW230825   3.449   3.790   9.455  0.6307  0.1755 -1.8236
 6398SOL     OW30826   3.634   3.540   1.016 -0.1208  0.7307  0.2345
 6398SOL    HW130827   3.723   3.566   1.041  0.0538  1.3697 -1.0785
 6398SOL    HW230828   3.647   3.555   0.923 -0.7026 -1.7861 -0.2537
 6399SOL     OW30829   1.370   1.120  15.367 -0.5323 -0.3522 -0.6110
 6399SOL    HW130830   1.298   1.180  15.387  0.3832  0.4828  0.2063
 6399SOL    HW230831   1.377   1.073  15.449 -2.5809  1.5254  0.6381
 6400SOL     OW30832   3.561   2.013   8.420 -0.4615  0.0157 -0.3131
 6400SOL    HW130833   3.544   1.923   8.449  0.7572 -0.0988  0.0399
 6400SOL    HW230834   3.588   1.993   8.330 -0.3632  1.3919 -0.5821
 6401SOL     OW30835   1.130   2.468   5.286 -0.0649 -0.5370 -0.1479
 6401SOL    HW130836   1.044   2.493   5.250  0.5360 -1.0724 -1.9504
 6401SOL    HW230837   1.098   2.421   5.363 -2.1229  0.2621 -0.4978
 6402SOL     OW30838   1.990   0.426  12.222  0.0488 -0.3739 -0.6567
 6402SOL    HW130839   2.036   0.426  12.306  0.6436  2.5599 -0.9715
 6402SOL    HW230840   1.898   0.433  12.247  0.2725  0.3109 -0.0286
 6403SOL     OW30841   0.213   1.482   2.155 -0.0534  0.0376  0.0095
 6403SOL    HW130842   0.209   1.432   2.237  2.7327  0.1749  0.2573
 6403SOL    HW230843   0.153   1.555   2.168  0.2696 -0.0671  2.2242
 6404SOL     OW30844   3.434   1.996  13.635 -0.0967 -0.1673 -0.1756
 6404SOL    HW130845   3.343   2.027  13.631 -0.1094 -0.3682 -1.4075
 6404SOL    HW230846   3.470   2.039  13.712 -0.2036 -0.0089 -0.2147
 6405SOL     OW30847   0.131   4.431  13.465 -0.1668 -0.0734  0.1131
 6405SOL    HW130848   0.115   4.451  13.372 -4.1147 -0.4086  0.7421
 6405SOL    HW230849   0.224   4.452  13.461  0.0607 -1.0456  0.6558
 6406SOL     OW30850   3.096   0.690   7.889  0.0875 -0.4690 -0.0823
 6406SOL    HW130851   3.116   0.597   7.879  0.7716 -0.2226 -1.0162
 6406SOL    HW230852   3.109   0.726   7.801  0.2292  2.6219  1.1699
 6407SOL     OW30853   0.852   3.376   7.782  0.3154  0.3472 -0.0768
 6407SOL    HW130854   0.871   3.412   7.695 -1.3865  0.6634 -0.3257
 6407SOL    HW230855   0.926   3.407   7.834  2.2271 -2.1684 -1.3343
 6408SOL     OW30856   0.170   1.309  14.377 -0.2417  0.5673 -0.3000
 6408SOL    HW130857   0.235   1.248  14.413 -0.5077 -0.4131 -1.4690
 6408SOL    HW230858   0.095   1.271  14.422  0.1198  1.0739  0.7397
 6409SOL     OW30859   1.668   1.057  15.579  0.0610 -0.1561  0.1243
 6409SOL    HW130860   1.620   0.975  15.592 -0.6976  0.1300 -0.8754
 6409SOL    HW230861   1.720   1.038  15.500  3.3806  2.3005  1.7156
 6410SOL     OW30862   2.224   2.178  12.353 -0.9317 -0.3650 -0.2105
 6410SOL    HW130863   2.172   2.182  12.433 -0.1510  1.2717  0.2090
 6410SOL    HW230864   2.206   2.088  12.328 -2.2122  0.1614 -1.2060
 6411SOL     OW30865   3.732   0.052   6.399 -0.2141 -0.5679 -0.0383
 6411SOL    HW130866   3.650   0.093   6.426 -0.5018 -0.1503 -1.5587
 6411SOL    HW230867   3.765   0.040   6.488  0.3763 -0.5048 -0.2448
 6412SOL     OW30868   3.538   3.522   2.566 -0.1464  0.1218 -0.5152
 6412SOL    HW130869   3.549   3.503   2.473  0.2419 -0.5735 -0.3292
 6412SOL    HW230870   3.617   3.482   2.602  0.1524  0.9435 -0.2669
 6413SOL     OW30871   1.582   2.798   2.108 -0.5244 -0.2251 -0.3238
 6413SOL    HW130872   1.581   2.758   2.022 -1.8848 -2.7367  0.8556
 6413SOL    HW230873   1.498   2.842   2.095 -0.4164 -0.3147 -1.2597
 6414SOL     OW30874   3.735   1.512   9.226 -0.4495  0.1754  0.6219
 6414SOL    HW130875   3.717   1.435   9.281 -1.2279  0.3698  0.6376
 6414SOL    HW230876   3.750   1.466   9.144 -0.6693 -1.1506  1.3230
 6415SOL     OW30877   3.574   2.991   6.427  1.4020 -0.4051  0.1962
 6415SOL    HW130878   3.531   2.992   6.341 -0.1247  0.6425  0.9745
 6415SOL    HW230879   3.511   3.053   6.463  0.9466 -0.2030 -0.9423
 6416SOL     OW30880   1.621   2.116   9.760 -0.3182 -0.0973 -0.3533
 6416SOL    HW130881   1.570   2.130   9.840  1.9693  0.0674  1.0960
 6416SOL    HW230882   1.592   2.030   9.731 -0.6467 -0.1083  0.0126
 6417SOL     OW30883   4.349   2.775  16.272 -0.2628 -0.2029 -0.0646
 6417SOL    HW130884   4.390   2.697  16.310  0.1923  0.3205  0.5182
 6417SOL    HW230885   4.393   2.776  16.187  0.6249 -2.1110  0.3687
 6418SOL     OW30886   2.025   1.343   1.819  0.2628 -1.0120  0.3169
 6418SOL    HW130887   2.031   1.404   1.893  1.5615 -0.2767 -0.3906
 6418SOL    HW230888   2.003   1.260   1.861 -3.2899  0.0721  0.5825
 6419SOL     OW30889   4.583   1.943   3.959 -0.2471  0.0850  0.2987
 6419SOL    HW130890   4.566   2.024   3.913  1.3954 -0.9035 -2.0469
 6419SOL    HW230891   4.579   1.976   4.049 -0.5302 -1.5409  0.8924
 6420SOL     OW30892   2.543   4.054   6.069 -0.0922  0.4854  0.2524
 6420SOL    HW130893   2.571   4.049   5.977 -1.3473  0.1715 -0.1102
 6420SOL    HW230894   2.453   4.028   6.049  0.4501 -0.8832 -0.4676
 6421SOL     OW30895   2.873   1.760   7.093 -0.1407  0.2897 -0.4834
 6421SOL    HW130896   2.804   1.767   7.028  1.2985  0.8084 -1.9457
 6421SOL    HW230897   2.822   1.732   7.170 -0.7059 -0.4769 -1.1337
 6422SOL     OW30898   2.657   0.952   3.180 -0.9474 -0.1594 -0.3402
 6422SOL    HW130899   2.578   0.944   3.234 -0.5829 -0.5386  0.1331
 6422SOL    HW230900   2.657   1.048   3.170 -3.4988 -0.0967  0.0300
 6423SOL     OW30901   1.737   0.594   5.221  0.3897 -0.3267 -0.0904
 6423SOL    HW130902   1.818   0.558   5.257  0.5653  1.3881  1.1827
 6423SOL    HW230903   1.695   0.644   5.290  1.0357  0.9755 -0.6522
 6424SOL     OW30904   1.449   0.010   3.260 -0.7785  0.2010 -0.1966
 6424SOL    HW130905   1.522   4.687   3.242  0.6643  1.3335  1.9059
 6424SOL    HW230906   1.406   4.698   3.330  0.7122  1.6646  1.7436
 6425SOL     OW30907   2.127   3.834   8.471  0.3597 -0.3476  0.4541
 6425SOL    HW130908   2.168   3.846   8.385  0.0792  0.3225  0.4169
 6425SOL    HW230909   2.120   3.919   8.513 -0.8670 -0.1275 -0.1710
 6426SOL     OW30910   3.826   4.421   2.918 -0.0660  0.0453 -0.5760
 6426SOL    HW130911   3.742   4.466   2.915 -1.0904 -1.7843  0.5008
 6426SOL    HW230912   3.811   4.364   2.993  0.0185 -0.1280 -0.6901
 6427SOL     OW30913   1.594   3.397  13.119  0.0149 -0.3084 -0.7035
 6427SOL    HW130914   1.521   3.428  13.172 -0.7516 -1.8811 -0.8457
 6427SOL    HW230915   1.569   3.437  13.036 -1.6825 -0.5509 -0.3036
 6428SOL     OW30916   3.785   2.193  13.888  0.3991  0.8834  0.5591
 6428SOL    HW130917   3.868   2.181  13.842  0.5003 -0.3881  1.0825
 6428SOL    HW230918   3.825   2.220  13.970  1.0753  4.6042 -1.0076
 6429SOL     OW30919   2.665   3.005   2.556 -0.1773  0.5220 -0.4213
 6429SOL    HW130920   2.636   3.015   2.465 -0.0038 -0.2825 -0.5658
 6429SOL    HW230921   2.759   3.000   2.540 -0.2166  1.1240 -0.8275
 6430SOL     OW30922   4.311   0.013   9.196  0.0073 -0.7195 -0.5931
 6430SOL    HW130923   4.221   0.019   9.225  0.8547  0.7145  1.7469
 6430SOL    HW230924   4.309   0.058   9.111  2.0204  1.7322  0.6651
 6431SOL     OW30925   3.263   3.323  15.127  0.4126 -0.0629  0.4774
 6431SOL    HW130926   3.292   3.248  15.075 -1.6739 -0.9075  0.5734
 6431SOL    HW230927   3.240   3.270  15.203  1.6369 -0.4433  0.5801
 6432SOL     OW30928   1.832   4.021   9.681  0.4556  0.0692  0.1393
 6432SOL    HW130929   1.850   4.004   9.589 -0.0999  0.3463 -0.0156
 6432SOL    HW230930   1.754   4.076   9.686  0.4597  0.1552 -0.9613
 6433SOL     OW30931   3.844   2.263   2.015 -0.1390  0.0575  0.3400
 6433SOL    HW130932   3.918   2.312   2.051 -1.6356  0.8951  2.2517
 6433SOL    HW230933   3.882   2.233   1.932 -0.9613  0.7184 -0.2848
 6434SOL     OW30934   1.572   2.131  11.323  0.2047  0.1911  0.0256
 6434SOL    HW130935   1.619   2.182  11.389  0.0136  2.4246 -1.5385
 6434SOL    HW230936   1.557   2.053  11.376  1.4646 -0.3736 -0.4336
 6435SOL     OW30937   4.006   2.501   3.588  0.1078 -0.0007  0.0696
 6435SOL    HW130938   4.017   2.515   3.682 -0.7141 -0.2387  0.1973
 6435SOL    HW230939   3.947   2.427   3.577 -0.8730  0.6214  1.0601
 6436SOL     OW30940   0.308   4.277   3.861  0.6187  0.3635 -0.2504
 6436SOL    HW130941   0.398   4.246   3.849  0.8741  1.1681 -0.4701
 6436SOL    HW230942   0.292   4.249   3.951  0.8747  2.3104  0.4059
 6437SOL     OW30943   1.687   1.292   1.087 -0.0803  0.2317  0.3375
 6437SOL    HW130944   1.740   1.245   1.023 -1.5350 -0.9026 -0.0376
 6437SOL    HW230945   1.610   1.237   1.102 -0.8021  1.1017 -0.1453
 6438SOL     OW30946   3.040   3.288   4.547 -0.5021 -0.1540 -0.7424
 6438SOL    HW130947   3.082   3.359   4.498 -3.7664  0.5083 -2.5942
 6438SOL    HW230948   3.060   3.300   4.639  1.9704 -0.0980 -1.2741
 6439SOL     OW30949   1.786   0.811   1.879  0.3006  0.1957  0.5909
 6439SOL    HW130950   1.777   0.731   1.827  2.4142 -0.3393  1.0655
 6439SOL    HW230951   1.722   0.789   1.946  1.2200 -3.4441  0.3229
 6440SOL     OW30952   0.998   3.153   1.178  0.2716  0.5546 -0.1625
 6440SOL    HW130953   1.086   3.130   1.208  0.1917  0.5688  0.0767
 6440SOL    HW230954   1.003   3.113   1.091 -2.0140  1.8405 -0.8607
 6441SOL     OW30955   1.699   2.054   5.771 -0.3467  0.1829 -0.0667
 6441SOL    HW130956   1.671   1.976   5.724  1.5298 -0.5987  0.1327
 6441SOL    HW230957   1.645   2.037   5.849 -0.6448  1.4923  0.0117
 6442SOL     OW30958   2.562   3.231  11.084  0.0328 -0.1418  0.1211
 6442SOL    HW130959   2.553   3.162  11.018  1.2267 -0.9989  0.8634
 6442SOL    HW230960   2.653   3.255  11.066 -0.7385  1.4325 -1.6541
 6443SOL     OW30961   0.157   1.528  13.007 -0.1234  0.2436  0.1677
 6443SOL    HW130962   0.208   1.587  12.952  0.8963 -1.5791 -0.8387
 6443SOL    HW230963   0.122   1.457  12.953  2.0085 -1.6556  1.2932
 6444SOL     OW30964   2.390   0.513   7.287  0.3607  0.0570  0.5385
 6444SOL    HW130965   2.326   0.579   7.258 -0.0726 -0.0449  1.2573
 6444SOL    HW230966   2.341   0.438   7.252  0.7704 -1.0463  2.2973
 6445SOL     OW30967   2.732   0.377   1.684 -0.1830  0.4773  0.0927
 6445SOL    HW130968   2.733   0.342   1.595 -2.5489 -2.6217  1.3046
 6445SOL    HW230969   2.812   0.430   1.676  0.3945  0.0265  2.9414
 6446SOL     OW30970   0.218   3.354   2.924 -0.2022 -0.2724 -0.0595
 6446SOL    HW130971   0.145   3.376   2.866 -0.1021  2.7935  0.9905
 6446SOL    HW230972   0.271   3.308   2.858  0.7898 -0.8660  1.1392
 6447SOL     OW30973   3.399   4.127   8.199  0.6275  0.2919 -0.1901
 6447SOL    HW130974   3.348   4.099   8.275  2.8796  3.5890  2.5693
 6447SOL    HW230975   3.324   4.159   8.148  0.5828  2.1444  1.0336
 6448SOL     OW30976   3.789   0.323  10.820  1.0587  0.0266 -0.6335
 6448SOL    HW130977   3.739   0.289  10.894  2.2991 -0.7523 -0.1496
 6448SOL    HW230978   3.866   0.268  10.830  2.1638  1.5970 -0.5537
 6449SOL     OW30979   4.474   0.042   7.920 -0.1602  0.7880 -0.3481
 6449SOL    HW130980   4.379   0.055   7.911 -0.6574 -1.6667  1.5604
 6449SOL    HW230981   4.481   4.710   7.853 -1.2982  0.9355 -0.6297
 6450SOL     OW30982   0.687   4.324  17.310  0.4280 -0.5605  0.8574
 6450SOL    HW130983   0.618   4.388  17.324  0.7294  0.5189 -2.5188
 6450SOL    HW230984   0.663   4.238  17.345 -1.6706  0.0259  0.8609
 6451SOL     OW30985   4.639   2.256   3.572  0.4290  0.6326  0.5776
 6451SOL    HW130986   4.722   2.304   3.563  1.0130 -0.0566  2.3446
 6451SOL    HW230987   4.667   2.169   3.544  0.1080  0.3438  1.1606
 6452SOL     OW30988   4.579   2.701  13.311  0.1200  0.4500  0.2286
 6452SOL    HW130989   4.528   2.679  13.389  0.9964 -0.9088  0.4111
 6452SOL    HW230990   4.507   2.734  13.257  1.1981 -0.2581 -1.6291
 6453SOL     OW30991   0.423   3.512   0.259 -0.3182  0.1429  0.0403
 6453SOL    HW130992   0.464   3.506   0.345 -1.9191  0.1419  0.7923
 6453SOL    HW230993   0.458   3.438   0.209  0.6812 -0.6930  1.9858
 6454SOL     OW30994   2.171   1.909   3.023  0.1462  0.7456  0.3509
 6454SOL    HW130995   2.194   1.825   3.064  1.5395  0.8059 -0.2924
 6454SOL    HW230996   2.140   1.875   2.939 -1.0367  0.2200  1.0082
 6455SOL     OW30997   3.946   2.497   9.824  0.6066  1.3581 -0.4220
 6455SOL    HW130998   3.980   2.407   9.818  2.5240  2.1095 -0.6912
 6455SOL    HW230999   3.901   2.506   9.740 -1.5247  1.1486  0.6947
 6456SOL     OW31000   0.351   1.554  10.751  0.1156 -0.4122 -0.7782
 6456SOL    HW131001   0.416   1.491  10.720  0.0222 -0.5673 -0.6561
 6456SOL    HW231002   0.275   1.516  10.707 -0.5327  1.1417 -1.0036
 6457SOL     OW31003   2.143   1.527   2.893 -0.4557 -0.0020 -0.4989
 6457SOL    HW131004   2.175   1.451   2.844  2.2624  1.5512 -1.1548
 6457SOL    HW231005   2.219   1.554   2.946  0.9693 -1.4105 -1.8283
 6458SOL     OW31006   3.313   3.282  17.088  0.0494  0.1144 -0.4288
 6458SOL    HW131007   3.259   3.203  17.092 -0.0958  0.2756  0.7407
 6458SOL    HW231008   3.350   3.271  17.000  0.9597  2.5842 -0.3499
 6459SOL     OW31009   1.253   1.391   8.154  0.2532  0.6779  0.5491
 6459SOL    HW131010   1.164   1.410   8.124  0.7173  1.4550 -0.3546
 6459SOL    HW231011   1.270   1.310   8.106 -0.3516  1.3035 -0.7260
 6460SOL     OW31012   1.480   3.180   4.335 -0.1651 -0.2059  0.3597
 6460SOL    HW131013   1.436   3.265   4.344  0.7794  0.3054  0.0356
 6460SOL    HW231014   1.498   3.163   4.427  0.3528  0.9643  0.4705
 6461SOL     OW31015   3.374   3.585   0.482 -0.3058 -0.8540 -0.1990
 6461SOL    HW131016   3.408   3.625   0.402 -0.4043  0.3327  0.3574
 6461SOL    HW231017   3.457   3.546   0.510 -0.2829 -1.9423 -1.8228
 6462SOL     OW31018   3.744   0.217   4.267 -0.2709 -1.1203  0.3505
 6462SOL    HW131019   3.686   0.149   4.231  0.7708 -0.3697 -2.7832
 6462SOL    HW231020   3.810   0.159   4.306  2.0752  0.0076 -1.9431
 6463SOL     OW31021   4.246   1.310  15.096 -0.2205 -0.4064 -0.0286
 6463SOL    HW131022   4.165   1.354  15.069  0.0675 -0.5386 -1.1250
 6463SOL    HW231023   4.294   1.303  15.013 -0.2346 -0.1389 -0.0587
 6464SOL     OW31024   2.735   1.193   2.630  0.2541  0.1398  0.4086
 6464SOL    HW131025   2.748   1.212   2.723 -2.2928  0.5802  0.6864
 6464SOL    HW231026   2.640   1.189   2.617  0.1322  0.2476  1.3074
 6465SOL     OW31027   4.698   3.638  12.543 -0.1363  0.3933  0.0653
 6465SOL    HW131028   0.013   3.717  12.562  0.0151  0.0554  1.0871
 6465SOL    HW231029   4.635   3.633  12.614 -0.6493 -0.7265 -0.4647
 6466SOL     OW31030   0.041   3.688   7.491  0.1250  0.7191 -0.3956
 6466SOL    HW131031   0.132   3.717   7.482  0.4162  0.4605  1.6585
 6466SOL    HW231032   0.058   3.626   7.562 -0.4339  1.6880  0.5887
 6467SOL     OW31033   1.219   2.564   2.374 -0.5773 -0.2437  0.2849
 6467SOL    HW131034   1.237   2.471   2.388 -1.6738  0.0931  3.7653
 6467SOL    HW231035   1.139   2.565   2.323  0.5497 -0.3882 -1.5035
 6468SOL     OW31036   2.473   2.916   8.639 -0.5395 -0.3161  0.0788
 6468SOL    HW131037   2.378   2.901   8.644 -0.4921 -0.4385  0.5770
 6468SOL    HW231038   2.468   2.950   8.549 -0.5336  1.5753  0.7901
 6469SOL     OW31039   0.721   0.304   6.623 -0.5360  0.0348 -0.0652
 6469SOL    HW131040   0.687   0.219   6.597 -0.3228 -1.0544  3.2331
 6469SOL    HW231041   0.706   0.308   6.717 -2.3525 -0.3813 -0.3497
 6470SOL     OW31042   0.332   0.080   8.839  0.6588  0.5585 -0.6387
 6470SOL    HW131043   0.425   0.069   8.860  0.2267 -0.3499  0.8571
 6470SOL    HW231044   0.334   0.119   8.752 -1.2714  1.8186 -0.1221
 6471SOL     OW31045   1.089   1.472   2.655 -0.4502  0.0949  0.2030
 6471SOL    HW131046   1.063   1.513   2.573  1.2721  0.6278 -0.0743
 6471SOL    HW231047   1.177   1.444   2.629 -0.9077  0.1510 -1.4060
 6472SOL     OW31048   4.036   4.529   4.027  0.2781 -0.4948  0.4058
 6472SOL    HW131049   4.088   4.545   3.948 -0.5295 -1.9502 -0.4164
 6472SOL    HW231050   3.948   4.530   3.989  0.3197  1.1654  0.3373
 6473SOL     OW31051   3.938   2.779   4.548  0.3018 -0.3022  0.0252
 6473SOL    HW131052   3.946   2.873   4.537  1.3747 -0.3088  0.7334
 6473SOL    HW231053   4.024   2.741   4.533  0.2978 -0.0587 -0.6369
 6474SOL     OW31054   1.421   3.012   0.989  0.2296 -0.5510 -0.1435
 6474SOL    HW131055   1.383   2.988   1.074  0.5307 -0.2571  0.0723
 6474SOL    HW231056   1.420   3.108   0.991  0.8465 -0.5062 -2.1978
 6475SOL     OW31057   3.384   4.002   2.449 -0.2169 -0.3263 -0.4044
 6475SOL    HW131058   3.296   4.037   2.435 -0.1451  0.8474  2.0828
 6475SOL    HW231059   3.347   3.936   2.508  0.5743  1.0864  1.6669
 6476SOL     OW31060   3.170   3.151   1.975 -0.3407  0.1602  0.7214
 6476SOL    HW131061   3.082   3.135   1.941 -0.2838 -1.1285  1.2095
 6476SOL    HW231062   3.139   3.198   2.052 -1.7306  1.8360 -0.8516
 6477SOL     OW31063   0.859   0.125   6.838 -0.3580  0.1695 -0.2442
 6477SOL    HW131064   0.806   0.198   6.872  0.6677  1.8064 -2.1530
 6477SOL    HW231065   0.798   0.052   6.845 -0.7126  0.6414  1.6944
 6478SOL     OW31066   3.116   3.046  15.979 -0.4591  0.4129  0.1690
 6478SOL    HW131067   3.102   2.972  16.039  2.0930 -0.8325 -0.7702
 6478SOL    HW231068   3.064   3.117  16.016 -0.3203  1.2530 -1.2867
 6479SOL     OW31069   3.475   0.912   6.888  0.1274 -0.3475 -0.1712
 6479SOL    HW131070   3.568   0.918   6.911 -0.0391 -0.8285  0.6488
 6479SOL    HW231071   3.474   0.822   6.853 -0.3610 -0.7644  0.9255
 6480SOL     OW31072   1.041   1.931   5.554  0.1560 -0.9685  0.0963
 6480SOL    HW131073   1.103   1.930   5.626 -0.6497 -0.5284  0.7964
 6480SOL    HW231074   1.017   1.838   5.554  1.3537 -1.2722 -0.2968
 6481SOL     OW31075   0.916   1.685  13.009 -0.2176  0.3228  0.0203
 6481SOL    HW131076   0.950   1.609  12.961 -0.0059  1.4202 -1.5619
 6481SOL    HW231077   0.826   1.678  12.979 -0.3043 -0.1046  0.3733
 6482SOL     OW31078   0.502   4.670  11.896 -0.5396 -0.0257  0.5099
 6482SOL    HW131079   0.489   0.024  11.866 -0.1687 -0.3415 -0.5849
 6482SOL    HW231080   0.532   4.676  11.987  1.1542  0.5779 -0.0950
 6483SOL     OW31081   2.894   4.407   2.172 -0.2292 -0.0864 -0.0492
 6483SOL    HW131082   2.935   4.432   2.255  1.1814 -3.7770  0.3569
 6483SOL    HW231083   2.862   4.319   2.191 -1.2677  0.2835 -0.0684
 6484SOL     OW31084   3.809   0.925   7.574  0.7023 -0.5450  0.8747
 6484SOL    HW131085   3.784   0.861   7.507 -0.0496 -1.1025  1.6788
 6484SOL    HW231086   3.904   0.920   7.569  0.5188 -0.3754 -2.9692
 6485SOL     OW31087   3.794   3.953   3.801  0.2165 -0.0579  0.7546
 6485SOL    HW131088   3.846   3.909   3.734  0.1191  2.5871 -1.0322
 6485SOL    HW231089   3.714   3.978   3.755  1.1831 -0.3409 -1.0766
 6486SOL     OW31090   3.802   0.560  16.258 -0.3131  0.2807  0.3205
 6486SOL    HW131091   3.792   0.465  16.268  1.7354  0.0173 -0.0814
 6486SOL    HW231092   3.742   0.595  16.323 -0.0199  0.0257  0.7333
 6487SOL     OW31093   3.464   1.108   8.039  0.5214 -0.2231  0.0191
 6487SOL    HW131094   3.437   1.068   8.122  0.9807 -3.0211 -1.2052
 6487SOL    HW231095   3.558   1.096   8.048  0.5283 -0.5655 -0.5567
 6488SOL     OW31096   1.048   1.357  11.067 -0.1053 -0.5160  0.7556
 6488SOL    HW131097   1.036   1.379  10.974 -0.9296  0.9140  1.2061
 6488SOL    HW231098   1.102   1.431  11.095 -1.6471  0.3221  1.5349
 6489SOL     OW31099   4.111   3.992   8.632 -0.3045  0.3691  0.3890
 6489SOL    HW131100   4.019   3.992   8.655 -0.0370 -0.7288  1.4259
 6489SOL    HW231101   4.100   3.995   8.537 -0.6909 -1.3535  0.3831
 6490SOL     OW31102   0.845   4.078   7.221  0.2199 -0.4492  0.9480
 6490SOL    HW131103   0.835   4.084   7.126 -0.3336 -0.9156  0.9802
 6490SOL    HW231104   0.784   4.146   7.247 -0.5902 -1.2465  1.1343
 6491SOL     OW31105   0.161   1.786   4.126  0.1498  0.8438  0.0551
 6491SOL    HW131106   0.111   1.800   4.206 -0.1076  0.3075 -0.0096
 6491SOL    HW231107   0.139   1.694   4.112  1.9666  0.7266 -2.1030
 6492SOL     OW31108   1.209   2.604   8.390 -0.0267  0.5785 -0.1909
 6492SOL    HW131109   1.300   2.585   8.411 -0.3037 -1.1384 -0.5709
 6492SOL    HW231110   1.165   2.534   8.438  1.0165  0.0745  0.0192
 6493SOL     OW31111   1.964   1.008   1.889  0.2414  0.0125 -0.2893
 6493SOL    HW131112   1.903   0.935   1.896 -0.8607  1.0668  0.9477
 6493SOL    HW231113   2.022   1.001   1.965  1.0908 -0.1426 -0.9460
 6494SOL     OW31114   2.222   0.733   3.712 -0.3792 -0.3092  0.1110
 6494SOL    HW131115   2.210   0.668   3.642  0.1041 -0.7839  0.4631
 6494SOL    HW231116   2.135   0.770   3.720  0.6616  2.0769  0.2886
 6495SOL     OW31117   0.325   2.111  17.679  0.0320  0.1968  0.1020
 6495SOL    HW131118   0.229   2.117  17.679  0.1352  1.7013 -2.2353
 6495SOL    HW231119   0.350   2.199  17.651 -0.2005  0.5940  1.1217
 6496SOL     OW31120   1.592   2.974   3.178  0.1086 -0.2163 -0.0833
 6496SOL    HW131121   1.526   2.904   3.180  1.2014 -1.2580 -0.1490
 6496SOL    HW231122   1.643   2.925   3.243  0.5646  0.5583  0.1423
 6497SOL     OW31123   4.705   2.989  11.990 -0.3977 -0.1124  0.7923
 6497SOL    HW131124   4.622   2.962  12.030  1.8021 -0.7047  4.9888
 6497SOL    HW231125   4.732   3.058  12.050  1.2518 -0.1910  0.1387
 6498SOL     OW31126   1.495   3.959   0.841  0.0413  0.4248  0.0042
 6498SOL    HW131127   1.519   4.015   0.914 -0.0428 -1.1755  1.2630
 6498SOL    HW231128   1.405   3.978   0.812 -0.2222 -0.0134  0.5363
 6499SOL     OW31129   4.009   4.631  15.874  0.4931 -0.0389 -0.0629
 6499SOL    HW131130   3.976   4.718  15.897 -1.6409 -1.3165  1.6642
 6499SOL    HW231131   4.098   4.637  15.908  0.1725  1.3902  0.5196
 6500SOL     OW31132   1.327   4.325  12.061 -0.4535 -0.0070 -0.3233
 6500SOL    HW131133   1.387   4.260  12.025 -1.5858 -0.7652 -0.8391
 6500SOL    HW231134   1.390   4.395  12.047 -1.9285  1.3909  0.0056
 6501SOL     OW31135   0.846   4.178   0.657 -0.3057 -0.5489 -0.1750
 6501SOL    HW131136   0.869   4.270   0.643  0.0278 -0.4202  1.2001
 6501SOL    HW231137   0.831   4.155   0.565 -1.0667  0.2727 -0.2579
 6502SOL     OW31138   2.587   2.563   2.906  0.0041  0.6394  0.5885
 6502SOL    HW131139   2.621   2.645   2.869 -1.1669  1.3474  1.0816
 6502SOL    HW231140   2.493   2.579   2.915 -0.5566 -1.7718 -1.1629
 6503SOL     OW31141   1.061   2.583  12.308  0.0873  0.0348 -0.3715
 6503SOL    HW131142   1.038   2.602  12.217 -0.2271  0.7672 -0.1407
 6503SOL    HW231143   1.014   2.647  12.361  1.7813  0.6355  0.4130
 6504SOL     OW31144   4.262   0.299   5.295  0.0313  0.3780  0.6836
 6504SOL    HW131145   4.197   0.291   5.366  0.2209 -2.2658  0.5670
 6504SOL    HW231146   4.208   0.347   5.232  0.4948  0.3793  0.2974
 6505SOL     OW31147   0.124   1.056   0.538 -0.1729 -0.1658  0.1045
 6505SOL    HW131148   0.081   0.972   0.553 -3.2126  1.8457  2.6271
 6505SOL    HW231149   0.113   1.103   0.621 -0.6932 -1.6613  0.9006
 6506SOL     OW31150   0.113   3.855   3.019 -0.2650  0.3139  0.1567
 6506SOL    HW131151   0.204   3.861   2.992 -0.0916 -0.3695  0.6077
 6506SOL    HW231152   0.085   3.942   2.991  1.4223  0.8789  0.2446
 6507SOL     OW31153   1.008   2.254   5.412 -0.5950  0.1640 -0.1305
 6507SOL    HW131154   0.974   2.165   5.412 -1.2033  0.3925 -0.6202
 6507SOL    HW231155   1.058   2.264   5.493 -0.0677  1.2947 -0.5962
 6508SOL     OW31156   4.383   0.350  17.099  0.2577 -0.0362 -0.4267
 6508SOL    HW131157   4.392   0.271  17.151  4.0140  1.5416  1.3493
 6508SOL    HW231158   4.319   0.322  17.034  0.2547  0.8946 -0.8297
 6509SOL     OW31159   1.250   1.242   1.036 -0.3587 -0.3751 -0.3308
 6509SOL    HW131160   1.244   1.199   0.950  1.2834 -0.8322 -0.2228
 6509SOL    HW231161   1.162   1.248   1.071  0.2539  0.4534  1.0609
 6510SOL     OW31162   2.153   2.493   2.931  0.3291 -0.0027 -0.2017
 6510SOL    HW131163   2.128   2.413   2.885 -1.3572  1.9396 -2.6346
 6510SOL    HW231164   2.191   2.543   2.859  1.5419 -0.3399  0.2030
 6511SOL     OW31165   2.336   0.441   2.837 -0.0397  0.0185 -0.7204
 6511SOL    HW131166   2.280   0.419   2.763 -1.4509 -0.5249  0.5150
 6511SOL    HW231167   2.385   0.514   2.799  1.3649  0.4057  1.8493
 6512SOL     OW31168   1.561   4.641  14.112  0.2277  0.1536  0.8329
 6512SOL    HW131169   1.571   4.727  14.155  0.4992  1.6081 -2.1422
 6512SOL    HW231170   1.466   4.642  14.115  0.1674 -1.5589 -1.1933
 6513SOL     OW31171   0.691   1.429  10.080  0.9565 -0.0695 -0.5336
 6513SOL    HW131172   0.739   1.347  10.086  0.9809 -0.0205 -0.0584
 6513SOL    HW231173   0.743   1.483  10.139 -2.1834  2.6343 -0.2026
 6514SOL     OW31174   3.022   3.758   6.049  0.0917 -0.3125  0.1175
 6514SOL    HW131175   2.957   3.787   6.113 -1.4649 -2.4322 -0.4842
 6514SOL    HW231176   3.087   3.712   6.103  0.7264 -0.1125 -0.4775
 6515SOL     OW31177   0.063   4.546   1.259 -0.3672  0.0509 -0.7237
 6515SOL    HW131178   0.025   4.465   1.293 -0.9735  0.4768 -0.4000
 6515SOL    HW231179   0.143   4.516   1.217  0.0538 -2.0587  1.5912
 6516SOL     OW31180   2.094   3.465   4.157  0.0985 -0.5555  0.1725
 6516SOL    HW131181   2.097   3.387   4.212  1.2179 -0.2237  0.5759
 6516SOL    HW231182   2.037   3.431   4.088 -0.5230  1.0798 -0.1252
 6517SOL     OW31183   3.840   2.981  14.430  0.2352 -0.0639  0.1773
 6517SOL    HW131184   3.864   2.917  14.363  1.0795 -0.0394  0.4589
 6517SOL    HW231185   3.752   2.947  14.443  0.7654 -1.4013  0.2980
 6518SOL     OW31186   0.354   1.039   4.561 -0.5732  0.2448  0.7093
 6518SOL    HW131187   0.388   1.128   4.553  0.7699 -0.3908 -0.4868
 6518SOL    HW231188   0.437   1.000   4.588 -0.4149 -0.1979 -0.4284
 6519SOL     OW31189   0.978   1.678   5.102 -0.3099  0.0825  0.6526
 6519SOL    HW131190   1.029   1.609   5.145 -1.6212 -1.4502 -0.2549
 6519SOL    HW231191   0.912   1.693   5.170  1.2027  1.4034  1.8315
 6520SOL     OW31192   3.018   0.637   1.936 -0.0721 -0.3281  0.3813
 6520SOL    HW131193   3.109   0.617   1.914 -0.2606 -1.1365  0.3485
 6520SOL    HW231194   3.009   0.590   2.019 -0.6223  1.5161  1.3701
 6521SOL     OW31195   2.194   2.741   7.170  0.3763 -0.2403  0.0792
 6521SOL    HW131196   2.146   2.783   7.099  0.2545 -2.1457 -0.9604
 6521SOL    HW231197   2.282   2.733   7.133 -1.4025 -1.8222 -3.7238
 6522SOL     OW31198   0.738   0.157  16.169 -0.1670  0.4555  0.3037
 6522SOL    HW131199   0.751   0.237  16.221 -1.2884  1.1565 -0.4901
 6522SOL    HW231200   0.827   0.121  16.169 -0.3368  0.0432 -0.1475
 6523SOL     OW31201   2.422   0.114   2.134 -0.1759 -0.2486  0.8166
 6523SOL    HW131202   2.467   0.043   2.088  0.1616 -0.3993  1.3794
 6523SOL    HW231203   2.393   0.069   2.213 -1.5198  0.2190  0.5844
 6524SOL     OW31204   3.189   1.799  13.265  0.2720 -0.1501  0.4060
 6524SOL    HW131205   3.113   1.836  13.309  0.5925 -1.7451  2.2824
 6524SOL    HW231206   3.237   1.773  13.344  1.1936  0.1101 -0.0675
 6525SOL     OW31207   4.215   0.116   2.761 -0.2535 -0.2429 -0.0362
 6525SOL    HW131208   4.303   0.110   2.723 -0.4995 -0.9466 -0.4809
 6525SOL    HW231209   4.174   0.046   2.710  0.1646  0.5359 -1.4333
 6526SOL     OW31210   2.528   3.458   1.993  0.0946  0.1435  0.5103
 6526SOL    HW131211   2.603   3.404   1.967 -0.7771 -2.0469  2.5083
 6526SOL    HW231212   2.564   3.545   1.976 -0.5664  0.1589 -0.8431
 6527SOL     OW31213   0.935   0.898   6.007 -0.2412  0.5870 -0.3795
 6527SOL    HW131214   0.939   0.994   6.008  0.6371  0.5581 -1.0831
 6527SOL    HW231215   0.881   0.872   5.933 -2.1726  0.8640  0.9564
 6528SOL     OW31216   1.856   3.029   2.355 -0.3119  0.1514 -0.7555
 6528SOL    HW131217   1.803   2.963   2.400  0.5706  0.5282  0.8498
 6528SOL    HW231218   1.878   2.987   2.272  0.4676 -0.2669 -0.3252
 6529SOL     OW31219   4.107   2.704   6.460 -0.0443  0.2139  0.4602
 6529SOL    HW131220   4.156   2.622   6.456  0.3302  0.3495  2.2946
 6529SOL    HW231221   4.151   2.741   6.383 -0.1973 -1.9242 -0.6517
 6530SOL     OW31222   1.472   2.235  12.267  0.3412 -0.2114  0.8291
 6530SOL    HW131223   1.559   2.209  12.297  0.4408 -1.3966 -0.5048
 6530SOL    HW231224   1.490   2.328  12.254 -2.5931 -0.0815 -2.2085
 6531SOL     OW31225   3.200   4.058  10.779  0.4314 -0.3638  0.0717
 6531SOL    HW131226   3.270   3.999  10.751 -1.2793 -2.6175  0.4654
 6531SOL    HW231227   3.128   3.995  10.785  1.3021 -1.7247 -3.5699
 6532SOL     OW31228   2.553   0.952   0.945  0.5124  0.4968 -0.0002
 6532SOL    HW131229   2.561   0.875   0.888  2.4508  0.7008 -0.0000
 6532SOL    HW231230   2.488   0.996   0.890 -1.0158 -0.6467  0.8962
 6533SOL     OW31231   4.406   2.599   3.015  0.0625 -0.1882  0.1088
 6533SOL    HW131232   4.492   2.633   3.042  1.2201 -2.5482 -0.6092
 6533SOL    HW231233   4.383   2.660   2.945 -0.9371 -1.3892 -0.6044
 6534SOL     OW31234   4.470   0.092   5.697  0.1030 -0.2405 -0.4870
 6534SOL    HW131235   4.496   0.045   5.618  1.1578 -2.9129  1.4466
 6534SOL    HW231236   4.386   0.124   5.664 -0.9238 -0.5581  1.8452
 6535SOL     OW31237   1.784   4.322   5.406  0.2762  0.2353 -0.5844
 6535SOL    HW131238   1.880   4.321   5.397  0.3002  0.9408 -0.3332
 6535SOL    HW231239   1.767   4.246   5.349  0.1588 -0.3440  0.2169
 6536SOL     OW31240   0.083   3.792   5.392 -0.0018 -0.2703  0.7858
 6536SOL    HW131241   0.017   3.735   5.432  0.2417 -1.5149 -0.6141
 6536SOL    HW231242   0.060   3.876   5.431 -2.0560 -0.3300 -0.2908
 6537SOL     OW31243   0.863   3.840  12.367  0.2746  0.0280  0.2541
 6537SOL    HW131244   0.830   3.767  12.315 -0.4387  1.9554 -1.9370
 6537SOL    HW231245   0.800   3.855  12.437  0.1454  0.3863  0.0578
 6538SOL     OW31246   1.384   2.459  11.959  0.4598 -0.0617  0.2968
 6538SOL    HW131247   1.385   2.552  11.936 -0.7196 -0.2317 -0.4483
 6538SOL    HW231248   1.457   2.447  12.019  0.8713  0.8470 -0.0082
 6539SOL     OW31249   4.551   3.604   9.826  0.1929 -0.1239  0.4471
 6539SOL    HW131250   4.557   3.528   9.768  1.3949  0.1039  0.2634
 6539SOL    HW231251   4.538   3.553   9.906  1.0635  1.9583  1.9198
 6540SOL     OW31252   1.677   1.595   7.970  0.1862  0.0785  0.1743
 6540SOL    HW131253   1.599   1.650   7.962 -0.1737 -0.2592  1.3866
 6540SOL    HW231254   1.643   1.527   8.028  0.0194  1.3432  1.5612
 6541SOL     OW31255   4.692   2.935   3.126 -0.6631 -0.0273  0.0440
 6541SOL    HW131256   4.684   3.030   3.136  0.1797  0.2857 -2.3281
 6541SOL    HW231257   4.675   2.905   3.216 -0.1512 -2.5934 -0.7010
 6542SOL     OW31258   3.390   0.150  15.781  0.2504  0.5081 -0.2198
 6542SOL    HW131259   3.352   0.067  15.810  1.3950 -0.5922 -1.8342
 6542SOL    HW231260   3.481   0.131  15.756  0.4265 -1.9370  2.2565
 6543SOL     OW31261   3.027   0.189   4.623  0.5090 -0.0745 -0.3902
 6543SOL    HW131262   3.025   0.284   4.618 -0.7442 -0.1098 -0.4038
 6543SOL    HW231263   2.944   0.173   4.578 -0.5803  1.1243  1.2150
 6544SOL     OW31264   4.461   3.033   6.817 -0.3116  0.3672 -0.7726
 6544SOL    HW131265   4.545   3.067   6.789  1.2451 -2.2958  0.6520
 6544SOL    HW231266   4.436   3.093   6.887  1.2522 -1.6185  1.4828
 6545SOL     OW31267   3.081   1.366   5.215  0.0212 -0.2380  0.5916
 6545SOL    HW131268   3.057   1.280   5.250  1.7946  0.2451  2.9833
 6545SOL    HW231269   3.137   1.407   5.280  0.9803 -1.2508  0.4021
 6546SOL     OW31270   1.442   3.378  11.274 -0.0525  1.0996 -0.0634
 6546SOL    HW131271   1.513   3.386  11.337  0.2893 -1.5401 -0.1280
 6546SOL    HW231272   1.463   3.300  11.222  1.2319  1.1012  0.4669
 6547SOL     OW31273   1.869   0.007  14.170 -0.1120 -0.1048  0.4747
 6547SOL    HW131274   1.779   0.033  14.155  0.0502  0.1631 -0.0387
 6547SOL    HW231275   1.881   0.051  14.254  1.1943 -0.5986  0.5579
 6548SOL     OW31276   4.019   3.936   4.260 -0.5694  0.1287 -0.4200
 6548SOL    HW131277   4.045   3.956   4.170 -1.6157  0.5593 -0.6255
 6548SOL    HW231278   4.084   3.989   4.307 -1.9842  0.8935  0.6677
 6549SOL     OW31279   2.726   0.362   0.549 -0.1021  0.2806 -0.1951
 6549SOL    HW131280   2.741   0.405   0.464 -0.4992 -0.8618 -0.8459
 6549SOL    HW231281   2.642   0.318   0.540 -0.1844  0.3879  0.0523
 6550SOL     OW31282   1.858   2.260  14.605 -0.3360 -0.0389  0.4811
 6550SOL    HW131283   1.950   2.256  14.630 -0.2566  1.2293  0.3816
 6550SOL    HW231284   1.859   2.346  14.563 -0.2044 -0.3101 -0.0622
 6551SOL     OW31285   0.017   4.578   6.350 -0.3236  0.0153 -0.3253
 6551SOL    HW131286   4.712   4.616   6.272 -1.4961 -1.3161 -0.3523
 6551SOL    HW231287   0.009   4.483   6.338 -0.4036 -0.0246  0.0573
 6552SOL     OW31288   2.403   4.086  11.206  0.1585  0.1431  0.7482
 6552SOL    HW131289   2.488   4.043  11.198  0.9674  2.1955 -1.8328
 6552SOL    HW231290   2.368   4.070  11.119  1.0733 -1.2018  0.6253
 6553SOL     OW31291   4.087   3.444   9.122  0.0598 -0.5300 -0.5857
 6553SOL    HW131292   4.124   3.500   9.190 -0.5394  0.5238 -1.1264
 6553SOL    HW231293   4.164   3.387   9.114  1.8227  1.6759  0.5473
 6554SOL     OW31294   1.358   0.699   8.031  0.2496  0.0292  0.0253
 6554SOL    HW131295   1.322   0.666   8.113 -0.3645 -1.8753 -1.0033
 6554SOL    HW231296   1.404   0.619   8.004 -1.4542 -1.1672  0.6146
 6555SOL     OW31297   2.291   0.151  15.352 -0.4623 -0.3889  0.1226
 6555SOL    HW131298   2.359   0.099  15.395  0.7015  3.2647  2.6190
 6555SOL    HW231299   2.235   0.181  15.423 -0.5675  3.0193 -1.3979
 6556SOL     OW31300   4.542   2.064  10.848  0.5315  0.3513 -0.1950
 6556SOL    HW131301   4.548   2.052  10.942 -1.3538  1.4363  0.0531
 6556SOL    HW231302   4.494   1.983  10.830  0.7882  0.4099 -1.1809
 6557SOL     OW31303   2.078   4.665   5.879  0.4193 -0.5776 -0.5243
 6557SOL    HW131304   2.037   0.012   5.903  0.1369  0.0424 -3.1573
 6557SOL    HW231305   2.075   4.628   5.967  0.5656  1.2839  0.2648
 6558SOL     OW31306   2.852   3.960   5.868  0.1152 -0.1352  0.3964
 6558SOL    HW131307   2.783   3.914   5.820  1.4749  0.4355 -2.1132
 6558SOL    HW231308   2.901   3.891   5.912  1.8800  0.1941 -1.0600
 6559SOL     OW31309   2.311   3.397   3.944  0.5713  0.0081  0.3088
 6559SOL    HW131310   2.303   3.452   4.022  1.3797  0.0841  0.3375
 6559SOL    HW231311   2.389   3.433   3.901  0.4984 -1.8409 -1.3793
 6560SOL     OW31312   4.518   2.986   2.809  0.0862  0.0030 -0.1080
 6560SOL    HW131313   4.434   2.962   2.849  0.4929  1.3804  1.5558
 6560SOL    HW231314   4.508   2.960   2.717 -0.9128 -2.6803  0.7611
 6561SOL     OW31315   2.499   2.448   7.739  0.4930 -0.1350 -0.8141
 6561SOL    HW131316   2.561   2.400   7.684  2.0168  1.8240 -0.7798
 6561SOL    HW231317   2.474   2.514   7.674  0.0823 -0.7712 -1.3013
 6562SOL     OW31318   4.075   0.282  13.854 -0.4618  0.4123 -1.0484
 6562SOL    HW131319   4.129   0.359  13.836 -0.2336  0.6832  0.7609
 6562SOL    HW231320   4.111   0.255  13.938 -0.5409 -2.1855 -1.8667
 6563SOL     OW31321   4.530   4.058  10.776 -0.4065 -0.0242 -0.3577
 6563SOL    HW131322   4.602   4.023  10.829  0.6969  1.9965 -0.5085
 6563SOL    HW231323   4.460   4.004  10.812 -0.1652 -0.0540  0.0604
 6564SOL     OW31324   4.548   0.679   1.608 -0.5036  0.4485  0.1652
 6564SOL    HW131325   4.459   0.711   1.594  0.0886  1.8071 -0.5474
 6564SOL    HW231326   4.591   0.684   1.522  0.6904  1.2712  0.8076
 6565SOL     OW31327   3.226   2.544   3.873  0.0072  0.4565 -0.0133
 6565SOL    HW131328   3.306   2.584   3.907 -0.6310 -0.8266  2.9866
 6565SOL    HW231329   3.204   2.495   3.953  0.1823 -0.1273 -0.3229
 6566SOL     OW31330   0.367   1.263   7.770  0.0716  0.0161  0.0996
 6566SOL    HW131331   0.434   1.278   7.836  0.5215 -0.8152 -0.1740
 6566SOL    HW231332   0.300   1.330   7.785 -2.1197 -2.1940  0.1697
 6567SOL     OW31333   2.366   4.010   7.120  0.0245  0.2736 -0.2209
 6567SOL    HW131334   2.330   3.923   7.136 -2.0415  0.9606 -1.2368
 6567SOL    HW231335   2.420   4.013   7.199 -1.5767 -1.8577  0.9644
 6568SOL     OW31336   1.682   0.764   2.129 -0.3784  0.1217  0.1069
 6568SOL    HW131337   1.688   0.676   2.166  3.2413  1.2235  2.0987
 6568SOL    HW231338   1.594   0.785   2.160 -1.0040 -1.7163 -0.4198
 6569SOL     OW31339   4.069   0.923   2.885  0.7301  0.2484 -0.0705
 6569SOL    HW131340   4.151   0.875   2.878  0.9318  0.4258  1.1953
 6569SOL    HW231341   4.031   0.878   2.960 -0.2588  0.1263 -0.6418
 6570SOL     OW31342   4.625   0.654  13.119  0.3640  0.5089 -0.2106
 6570SOL    HW131343   4.535   0.631  13.143  0.3456  0.8183  0.0173
 6570SOL    HW231344   4.607   0.640  13.026  1.2436  1.7523 -0.5569
 6571SOL     OW31345   2.259   2.188   3.075 -0.2557  0.1314  0.3394
 6571SOL    HW131346   2.166   2.168   3.064 -0.4480  1.4703 -0.5856
 6571SOL    HW231347   2.252   2.210   3.168  0.2940  0.5470  0.2833
 6572SOL     OW31348   0.595   4.573   5.515  0.1004  0.0104 -0.2450
 6572SOL    HW131349   0.560   4.543   5.599  1.3181 -0.9848 -0.0932
 6572SOL    HW231350   0.515   4.559   5.464 -1.1064  2.0235  1.1046
 6573SOL     OW31351   4.128   4.377   4.266 -0.2977 -0.2695  0.2963
 6573SOL    HW131352   4.107   4.422   4.184 -0.0819  1.4559  1.1882
 6573SOL    HW231353   4.079   4.431   4.328  0.3233 -1.8666  2.1825
 6574SOL     OW31354   1.471   3.189   3.914  1.0344 -0.2780 -0.3440
 6574SOL    HW131355   1.383   3.193   3.951  0.4414 -2.8502 -1.4600
 6574SOL    HW231356   1.512   3.126   3.973 -0.4971  0.0265  1.0474
 6575SOL     OW31357   1.636   3.075   7.239 -0.2112 -0.1171 -0.3309
 6575SOL    HW131358   1.629   2.981   7.254 -1.0825  0.0679  0.3896
 6575SOL    HW231359   1.639   3.107   7.329 -0.0686 -1.2354  0.0701
 6576SOL     OW31360   4.483   0.753   9.588 -0.9256 -0.2444  0.7411
 6576SOL    HW131361   4.398   0.710   9.576 -0.1395 -1.3355 -1.0084
 6576SOL    HW231362   4.507   0.749   9.681  0.7601  2.1372  0.3931
 6577SOL     OW31363   2.794   2.686   7.701 -0.3766  0.3949  0.4217
 6577SOL    HW131364   2.881   2.719   7.681 -0.7410 -0.0708 -1.8662
 6577SOL    HW231365   2.789   2.610   7.643 -1.8159 -0.2225  1.3381
 6578SOL     OW31366   3.207   3.152   2.843  0.1425 -0.2434  0.4473
 6578SOL    HW131367   3.135   3.181   2.787 -0.6331  0.5817  1.8776
 6578SOL    HW231368   3.164   3.124   2.924  0.3431 -1.8049  0.0138
 6579SOL     OW31369   3.507   4.290   7.809 -0.2501 -0.2443 -0.1939
 6579SOL    HW131370   3.594   4.254   7.827 -0.0246 -0.4715 -1.8213
 6579SOL    HW231371   3.512   4.370   7.861  0.5249 -1.1129  1.0621
 6580SOL     OW31372   1.633   0.748   7.499  0.1417  0.1998 -0.0403
 6580SOL    HW131373   1.544   0.727   7.525  0.0150 -0.6584 -1.1476
 6580SOL    HW231374   1.646   0.831   7.545 -0.8858  1.1924 -1.5158
 6581SOL     OW31375   1.749   0.953   0.284 -0.9042 -0.2541 -0.7994
 6581SOL    HW131376   1.662   0.967   0.321  0.1082  3.5878  0.1214
 6581SOL    HW231377   1.792   1.028   0.325 -4.4031  1.7654 -0.8220
 6582SOL     OW31378   0.022   0.418   6.617  0.0592 -0.5207  0.0319
 6582SOL    HW131379   0.022   0.481   6.689  1.9071 -0.3653 -0.1180
 6582SOL    HW231380   4.723   0.468   6.544  0.3121 -1.2820 -0.6162
 6583SOL     OW31381   2.421   4.080   8.667 -0.2168 -0.2340  0.2784
 6583SOL    HW131382   2.500   4.031   8.688 -0.0391 -0.8102 -1.7630
 6583SOL    HW231383   2.401   4.052   8.578 -1.1109  0.5988  0.2138
 6584SOL     OW31384   4.325   0.923   4.110  0.1346 -0.2360 -0.3635
 6584SOL    HW131385   4.257   0.856   4.103  0.9316 -0.9727 -1.0023
 6584SOL    HW231386   4.288   0.985   4.047  0.0850  0.6762  0.5650
 6585SOL     OW31387   1.689   2.463   2.687  0.1656  0.0419 -0.5155
 6585SOL    HW131388   1.619   2.473   2.622  0.2178  1.5212 -0.3399
 6585SOL    HW231389   1.736   2.545   2.673 -0.2254  0.1572 -1.1661
 6586SOL     OW31390   1.017   2.797   7.076 -0.2504 -0.4260  0.3740
 6586SOL    HW131391   1.008   2.703   7.060 -1.5962 -0.4773  1.4766
 6586SOL    HW231392   1.022   2.806   7.171  2.1315  4.3796 -0.1809
 6587SOL     OW31393   3.344   1.953  13.117 -0.4309  0.1873 -0.1670
 6587SOL    HW131394   3.421   1.905  13.147 -0.4895  0.4657  0.4311
 6587SOL    HW231395   3.277   1.903  13.164  1.4750 -2.0538  0.1990
 6588SOL     OW31396   4.450   3.948   8.482  0.8252 -0.3492  0.8608
 6588SOL    HW131397   4.518   4.003   8.443 -0.2632  0.7718  0.5466
 6588SOL    HW231398   4.366   3.988   8.459  1.8020  0.0086 -2.0508
 6589SOL     OW31399   0.377   3.612   5.923 -0.2083  0.2246  0.0738
 6589SOL    HW131400   0.452   3.564   5.958 -0.8930 -0.3675  0.7294
 6589SOL    HW231401   0.327   3.605   6.005  0.1720  0.8773  0.3648
 6590SOL     OW31402   0.466   2.648   5.790  0.6431  0.4549  0.6228
 6590SOL    HW131403   0.471   2.729   5.740  0.4516  1.0411  1.5388
 6590SOL    HW231404   0.376   2.647   5.824 -0.6168 -2.1652 -2.8266
 6591SOL     OW31405   4.086   2.058  17.382 -0.7028 -0.3865  0.4136
 6591SOL    HW131406   4.121   1.979  17.341  0.0608  1.2517 -2.1404
 6591SOL    HW231407   4.088   2.032  17.473 -0.2087 -2.0470 -0.0775
 6592SOL     OW31408   2.150   2.217   3.320 -0.3298  0.1330  0.2336
 6592SOL    HW131409   2.113   2.132   3.344  0.7501 -0.4567 -0.1884
 6592SOL    HW231410   2.090   2.274   3.367 -2.0750 -0.0025 -1.8221
 6593SOL     OW31411   1.846   0.682  14.749  0.7247  0.6790 -0.3595
 6593SOL    HW131412   1.932   0.658  14.715 -0.5982 -1.3765 -2.2230
 6593SOL    HW231413   1.833   0.759  14.694  1.1839  1.2264  0.2939
 6594SOL     OW31414   2.993   3.246  17.396 -0.2749 -0.2712  0.2392
 6594SOL    HW131415   2.950   3.255  17.480  0.4917 -0.4914  0.6568
 6594SOL    HW231416   3.004   3.331  17.353 -0.2560  1.0640  2.8917
 6595SOL     OW31417   1.205   1.219   4.858 -0.4683 -0.0411  0.0794
 6595SOL    HW131418   1.237   1.195   4.771  0.3409 -2.8248  1.1425
 6595SOL    HW231419   1.131   1.275   4.834  0.9891  1.5070 -0.7575
 6596SOL     OW31420   4.547   0.405  14.897 -0.2368  0.5371  0.3499
 6596SOL    HW131421   4.578   0.377  14.983 -2.6938  0.0701  1.0800
 6596SOL    HW231422   4.460   0.442  14.911 -1.0410 -1.3168  0.2137
 6597SOL     OW31423   3.634   2.639   7.970  0.3575  0.4576  0.1890
 6597SOL    HW131424   3.683   2.583   7.910  0.6484  1.3464 -0.4113
 6597SOL    HW231425   3.646   2.589   8.051 -0.4688  0.2541  0.1812
 6598SOL     OW31426   0.342   0.219   8.612 -0.0211  0.0038 -0.1097
 6598SOL    HW131427   0.291   0.180   8.541  0.2079 -1.3436  0.4757
 6598SOL    HW231428   0.418   0.258   8.568  0.5570 -1.0693 -0.0383
 6599SOL     OW31429   1.844   2.784   2.183  0.4564 -0.1910  0.1381
 6599SOL    HW131430   1.752   2.759   2.186  0.4461 -0.5035 -2.3676
 6599SOL    HW231431   1.854   2.818   2.094  0.0387 -0.0087  0.1633
 6600SOL     OW31432   2.475   2.067   0.218 -0.2507  0.1421  0.3469
 6600SOL    HW131433   2.561   2.088   0.183 -0.2283 -0.1325  0.2367
 6600SOL    HW231434   2.434   2.027   0.141 -0.2249  2.1369 -0.7055
 6601SOL     OW31435   1.099   4.277   3.015 -0.0012 -0.3118 -0.2197
 6601SOL    HW131436   1.148   4.232   2.946  0.2840  0.2496 -0.3776
 6601SOL    HW231437   1.134   4.366   3.013 -0.2220 -0.2670 -2.1546
 6602SOL     OW31438   1.758   2.230   7.166 -0.2291  0.2632  0.4669
 6602SOL    HW131439   1.676   2.251   7.122 -0.2097  0.7572  0.6721
 6602SOL    HW231440   1.761   2.136   7.145  2.6781  0.4652 -0.0450
 6603SOL     OW31441   1.051   2.896  14.147 -0.3226 -0.2752  0.0702
 6603SOL    HW131442   1.043   2.990  14.131  0.2223 -0.0880  0.9535
 6603SOL    HW231443   1.146   2.880  14.145 -0.3859 -0.5734 -0.5197
 6604SOL     OW31444   2.772   1.936   5.991  0.1475 -0.0800  0.6124
 6604SOL    HW131445   2.829   1.908   6.062 -0.1426 -2.4372 -0.1118
 6604SOL    HW231446   2.751   1.853   5.949  1.3739 -0.7511  1.3287
 6605SOL     OW31447   0.979   1.318  10.073 -0.2915  0.0970  0.3420
 6605SOL    HW131448   0.962   1.235  10.028 -0.9763  0.4366 -0.0316
 6605SOL    HW231449   0.992   1.284  10.161 -2.4416  1.8105  1.3175
 6606SOL     OW31450   1.632   3.712   4.845 -0.3722  0.2335 -0.6869
 6606SOL    HW131451   1.714   3.664   4.838  1.0606  2.6011  0.0526
 6606SOL    HW231452   1.615   3.744   4.756  0.7598 -0.4208 -1.1364
 6607SOL     OW31453   0.997   2.416   6.764  0.4806  0.2244  0.4165
 6607SOL    HW131454   0.983   2.367   6.845 -2.6337  1.1799  0.4715
 6607SOL    HW231455   0.965   2.506   6.778 -0.1243 -0.3968  3.1150
 6608SOL     OW31456   2.490   3.054   4.604 -0.8565 -0.3434 -0.2059
 6608SOL    HW131457   2.425   3.034   4.670 -1.4305 -1.4489 -1.1072
 6608SOL    HW231458   2.570   3.044   4.656 -1.1717 -1.7458 -0.0194
 6609SOL     OW31459   2.617   1.249   2.003 -0.2317 -1.1298  0.0513
 6609SOL    HW131460   2.646   1.232   2.092  0.5501  1.1019  0.2170
 6609SOL    HW231461   2.612   1.158   1.975  0.9002 -0.5515 -2.1024
 6610SOL     OW31462   0.195   2.154   4.339  0.1395 -0.3260  0.0217
 6610SOL    HW131463   0.207   2.068   4.379  1.5396 -0.0767  0.1067
 6610SOL    HW231464   0.140   2.202   4.401 -0.5168 -1.7048  0.5218
 6611SOL     OW31465   3.326   4.583   8.497  0.8678  0.2813  0.4654
 6611SOL    HW131466   3.385   4.520   8.455  0.7963 -0.3405  1.2997
 6611SOL    HW231467   3.383   4.596   8.572 -0.6301  0.1241  1.6229
 6612SOL     OW31468   1.521   3.976   2.484 -0.3948 -0.5079 -0.0904
 6612SOL    HW131469   1.501   4.039   2.553  0.4234 -2.0005  1.5104
 6612SOL    HW231470   1.532   3.903   2.546 -0.3301  0.0799  0.5852
 6613SOL     OW31471   0.329   1.029   3.575  0.1638  0.0875  0.1045
 6613SOL    HW131472   0.403   0.968   3.584  0.3422  0.4556  1.1629
 6613SOL    HW231473   0.263   0.983   3.627 -0.7397  1.8819  0.5466
 6614SOL     OW31474   0.952   0.302  11.333  0.4615 -0.0120  0.3779
 6614SOL    HW131475   0.962   0.385  11.286 -0.1122 -1.0264 -1.5084
 6614SOL    HW231476   0.987   0.326  11.419  1.5307  1.4111 -0.4495
 6615SOL     OW31477   3.824   0.414   6.202  0.2663 -0.1566 -0.2417
 6615SOL    HW131478   3.912   0.451   6.215 -0.4009  0.5298  2.2506
 6615SOL    HW231479   3.783   0.474   6.140 -0.7561  0.1909  0.7897
 6616SOL     OW31480   0.058   4.297   9.437  0.0995  0.0212  0.2578
 6616SOL    HW131481   0.024   4.386   9.449 -1.4752 -0.4619 -0.5494
 6616SOL    HW231482   4.719   4.237   9.444  1.3106 -1.3953  0.9976
 6617SOL     OW31483   4.164   1.761  11.551  0.2268  0.3836  0.4329
 6617SOL    HW131484   4.138   1.850  11.574 -0.2934  0.2322  0.4152
 6617SOL    HW231485   4.091   1.712  11.588 -0.8184  0.1833 -1.8673
 6618SOL     OW31486   1.833   2.893   6.603 -0.5434  0.3269 -0.5636
 6618SOL    HW131487   1.767   2.855   6.544 -1.0473 -0.5649  0.5556
 6618SOL    HW231488   1.787   2.956   6.658 -0.3731  0.1097 -0.1779
 6619SOL     OW31489   4.701   1.566   9.949 -0.0534 -0.5266 -0.0279
 6619SOL    HW131490   4.726   1.603  10.034 -2.8097 -0.6626  0.8385
 6619SOL    HW231491   0.005   1.631   9.891  0.7468 -1.1912 -0.2056
 6620SOL     OW31492   4.470   3.032  10.076 -0.5975 -0.3175  0.0896
 6620SOL    HW131493   4.477   2.937  10.077 -1.2094 -0.3585 -0.1758
 6620SOL    HW231494   4.383   3.040  10.037  0.2476  0.4604 -1.6354
 6621SOL     OW31495   4.257   2.757   2.776  0.0969  0.3057 -0.5968
 6621SOL    HW131496   4.263   2.846   2.812 -2.2645  0.7822 -1.3739
 6621SOL    HW231497   4.278   2.770   2.684 -1.5032  0.0371 -0.9923
 6622SOL     OW31498   3.908   1.670   6.373  0.3102 -0.2627 -0.2476
 6622SOL    HW131499   3.873   1.739   6.428  0.9807 -0.4237  0.3751
 6622SOL    HW231500   3.989   1.712   6.342 -0.5051  1.0951 -0.5258
 6623SOL     OW31501   0.147   4.513  16.325  0.0218  0.3751 -0.1609
 6623SOL    HW131502   0.139   4.496  16.231 -2.0589  0.5189 -0.0206
 6623SOL    HW231503   0.074   4.459  16.356  0.7647  0.1084  1.1485
 6624SOL     OW31504   0.425   1.887   4.242 -0.3520  0.3948 -0.1634
 6624SOL    HW131505   0.353   1.836   4.204 -1.8873  2.9379 -0.6594
 6624SOL    HW231506   0.392   1.939   4.315 -0.7038 -0.2410  0.1350
 6625SOL     OW31507   0.246   1.702  12.806 -0.4534  0.5398  0.0644
 6625SOL    HW131508   0.251   1.773  12.742 -2.5549 -0.5620 -1.2962
 6625SOL    HW231509   0.296   1.742  12.877  2.0558  1.2165 -2.0953
 6626SOL     OW31510   3.308   2.462  12.474 -0.1393 -0.1236 -0.2603
 6626SOL    HW131511   3.250   2.422  12.410 -0.2609 -0.1181 -0.1528
 6626SOL    HW231512   3.373   2.509  12.420 -3.1593  1.3128 -2.6538
 6627SOL     OW31513   2.177   2.455  16.124  0.0287  0.4110  0.6802
 6627SOL    HW131514   2.144   2.449  16.213 -1.0411  0.6327  0.2967
 6627SOL    HW231515   2.191   2.549  16.113 -2.3764  0.4765 -1.7362
 6628SOL     OW31516   0.490   2.136  15.851  0.1547 -0.2317 -0.0929
 6628SOL    HW131517   0.581   2.160  15.833  0.5567 -2.0983 -0.5225
 6628SOL    HW231518   0.445   2.196  15.791 -1.8218 -0.8267  0.7971
 6629SOL     OW31519   0.033   3.861  11.672  0.1720 -0.2216  0.1013
 6629SOL    HW131520   4.716   3.940  11.680 -0.7738 -0.6816 -1.7172
 6629SOL    HW231521   0.084   3.884  11.594 -1.1121 -0.9501 -0.9558
 6630SOL     OW31522   0.600   0.535  16.093  0.1891  0.2198 -0.2132
 6630SOL    HW131523   0.559   0.604  16.146  1.2641 -0.0054  0.9199
 6630SOL    HW231524   0.691   0.566  16.090  0.4102 -0.1827  2.0405
 6631SOL     OW31525   2.455   1.059   6.436 -0.5534  0.5057  0.0142
 6631SOL    HW131526   2.469   1.083   6.527 -0.4685 -2.8965  0.8907
 6631SOL    HW231527   2.401   1.130   6.402 -1.5769 -1.1116 -1.8189
 6632SOL     OW31528   3.808   1.484   5.063  0.3270  0.2634  0.3861
 6632SOL    HW131529   3.897   1.519   5.061  0.6517 -0.5200  1.5168
 6632SOL    HW231530   3.774   1.565   5.103  1.5247  1.4626 -1.0058
 6633SOL     OW31531   4.417   1.195   7.339 -0.2038 -0.6183  0.3244
 6633SOL    HW131532   4.504   1.235   7.345 -0.1824 -0.5371 -0.5310
 6633SOL    HW231533   4.427   1.149   7.255  1.3235  0.5488 -0.1465
 6634SOL     OW31534   0.092   3.051   2.262 -0.1192  0.5573 -0.3085
 6634SOL    HW131535   0.114   3.143   2.278  0.5085  0.3081  0.2710
 6634SOL    HW231536   0.070   3.054   2.169 -3.4041 -0.8564  0.4189
 6635SOL     OW31537   3.831   4.694   3.930  0.1730 -0.3780  0.2814
 6635SOL    HW131538   3.895   4.704   4.001  1.1047 -0.7362 -0.5120
 6635SOL    HW231539   3.759   0.012   3.964 -0.2842  0.1535 -1.5078
 6636SOL     OW31540   0.639   1.851  17.425  0.1701  0.5985 -0.4130
 6636SOL    HW131541   0.723   1.830  17.466 -0.3865 -1.2204 -0.2325
 6636SOL    HW231542   0.657   1.945  17.414  2.0656  0.2951  0.1166
 6637SOL     OW31543   1.718   3.652   8.186  0.4031 -0.4695  0.2702
 6637SOL    HW131544   1.780   3.583   8.164 -0.5644 -2.1830  2.8206
 6637SOL    HW231545   1.655   3.608   8.244 -0.1030  1.6965  1.3952
 6638SOL     OW31546   4.601   0.499   0.103 -0.5089 -0.4959 -0.3998
 6638SOL    HW131547   4.540   0.538   0.040  0.1764 -1.2712 -1.5350
 6638SOL    HW231548   4.644   0.578   0.136  1.3418 -1.4548 -0.4948
 6639SOL     OW31549   1.496   3.183  10.831 -0.1902 -0.4660  0.6316
 6639SOL    HW131550   1.551   3.238  10.774 -0.6807 -1.7242 -1.0412
 6639SOL    HW231551   1.462   3.249  10.892 -1.1754 -1.0065  0.6580
 6640SOL     OW31552   4.143   0.204  12.721  0.0459  0.0358  0.0087
 6640SOL    HW131553   4.137   0.136  12.654 -0.8039  1.2221 -1.1365
 6640SOL    HW231554   4.183   0.154  12.792 -0.3430  0.3352  0.4463
 6641SOL     OW31555   3.393   2.848  12.404 -0.0011 -0.1703  0.2514
 6641SOL    HW131556   3.475   2.895  12.393  0.0682 -0.4069 -0.2301
 6641SOL    HW231557   3.410   2.764  12.361 -1.2139 -1.4717  2.3216
 6642SOL     OW31558   2.700   3.723   8.136 -0.0862 -0.5650 -0.2337
 6642SOL    HW131559   2.682   3.815   8.157  3.2033 -0.1525  0.6254
 6642SOL    HW231560   2.629   3.696   8.077 -1.1059 -1.2237  1.2845
 6643SOL     OW31561   1.642   1.930   3.692  0.5322 -0.2926  0.1672
 6643SOL    HW131562   1.576   1.999   3.683 -1.7584 -2.2584  2.0545
 6643SOL    HW231563   1.638   1.894   3.604  1.9587  1.1770 -0.4960
 6644SOL     OW31564   2.413   2.520   7.151 -0.0670 -0.2077  0.0614
 6644SOL    HW131565   2.458   2.549   7.072  0.9728  0.4951  0.9170
 6644SOL    HW231566   2.334   2.478   7.117 -0.0607  1.1414 -1.6171
 6645SOL     OW31567   3.664   4.316   0.990 -0.1728  0.6844  0.0733
 6645SOL    HW131568   3.655   4.269   1.073  0.1019  1.0867  0.3304
 6645SOL    HW231569   3.583   4.365   1.003  0.2464  1.7235 -1.3293
 6646SOL     OW31570   4.675   4.007   9.963  0.2298 -0.0959  0.1467
 6646SOL    HW131571   4.704   4.026  10.052 -0.7512 -1.5382  0.7596
 6646SOL    HW231572   4.585   3.976   9.972 -0.3106  2.1205  2.5323
 6647SOL     OW31573   0.201   2.659   6.129  0.2595 -0.1622 -0.1754
 6647SOL    HW131574   0.177   2.720   6.059  1.8726 -0.4555 -0.9777
 6647SOL    HW231575   0.292   2.678   6.151  1.3057 -4.9334 -0.3669
 6648SOL     OW31576   1.942   2.930  10.650 -0.2773 -0.0659 -0.1807
 6648SOL    HW131577   1.912   2.926  10.741  1.0205 -3.0496  0.1115
 6648SOL    HW231578   1.918   2.842  10.621 -1.8701  0.8722 -1.6812
 6649SOL     OW31579   3.042   0.866   3.940 -0.2314  0.8833  0.1185
 6649SOL    HW131580   3.038   0.905   3.853  1.8021  2.5806  0.7740
 6649SOL    HW231581   3.099   0.926   3.988  1.5043 -1.4276  0.9232
 6650SOL     OW31582   0.606   2.095  16.342  0.2497  0.0347  0.0790
 6650SOL    HW131583   0.673   2.162  16.354 -0.2740  0.3814  1.0406
 6650SOL    HW231584   0.544   2.103  16.415  0.0263  0.9395 -0.2119
 6651SOL     OW31585   3.393   2.318   6.050  0.5282 -0.0373 -0.2327
 6651SOL    HW131586   3.448   2.371   6.108  1.5136  1.2318 -2.3009
 6651SOL    HW231587   3.436   2.236   6.071  3.3919  1.1999 -1.2974
 6652SOL     OW31588   4.140   4.303   9.004 -0.0129 -0.1153 -0.3542
 6652SOL    HW131589   4.164   4.393   9.026 -0.6267 -0.6024  2.3113
 6652SOL    HW231590   4.147   4.316   8.909  0.7869  3.0334  0.1347
 6653SOL     OW31591   2.950   2.583   6.686 -0.4229 -0.3015 -0.0396
 6653SOL    HW131592   2.860   2.600   6.660  0.1850  0.5166 -1.5881
 6653SOL    HW231593   2.989   2.670   6.684  0.3773 -0.6281  1.2175
 6654SOL     OW31594   4.062   4.686   6.429  0.2549  0.5125 -0.1261
 6654SOL    HW131595   4.056   4.628   6.352 -1.6573  1.5927 -0.7976
 6654SOL    HW231596   4.134   0.007   6.403  2.3211 -1.9613  0.1645
 6655SOL     OW31597   4.349   0.794   2.843  0.0425 -0.1777 -0.1685
 6655SOL    HW131598   4.324   0.731   2.775  1.0261 -0.4109 -0.3108
 6655SOL    HW231599   4.428   0.752   2.875 -1.2757 -2.0989  0.5828
 6656SOL     OW31600   0.799   1.997   2.453 -0.0314 -0.5465 -0.3090
 6656SOL    HW131601   0.868   1.946   2.494 -0.7039 -2.3669 -1.4013
 6656SOL    HW231602   0.835   2.009   2.365  0.5077  1.4171  0.1702
 6657SOL     OW31603   3.620   0.230   5.671  0.4451  0.6117  0.4747
 6657SOL    HW131604   3.626   0.224   5.766 -1.1600  1.9176  0.6541
 6657SOL    HW231605   3.545   0.288   5.659 -0.4759 -0.7153 -0.1894
 6658SOL     OW31606   4.134   0.705   9.957 -0.3237  0.3359 -0.1088
 6658SOL    HW131607   4.143   0.734  10.048  1.4421 -2.0335  0.4735
 6658SOL    HW231608   4.148   0.786   9.909 -1.7370 -0.1539 -1.3745
 6659SOL     OW31609   3.683   4.656  17.096 -0.0820 -0.4144 -0.6749
 6659SOL    HW131610   3.631   4.648  17.176 -0.2044  0.0180 -0.7086
 6659SOL    HW231611   3.737   4.724  17.137  1.0671 -0.6052 -1.8917
 6660SOL     OW31612   1.758   2.789   3.049  0.2738 -0.0082 -0.2131
 6660SOL    HW131613   1.777   2.821   2.961 -1.3363 -0.6228 -0.7912
 6660SOL    HW231614   1.702   2.862   3.075 -0.1400 -0.8478  1.2630
 6661SOL     OW31615   0.379   0.991   8.330 -0.7718 -0.0922  0.7807
 6661SOL    HW131616   0.304   0.998   8.271  0.8849  0.8735 -1.2410
 6661SOL    HW231617   0.381   1.081   8.362 -0.4506  0.1973 -0.0378
 6662SOL     OW31618   3.597   1.218   3.638  0.1887  0.2901 -0.2534
 6662SOL    HW131619   3.541   1.294   3.620  1.2365  1.8139  2.9521
 6662SOL    HW231620   3.592   1.216   3.734  0.1705 -1.4139 -0.2837
 6663SOL     OW31621   1.486   1.917   4.237  0.1510  0.2934  0.0924
 6663SOL    HW131622   1.522   1.854   4.175 -1.2406  0.9795 -1.4291
 6663SOL    HW231623   1.418   1.875   4.290  0.2902  1.9900  1.6071
 6664SOL     OW31624   3.871   4.629   5.761  0.2747  0.1835 -0.0530
 6664SOL    HW131625   3.866   4.654   5.853 -1.7524  1.6342 -0.5740
 6664SOL    HW231626   3.789   4.589   5.733 -0.0375  2.2052 -2.0418
 6665SOL     OW31627   1.592   0.311   5.765  0.7097  0.5103 -1.0984
 6665SOL    HW131628   1.636   0.303   5.849 -0.5677 -0.4159 -0.5298
 6665SOL    HW231629   1.598   0.220   5.737  1.3115  0.0865  0.4217
 6666SOL     OW31630   1.337   2.192   8.131  0.6444 -0.8531  0.0290
 6666SOL    HW131631   1.293   2.161   8.211 -4.0829 -2.9663 -3.3850
 6666SOL    HW231632   1.318   2.285   8.123  0.2177 -1.0808 -1.5706
 6667SOL     OW31633   0.807   4.430  15.077 -0.3139  0.1717  0.3085
 6667SOL    HW131634   0.868   4.493  15.037  0.7997 -1.1459 -0.0833
 6667SOL    HW231635   0.868   4.388  15.138  1.4273  2.4722  0.1565
 6668SOL     OW31636   1.746   1.895   3.038  0.4110 -0.1236  0.4400
 6668SOL    HW131637   1.681   1.947   3.085 -0.4858 -0.7780 -0.0566
 6668SOL    HW231638   1.756   1.812   3.085 -0.0319 -0.9869 -0.9778
 6669SOL     OW31639   4.736   4.331  14.216  0.4434 -0.1995  0.3164
 6669SOL    HW131640   0.034   4.273  14.148 -0.0552  0.0439 -0.1393
 6669SOL    HW231641   0.035   4.416  14.187 -0.8678 -0.6341 -2.5904
 6670SOL     OW31642   2.331   0.231   7.190 -0.1809  0.8019 -0.2414
 6670SOL    HW131643   2.299   0.143   7.171  0.8680  0.5122 -0.6234
 6670SOL    HW231644   2.356   0.267   7.105  1.0300  1.8639  0.5621
 6671SOL     OW31645   2.748   4.550   5.042 -0.0643 -0.1210  0.2733
 6671SOL    HW131646   2.716   4.635   5.014 -1.6715 -1.5879 -2.3077
 6671SOL    HW231647   2.843   4.555   5.026 -0.1739  0.7343 -0.0695
 6672SOL     OW31648   0.367   2.812   8.150  0.3718 -0.4039 -0.1014
 6672SOL    HW131649   0.289   2.792   8.097  0.0340 -0.6722  0.4954
 6672SOL    HW231650   0.319   2.866   8.212 -1.4786 -0.6043 -1.3463
 6673SOL     OW31651   0.671   1.201   4.465  0.2123 -0.0077 -0.2644
 6673SOL    HW131652   0.751   1.251   4.448  0.4451 -0.3667 -0.2198
 6673SOL    HW231653   0.600   1.263   4.447 -0.2356 -0.4623 -0.0532
 6674SOL     OW31654   1.531   1.310   8.737 -0.4821 -0.6390  0.2440
 6674SOL    HW131655   1.485   1.375   8.685  0.0493  2.0906  3.1729
 6674SOL    HW231656   1.556   1.358   8.816 -0.0286  0.1838 -0.3955
 6675SOL     OW31657   2.866   4.049   8.155  0.3428 -0.0302  0.1010
 6675SOL    HW131658   2.788   4.034   8.209 -0.2685 -0.5893 -0.9511
 6675SOL    HW231659   2.869   4.145   8.163 -0.8694  0.1496 -1.5189
 6676SOL     OW31660   4.554   3.563   6.392  0.4513  0.2630  0.2792
 6676SOL    HW131661   4.575   3.628   6.459 -0.3274  2.6126 -1.7376
 6676SOL    HW231662   4.629   3.504   6.403  1.7817  1.9093  0.0943
 6677SOL     OW31663   0.222   2.963   6.324 -0.2077  0.2604  0.2476
 6677SOL    HW131664   0.219   2.994   6.233 -0.6356 -1.5711 -0.3641
 6677SOL    HW231665   0.271   2.881   6.327 -2.2981 -0.9892  0.1282
 6678SOL     OW31666   3.140   4.463   6.997  0.3727  0.1974 -0.1448
 6678SOL    HW131667   3.179   4.538   7.043  0.1353  1.0489 -1.3414
 6678SOL    HW231668   3.176   4.481   6.910  0.5650 -2.2604 -0.5750
 6679SOL     OW31669   0.201   3.156   4.657 -0.7166 -0.0481 -0.1475
 6679SOL    HW131670   0.215   3.250   4.645 -0.4395 -0.4178 -2.7669
 6679SOL    HW231671   0.111   3.142   4.625 -1.4627  1.0036  1.5017
 6680SOL     OW31672   0.380   1.540  15.974 -0.3647 -0.1798 -0.1826
 6680SOL    HW131673   0.460   1.492  15.950 -1.2887 -1.3817 -0.8602
 6680SOL    HW231674   0.344   1.479  16.039 -1.6552  1.1968  0.3933
 6681SOL     OW31675   3.329   1.879   8.206  0.4522  0.3657 -0.2637
 6681SOL    HW131676   3.384   1.907   8.134  0.1348  2.8012  0.4453
 6681SOL    HW231677   3.369   1.793   8.219  1.3430  0.8457  0.1562
 6682SOL     OW31678   2.175   2.716  16.191 -0.3072 -0.3312 -0.3091
 6682SOL    HW131679   2.089   2.757  16.179 -0.6084 -0.9188 -0.1646
 6682SOL    HW231680   2.176   2.710  16.287 -2.1770 -0.6422 -0.2987
 6683SOL     OW31681   2.185   0.982   0.447 -0.0374  0.3630 -1.0344
 6683SOL    HW131682   2.271   1.017   0.467  0.7892 -2.4750  0.2660
 6683SOL    HW231683   2.172   1.021   0.360 -2.1809 -0.2397 -0.9928
 6684SOL     OW31684   1.183   1.557   4.225 -0.9556  0.0868  0.4325
 6684SOL    HW131685   1.271   1.553   4.187 -0.7266 -1.6938  1.1485
 6684SOL    HW231686   1.129   1.568   4.147 -1.0640 -4.1677 -0.1295
 6685SOL     OW31687   3.053   0.182  15.360 -0.2051 -0.4070  0.2689
 6685SOL    HW131688   2.998   0.189  15.438 -1.5819  3.9430 -1.0923
 6685SOL    HW231689   3.030   0.092  15.339  2.9851 -1.4160  1.1043
 6686SOL     OW31690   1.825   3.620  12.853 -0.5446 -0.0901 -0.3217
 6686SOL    HW131691   1.826   3.664  12.938  3.0111 -0.0360 -0.4190
 6686SOL    HW231692   1.812   3.534  12.892 -1.6002 -0.5542 -1.6952
 6687SOL     OW31693   2.567   0.064  13.212  0.2543 -0.1923 -0.6357
 6687SOL    HW131694   2.587   0.062  13.306  1.0992  1.2291 -0.7940
 6687SOL    HW231695   2.537   4.710  13.197 -0.5791 -0.5408  3.1575
 6688SOL     OW31696   0.189   1.730   2.471 -0.2220  0.0002  0.0810
 6688SOL    HW131697   0.162   1.662   2.532 -2.1931 -0.2980 -1.1184
 6688SOL    HW231698   0.184   1.699   2.381  1.0547  0.5683 -0.1822
 6689SOL     OW31699   2.774   2.028   4.833  0.6875 -0.5474  0.1251
 6689SOL    HW131700   2.791   2.092   4.902 -2.2504 -0.9503  1.2477
 6689SOL    HW231701   2.747   2.080   4.757  1.9690  2.1252  1.4917
 6690SOL     OW31702   1.926   3.394   4.634  0.0755 -0.2621 -0.1866
 6690SOL    HW131703   1.871   3.315   4.640  1.3746 -1.0598  1.3125
 6690SOL    HW231704   1.998   3.374   4.574  0.4195 -1.7731  0.7319
 6691SOL     OW31705   2.783   2.620   5.542 -0.0135 -0.0384  0.1436
 6691SOL    HW131706   2.810   2.629   5.450  0.7353 -1.9201  0.1892
 6691SOL    HW231707   2.756   2.528   5.542  1.3237 -0.4256 -0.4319
 6692SOL     OW31708   1.922   0.774   3.701 -0.5407  0.0992 -0.4178
 6692SOL    HW131709   1.947   0.696   3.750 -3.0415 -0.1478  0.4824
 6692SOL    HW231710   1.903   0.741   3.613 -0.8970 -2.1551  0.5063
 6693SOL     OW31711   1.285   1.648   3.325  0.2449  0.0780 -0.2096
 6693SOL    HW131712   1.243   1.568   3.292 -1.1239 -0.5869  3.1352
 6693SOL    HW231713   1.266   1.650   3.419  3.8113  1.3591  0.5063
 6694SOL     OW31714   0.106   3.900   5.144  0.0747  0.1837 -0.1404
 6694SOL    HW131715   0.163   3.832   5.108 -0.2901  1.9694 -4.1286
 6694SOL    HW231716   0.101   3.859   5.230 -0.0217  0.9015  0.2006
 6695SOL     OW31717   3.245   1.809   6.626 -0.1798  0.0686  0.4033
 6695SOL    HW131718   3.323   1.827   6.678 -0.8536  0.4650  1.2720
 6695SOL    HW231719   3.175   1.827   6.688  0.1714  0.2815  0.7407
 6696SOL     OW31720   3.801   3.892   3.037  0.3401  0.4373 -0.0812
 6696SOL    HW131721   3.799   3.828   3.107  0.3731  2.0308  1.3879
 6696SOL    HW231722   3.863   3.842   2.984  1.5831  0.4120  1.4151
 6697SOL     OW31723   4.458   0.587   3.403 -0.2838 -0.1140  0.1048
 6697SOL    HW131724   4.496   0.634   3.477 -0.7606  1.2253 -0.4990
 6697SOL    HW231725   4.468   0.498   3.436 -1.6284 -1.0831 -2.1184
 6698SOL     OW31726   0.012   3.048   9.733  0.3628 -0.7048 -0.0259
 6698SOL    HW131727   4.668   3.055   9.680  2.0444  1.0254 -2.3199
 6698SOL    HW231728   0.068   3.009   9.666 -1.3050 -4.4410  0.7594
 6699SOL     OW31729   2.696   0.841   1.773 -0.0004  0.2878 -0.8839
 6699SOL    HW131730   2.771   0.857   1.717  2.2495 -0.5645  1.8905
 6699SOL    HW231731   2.631   0.867   1.708 -1.5270 -1.1562  0.0665
 6700SOL     OW31732   1.169   3.458   9.254  0.2098  0.6714 -0.0013
 6700SOL    HW131733   1.149   3.479   9.163  0.4289  1.0946  0.0487
 6700SOL    HW231734   1.208   3.540   9.284 -2.0559  1.6493  0.2584
 6701SOL     OW31735   1.064   1.219  16.807  0.4958  0.1982  0.6176
 6701SOL    HW131736   1.136   1.157  16.820 -2.9295 -3.4158  2.4732
 6701SOL    HW231737   1.072   1.273  16.886 -1.5355  0.5179  0.5946
 6702SOL     OW31738   0.800   4.463  10.662  0.0225  0.0276 -0.1832
 6702SOL    HW131739   0.750   4.511  10.728 -0.0214  0.6466 -0.6636
 6702SOL    HW231740   0.749   4.384  10.644 -0.7927 -0.1850  3.1916
 6703SOL     OW31741   3.608   0.860   4.786  0.1906  0.0979 -0.9667
 6703SOL    HW131742   3.687   0.902   4.821  0.3589  0.5196 -1.8580
 6703SOL    HW231743   3.651   0.819   4.711 -0.0317 -1.2071 -0.3762
 6704SOL     OW31744   4.431   2.358   4.917  0.7998  0.5215 -0.2786
 6704SOL    HW131745   4.406   2.278   4.871  1.8780 -0.4709  0.8778
 6704SOL    HW231746   4.523   2.353   4.942  1.1678  0.9107 -1.5491
 6705SOL     OW31747   1.807   0.058   0.631 -0.0340  0.6123  0.3363
 6705SOL    HW131748   1.851   4.709   0.621 -2.4260 -0.8238  2.2270
 6705SOL    HW231749   1.876   0.117   0.602  0.0264 -1.4356 -3.7585
 6706SOL     OW31750   1.260   2.932   7.965 -0.1334  0.2391  0.4554
 6706SOL    HW131751   1.226   2.999   7.905  1.3383 -0.8999 -1.6454
 6706SOL    HW231752   1.203   2.940   8.041  0.1132  1.6334  0.4912
 6707SOL     OW31753   2.886   1.551  10.766  0.5039  0.4517  1.0596
 6707SOL    HW131754   2.814   1.606  10.799  0.5841 -0.2630  2.4346
 6707SOL    HW231755   2.929   1.614  10.708 -0.9188  0.5217  0.0681
 6708SOL     OW31756   1.365   4.358   4.257 -0.6610 -0.1765 -0.1738
 6708SOL    HW131757   1.455   4.328   4.242 -1.4815 -2.6107 -0.2515
 6708SOL    HW231758   1.339   4.291   4.321  2.4348 -1.9573 -0.7856
 6709SOL     OW31759   3.409   3.771   7.383  0.4304  0.3621  0.7370
 6709SOL    HW131760   3.319   3.738   7.373  0.4467  0.9820 -1.4020
 6709SOL    HW231761   3.429   3.696   7.440  1.0372  0.3777  0.5379
 6710SOL     OW31762   3.390   2.637   8.350 -0.5158  0.4534  0.5884
 6710SOL    HW131763   3.485   2.650   8.358 -0.4808  0.4565  0.1618
 6710SOL    HW231764   3.381   2.544   8.371 -0.5556  0.8415  2.2636
 6711SOL     OW31765   4.013   3.425   9.921 -0.0323 -0.1180  0.7667
 6711SOL    HW131766   4.045   3.514   9.936  0.1232  0.0976 -0.7933
 6711SOL    HW231767   4.006   3.390  10.010  1.1343  0.0873  0.9408
 6712SOL     OW31768   3.156   1.605   2.803 -0.0332 -0.0626  0.6517
 6712SOL    HW131769   3.237   1.624   2.851  1.9336  0.0320 -2.7525
 6712SOL    HW231770   3.136   1.690   2.765  0.7181  0.0357  0.4697
 6713SOL     OW31771   2.568   3.716   1.903  0.6702 -0.1420 -0.6185
 6713SOL    HW131772   2.477   3.697   1.883  0.3479  0.9059 -0.1557
 6713SOL    HW231773   2.609   3.700   1.818 -0.4760 -2.2879 -0.7573
 6714SOL     OW31774   1.022   4.388   7.427  0.4369 -0.2181  0.1746
 6714SOL    HW131775   1.117   4.400   7.426  0.3025  0.8193 -0.4642
 6714SOL    HW231776   1.001   4.377   7.334 -1.8607  1.1915  0.5043
 6715SOL     OW31777   1.647   0.581   1.565  0.4435  0.3863 -0.2075
 6715SOL    HW131778   1.713   0.560   1.632  0.3247  1.2425  0.1681
 6715SOL    HW231779   1.650   0.495   1.523 -0.4316 -0.8401  2.2062
 6716SOL     OW31780   3.933   1.043   6.176 -0.1626 -0.5743 -0.3655
 6716SOL    HW131781   3.892   1.121   6.138 -1.8232 -0.2067  2.1873
 6716SOL    HW231782   3.991   1.083   6.242 -1.0584  1.8305 -1.0308
 6717SOL     OW31783   1.865   4.663   8.216  0.7267  0.2171  0.0703
 6717SOL    HW131784   1.860   4.676   8.311 -0.6999 -1.9276  0.3082
 6717SOL    HW231785   1.835   4.572   8.224 -0.6997  0.8685  2.1693
 6718SOL     OW31786   2.991   1.339   3.309 -0.0709 -0.2352  0.3057
 6718SOL    HW131787   2.957   1.415   3.261  0.6833 -0.1241 -0.0453
 6718SOL    HW231788   3.040   1.295   3.239 -1.3653 -1.6433  0.2770
 6719SOL     OW31789   4.020   0.394   8.542  0.6206 -0.6162 -0.7563
 6719SOL    HW131790   3.996   0.417   8.452 -0.3520  1.8597  0.1416
 6719SOL    HW231791   3.941   0.342   8.558 -1.0856  1.4636 -2.2637
 6720SOL     OW31792   3.218   4.109  14.311 -0.2974 -0.0259  0.4221
 6720SOL    HW131793   3.230   4.100  14.216  1.3435 -2.4275  0.8434
 6720SOL    HW231794   3.139   4.055  14.311  0.0089 -0.4766 -1.6359
 6721SOL     OW31795   2.919   0.679   5.311 -0.0142  0.2007 -0.1834
 6721SOL    HW131796   2.998   0.641   5.273  1.4545  0.8045  2.3157
 6721SOL    HW231797   2.840   0.626   5.297 -2.4809  3.2624  2.1625
 6722SOL     OW31798   2.695   3.704   2.620 -0.5523 -0.0808 -0.3701
 6722SOL    HW131799   2.676   3.769   2.551 -1.3162 -0.3159 -0.3799
 6722SOL    HW231800   2.685   3.622   2.572  0.4009 -0.1179 -0.5087
 6723SOL     OW31801   4.593   3.932   1.004 -0.2124  0.4149  0.0737
 6723SOL    HW131802   4.579   3.930   1.099 -0.7807  1.0225 -0.0015
 6723SOL    HW231803   4.625   3.842   0.992 -3.3814 -0.6259 -0.5381
 6724SOL     OW31804   4.259   1.783  13.258  0.2364  0.2874  0.2593
 6724SOL    HW131805   4.330   1.719  13.262 -0.7359 -1.0287 -3.5455
 6724SOL    HW231806   4.233   1.751  13.171  0.2171  0.0305  0.3622
 6725SOL     OW31807   2.206   3.369   3.442  0.4276 -0.2833 -0.1543
 6725SOL    HW131808   2.258   3.310   3.496  1.4182 -0.9605 -1.8497
 6725SOL    HW231809   2.261   3.385   3.366 -0.9040 -0.2912 -1.1151
 6726SOL     OW31810   0.624   2.888   8.448 -0.4498  0.1708  0.2035
 6726SOL    HW131811   0.625   2.907   8.542 -0.0062  0.4425  0.1502
 6726SOL    HW231812   0.679   2.962   8.420  0.2627 -0.0031  1.1535
 6727SOL     OW31813   4.326   1.126   8.140  0.1138  1.0111 -0.3182
 6727SOL    HW131814   4.335   1.118   8.235  3.4040  0.0045 -0.6986
 6727SOL    HW231815   4.391   1.066   8.104  0.0239 -0.0541  1.3070
 6728SOL     OW31816   2.907   2.956   1.498 -0.5683  0.5765  0.0801
 6728SOL    HW131817   2.900   2.999   1.413 -1.9712  1.1398  0.4831
 6728SOL    HW231818   2.987   2.906   1.481 -0.0572  1.0993  0.9504
 6729SOL     OW31819   3.317   3.899   9.068  0.1207 -0.1290 -0.5441
 6729SOL    HW131820   3.318   3.926   9.159  0.3375 -0.5936 -0.4097
 6729SOL    HW231821   3.267   3.967   9.022  0.8387 -1.0378 -2.6688
 6730SOL     OW31822   4.461   0.885   8.335 -0.3628 -0.2517 -0.5616
 6730SOL    HW131823   4.481   0.824   8.265 -0.6987 -0.3027 -0.6111
 6730SOL    HW231824   4.491   0.825   8.403 -1.6826  2.4678  2.4556
 6731SOL     OW31825   0.563   2.625   5.507  0.6343  0.0512 -0.0048
 6731SOL    HW131826   0.563   2.622   5.602 -1.8778 -0.3292 -0.0185
 6731SOL    HW231827   0.531   2.710   5.475  2.9545  1.8788  2.5846
 6732SOL     OW31828   0.224   3.396   9.694 -0.0447 -0.2630 -0.6321
 6732SOL    HW131829   0.244   3.447   9.616  0.0775  0.5888 -0.0484
 6732SOL    HW231830   0.273   3.450   9.756 -1.7026  1.0074 -0.4199
 6733SOL     OW31831   0.229   1.526   6.278 -0.6178  0.2266  0.7243
 6733SOL    HW131832   0.309   1.578   6.285 -2.7587  3.5318  0.7696
 6733SOL    HW231833   0.201   1.535   6.187  0.3662  1.2146  0.5173
 6734SOL     OW31834   2.609   4.364   8.228 -0.6140  0.1059  0.1663
 6734SOL    HW131835   2.588   4.344   8.319 -0.6368  2.8830  0.7808
 6734SOL    HW231836   2.561   4.446   8.214  1.2547  1.2809  0.6814
 6735SOL     OW31837   2.740   4.278   4.312 -0.2431 -0.3620 -0.2468
 6735SOL    HW131838   2.690   4.199   4.293  0.4731 -0.8535 -0.0822
 6735SOL    HW231839   2.738   4.334   4.235  0.4378 -1.2324 -0.8959
 6736SOL     OW31840   2.429   3.232   8.918 -0.0512  0.0740 -0.4289
 6736SOL    HW131841   2.477   3.150   8.925 -2.5854 -1.5152 -1.4961
 6736SOL    HW231842   2.357   3.200   8.863 -0.7527  1.1120 -0.1123
 6737SOL     OW31843   2.115   1.586   3.615  0.3273 -0.2759 -0.0210
 6737SOL    HW131844   2.168   1.640   3.557  2.4022 -1.2444  0.9719
 6737SOL    HW231845   2.153   1.592   3.702 -0.2002  1.2761  0.1004
 6738SOL     OW31846   0.493   0.314  14.171 -0.4913 -0.1190 -0.3048
 6738SOL    HW131847   0.550   0.335  14.245 -0.8541  0.2564 -0.1290
 6738SOL    HW231848   0.496   0.219  14.179  1.6261  0.0122  0.5366
 6739SOL     OW31849   1.263   0.610  14.142  0.4008 -0.1802  0.8124
 6739SOL    HW131850   1.331   0.583  14.081 -0.2723 -1.0910  0.4746
 6739SOL    HW231851   1.228   0.683  14.091 -1.2463 -2.1853 -0.8878
 6740SOL     OW31852   2.847   0.032   3.976 -0.1869  0.1335 -0.0986
 6740SOL    HW131853   2.888   0.117   3.990  2.2802 -0.9894 -0.3764
 6740SOL    HW231854   2.793   0.027   4.055  1.5540 -1.1219  1.0233
 6741SOL     OW31855   3.684   2.392   3.143  0.1742  0.2919 -0.2394
 6741SOL    HW131856   3.640   2.309   3.126 -0.0125  0.3637 -0.1007
 6741SOL    HW231857   3.773   2.360   3.129 -0.6485 -2.4853  0.8785
 6742SOL     OW31858   2.048   4.390   9.005 -0.2938 -0.7159 -0.0575
 6742SOL    HW131859   1.998   4.455   8.955 -0.7766 -0.6090  0.5715
 6742SOL    HW231860   1.986   4.319   9.023  1.2169 -2.2880 -1.0964
 6743SOL     OW31861   0.504   1.239   3.562 -0.2934  0.1920  0.9934
 6743SOL    HW131862   0.507   1.296   3.639 -0.8798  0.0008  1.1626
 6743SOL    HW231863   0.432   1.182   3.589  0.6932 -1.4199  0.1633
 6744SOL     OW31864   4.021   3.854   1.278 -0.0858 -0.3028 -0.4524
 6744SOL    HW131865   4.070   3.810   1.348  1.0433  0.1532 -0.9642
 6744SOL    HW231866   4.092   3.884   1.222 -0.3370  0.0060 -0.6062
 6745SOL     OW31867   3.597   3.477   4.922  0.4463 -0.1184 -0.0873
 6745SOL    HW131868   3.686   3.467   4.955  0.1299 -1.7509  0.2743
 6745SOL    HW231869   3.546   3.499   5.000  1.3858 -1.8873  1.0237
 6746SOL     OW31870   1.401   1.559   7.911  0.2845  0.0787  0.0490
 6746SOL    HW131871   1.314   1.558   7.952  1.4504 -0.0521  2.5606
 6746SOL    HW231872   1.424   1.651   7.917 -2.3826  0.6765  0.9381
 6747SOL     OW31873   2.495   1.175  14.298  0.2865  0.0212 -0.2284
 6747SOL    HW131874   2.407   1.205  14.319  0.4469 -0.0883  0.6281
 6747SOL    HW231875   2.540   1.227  14.366  0.6961 -1.0832  0.3470
 6748SOL     OW31876   3.285   2.414   2.012  0.5025  0.4418 -0.0204
 6748SOL    HW131877   3.340   2.373   1.946 -0.3931  0.2921 -0.6763
 6748SOL    HW231878   3.294   2.360   2.090  0.2044  0.3178 -0.0715
 6749SOL     OW31879   3.756   0.572   5.994  0.1163 -0.4459  0.2236
 6749SOL    HW131880   3.728   0.659   6.021 -0.9846 -0.7871  0.1601
 6749SOL    HW231881   3.801   0.595   5.912 -0.5050  1.4974  0.4391
 6750SOL     OW31882   0.802   1.676  15.644 -0.4543 -0.5503  0.3465
 6750SOL    HW131883   0.773   1.702  15.731  1.4159 -0.2413  0.8807
 6750SOL    HW231884   0.749   1.731  15.586  0.4298  0.7427  0.7721
 6751SOL     OW31885   0.449   1.336  12.815  0.0956 -0.3730 -0.4165
 6751SOL    HW131886   0.449   1.385  12.897  0.7162 -1.8369  0.4407
 6751SOL    HW231887   0.372   1.376  12.774 -0.3449 -0.5084  0.2865
 6752SOL     OW31888   3.613   3.710   0.035 -0.2723  0.0935 -0.4289
 6752SOL    HW131889   3.697   3.665   0.046 -0.2415  0.2042 -0.2052
 6752SOL    HW231890   3.592   3.691  17.687  0.3412 -3.9780  0.3133
 6753SOL     OW31891   0.653   0.286   6.891 -0.1611  0.5659 -0.2096
 6753SOL    HW131892   0.633   0.295   6.984  1.2817 -1.3107  0.2725
 6753SOL    HW231893   0.581   0.231   6.862  0.1203 -0.6586  1.4029
 6754SOL     OW31894   3.677   2.612   6.681 -0.3933 -0.4871 -0.1182
 6754SOL    HW131895   3.636   2.606   6.595 -1.1795 -0.6998  0.2659
 6754SOL    HW231896   3.770   2.618   6.661 -0.4655 -4.0019 -1.4539
 6755SOL     OW31897   4.441   4.003  16.945 -0.4203  0.4867  0.0143
 6755SOL    HW131898   4.411   3.963  17.026 -1.6209 -0.4228 -0.8760
 6755SOL    HW231899   4.430   4.097  16.959 -0.8719 -0.0656  3.1918
 6756SOL     OW31900   0.757   1.572   7.952  0.3082  0.0621  0.0649
 6756SOL    HW131901   0.796   1.486   7.969  0.1385  0.3868  2.1271
 6756SOL    HW231902   0.715   1.556   7.868 -1.6314  1.7565  0.7127
 6757SOL     OW31903   4.653   1.989  16.933  0.0363  0.1825  0.4454
 6757SOL    HW131904   4.650   1.932  16.856  0.5304  0.4157  0.2543
 6757SOL    HW231905   4.564   2.024  16.939 -0.6337 -1.4331 -0.2337
 6758SOL     OW31906   3.691   3.192   9.908  0.3873  0.4492 -0.2026
 6758SOL    HW131907   3.647   3.115   9.945  0.8992 -0.0428 -0.6018
 6758SOL    HW231908   3.779   3.181   9.946  0.7802  1.0143 -0.9597
 6759SOL     OW31909   0.746   2.400   6.122 -0.0456  0.4206  0.3350
 6759SOL    HW131910   0.735   2.414   6.028 -0.8557 -0.9453  0.2200
 6759SOL    HW231911   0.827   2.351   6.132 -0.6422 -0.5803  0.2244
 6760SOL     OW31912   2.972   3.775   8.073  0.0256 -0.2220 -0.1134
 6760SOL    HW131913   3.038   3.817   8.129  0.4499  1.0945 -1.6039
 6760SOL    HW231914   2.901   3.840   8.077  1.1162  0.8642  1.5003
 6761SOL     OW31915   2.148   0.106   3.975 -0.7032  0.5515  0.2453
 6761SOL    HW131916   2.078   0.170   3.984 -3.1361 -2.0434 -0.3274
 6761SOL    HW231917   2.160   0.095   3.881 -0.7277  0.0148  0.3073
 6762SOL     OW31918   4.218   2.777   1.647  0.1992  0.5133  0.1978
 6762SOL    HW131919   4.202   2.765   1.553  0.6241  3.4322 -0.2675
 6762SOL    HW231920   4.305   2.737   1.646 -0.4188 -0.7402 -2.2370
 6763SOL     OW31921   0.096   0.318   3.199 -0.2883 -0.2569 -1.0211
 6763SOL    HW131922   0.030   0.385   3.218  0.7421  0.5085 -0.0742
 6763SOL    HW231923   0.042   0.264   3.141 -2.3881  0.6503  0.0710
 6764SOL     OW31924   0.204   0.300   4.444  0.1060 -0.0435 -0.1029
 6764SOL    HW131925   0.221   0.308   4.350  0.4184  1.6229  0.0967
 6764SOL    HW231926   0.151   0.379   4.451  0.7472  0.4782 -1.0809
 6765SOL     OW31927   3.658   3.623   9.060 -0.0307  0.2534 -0.3536
 6765SOL    HW131928   3.589   3.606   8.997  0.2072 -0.3451 -0.4591
 6765SOL    HW231929   3.623   3.692   9.116 -0.0109  1.3484 -1.7053
 6766SOL     OW31930   4.456   0.210   3.811  0.0398 -0.2456 -0.1468
 6766SOL    HW131931   4.467   0.129   3.761  0.0483 -0.3325 -0.0022
 6766SOL    HW231932   4.391   0.187   3.876  1.1366 -0.0583  1.0150
 6767SOL     OW31933   4.313   0.930   6.485  0.2737 -0.4736  0.2101
 6767SOL    HW131934   4.341   0.844   6.453  1.3550  0.0202 -0.1865
 6767SOL    HW231935   4.389   0.983   6.461  0.1515 -0.3755  0.0403
 6768SOL     OW31936   4.440   0.563  12.206  0.0444  0.2777 -0.4093
 6768SOL    HW131937   4.462   0.518  12.288  0.1281  1.3461  0.1494
 6768SOL    HW231938   4.520   0.565  12.155  0.6068  1.1221  0.5054
 6769SOL     OW31939   0.430   2.536   6.632  0.1022 -0.3910 -0.3114
 6769SOL    HW131940   0.392   2.498   6.711 -0.3786  2.2326  0.6884
 6769SOL    HW231941   0.491   2.604   6.661 -0.3674 -0.2809  0.3908
 6770SOL     OW31942   1.774   2.450  15.345  0.0405  0.3372  0.7456
 6770SOL    HW131943   1.725   2.481  15.270  0.4435  1.3266  0.8983
 6770SOL    HW231944   1.776   2.511  15.419  0.3946  0.7968  0.3554
 6771SOL     OW31945   1.811   3.132  11.972 -0.3535 -0.2208 -0.0228
 6771SOL    HW131946   1.837   3.047  11.939  2.1526  0.6125 -0.2219
 6771SOL    HW231947   1.896   3.175  11.970 -1.7303  2.6698  2.0350
 6772SOL     OW31948   2.288   1.124   7.374 -0.2764 -0.2949  0.2120
 6772SOL    HW131949   2.195   1.148   7.376 -0.4485 -1.0751  2.1533
 6772SOL    HW231950   2.320   1.138   7.285 -0.1796 -0.2494  0.2540
 6773SOL     OW31951   4.364   4.733   7.107 -0.3072 -0.3041 -0.2378
 6773SOL    HW131952   4.398   0.047   7.033  1.8212 -0.3041  0.7176
 6773SOL    HW231953   4.307   4.669   7.063  1.7922 -2.5535  0.2757
 6774SOL     OW31954   1.337   3.247   9.280  0.5478 -0.2748  0.7580
 6774SOL    HW131955   1.294   3.196   9.349  2.5974 -1.2188  1.3602
 6774SOL    HW231956   1.262   3.300   9.257  1.3577  0.4828 -0.1347
 6775SOL     OW31957   0.706   0.666   4.294  0.3031  0.2157 -0.1275
 6775SOL    HW131958   0.615   0.637   4.301  0.9068 -1.0087  2.4912
 6775SOL    HW231959   0.699   0.760   4.312 -1.6487 -0.2145  1.3026
 6776SOL     OW31960   2.198   2.950   3.671  0.1286 -0.2827  0.4386
 6776SOL    HW131961   2.164   2.885   3.733  1.7519 -0.1772  1.4346
 6776SOL    HW231962   2.201   3.023   3.732 -2.0913  1.1586 -1.1421
 6777SOL     OW31963   3.508   2.248   4.055  0.2750  0.5922 -0.0317
 6777SOL    HW131964   3.512   2.278   3.964  0.5768  1.5098  0.2928
 6777SOL    HW231965   3.441   2.179   4.056 -1.0478  1.8970  0.7939
 6778SOL     OW31966   2.929   1.301   7.927  0.4756  0.0302 -0.0225
 6778SOL    HW131967   3.004   1.307   7.987 -0.2618  1.1651  0.7844
 6778SOL    HW231968   2.979   1.290   7.846  0.5355 -0.5552  0.0951
 6779SOL     OW31969   4.331   0.350   5.994  0.3911  0.5279 -0.4604
 6779SOL    HW131970   4.423   0.372   5.977 -0.0307  2.4230 -0.2551
 6779SOL    HW231971   4.315   0.268   5.947  1.8168  0.9553 -1.7036
 6780SOL     OW31972   3.428   1.232  16.921 -0.1921  0.3664  0.8597
 6780SOL    HW131973   3.474   1.239  17.005  1.5004  1.0645 -0.1254
 6780SOL    HW231974   3.507   1.215  16.871 -0.3037 -0.9372  1.1387
 6781SOL     OW31975   2.027   2.207  12.516 -0.3887 -0.1447 -0.0221
 6781SOL    HW131976   2.001   2.155  12.592  0.8039 -1.2220 -0.3750
 6781SOL    HW231977   1.972   2.285  12.530  0.8771  0.5725  0.9384
 6782SOL     OW31978   1.763   0.746   7.026  0.3637 -0.0034  0.2103
 6782SOL    HW131979   1.772   0.763   6.932  0.0406 -1.7584 -0.1417
 6782SOL    HW231980   1.839   0.795   7.056 -1.5197  2.6121  0.7542
 6783SOL     OW31981   2.253   0.496   5.865  0.3502 -0.4688  0.2316
 6783SOL    HW131982   2.245   0.592   5.867  1.4550 -0.3617 -0.6363
 6783SOL    HW231983   2.347   0.488   5.878  0.4174  0.6938  0.4908
 6784SOL     OW31984   1.709   0.499   4.011  0.0627 -0.1958 -0.7067
 6784SOL    HW131985   1.690   0.542   3.928 -2.5982  0.3617  0.1827
 6784SOL    HW231986   1.619   0.487   4.043 -0.4255  0.9888 -1.6252
 6785SOL     OW31987   0.823   1.704   5.323 -0.2085 -0.1220  0.0898
 6785SOL    HW131988   0.784   1.741   5.402  0.5322  1.0169 -0.0898
 6785SOL    HW231989   0.911   1.695   5.361 -0.2218  0.5277  0.2694
 6786SOL     OW31990   0.597   4.110   4.592  0.5214 -0.3015 -0.9799
 6786SOL    HW131991   0.573   4.047   4.661 -0.2074  0.8907 -0.1492
 6786SOL    HW231992   0.671   4.157   4.629  0.5643  1.5655 -3.4240
 6787SOL     OW31993   2.652   0.405  13.780  1.3567 -0.0253 -0.0835
 6787SOL    HW131994   2.672   0.369  13.866 -1.2807  0.2675  0.6531
 6787SOL    HW231995   2.632   0.326  13.731 -1.6857  0.7163 -0.0040
 6788SOL     OW31996   2.208   4.237   1.200 -0.0154  0.0501  0.9406
 6788SOL    HW131997   2.135   4.300   1.194 -0.3258 -0.6314 -2.4550
 6788SOL    HW231998   2.210   4.230   1.295  2.2716  1.0558  0.9597
 6789SOL     OW31999   4.542   3.299   4.044  0.5659  0.5287 -0.4276
 6789SOL    HW132000   4.518   3.209   4.066  0.1267  1.2385  2.0331
 6789SOL    HW232001   4.550   3.334   4.133  2.9353 -0.8513 -0.0892
 6790SOL     OW32002   2.304   0.549   5.286  0.3213  0.6540 -0.6072
 6790SOL    HW132003   2.300   0.601   5.206 -1.9851 -0.7635 -1.3902
 6790SOL    HW232004   2.373   0.595   5.335  0.8252 -2.0439  1.2378
 6791SOL     OW32005   1.800   0.319  14.569 -0.4189 -0.0027  0.4735
 6791SOL    HW132006   1.864   0.384  14.596 -0.5873  0.0804  0.6694
 6791SOL    HW232007   1.735   0.333  14.638  1.5513  1.8392  1.9699
 6792SOL     OW32008   1.658   4.712  10.356 -0.4555  0.1273  0.7955
 6792SOL    HW132009   1.721   0.032  10.401 -1.2518  2.3251 -0.7940
 6792SOL    HW232010   1.710   4.710  10.275 -0.2456 -1.2808  0.9707
 6793SOL     OW32011   2.908   0.250   8.287  0.3291 -0.2017 -0.0040
 6793SOL    HW132012   2.832   0.244   8.230  1.1741  0.4390 -1.1967
 6793SOL    HW232013   2.911   0.339   8.322 -1.4388 -0.6871  1.3538
 6794SOL     OW32014   3.394   4.430   9.248  0.1547  0.2751  0.2912
 6794SOL    HW132015   3.330   4.368   9.214  1.1244 -0.8203  0.4495
 6794SOL    HW232016   3.345   4.472   9.319 -1.9249 -2.5679  0.5477
 6795SOL     OW32017   1.733   0.939   1.482 -0.0189 -0.3250 -0.3598
 6795SOL    HW132018   1.760   0.889   1.405  1.1971  3.0245 -2.0633
 6795SOL    HW232019   1.706   1.027   1.459  1.7657  0.2633 -0.2135
 6796SOL     OW32020   4.431   0.706   5.638  0.0497  0.1742 -0.5987
 6796SOL    HW132021   4.397   0.634   5.586  0.7107 -0.6518  0.1219
 6796SOL    HW232022   4.395   0.683   5.723  1.1399  1.6561  0.2721
 6797SOL     OW32023   3.155   4.442   4.750 -0.2010 -0.0045 -0.2764
 6797SOL    HW132024   3.113   4.500   4.686  0.7423  0.9224 -0.0570
 6797SOL    HW232025   3.144   4.356   4.710 -0.8057 -0.2827  0.5007
 6798SOL     OW32026   3.607   0.605   2.335  0.2584 -0.4472 -0.4852
 6798SOL    HW132027   3.691   0.561   2.322  1.1558  0.9173  0.6930
 6798SOL    HW232028   3.583   0.626   2.245  0.6939  0.3182 -0.4166
 6799SOL     OW32029   2.288   3.804   8.210  0.4212  0.8308  0.4560
 6799SOL    HW132030   2.275   3.709   8.211 -3.1780  1.3384 -0.2010
 6799SOL    HW232031   2.248   3.832   8.128  0.5361 -0.9610 -0.2084
 6800SOL     OW32032   4.016   1.715   5.572 -0.1172  0.2695 -0.2323
 6800SOL    HW132033   4.111   1.714   5.564 -0.1354  1.8548 -0.6981
 6800SOL    HW232034   3.991   1.643   5.629 -2.0476  0.6451 -0.5981
 6801SOL     OW32035   1.322   1.756   5.261 -0.0700  0.3138 -0.8391
 6801SOL    HW132036   1.333   1.697   5.336  0.5192  1.0309 -0.3573
 6801SOL    HW232037   1.402   1.728   5.218  0.5082 -1.6490  1.5196
 6802SOL     OW32038   1.739   3.737   3.959 -0.9053 -0.6369  0.2549
 6802SOL    HW132039   1.796   3.768   4.030 -0.0470 -1.8812  0.0929
 6802SOL    HW232040   1.776   3.776   3.881 -1.7479  0.2750  0.3028
 6803SOL     OW32041   2.344   2.033   1.922  0.0548 -0.1840 -0.1497
 6803SOL    HW132042   2.403   2.097   1.962 -0.7285 -0.6020  1.6745
 6803SOL    HW232043   2.266   2.033   1.978  0.5783 -1.2222  0.5838
 6804SOL     OW32044   3.583   0.726   8.092  0.0466 -0.5131 -0.4883
 6804SOL    HW132045   3.630   0.643   8.092 -2.0122 -1.6830  1.6396
 6804SOL    HW232046   3.656   0.787   8.084  0.5869 -1.1505 -0.3025
 6805SOL     OW32047   3.455   2.514   0.848 -0.3786  0.7144  0.2828
 6805SOL    HW132048   3.502   2.440   0.809 -1.5670  0.8921 -1.4960
 6805SOL    HW232049   3.370   2.472   0.864 -0.7178  1.1422 -0.4078
 6806SOL     OW32050   3.133   3.105   5.992  0.1739 -0.1527  0.4276
 6806SOL    HW132051   3.213   3.145   5.957 -0.4083  1.1015  0.5444
 6806SOL    HW232052   3.069   3.118   5.922 -0.3097  1.7753  1.2284
 6807SOL     OW32053   2.635   0.285   6.030 -0.4442  0.1016  0.2684
 6807SOL    HW132054   2.715   0.296   5.978  0.7087 -0.3057  1.9466
 6807SOL    HW232055   2.610   0.193   6.020  0.7742 -0.1330 -0.6282
 6808SOL     OW32056   2.921   0.604   1.682  0.0817 -0.2178  0.1421
 6808SOL    HW132057   2.991   0.542   1.665 -0.5945 -0.9145 -0.0750
 6808SOL    HW232058   2.930   0.620   1.776  1.4773 -0.2777  0.0126
 6809SOL     OW32059   3.308   0.156   0.837  0.1896 -0.2091  0.0392
 6809SOL    HW132060   3.274   0.076   0.797  0.3757 -1.7889  3.0128
 6809SOL    HW232061   3.384   0.180   0.784 -1.3946  0.0016 -2.1096
 6810SOL     OW32062   3.562   1.496   6.395 -0.1175  0.4169 -0.0919
 6810SOL    HW132063   3.477   1.539   6.390 -1.2799 -1.7776  0.8986
 6810SOL    HW232064   3.547   1.402   6.400  1.6436  0.0022 -2.5122
 6811SOL     OW32065   4.321   0.604   8.660 -0.5677  0.0888 -0.4340
 6811SOL    HW132066   4.320   0.509   8.661 -0.2602  0.0702 -2.3595
 6811SOL    HW232067   4.232   0.617   8.695 -1.8274 -1.2888 -3.1730
 6812SOL     OW32068   1.123   4.644  14.684 -0.1557 -0.2634 -0.1975
 6812SOL    HW132069   1.091   4.615  14.770  0.1213  1.4649  0.4740
 6812SOL    HW232070   1.044   4.684  14.647 -0.2900 -2.6836 -2.4854
 6813SOL     OW32071   0.438   3.444   4.326  0.6441 -0.2175 -0.2317
 6813SOL    HW132072   0.360   3.394   4.305 -0.1819  1.9389 -2.2903
 6813SOL    HW232073   0.410   3.510   4.390 -0.3972 -1.3661  0.4752
 6814SOL     OW32074   2.791   4.050   3.182  0.4559 -0.3339  0.2764
 6814SOL    HW132075   2.865   4.011   3.229 -0.5399 -0.4136  1.7671
 6814SOL    HW232076   2.830   4.137   3.176  0.4337 -0.2761  0.9665
 6815SOL     OW32077   1.502   4.153   2.678  0.2382  0.1065 -0.0575
 6815SOL    HW132078   1.572   4.165   2.742  1.0158 -0.1824 -0.8480
 6815SOL    HW232079   1.484   4.245   2.659  0.1005  0.3756  1.3615
 6816SOL     OW32080   3.956   2.848  17.000 -0.2174 -0.5141 -0.3914
 6816SOL    HW132081   3.882   2.847  17.061  1.5755  0.8159  1.8091
 6816SOL    HW232082   3.957   2.756  16.975 -0.9908 -0.3854 -0.8833
 6817SOL     OW32083   4.042   0.141   3.250 -0.1096  0.2765  0.2024
 6817SOL    HW132084   4.020   0.224   3.292  2.1345  1.0945 -0.2920
 6817SOL    HW232085   3.968   0.137   3.189  0.2932 -0.1174 -0.2542
 6818SOL     OW32086   0.065   1.230   8.050 -0.0119  0.2543  0.1278
 6818SOL    HW132087   0.052   1.172   7.975  0.9296 -1.8438  1.6014
 6818SOL    HW232088   0.118   1.303   8.017  2.3913 -0.8523  1.5952
 6819SOL     OW32089   3.459   3.315   4.637 -0.2977  0.0244  0.5101
 6819SOL    HW132090   3.481   3.408   4.626  0.1533 -0.0567  0.7158
 6819SOL    HW232091   3.384   3.323   4.695  0.7212 -2.5487  2.1938
 6820SOL     OW32092   2.385   1.069   3.240 -0.3931  0.3060  0.0204
 6820SOL    HW132093   2.316   1.022   3.193 -0.4412  0.2588  0.1393
 6820SOL    HW232094   2.388   1.155   3.197 -1.3931  0.6418  0.6183
 6821SOL     OW32095   1.894   3.692   4.655  0.7144 -0.1823  0.0420
 6821SOL    HW132096   1.971   3.708   4.601  0.6796  0.0001  0.0457
 6821SOL    HW232097   1.878   3.602   4.626 -1.6644  0.0728  0.5572
 6822SOL     OW32098   2.291   4.406   3.319  0.1755  0.4136  0.4219
 6822SOL    HW132099   2.294   4.432   3.227 -1.1295 -0.1587  0.2281
 6822SOL    HW232100   2.348   4.473   3.359  0.1972  1.0353 -0.6451
 6823SOL     OW32101   2.954   0.951  16.936  0.3106 -0.2190  0.1928
 6823SOL    HW132102   2.905   0.931  16.857  0.0561  0.2693  0.2263
 6823SOL    HW232103   3.040   0.967  16.898  1.7529  0.6402  3.7535
 6824SOL     OW32104   4.497   2.990   3.964  0.2283  0.7793 -0.1584
 6824SOL    HW132105   4.462   3.026   4.046 -0.1736  0.3990 -0.1636
 6824SOL    HW232106   4.483   2.896   3.972 -1.1840  1.0680  0.6459
 6825SOL     OW32107   1.846   0.992   2.184 -0.0674  0.3425  0.0923
 6825SOL    HW132108   1.838   1.015   2.092  4.3846 -0.3303 -0.4253
 6825SOL    HW232109   1.764   0.944   2.196 -1.8580  3.1175 -1.1362
 6826SOL     OW32110   0.047   0.959   3.079  0.6318  0.4080 -0.2923
 6826SOL    HW132111   0.043   0.914   2.994  2.6393  1.6084 -1.0134
 6826SOL    HW232112   4.705   0.926   3.124  1.6010  0.4774  1.4301
 6827SOL     OW32113   3.344   2.919   7.065 -0.2131  0.2378 -0.4069
 6827SOL    HW132114   3.326   2.971   7.143 -1.0055  0.0721 -0.4804
 6827SOL    HW232115   3.432   2.900   7.096 -0.3448 -0.3993 -0.4312
 6828SOL     OW32116   0.398   0.258  15.604 -0.4870 -0.4772  0.0465
 6828SOL    HW132117   0.305   0.238  15.619 -0.6193 -1.4940 -2.1903
 6828SOL    HW232118   0.402   0.340  15.654  0.4244  0.1260 -1.0154
 6829SOL     OW32119   2.310   1.710   6.533 -0.4762  0.1432 -0.0001
 6829SOL    HW132120   2.228   1.667   6.559 -0.6917  1.2612  1.1824
 6829SOL    HW232121   2.327   1.672   6.447  1.3159  3.1360 -0.9336
 6830SOL     OW32122   4.267   0.245   7.723 -0.2456  1.1550  0.6037
 6830SOL    HW132123   4.236   0.226   7.635 -1.6726 -0.6575  1.5042
 6830SOL    HW232124   4.251   0.162   7.769 -1.6766  0.2312 -1.5648
 6831SOL     OW32125   3.904   2.173   8.850 -0.2741 -0.3949 -0.5518
 6831SOL    HW132126   3.943   2.122   8.921  2.4758  1.4203 -0.7393
 6831SOL    HW232127   3.846   2.105   8.816 -0.5971  0.0215 -0.8413
 6832SOL     OW32128   3.453   3.822  16.664  0.5108 -0.2890 -0.0107
 6832SOL    HW132129   3.397   3.895  16.691 -0.0673 -0.8005  0.1759
 6832SOL    HW232130   3.400   3.785  16.594 -0.6254  0.0921  0.6390
 6833SOL     OW32131   0.033   1.865   3.753  0.2922 -0.0995 -0.0966
 6833SOL    HW132132   4.709   1.880   3.826  1.9327 -1.5970  1.5712
 6833SOL    HW232133   0.119   1.865   3.796  0.0089 -0.2141  0.4621
 6834SOL     OW32134   2.785   1.045  11.743  0.4896  0.8164  0.0407
 6834SOL    HW132135   2.827   1.028  11.827 -0.3118  0.1327  0.2889
 6834SOL    HW232136   2.805   0.964  11.697 -1.2900 -1.2677  2.9709
 6835SOL     OW32137   1.196   2.106  11.194  0.2102 -0.2636  0.4802
 6835SOL    HW132138   1.233   2.179  11.144 -1.1011  0.5803  0.7288
 6835SOL    HW232139   1.104   2.131  11.191  0.3385  0.2063  0.4498
 6836SOL     OW32140   3.807   1.463   8.941  0.0633 -0.2391 -0.4528
 6836SOL    HW132141   3.792   1.531   8.876  0.1710  1.5092  1.3668
 6836SOL    HW232142   3.719   1.426   8.953  0.3001 -1.4311 -2.3664
 6837SOL     OW32143   3.438   3.422   7.048  0.5085  0.5120  0.4699
 6837SOL    HW132144   3.489   3.463   7.118  1.6303 -2.2584  1.2656
 6837SOL    HW232145   3.356   3.399   7.092 -0.1698 -0.7788 -1.4430
 6838SOL     OW32146   2.860   2.315   8.675  0.2403 -0.1463  0.4257
 6838SOL    HW132147   2.860   2.411   8.670 -2.0806 -0.0938  1.0816
 6838SOL    HW232148   2.862   2.306   8.771  0.7957 -0.4698  0.3843
 6839SOL     OW32149   1.032   0.955   9.576  0.8440 -0.1077  1.0096
 6839SOL    HW132150   0.980   1.032   9.553  0.8568 -0.8775 -1.5507
 6839SOL    HW232151   0.957   0.898   9.560  0.9018  1.2441 -3.9832
 6840SOL     OW32152   2.817   3.121   5.258 -1.0511  0.5860  0.0528
 6840SOL    HW132153   2.743   3.156   5.208 -0.8658  1.7544  0.6054
 6840SOL    HW232154   2.768   3.064   5.318 -0.2364  0.8681  0.9932
 6841SOL     OW32155   0.948   3.440   6.162 -0.3625  0.6249  0.5207
 6841SOL    HW132156   0.996   3.465   6.083 -0.9345  3.3211  1.0458
 6841SOL    HW232157   1.018   3.468   6.221  0.4141  0.4740 -0.3134
 6842SOL     OW32158   3.132   3.215   3.817  0.3991 -0.0327  0.2847
 6842SOL    HW132159   3.203   3.171   3.863 -0.3719  0.1600  1.6563
 6842SOL    HW232160   3.061   3.154   3.834  1.0888 -0.6132  1.0758
 6843SOL     OW32161   0.802   3.090   8.370  0.2505 -0.6548  0.2156
 6843SOL    HW132162   0.814   3.170   8.421 -0.6996 -0.5162  0.2236
 6843SOL    HW232163   0.892   3.069   8.345  0.6946 -2.5828  3.4762
 6844SOL     OW32164   2.840   0.148  11.715  0.1998 -0.3691 -1.1706
 6844SOL    HW132165   2.920   0.129  11.763  0.1850 -0.3611 -1.1425
 6844SOL    HW232166   2.785   0.084  11.760 -0.1613 -0.2977 -1.5016
 6845SOL     OW32167   3.379   1.724   2.883  0.0640  0.1372  0.5910
 6845SOL    HW132168   3.429   1.667   2.941 -0.3025 -1.2559 -0.4607
 6845SOL    HW232169   3.433   1.723   2.804  0.4094  1.4508  0.7986
 6846SOL     OW32170   4.463   1.384   2.948 -0.4780 -0.4623 -0.1067
 6846SOL    HW132171   4.442   1.337   3.028  0.4714  1.3951  1.2413
 6846SOL    HW232172   4.518   1.327   2.895  0.8188  2.1729 -1.6318
 6847SOL     OW32173   4.032   0.214   1.591 -0.6012  0.7000 -0.2268
 6847SOL    HW132174   3.985   0.285   1.634 -0.6357 -1.1258  2.7746
 6847SOL    HW232175   4.118   0.217   1.634 -0.7107 -0.2967  0.0787
 6848SOL     OW32176   2.970   0.371   1.283  0.5321  0.4922 -0.5559
 6848SOL    HW132177   2.932   0.446   1.329  1.0981  1.5826 -1.8786
 6848SOL    HW232178   2.943   0.386   1.192 -1.8953  0.9244  0.2453
 6849SOL     OW32179   2.514   2.196   8.098 -0.3884 -0.1415  0.3251
 6849SOL    HW132180   2.548   2.226   8.182  0.5258 -2.9943  0.9799
 6849SOL    HW232181   2.452   2.132   8.133  0.6993 -1.7823 -0.7608
 6850SOL     OW32182   1.883   0.996   8.145 -0.4069  0.3494  0.5122
 6850SOL    HW132183   1.820   0.940   8.100  0.5691  0.6799 -1.2573
 6850SOL    HW232184   1.826   1.070   8.165  0.2658  0.4667  2.0699
 6851SOL     OW32185   0.174   1.866   1.218 -0.3454 -0.2656 -0.4147
 6851SOL    HW132186   0.265   1.877   1.246 -0.2667  0.2610 -0.8722
 6851SOL    HW232187   0.153   1.789   1.271 -2.3525  0.4325 -0.2035
 6852SOL     OW32188   0.104   0.939   5.047 -0.6081  0.2378  0.1398
 6852SOL    HW132189   0.180   0.911   4.996 -0.6352 -1.1472  0.8677
 6852SOL    HW232190   0.156   0.958   5.125  0.5222 -2.0836 -0.0577
 6853SOL     OW32191   1.553   1.898   5.563  0.4652 -0.3429 -0.0535
 6853SOL    HW132192   1.606   1.926   5.489  0.3050 -1.4610 -0.5838
 6853SOL    HW232193   1.559   1.802   5.564 -1.9393 -0.4939  1.3143
 6854SOL     OW32194   3.454   3.362   6.280  0.3416 -1.1689 -0.1161
 6854SOL    HW132195   3.546   3.344   6.301  0.1349  0.0272  1.7793
 6854SOL    HW232196   3.437   3.430   6.345 -1.0820 -1.9358  0.3075
 6855SOL     OW32197   3.425   0.102   7.205  0.1462  0.0091 -0.3425
 6855SOL    HW132198   3.444   0.111   7.111  1.4038 -0.3657 -0.1114
 6855SOL    HW232199   3.445   0.194   7.218 -2.4235  0.5502 -0.2392
 6856SOL     OW32200   1.765   0.887   9.498  0.6542  0.0957 -0.0569
 6856SOL    HW132201   1.754   0.930   9.583 -1.9930  1.0207 -0.8592
 6856SOL    HW232202   1.833   0.824   9.523  3.0661  2.2963 -1.0313
 6857SOL     OW32203   1.555   3.467   3.379 -0.7471  0.0192 -0.0459
 6857SOL    HW132204   1.543   3.554   3.339  1.9090  0.9621  1.2408
 6857SOL    HW232205   1.472   3.448   3.424 -1.0352  2.1175  0.3134
 6858SOL     OW32206   3.603   2.678   4.970 -0.0946 -0.0495 -0.2336
 6858SOL    HW132207   3.668   2.706   4.905 -0.2691 -0.7245 -0.6987
 6858SOL    HW232208   3.647   2.595   4.986 -1.1569 -0.3912  0.9342
 6859SOL     OW32209   1.874   3.910   3.750  0.5559  0.1614 -0.3790
 6859SOL    HW132210   1.907   3.907   3.660  2.3422 -0.4626  0.2922
 6859SOL    HW232211   1.785   3.945   3.742 -0.5883 -2.3152  1.5369
 6860SOL     OW32212   4.540   4.096   6.165  0.1293  0.2561 -0.1484
 6860SOL    HW132213   4.467   4.074   6.106  2.4798 -1.2933 -2.4731
 6860SOL    HW232214   4.601   4.028   6.137  0.4767  0.7473 -0.5847
 6861SOL     OW32215   1.711   1.832  12.731  0.2330 -0.5340 -0.0280
 6861SOL    HW132216   1.618   1.810  12.735  0.2703 -0.3726  1.8135
 6861SOL    HW232217   1.740   1.764  12.671 -1.7793 -0.0449 -1.5586
 6862SOL     OW32218   0.557   3.383   6.807  0.4028 -0.2980  0.0203
 6862SOL    HW132219   0.577   3.330   6.885  1.4319 -0.8715 -0.6461
 6862SOL    HW232220   0.617   3.352   6.740 -1.7317 -1.8978 -1.1493
 6863SOL     OW32221   4.546   1.322  10.202  0.3138 -0.1156 -0.0657
 6863SOL    HW132222   4.468   1.370  10.229 -0.3866 -1.8560  0.9751
 6863SOL    HW232223   4.523   1.286  10.117 -3.5916 -0.8352  1.3009
 6864SOL     OW32224   0.449   1.362   6.856  0.1544  0.2225 -0.5404
 6864SOL    HW132225   0.525   1.339   6.803 -1.8165 -2.0117 -2.4318
 6864SOL    HW232226   0.471   1.452   6.879  0.5854 -0.0925  0.2596
 6865SOL     OW32227   3.354   2.842   1.875  0.0484  0.1917  0.4476
 6865SOL    HW132228   3.285   2.789   1.835  0.7481  1.1264 -2.0115
 6865SOL    HW232229   3.364   2.783   1.950  1.1892  0.2248  0.3219
 6866SOL     OW32230   0.387   2.708   2.565 -0.1442  0.0512  0.3408
 6866SOL    HW132231   0.395   2.803   2.564 -0.6927  0.0964  0.0604
 6866SOL    HW232232   0.293   2.702   2.550 -0.5014  0.3166  2.4419
 6867SOL     OW32233   2.535   3.463   1.125  0.2804  0.5575  0.0531
 6867SOL    HW132234   2.541   3.368   1.141 -0.2467  0.1989 -1.8318
 6867SOL    HW232235   2.628   3.487   1.131 -0.3499  2.7716  0.8370
 6868SOL     OW32236   3.165   3.823   5.833  0.1654  0.3080 -0.1622
 6868SOL    HW132237   3.184   3.917   5.837 -0.8456  0.6108 -2.4630
 6868SOL    HW232238   3.119   3.805   5.915  0.7387  0.5375  0.2122
 6869SOL     OW32239   2.095   3.042   4.569  0.2162 -0.7132 -0.3706
 6869SOL    HW132240   2.154   3.038   4.494 -0.3536 -2.1516 -0.7398
 6869SOL    HW232241   2.149   3.035   4.648  0.4468  1.9333 -0.2904
 6870SOL     OW32242   2.064   3.093   8.168 -0.1040  0.3395 -0.4956
 6870SOL    HW132243   2.067   3.164   8.104  0.0669  0.0858 -0.7709
 6870SOL    HW232244   2.139   3.044   8.137 -0.2845  0.4339 -1.0824
 6871SOL     OW32245   1.228   1.050   7.330  0.1558 -0.4754  0.5418
 6871SOL    HW132246   1.234   1.004   7.246 -3.6635 -0.8544  0.4865
 6871SOL    HW232247   1.298   1.115   7.323 -1.8671  1.5368 -0.7205
 6872SOL     OW32248   0.367   1.020   9.120 -0.4116  0.0736 -0.3706
 6872SOL    HW132249   0.301   1.045   9.185  0.7980  1.6318  0.2281
 6872SOL    HW232250   0.445   1.039   9.171  1.3073  1.0560 -3.4089
 6873SOL     OW32251   2.170   2.019   6.410 -0.1782  0.2245 -0.0124
 6873SOL    HW132252   2.150   1.934   6.449 -1.7253  0.7429  0.3215
 6873SOL    HW232253   2.192   2.071   6.487 -0.6778  0.0232  0.2680
 6874SOL     OW32254   4.597   0.034   6.875 -0.9706 -0.3323  0.5811
 6874SOL    HW132255   4.610   4.705   6.806  0.2741  0.9903 -0.4203
 6874SOL    HW232256   4.519   0.069   6.833  0.3019 -0.9749 -2.3179
 6875SOL     OW32257   0.300   3.737  10.617  0.4675 -0.1816 -0.0386
 6875SOL    HW132258   0.288   3.826  10.584  1.6278  0.3349  0.9373
 6875SOL    HW232259   0.296   3.743  10.712  0.8545  1.2416 -0.1086
 6876SOL     OW32260   0.143   3.692   8.040 -0.1853 -0.3480 -0.9111
 6876SOL    HW132261   0.173   3.612   7.998 -1.1742 -1.4231  0.4051
 6876SOL    HW232262   0.228   3.733   8.056 -0.2759 -0.2285 -0.7289
 6877SOL     OW32263   0.858   2.927   9.520  0.4339 -0.5010 -0.1980
 6877SOL    HW132264   0.854   2.953   9.612  3.1774 -1.0788  0.0869
 6877SOL    HW232265   0.836   3.012   9.481 -0.1074 -0.0417  1.1024
 6878SOL     OW32266   4.456   3.487   1.517 -0.3697 -0.1419 -0.6300
 6878SOL    HW132267   4.389   3.479   1.585  0.4073 -1.3195 -0.0080
 6878SOL    HW232268   4.417   3.426   1.454 -1.3984 -0.1488  0.0152
 6879SOL     OW32269   3.361   1.757   4.488 -0.4439 -0.0323  0.3588
 6879SOL    HW132270   3.361   1.769   4.393  2.3938 -1.9006  0.1467
 6879SOL    HW232271   3.337   1.666   4.508 -3.8842  0.8821  0.4379
 6880SOL     OW32272   0.176   2.564   2.252 -0.1350  0.3229  0.1660
 6880SOL    HW132273   0.219   2.593   2.172 -0.2071  0.9339  0.3488
 6880SOL    HW232274   0.254   2.540   2.302 -0.5676  1.5498  1.4352
 6881SOL     OW32275   0.395   0.289   5.994  0.3414  0.3372  0.2779
 6881SOL    HW132276   0.448   0.217   6.030 -0.9869 -0.7245  0.1211
 6881SOL    HW232277   0.325   0.247   5.944 -0.1539  0.2304  1.0591
 6882SOL     OW32278   2.193   2.290   7.202  0.1870  0.5063 -0.0018
 6882SOL    HW132279   2.281   2.276   7.168  0.3473 -0.4756  0.8237
 6882SOL    HW232280   2.167   2.198   7.193 -0.7184  0.7835 -0.3129
 6883SOL     OW32281   1.150   2.252   0.595  0.2390  0.4431 -0.0816
 6883SOL    HW132282   1.189   2.240   0.681 -1.8893 -0.4264  0.7669
 6883SOL    HW232283   1.083   2.184   0.592  1.8793 -1.2697  2.6092
 6884SOL     OW32284   2.204   3.882  11.628  0.0305  0.7348  0.1606
 6884SOL    HW132285   2.163   3.814  11.682  0.2782 -1.1089 -1.9746
 6884SOL    HW232286   2.271   3.833  11.580 -0.6205 -0.0507  0.0551
 6885SOL     OW32287   1.692   1.428   8.966 -0.1716  0.7902 -0.7891
 6885SOL    HW132288   1.697   1.509   8.916 -0.6776  1.3967  0.1388
 6885SOL    HW232289   1.682   1.471   9.051  0.5888 -1.4389  0.4391
 6886SOL     OW32290   0.287   1.847   7.539 -0.1417  0.1803  0.0316
 6886SOL    HW132291   0.379   1.826   7.559 -0.4553 -1.0150  0.2510
 6886SOL    HW232292   0.256   1.874   7.625 -0.5047  0.2597 -0.1270
 6887SOL     OW32293   0.287   0.979   0.808  0.7520  0.7558  0.0447
 6887SOL    HW132294   0.354   1.012   0.748 -0.2131 -0.2755 -1.5857
 6887SOL    HW232295   0.211   1.034   0.787  1.1055  0.8035 -1.0940
 6888SOL     OW32296   1.305   2.963   6.005  0.0939 -0.3599 -0.2384
 6888SOL    HW132297   1.348   3.042   5.973  0.1323 -1.2920 -2.5201
 6888SOL    HW232298   1.227   2.993   6.052 -0.4236 -3.5321  0.9208
 6889SOL     OW32299   3.954   3.181   0.840 -0.4993  0.1593  0.3815
 6889SOL    HW132300   3.867   3.220   0.830 -0.3056  1.1152  2.3961
 6889SOL    HW232301   3.999   3.262   0.814 -1.1908  0.7305  0.9249
 6890SOL     OW32302   4.453   0.750   7.631 -0.2893  0.5729  0.7763
 6890SOL    HW132303   4.467   0.756   7.536  0.2890  0.4966  0.8547
 6890SOL    HW232304   4.412   0.834   7.653  0.8399  1.4974 -0.5878
 6891SOL     OW32305   0.802   0.500  11.878 -0.3408 -0.7387 -0.4584
 6891SOL    HW132306   0.817   0.454  11.795 -2.6614  1.3710 -2.0280
 6891SOL    HW232307   0.885   0.547  11.891 -0.0318 -0.8950 -1.8730
 6892SOL     OW32308   3.434   0.593  11.950 -0.0720  0.4594  0.6965
 6892SOL    HW132309   3.343   0.565  11.944  0.0248  0.6328 -1.7984
 6892SOL    HW232310   3.482   0.541  11.884  1.3383  0.4236  1.7481
 6893SOL     OW32311   3.715   2.061   5.906  0.5468 -0.0132 -0.4390
 6893SOL    HW132312   3.701   2.001   5.979  0.3285 -1.6921 -1.8566
 6893SOL    HW232313   3.719   2.002   5.830 -2.2575 -0.7103 -0.0290
 6894SOL     OW32314   2.737   2.705  15.421  0.0964 -0.1572 -0.2042
 6894SOL    HW132315   2.675   2.632  15.430  0.3002 -0.2923  0.0836
 6894SOL    HW232316   2.822   2.679  15.456 -0.0590  0.1605  0.4045
 6895SOL     OW32317   1.406   1.835  10.686  0.2909  0.7276  0.1479
 6895SOL    HW132318   1.452   1.833  10.770 -0.6825 -3.0775  0.5886
 6895SOL    HW232319   1.375   1.925  10.686 -0.6873  0.3895 -0.4687
 6896SOL     OW32320   2.270   1.754   0.769 -0.1499  0.9151  0.1774
 6896SOL    HW132321   2.337   1.818   0.746 -2.0208  1.9957 -2.2919
 6896SOL    HW232322   2.190   1.804   0.753 -0.4342 -0.1958 -1.9341
 6897SOL     OW32323   4.166   0.066   6.087  0.6589  0.2498  0.4125
 6897SOL    HW132324   4.088   0.119   6.072  1.1300  0.9270  0.3281
 6897SOL    HW232325   4.194   0.100   6.173 -3.2506  0.8630  1.4122
 6898SOL     OW32326   2.784   3.078  13.193  0.0383 -0.1263  0.2877
 6898SOL    HW132327   2.785   3.047  13.103  0.3030  0.8601 -0.0508
 6898SOL    HW232328   2.765   2.993  13.234  1.6371 -0.4848  0.2808
 6899SOL     OW32329   4.224   1.067  10.026 -0.7432 -0.1420 -0.0731
 6899SOL    HW132330   4.161   1.136  10.047 -1.3329 -0.5955 -0.3374
 6899SOL    HW232331   4.201   1.002  10.093  0.8818 -1.0384 -0.3965
 6900SOL     OW32332   2.692   2.589  12.854  0.2128 -0.0973 -0.1152
 6900SOL    HW132333   2.638   2.590  12.776 -0.8508  2.7477  0.6723
 6900SOL    HW232334   2.633   2.544  12.915 -0.3912 -0.1454 -0.7393
 6901SOL     OW32335   3.947   2.050   6.856 -0.0980  0.3852 -0.3680
 6901SOL    HW132336   4.035   2.013   6.855 -0.1162  0.3235  0.4967
 6901SOL    HW232337   3.948   2.122   6.919  3.1644  0.5292 -0.5980
 6902SOL     OW32338   1.008   0.522  10.754  0.1618  0.3766 -0.7736
 6902SOL    HW132339   1.100   0.498  10.751  1.0076  3.7947 -2.1571
 6902SOL    HW232340   0.977   0.506  10.843  1.0136 -1.6433 -0.8457
 6903SOL     OW32341   4.314   1.863   3.862 -0.0699  0.4840  0.3541
 6903SOL    HW132342   4.286   1.933   3.921  0.6966  0.1027  1.1752
 6903SOL    HW232343   4.409   1.875   3.869 -0.1589  1.2370  0.2912
 6904SOL     OW32344   3.001   2.592  17.729 -0.4388  0.3886  0.0880
 6904SOL    HW132345   2.939   2.550  17.669  1.1358 -1.3731 -0.3201
 6904SOL    HW232346   2.942   2.635   0.046 -0.0882 -0.7106  1.2104
 6905SOL     OW32347   3.104   2.775   5.306 -0.1497 -0.3587 -0.4487
 6905SOL    HW132348   3.011   2.762   5.289 -0.2816 -0.3146  0.2293
 6905SOL    HW232349   3.106   2.848   5.368  0.3519  0.4363 -1.3962
 6906SOL     OW32350   1.797   3.894   9.333  0.9505 -0.5164  0.0888
 6906SOL    HW132351   1.733   3.831   9.298 -0.3777  1.1640 -0.4823
 6906SOL    HW232352   1.763   3.973   9.292  0.7529  0.4955  2.2399
 6907SOL     OW32353   4.121   2.410   5.276 -0.1460 -0.4484 -0.5720
 6907SOL    HW132354   4.110   2.360   5.357 -0.6647  0.5252 -0.0367
 6907SOL    HW232355   4.211   2.441   5.285 -0.1235 -1.9374  4.4531
 6908SOL     OW32356   1.659   3.828   4.583 -0.6089  0.1570 -0.0264
 6908SOL    HW132357   1.668   3.857   4.492 -1.2853  2.5999  0.6974
 6908SOL    HW232358   1.731   3.767   4.571  0.3453  1.6388 -1.8636
 6909SOL     OW32359   0.972   4.676   5.081  0.6207  0.0454 -0.4232
 6909SOL    HW132360   1.007   4.594   5.116 -1.1604 -1.0068 -1.1179
 6909SOL    HW232361   0.880   4.657   5.095  0.8656 -0.4097  0.5489
 6910SOL     OW32362   4.270   3.871   6.392 -0.8237 -0.5461  0.3944
 6910SOL    HW132363   4.210   3.870   6.317  1.4738  1.0250 -1.4967
 6910SOL    HW232364   4.211   3.853   6.464 -0.2811 -0.5422  0.8400
 6911SOL     OW32365   1.338   2.820   2.460 -0.0962  0.5287 -0.3692
 6911SOL    HW132366   1.289   2.738   2.452  1.5612 -0.6683  1.9187
 6911SOL    HW232367   1.305   2.842   2.547 -1.3915 -3.6323  0.1856
 6912SOL     OW32368   1.420   4.147   8.862  0.1807 -0.4707 -0.2196
 6912SOL    HW132369   1.353   4.139   8.794  0.9647 -1.0655 -0.9356
 6912SOL    HW232370   1.398   4.064   8.906 -1.6975 -0.9419 -2.0825
 6913SOL     OW32371   0.830   1.250  12.516 -0.0717  0.4426  0.0036
 6913SOL    HW132372   0.770   1.294  12.575 -3.4295 -1.2202 -2.1313
 6913SOL    HW232373   0.849   1.320  12.454  1.4752  0.3375  0.3678
 6914SOL     OW32374   4.412   4.487  14.482  0.8811 -0.0403  0.1012
 6914SOL    HW132375   4.363   4.473  14.563  0.5398  0.1334 -0.0733
 6914SOL    HW232376   4.415   4.583  14.491 -0.0886  0.4126 -4.3371
 6915SOL     OW32377   0.527   2.174   8.684 -0.2961 -0.8394 -0.6743
 6915SOL    HW132378   0.601   2.216   8.640 -0.4172  0.4274  0.3199
 6915SOL    HW232379   0.567   2.095   8.721 -0.0518 -0.3925  0.0353
 6916SOL     OW32380   0.699   3.551   6.183 -0.3434 -0.3572  0.4968
 6916SOL    HW132381   0.782   3.504   6.178  0.6455  1.1459  2.6321
 6916SOL    HW232382   0.669   3.504   6.105 -2.0974  1.4687  0.0483
 6917SOL     OW32383   4.425   4.461   5.860 -0.0722  0.1799 -0.5600
 6917SOL    HW132384   4.434   4.462   5.765  0.5367 -1.4110 -0.5220
 6917SOL    HW232385   4.352   4.521   5.873  1.7613  2.4059 -0.6113
 6918SOL     OW32386   0.811   1.098   2.188  0.2064 -0.1756 -0.1787
 6918SOL    HW132387   0.816   1.062   2.277  1.0528  0.2579 -0.0459
 6918SOL    HW232388   0.871   1.036   2.147 -0.6637 -1.0738 -0.0870
 6919SOL     OW32389   1.627   1.308   6.195 -0.3320  0.1647 -0.1836
 6919SOL    HW132390   1.587   1.221   6.193 -2.8592  1.2844  0.7083
 6919SOL    HW232391   1.663   1.314   6.283  0.5633 -1.2828 -0.4487
 6920SOL     OW32392   0.718   2.023   5.338  0.3710  0.0826 -0.0584
 6920SOL    HW132393   0.740   1.931   5.353 -0.8487 -0.6640 -2.7894
 6920SOL    HW232394   0.674   2.046   5.420 -0.8169 -3.9936  0.4485
 6921SOL     OW32395   2.734   3.446  15.187  0.5571 -0.8653 -0.0413
 6921SOL    HW132396   2.696   3.367  15.149 -0.2398 -2.0224  3.1763
 6921SOL    HW232397   2.814   3.464  15.138  2.1723 -0.7762  2.6564
 6922SOL     OW32398   1.743   0.620   8.802  0.3680  0.1916  0.4356
 6922SOL    HW132399   1.768   0.640   8.893  2.1338 -0.6031  0.1220
 6922SOL    HW232400   1.803   0.546   8.795  0.4676  0.4021 -0.8179
 6923SOL     OW32401   1.817   4.701   4.603  0.0497  0.5848 -0.1566
 6923SOL    HW132402   1.878   4.644   4.558 -0.0290 -0.0709  0.5773
 6923SOL    HW232403   1.882   0.028   4.634  1.6549 -1.0644 -0.1718
 6924SOL     OW32404   0.144   2.952   2.536 -0.4809  0.3294 -0.2576
 6924SOL    HW132405   0.124   2.859   2.545 -0.0120  0.1330 -1.3415
 6924SOL    HW232406   0.117   2.958   2.445 -2.2677  1.5230  0.3396
 6925SOL     OW32407   0.487   0.060  14.172 -0.4816 -0.4206 -0.5931
 6925SOL    HW132408   0.512   4.705  14.159 -0.6175 -0.3930 -1.0625
 6925SOL    HW232409   0.415   0.066  14.109 -0.0857 -1.2624 -1.1257
 6926SOL     OW32410   4.607   1.229   8.820  0.1699 -0.3486  0.2690
 6926SOL    HW132411   4.525   1.222   8.771  0.2465  1.5412 -0.1339
 6926SOL    HW232412   4.598   1.324   8.824 -0.5266 -0.4089  0.1581
 6927SOL     OW32413   2.020   2.634   4.404  0.2934 -0.2649  1.1756
 6927SOL    HW132414   2.016   2.557   4.347  0.8678 -0.3354  1.2250
 6927SOL    HW232415   2.116   2.630   4.408  0.3257 -0.5205  0.0363
 6928SOL     OW32416   3.693   1.870  15.236  0.4262  0.0206 -0.1270
 6928SOL    HW132417   3.686   1.965  15.247 -0.8783 -0.0589 -0.3763
 6928SOL    HW232418   3.733   1.854  15.151  5.5240 -0.3631  2.2831
 6929SOL     OW32419   3.142   1.512  16.642 -0.1349  0.3997 -0.0781
 6929SOL    HW132420   3.193   1.550  16.570 -0.5671  0.5760 -0.2881
 6929SOL    HW232421   3.196   1.433  16.647  1.3697  1.5403  1.8270
 6930SOL     OW32422   0.527   1.412  16.765 -0.0438  0.4169 -0.3470
 6930SOL    HW132423   0.503   1.456  16.684  0.2078  0.1374 -0.5719
 6930SOL    HW232424   0.497   1.325  16.737 -0.3830  0.1556  0.7936
 6931SOL     OW32425   0.288   2.405  17.459  0.1936  0.5727 -0.0938
 6931SOL    HW132426   0.314   2.390  17.551 -2.2955  0.2029  0.5430
 6931SOL    HW232427   0.202   2.363  17.458  0.7701 -0.6565  1.2296
 6932SOL     OW32428   4.513   0.620   9.168  0.2040  0.0339 -0.1481
 6932SOL    HW132429   4.463   0.541   9.188  0.6677 -0.2557 -0.1196
 6932SOL    HW232430   4.554   0.630   9.254 -1.4371  0.3145  0.6102
 6933SOL     OW32431   0.590   1.903   9.082 -0.2980  0.5140 -0.1996
 6933SOL    HW132432   0.648   1.961   9.131 -1.8487  2.0597 -0.1758
 6933SOL    HW232433   0.647   1.826   9.080 -0.5986  0.3124 -1.0578
 6934SOL     OW32434   0.976   3.771   6.201 -0.1853  0.3147  0.0203
 6934SOL    HW132435   0.966   3.773   6.106 -0.3388 -0.6654  0.0094
 6934SOL    HW232436   1.033   3.696   6.218  1.2149  1.3099 -0.3134
 6935SOL     OW32437   3.547   3.617  13.298 -0.0894 -0.0419 -0.5089
 6935SOL    HW132438   3.622   3.582  13.346  2.1554  0.4026 -3.6868
 6935SOL    HW232439   3.493   3.539  13.288  1.9918 -1.3408 -1.7458
 6936SOL     OW32440   1.599   4.696   6.617  0.0214 -0.4685  0.3670
 6936SOL    HW132441   1.630   0.029   6.675  1.7672 -1.1136  0.1881
 6936SOL    HW232442   1.681   4.656   6.590 -0.5794 -0.9976 -0.6825
 6937SOL     OW32443   4.237   2.778  15.307 -0.1649 -0.2331  0.4165
 6937SOL    HW132444   4.242   2.740  15.395 -1.1876 -1.1955  0.0464
 6937SOL    HW232445   4.321   2.752  15.270 -0.4434  0.7570 -0.9216
 6938SOL     OW32446   1.423   2.135   5.499  0.3112 -0.5461  0.0726
 6938SOL    HW132447   1.366   2.088   5.438 -0.5719  0.2398  0.2890
 6938SOL    HW232448   1.499   2.077   5.498  0.4831 -0.3019 -1.1305
 6939SOL     OW32449   3.892   3.514  12.076 -0.0303  0.1187 -0.4124
 6939SOL    HW132450   3.943   3.588  12.043  2.0301 -0.0888  2.3392
 6939SOL    HW232451   3.809   3.525  12.029 -0.5927 -0.2170  0.5049
 6940SOL     OW32452   3.741   4.255   5.573 -0.4447 -0.2837 -0.0733
 6940SOL    HW132453   3.745   4.265   5.668  1.2374  0.2585 -0.1977
 6940SOL    HW232454   3.697   4.170   5.568  0.2837 -0.6712  0.0805
 6941SOL     OW32455   1.772   1.312   6.706  0.2451 -0.2867 -0.4660
 6941SOL    HW132456   1.761   1.222   6.737  1.7947 -0.5139 -0.5894
 6941SOL    HW232457   1.868   1.316   6.699  0.3834  0.0671  1.4880
 6942SOL     OW32458   0.156   3.864  16.396  0.5263  0.3879  0.6075
 6942SOL    HW132459   0.180   3.784  16.444 -0.7330  0.2728  1.0602
 6942SOL    HW232460   0.222   3.926  16.427 -1.7109  2.0187  2.0833
 6943SOL     OW32461   0.905   4.599   6.536  0.1724  0.6165 -0.3573
 6943SOL    HW132462   0.869   4.511   6.546 -0.9049  1.3791  2.6447
 6943SOL    HW232463   0.994   4.591   6.571  0.8852  0.0438 -2.3475
 6944SOL     OW32464   2.321   2.405   5.539 -0.6211  0.2014  0.6466
 6944SOL    HW132465   2.315   2.311   5.557  1.4983 -0.4873 -2.3092
 6944SOL    HW232466   2.391   2.416   5.474 -0.0947  0.5413  1.2710
 6945SOL     OW32467   1.106   1.890  17.463  0.2904 -0.4173 -0.0559
 6945SOL    HW132468   1.157   1.971  17.452 -0.9345  0.3355 -0.1992
 6945SOL    HW232469   1.042   1.922  17.526  2.4514 -3.0483  3.4316
 6946SOL     OW32470   2.135   3.127  16.223  0.5173  0.8867 -0.4706
 6946SOL    HW132471   2.210   3.155  16.275 -1.1326  1.5488  1.5481
 6946SOL    HW232472   2.078   3.202  16.243  0.2926  0.1581  1.6787
 6947SOL     OW32473   2.515   0.547   1.740  0.4671 -0.4657  0.1308
 6947SOL    HW132474   2.593   0.498   1.715  1.8826  1.3075  1.0674
 6947SOL    HW232475   2.558   0.610   1.797 -1.2432  0.7711  0.0737
 6948SOL     OW32476   0.664   0.369   3.803  0.4985 -0.4475 -0.0337
 6948SOL    HW132477   0.618   0.290   3.774 -0.3666 -0.1943  0.6447
 6948SOL    HW232478   0.626   0.380   3.890  1.9053  0.9733  0.3980
 6949SOL     OW32479   2.013   0.192   3.211 -0.2261 -0.0733 -0.4190
 6949SOL    HW132480   1.924   0.190   3.176  0.7340  0.6137 -2.8836
 6949SOL    HW232481   2.057   0.176   3.128 -1.8517 -2.0152 -0.8981
 6950SOL     OW32482   2.356   0.245  17.140  0.4048 -0.1060 -0.4966
 6950SOL    HW132483   2.390   0.162  17.171 -1.2844 -1.3260 -1.9179
 6950SOL    HW232484   2.270   0.223  17.104  0.3416 -1.8216  0.7201
 6951SOL     OW32485   1.119   3.901  12.416 -0.5487  0.0257  0.0384
 6951SOL    HW132486   1.031   3.877  12.387 -0.8535 -0.7165  1.5937
 6951SOL    HW232487   1.118   3.880  12.509 -0.1153  0.8067  0.2205
 6952SOL     OW32488   3.640   4.365  15.694  0.0659 -0.4046 -0.0576
 6952SOL    HW132489   3.567   4.304  15.700  0.6376 -0.9297  1.8431
 6952SOL    HW232490   3.641   4.370  15.599 -0.9446 -1.4168 -0.1223
 6953SOL     OW32491   2.454   3.830   4.463  0.2318 -0.1272  0.1928
 6953SOL    HW132492   2.446   3.749   4.514 -0.8536 -0.7506 -0.9467
 6953SOL    HW232493   2.545   3.814   4.437  0.1371 -0.7060  0.2123
 6954SOL     OW32494   4.035   1.132   5.490 -0.3846  0.1386 -0.7493
 6954SOL    HW132495   4.006   1.211   5.536  0.0094  1.0302 -2.0473
 6954SOL    HW232496   4.119   1.107   5.529 -1.5623  1.0406  2.3221
 6955SOL     OW32497   0.746   2.138   4.000  0.3403  0.3007 -0.1665
 6955SOL    HW132498   0.709   2.053   4.025  0.0453  0.4462 -0.1123
 6955SOL    HW232499   0.680   2.169   3.939 -1.9018 -2.2506  0.9020
 6956SOL     OW32500   3.263   4.346   5.008  0.1910 -0.1387  0.0463
 6956SOL    HW132501   3.206   4.358   4.932 -1.4490 -0.2775  1.2536
 6956SOL    HW232502   3.341   4.382   4.966 -0.1503  2.1739  1.3873
 6957SOL     OW32503   0.922   1.379   4.342  0.2086 -0.3568  0.0419
 6957SOL    HW132504   0.997   1.321   4.352  0.2843 -0.1529  0.6842
 6957SOL    HW232505   0.937   1.423   4.259  0.9987  1.1810  0.9901
 6958SOL     OW32506   4.186   0.553   9.276  0.3876 -0.0610 -0.4352
 6958SOL    HW132507   4.262   0.499   9.253  0.3634 -0.7619  1.1472
 6958SOL    HW232508   4.229   0.627   9.319  0.2732  0.4979 -1.2707
 6959SOL     OW32509   4.391   0.694   6.723  0.1218 -0.2658 -0.1125
 6959SOL    HW132510   4.438   0.777   6.728 -0.6889  0.1690  0.3259
 6959SOL    HW232511   4.393   0.671   6.631  0.0176 -0.6289 -0.0234
 6960SOL     OW32512   0.779   2.728   1.867  0.0378 -0.2427  0.4375
 6960SOL    HW132513   0.729   2.651   1.840  0.9524  0.2279 -2.6148
 6960SOL    HW232514   0.754   2.795   1.803  2.1607 -0.9574 -1.1354
 6961SOL     OW32515   1.295   2.831   5.690 -0.0629 -0.5193  0.0449
 6961SOL    HW132516   1.319   2.876   5.609  1.8338 -0.0152  0.8854
 6961SOL    HW232517   1.379   2.830   5.735 -0.0450  1.6999  0.0838
 6962SOL     OW32518   3.888   2.106  11.492 -0.2422 -0.2912  0.6194
 6962SOL    HW132519   3.804   2.138  11.525  1.3711  1.4131  3.0091
 6962SOL    HW232520   3.931   2.186  11.461 -1.4045 -0.1517 -0.6224
 6963SOL     OW32521   1.624   0.580  11.985 -0.2739  0.5695 -0.0659
 6963SOL    HW132522   1.666   0.646  12.040  0.6474 -0.4647  0.4621
 6963SOL    HW232523   1.605   0.627  11.904  1.6115  1.5206  0.0379
 6964SOL     OW32524   2.272   3.366   1.997 -0.5878  0.5860  0.2860
 6964SOL    HW132525   2.358   3.408   1.998  1.5447 -3.7484  1.0085
 6964SOL    HW232526   2.293   3.321   1.915 -0.8796  0.9048  0.0378
 6965SOL     OW32527   1.156   3.362   8.461 -0.1912 -0.4237 -0.1739
 6965SOL    HW132528   1.140   3.307   8.538 -0.1719 -1.5608 -0.9833
 6965SOL    HW232529   1.127   3.320   8.380 -0.5123 -0.8502  0.1663
 6966SOL     OW32530   1.393   1.591   2.021 -0.7059 -0.8262  0.1178
 6966SOL    HW132531   1.419   1.555   1.936 -2.9921 -1.0484 -0.5065
 6966SOL    HW232532   1.313   1.637   1.993 -0.9755 -1.2119  0.2581
 6967SOL     OW32533   2.588   4.669   2.020  0.2660  0.0399  0.3213
 6967SOL    HW132534   2.591   4.621   1.938 -0.2106 -0.1632  0.4288
 6967SOL    HW232535   2.676   4.707   2.013 -0.1920  1.0545  0.1074
 6968SOL     OW32536   1.660   3.277   3.527 -0.6266 -0.0512  0.2150
 6968SOL    HW132537   1.729   3.244   3.470 -0.7660  1.1352 -0.6368
 6968SOL    HW232538   1.636   3.346   3.465 -0.1622 -0.2924 -0.2376
 6969SOL     OW32539   1.356   4.203   2.395  0.6000 -0.6911 -0.4167
 6969SOL    HW132540   1.418   4.238   2.331  0.8551  0.3459  0.3892
 6969SOL    HW232541   1.396   4.119   2.418  1.0393 -0.5672 -0.7268
 6970SOL     OW32542   3.991   2.325   4.414 -0.4006 -0.0204  0.2411
 6970SOL    HW132543   3.930   2.398   4.425  0.7299  1.0755 -0.7275
 6970SOL    HW232544   3.946   2.287   4.338 -1.3739  1.1391  0.2392
 6971SOL     OW32545   2.119   1.532   0.768 -0.1177  0.4426 -0.0295
 6971SOL    HW132546   2.180   1.605   0.781 -0.8747  0.7802  1.6413
 6971SOL    HW232547   2.070   1.567   0.694 -1.4516 -0.9539  0.2060
 6972SOL     OW32548   4.292   1.095   4.830  0.2653 -0.4301  0.0412
 6972SOL    HW132549   4.276   1.073   4.922 -1.2088  0.6528  0.0541
 6972SOL    HW232550   4.242   1.024   4.789 -1.6114  1.6076 -1.2029
 6973SOL     OW32551   2.644   3.195   1.166 -0.0831  0.4472 -0.0322
 6973SOL    HW132552   2.716   3.258   1.170 -1.8690  2.4588  0.2633
 6973SOL    HW232553   2.621   3.202   1.259 -2.1662  0.9758 -0.5926
 6974SOL     OW32554   4.630   0.161   5.425  0.8717 -0.2700  0.2489
 6974SOL    HW132555   4.652   0.083   5.374 -0.2948 -0.5378  0.1533
 6974SOL    HW232556   4.553   0.193   5.376  0.2136 -0.0548  1.4164
 6975SOL     OW32557   3.051   0.944  16.048  0.5918 -0.3267 -0.2448
 6975SOL    HW132558   3.040   0.851  16.064  0.3723 -0.0889  0.9531
 6975SOL    HW232559   2.986   0.960  15.979 -0.7897 -0.7973  0.9523
 6976SOL     OW32560   3.992   1.726   6.722 -0.0432  0.4218 -0.3583
 6976SOL    HW132561   3.983   1.636   6.756 -3.1652  0.7751 -0.3084
 6976SOL    HW232562   3.903   1.757   6.735  0.1720  0.8117  0.2054
 6977SOL     OW32563   4.134   1.289  10.160  0.1469  0.4887 -0.4749
 6977SOL    HW132564   4.101   1.362  10.212 -0.6291  0.0763 -0.3901
 6977SOL    HW232565   4.223   1.320  10.143  0.2765 -0.4147 -1.4364
 6978SOL     OW32566   0.216   0.730   4.806 -1.0063 -0.1318 -0.6340
 6978SOL    HW132567   0.128   0.714   4.772 -1.6771  1.2194  0.4416
 6978SOL    HW232568   0.275   0.667   4.765  0.0672  0.4166  0.0990
 6979SOL     OW32569   4.186   1.792   2.613 -0.0780  0.1568  0.2228
 6979SOL    HW132570   4.171   1.816   2.521  0.4812 -0.7334 -0.1009
 6979SOL    HW232571   4.116   1.840   2.656  0.3256  1.0348 -0.0890
 6980SOL     OW32572   3.908   0.381   1.836 -0.2497  0.3946  0.0158
 6980SOL    HW132573   3.838   0.424   1.787 -1.0230 -1.7654 -0.7533
 6980SOL    HW232574   3.853   0.332   1.896  1.7746  0.9742  2.3609
 6981SOL     OW32575   4.164   3.410  12.068  0.6906 -0.1959  0.6542
 6981SOL    HW132576   4.109   3.464  12.125  1.6055  1.3005  0.1331
 6981SOL    HW232577   4.162   3.452  11.982 -0.3516  1.0209  1.2789
 6982SOL     OW32578   2.932   0.738   8.474 -0.5261  0.4155 -0.3456
 6982SOL    HW132579   2.944   0.796   8.548  0.8753 -2.0612  1.3651
 6982SOL    HW232580   2.840   0.755   8.451 -0.3891  0.4383 -0.8900
 6983SOL     OW32581   4.043   3.652  14.772 -0.6569 -0.0024  0.3092
 6983SOL    HW132582   4.089   3.649  14.856  0.3934  1.4227 -0.2283
 6983SOL    HW232583   3.954   3.634  14.803 -0.0410  0.2473  2.2315
 6984SOL     OW32584   3.941   4.420   6.596  0.4716  0.1746 -0.1931
 6984SOL    HW132585   4.015   4.444   6.540 -0.1045 -0.5379 -1.2621
 6984SOL    HW232586   3.882   4.376   6.535  1.0279  0.7462 -1.1389
 6985SOL     OW32587   0.114   0.578   6.287  0.2190 -0.1449 -0.4267
 6985SOL    HW132588   0.136   0.547   6.199 -3.2231 -0.4052 -1.2068
 6985SOL    HW232589   0.197   0.604   6.328 -0.4453 -0.0615  0.8660
 6986SOL     OW32590   3.269   3.820   3.924  0.5231 -0.2555 -0.0434
 6986SOL    HW132591   3.353   3.865   3.939  0.0406  1.0325 -1.1908
 6986SOL    HW232592   3.283   3.729   3.950 -0.6746  0.5264  3.3384
 6987SOL     OW32593   2.695   3.975  14.358  0.3072  0.1102  0.0918
 6987SOL    HW132594   2.686   3.879  14.356  0.1339  0.0933  1.5649
 6987SOL    HW232595   2.658   4.002  14.442 -2.9397 -1.8944 -0.6690
 6988SOL     OW32596   3.293   4.437  15.735  0.6113 -0.4082 -0.0668
 6988SOL    HW132597   3.259   4.437  15.646  1.6841  0.2561 -0.4724
 6988SOL    HW232598   3.348   4.358  15.730 -0.1983 -0.9469 -0.4390
 6989SOL     OW32599   1.238   3.953   0.741  0.2685  0.2678 -0.5517
 6989SOL    HW132600   1.200   4.039   0.757 -1.5521 -1.2271  3.1965
 6989SOL    HW232601   1.222   3.958   0.647 -2.9954  2.4330  0.1404
 6990SOL     OW32602   1.498   4.598   9.158  0.2439 -0.3965 -0.6626
 6990SOL    HW132603   1.437   4.529   9.186 -0.7354  1.7803  2.6029
 6990SOL    HW232604   1.451   4.631   9.082 -0.1117  1.9562  0.5811
 6991SOL     OW32605   0.592   0.928  15.556 -0.1185 -0.1630 -0.3931
 6991SOL    HW132606   0.582   1.020  15.531 -2.9251 -0.7105 -1.3238
 6991SOL    HW232607   0.600   0.926  15.651 -0.3525 -1.2098 -0.3982
 6992SOL     OW32608   3.132   1.955   4.530 -0.2273 -0.7145 -0.0319
 6992SOL    HW132609   3.188   1.878   4.540 -0.3416 -0.5946  1.4846
 6992SOL    HW232610   3.067   1.931   4.464 -1.6314 -0.5613  1.2954
 6993SOL     OW32611   1.891   2.926   7.363 -0.1523 -0.6087 -0.1522
 6993SOL    HW132612   1.820   2.872   7.329  0.1822 -0.0033 -1.8026
 6993SOL    HW232613   1.890   2.885   7.450  1.5472 -1.0102 -0.3285
 6994SOL     OW32614   0.629   4.728   6.844 -0.3017 -0.0921 -0.6496
 6994SOL    HW132615   0.562   0.043   6.889 -1.4371 -1.2443 -1.0096
 6994SOL    HW232616   0.574   4.668   6.794 -0.9631 -0.4206  0.4618
 6995SOL     OW32617   2.004   1.429   9.346 -0.5106 -0.5060  0.2052
 6995SOL    HW132618   1.963   1.374   9.414 -1.2868  0.0775  0.2111
 6995SOL    HW232619   2.014   1.514   9.389 -1.8753 -0.4472  0.4081
 6996SOL     OW32620   2.377   4.631   4.857  0.2789  0.5318 -0.0075
 6996SOL    HW132621   2.337   4.618   4.942 -0.1043 -0.9823 -0.4182
 6996SOL    HW232622   2.415   4.543   4.845  0.1352  0.5207 -0.4033
 6997SOL     OW32623   2.874   1.916   2.188 -0.3330  0.6967  0.4126
 6997SOL    HW132624   2.815   1.916   2.263  0.4902  0.0576  1.0489
 6997SOL    HW232625   2.884   2.012   2.187 -0.9691  0.7679  1.4586
 6998SOL     OW32626   1.471   2.431   7.779  0.3911 -0.6145 -0.2294
 6998SOL    HW132627   1.416   2.394   7.710 -0.4040 -0.6995  0.4365
 6998SOL    HW232628   1.556   2.392   7.760  1.2805 -0.3026  3.1340
 6999SOL     OW32629   2.913   2.730   4.059  0.1571  0.6741 -0.4341
 6999SOL    HW132630   2.850   2.760   3.993  1.1071  0.0911 -1.6065
 6999SOL    HW232631   2.925   2.814   4.103 -1.8689  1.0458 -0.5577
 7000SOL     OW32632   1.014   3.948   3.109 -0.5818 -0.1310  0.6474
 7000SOL    HW132633   0.952   3.961   3.037  0.5642 -0.1290 -0.3384
 7000SOL    HW232634   0.963   3.944   3.190  1.6802  2.0755  2.2062
 7001SOL     OW32635   4.375   0.309  11.439 -0.6021 -0.0702 -0.3719
 7001SOL    HW132636   4.462   0.312  11.478 -0.9546 -0.4459  0.4488
 7001SOL    HW232637   4.326   0.370  11.494  2.3962  1.6329  0.3629
 7002SOL     OW32638   1.538   1.336   7.875 -0.3258 -0.0386  0.3180
 7002SOL    HW132639   1.608   1.368   7.818 -1.6501  1.1970 -0.6097
 7002SOL    HW232640   1.489   1.418   7.883 -1.5197 -0.5881 -1.4240
 7003SOL     OW32641   0.036   3.928  12.552  0.2846  0.4714  0.0778
 7003SOL    HW132642   0.021   4.002  12.494 -2.3906 -0.1641 -0.0232
 7003SOL    HW232643   4.698   3.916  12.612 -0.3037  0.2144 -0.7021
 7004SOL     OW32644   1.046   0.488  16.113 -0.6151  0.3065  0.2539
 7004SOL    HW132645   1.028   0.403  16.073  0.0257  1.1643 -1.8650
 7004SOL    HW232646   0.967   0.539  16.091  0.5924  1.8606 -0.4875
 7005SOL     OW32647   1.955   3.436   6.174  0.4132  0.0280  0.2672
 7005SOL    HW132648   1.987   3.388   6.251  1.7948 -0.5037 -0.6319
 7005SOL    HW232649   1.996   3.518   6.203  0.0778 -0.5921  2.4852
 7006SOL     OW32650   1.035   4.113   0.835  0.4295 -0.7836 -0.0809
 7006SOL    HW132651   0.985   4.115   0.917 -0.7841 -0.0161 -0.8311
 7006SOL    HW232652   0.968   4.134   0.770  0.3242 -0.5353  0.1058
 7007SOL     OW32653   1.532   2.091   9.268  1.0657 -0.1629  0.2492
 7007SOL    HW132654   1.453   2.107   9.216  1.6973  2.1327  0.0032
 7007SOL    HW232655   1.553   2.005   9.232  0.7280  0.2714 -0.9659
 7008SOL     OW32656   3.101   1.891   7.091 -0.0897  0.1841 -0.1420
 7008SOL    HW132657   3.034   1.824   7.103 -0.1265 -0.1590 -2.2382
 7008SOL    HW232658   3.068   1.947   7.161  0.8632 -1.6235  1.7568
 7009SOL     OW32659   1.808   2.895   6.261 -0.0615 -1.0036 -0.5301
 7009SOL    HW132660   1.753   2.959   6.308  2.0373 -0.1329  0.7418
 7009SOL    HW232661   1.744   2.829   6.236 -0.8603 -0.3220 -0.2836
 7010SOL     OW32662   2.632   2.689   8.458  0.1038 -0.2548 -0.6920
 7010SOL    HW132663   2.677   2.760   8.411 -1.3352 -0.8821 -2.9825
 7010SOL    HW232664   2.569   2.666   8.390 -2.8243  3.3379  0.7850
 7011SOL     OW32665   0.835   0.938   4.891 -0.4176  0.6855 -0.0307
 7011SOL    HW132666   0.806   1.006   4.830 -0.9096 -0.1303 -0.7071
 7011SOL    HW232667   0.834   0.984   4.975 -3.1820 -0.1620  0.3888
 7012SOL     OW32668   3.223   0.121   9.373  0.2922  0.5238 -1.5068
 7012SOL    HW132669   3.204   0.209   9.339 -0.2747 -0.1013 -2.8019
 7012SOL    HW232670   3.139   0.107   9.417  0.5331 -0.0533 -1.2366
 7013SOL     OW32671   0.923   1.019   0.396 -0.0696  0.0485  0.3749
 7013SOL    HW132672   0.919   1.049   0.305 -0.5522  1.0219  0.7101
 7013SOL    HW232673   1.015   0.996   0.405 -0.1589  0.7475  3.0461
 7014SOL     OW32674   0.994   0.937   4.174 -0.4378  0.2948  0.1331
 7014SOL    HW132675   0.915   0.966   4.221 -1.3685 -1.1293 -0.5576
 7014SOL    HW232676   1.060   0.928   4.243  0.2596  2.1943 -0.2776
 7015SOL     OW32677   1.370   2.334   2.067  0.0655 -0.3104 -0.3540
 7015SOL    HW132678   1.407   2.271   2.004 -1.3695 -2.2698  0.7588
 7015SOL    HW232679   1.449   2.349   2.119  1.1646  0.4431 -2.2252
 7016SOL     OW32680   3.912   0.082  16.540  0.4666  0.1830  0.1820
 7016SOL    HW132681   3.923   0.160  16.594 -2.5688  2.1987 -2.0993
 7016SOL    HW232682   3.995   0.067  16.495 -0.0546 -2.4188  0.1211
 7017SOL     OW32683   1.412   1.869  14.890 -0.1540  0.3946  0.0275
 7017SOL    HW132684   1.468   1.833  14.821  0.2324  0.6365  0.2131
 7017SOL    HW232685   1.478   1.892  14.956 -1.0092  1.2926  0.5552
 7018SOL     OW32686   1.658   3.215  12.616  0.1986  0.3319 -0.1015
 7018SOL    HW132687   1.578   3.195  12.664 -0.0814  0.4912 -0.5059
 7018SOL    HW232688   1.633   3.273  12.544  0.0060  0.8286  0.3675
 7019SOL     OW32689   3.339   4.437   7.616 -0.0183  0.2600 -0.0356
 7019SOL    HW132690   3.342   4.382   7.694 -2.6687 -0.2301 -0.2751
 7019SOL    HW232691   3.294   4.375   7.559 -2.6366  0.7820  1.4172
 7020SOL     OW32692   3.888   4.452  17.039 -0.0157 -0.1973 -0.1042
 7020SOL    HW132693   3.924   4.454  16.951 -0.7170  1.5202 -0.3389
 7020SOL    HW232694   3.839   4.534  17.040  1.5877  0.7521  1.0202
 7021SOL     OW32695   1.269   1.177   4.603  0.3309  0.1301  0.3662
 7021SOL    HW132696   1.181   1.213   4.592  1.7871  3.4939 -0.4742
 7021SOL    HW232697   1.311   1.240   4.545 -0.7017  1.9664  1.5884
 7022SOL     OW32698   0.381   4.244   7.857 -0.0398 -0.5492 -0.2178
 7022SOL    HW132699   0.378   4.255   7.952  1.6323 -2.8996  0.0998
 7022SOL    HW232700   0.335   4.325   7.831 -0.1922 -0.6896 -0.3912
 7023SOL     OW32701   4.320   1.351   4.748  0.1129 -0.5488 -0.0591
 7023SOL    HW132702   4.233   1.370   4.714  1.0529  2.2485 -0.9038
 7023SOL    HW232703   4.306   1.261   4.776 -1.4597  0.9449  3.9841
 7024SOL     OW32704   0.335   3.122   9.740  0.4300  0.5446 -0.2227
 7024SOL    HW132705   0.312   3.180   9.667  0.7294  0.5115 -0.3417
 7024SOL    HW232706   0.302   3.173   9.814  0.6073 -0.5852  0.6220
 7025SOL     OW32707   1.440   1.328   4.400  0.0287  0.3294  0.0627
 7025SOL    HW132708   1.415   1.312   4.309 -0.8264  0.7797  0.2249
 7025SOL    HW232709   1.484   1.412   4.395 -1.7652  1.1775 -1.2473
 7026SOL     OW32710   0.439   0.635   4.065  0.8422 -0.1478 -0.1660
 7026SOL    HW132711   0.449   0.578   4.141 -2.5343 -0.3046  0.1770
 7026SOL    HW232712   0.412   0.715   4.111  1.5119  0.1565 -0.3084
 7027SOL     OW32713   1.519   4.637   0.512  0.0840  0.1672 -0.3025
 7027SOL    HW132714   1.431   4.625   0.548 -0.0051 -0.6915 -0.8129
 7027SOL    HW232715   1.543   4.724   0.543  2.4518 -0.8533  0.7045
 7028SOL     OW32716   1.584   1.011  11.834  0.2547  0.1091  0.1352
 7028SOL    HW132717   1.651   1.054  11.781 -0.7562  2.5760  0.8288
 7028SOL    HW232718   1.555   0.947  11.769  1.9485 -1.7413  1.2058
 7029SOL     OW32719   4.660   2.463   3.192 -0.0854  0.5486 -0.0506
 7029SOL    HW132720   4.664   2.401   3.119  0.9164  2.7414 -1.8530
 7029SOL    HW232721   4.603   2.413   3.251  0.7421  0.4540  0.6676
 7030SOL     OW32722   4.204   1.274   5.741 -0.0965  0.1224  0.7775
 7030SOL    HW132723   4.250   1.191   5.729  0.0389  0.3608 -0.2957
 7030SOL    HW232724   4.123   1.261   5.692  0.1418 -2.5351  1.0884
 7031SOL     OW32725   2.243   3.921   1.982 -0.2131  0.0613 -0.2611
 7031SOL    HW132726   2.261   4.015   1.979  2.7372 -0.4636  1.3162
 7031SOL    HW232727   2.215   3.911   2.073 -0.6104  1.3274 -0.2379
 7032SOL     OW32728   4.387   2.906   4.427  0.3312 -1.0506  0.2123
 7032SOL    HW132729   4.469   2.875   4.391  1.4819  3.7831 -1.4084
 7032SOL    HW232730   4.351   2.822   4.455  1.2847 -0.4156  3.3975
 7033SOL     OW32731   3.830   3.013   6.381  0.1656  0.2986  0.1709
 7033SOL    HW132732   3.844   2.918   6.386 -1.7756 -0.0672 -0.9188
 7033SOL    HW232733   3.735   3.008   6.370 -0.1067 -0.6729  2.8983
 7034SOL     OW32734   1.391   1.105   5.937 -1.2074 -0.7094  0.1263
 7034SOL    HW132735   1.466   1.142   5.891  0.3695 -3.7903  0.1707
 7034SOL    HW232736   1.437   1.037   5.985  0.6968  1.1746  0.9289
 7035SOL     OW32737   2.363   2.422   6.002  0.7508 -0.0816 -0.0890
 7035SOL    HW132738   2.386   2.418   6.095 -1.7768  1.5965  0.5909
 7035SOL    HW232739   2.323   2.336   5.998 -0.1016  0.2855  0.5678
 7036SOL     OW32740   4.664   1.716   1.856  0.1674 -0.2919  0.1380
 7036SOL    HW132741   4.592   1.696   1.915  0.0189 -1.7615 -0.5428
 7036SOL    HW232742   4.625   1.792   1.813 -1.0249 -1.2473 -0.4581
 7037SOL     OW32743   0.793   4.694   5.949 -0.1443  0.3813 -0.3228
 7037SOL    HW132744   0.841   4.689   6.031 -1.4512 -0.0374  0.4217
 7037SOL    HW232745   0.818   4.616   5.901  3.7256  1.7420 -0.5321
 7038SOL     OW32746   3.513   1.148   6.756  0.4466 -0.0085  0.6389
 7038SOL    HW132747   3.483   1.061   6.782 -0.4610  0.7660  2.1434
 7038SOL    HW232748   3.542   1.194   6.834  0.1497  1.8006 -0.2967
 7039SOL     OW32749   1.182   0.955   2.851  0.3306 -0.0628 -0.3166
 7039SOL    HW132750   1.179   0.972   2.945 -2.1264 -2.9645  0.1081
 7039SOL    HW232751   1.089   0.969   2.832  0.2507 -0.2915 -0.0859
 7040SOL     OW32752   3.233   3.806   6.337  0.3704  0.3802 -0.4896
 7040SOL    HW132753   3.162   3.864   6.309 -1.3110 -0.8814  1.1419
 7040SOL    HW232754   3.185   3.737   6.384  0.0752  2.2866  2.0195
 7041SOL     OW32755   2.699   2.617   6.603 -0.2647  0.1030  0.1359
 7041SOL    HW132756   2.681   2.709   6.585  2.3974  1.1871  2.8781
 7041SOL    HW232757   2.665   2.574   6.524  2.1523  0.2988 -1.0215
 7042SOL     OW32758   2.261   2.854  15.833 -0.1265  0.4550 -0.7856
 7042SOL    HW132759   2.338   2.808  15.800  0.6990  2.3682 -1.5057
 7042SOL    HW232760   2.233   2.898  15.753 -0.8889  0.1608 -0.6788
 7043SOL     OW32761   1.898   1.850   4.711 -0.0088 -0.4997  0.4925
 7043SOL    HW132762   1.830   1.807   4.762  0.3694 -0.7332  0.8004
 7043SOL    HW232763   1.852   1.856   4.628  1.2383 -1.7653 -0.2910
 7044SOL     OW32764   4.485   4.111   4.141 -0.3415  0.5634  0.1451
 7044SOL    HW132765   4.441   4.041   4.094  1.7169 -0.9773  0.4989
 7044SOL    HW232766   4.546   4.056   4.191 -0.4323 -0.5882 -1.0310
 7045SOL     OW32767   0.993   0.605  12.747 -0.6114 -0.2849  0.3296
 7045SOL    HW132768   1.071   0.646  12.784 -0.0175 -1.5190  0.4592
 7045SOL    HW232769   0.930   0.607  12.818 -0.1814 -1.8181  0.7652
 7046SOL     OW32770   4.369   3.768  17.653 -0.2492  0.1361 -0.4261
 7046SOL    HW132771   4.315   3.736  17.581 -2.0541 -0.9127  1.3839
 7046SOL    HW232772   4.421   3.834  17.608 -1.5423  0.8996 -0.7842
 7047SOL     OW32773   1.226   0.890   7.101  0.4576  0.2818  0.1465
 7047SOL    HW132774   1.272   0.806   7.104  2.5867  1.5929  3.3417
 7047SOL    HW232775   1.134   0.862   7.096  0.3831  0.6768 -0.7033
 7048SOL     OW32776   1.097   4.262   8.743 -0.3869  0.3468  0.0817
 7048SOL    HW132777   1.092   4.308   8.828 -2.4095 -0.4365  0.3758
 7048SOL    HW232778   1.004   4.244   8.742  0.1321 -2.2160 -1.5473
 7049SOL     OW32779   3.349   3.269   9.010  0.0225  0.0098 -0.6772
 7049SOL    HW132780   3.426   3.326   9.014 -1.3487  1.8631 -0.8023
 7049SOL    HW232781   3.391   3.189   9.041 -0.1275 -0.0914 -0.7378
 7050SOL     OW32782   3.426   3.564   8.736 -0.3987  0.4290 -0.5444
 7050SOL    HW132783   3.450   3.556   8.643  0.8581 -0.1961 -0.1640
 7050SOL    HW232784   3.484   3.500   8.775  0.5972  0.6797 -1.6153
 7051SOL     OW32785   3.997   1.127   4.780  0.8253 -0.3507 -0.4324
 7051SOL    HW132786   3.903   1.113   4.777  1.2694 -3.7190  2.6329
 7051SOL    HW232787   4.001   1.210   4.827  0.8226 -0.6470  0.0813
 7052SOL     OW32788   3.147   3.244  15.543  0.6399 -0.0920  0.0181
 7052SOL    HW132789   3.060   3.246  15.581  1.3755 -0.3355  1.7058
 7052SOL    HW232790   3.194   3.186  15.603  1.9788  1.9546  0.9431
 7053SOL     OW32791   3.881   4.383   5.099 -0.1246 -0.9705  0.1557
 7053SOL    HW132792   3.789   4.381   5.125 -0.0257 -0.5509  0.5310
 7053SOL    HW232793   3.901   4.476   5.092  0.9098 -0.9929  2.5267
 7054SOL     OW32794   3.235   4.114  12.529 -0.4650 -0.2309 -0.3279
 7054SOL    HW132795   3.329   4.127  12.541 -0.9405  1.8840  1.0750
 7054SOL    HW232796   3.227   4.041  12.590 -0.7600 -0.2934 -0.4407
 7055SOL     OW32797   1.716   2.655   1.914 -0.6205 -0.4457  0.4218
 7055SOL    HW132798   1.801   2.687   1.945 -0.2049 -0.5561 -0.6064
 7055SOL    HW232799   1.745   2.616   1.831  1.4067 -0.3451  1.0908
 7056SOL     OW32800   2.368   3.807   2.993 -0.5810  0.0686 -0.2894
 7056SOL    HW132801   2.403   3.877   3.048 -2.3385  2.0699 -1.7294
 7056SOL    HW232802   2.294   3.778   3.046  1.2920 -2.9004  0.7055
 7057SOL     OW32803   1.717   4.724   2.475  0.0221  0.0436  0.5136
 7057SOL    HW132804   1.739   4.634   2.500 -0.6857  0.4810  2.6978
 7057SOL    HW232805   1.757   0.030   2.551 -0.4105 -1.4114  1.5593
 7058SOL     OW32806   1.486   2.590   7.236 -0.0346  0.0442  0.4262
 7058SOL    HW132807   1.425   2.659   7.260 -0.5711 -0.2410 -0.1337
 7058SOL    HW232808   1.418   2.525   7.217  0.9660 -1.7785  3.1073
 7059SOL     OW32809   2.202   2.616   5.658 -0.0986  0.6348  0.0102
 7059SOL    HW132810   2.258   2.617   5.736  1.1546  0.4092 -0.8807
 7059SOL    HW232811   2.245   2.539   5.621 -0.9695  0.7857 -1.3133
 7060SOL     OW32812   2.533   1.122  12.175 -0.1292 -0.1806  0.0353
 7060SOL    HW132813   2.491   1.063  12.112 -1.0778  2.2078 -1.5532
 7060SOL    HW232814   2.582   1.060  12.229 -0.7052  0.6385  1.4870
 7061SOL     OW32815   1.052   4.465  15.244 -0.0045 -0.2743 -0.5117
 7061SOL    HW132816   1.140   4.498  15.223 -0.2234  1.2990  1.1099
 7061SOL    HW232817   1.036   4.494  15.334 -0.4558  0.0165 -0.6834
 7062SOL     OW32818   3.068   1.407  15.583 -0.5030  0.2971  0.2162
 7062SOL    HW132819   3.009   1.449  15.520  3.3972  3.9701 -0.9825
 7062SOL    HW232820   3.069   1.483  15.641 -3.1310 -1.8708  3.1228
 7063SOL     OW32821   3.655   0.537   2.789 -0.4138 -0.4963  0.0074
 7063SOL    HW132822   3.648   0.623   2.832 -0.2929 -0.6793  0.3913
 7063SOL    HW232823   3.619   0.548   2.701  2.7722  0.1387 -1.2285
 7064SOL     OW32824   2.947   1.437   2.750 -0.0740 -0.1001  0.6306
 7064SOL    HW132825   2.947   1.427   2.655 -1.4587  0.0461  0.6240
 7064SOL    HW232826   3.032   1.479   2.763  1.5851 -2.7203 -1.6047
 7065SOL     OW32827   0.045   1.147   0.775  0.0133 -0.1624  0.4183
 7065SOL    HW132828   0.096   1.188   0.846 -1.4052  2.7726 -0.2909
 7065SOL    HW232829   4.689   1.163   0.794 -0.8461  0.1562 -4.1812
 7066SOL     OW32830   3.047   1.985   0.709 -0.1020 -0.0313 -0.0829
 7066SOL    HW132831   3.059   1.970   0.802 -0.0528 -0.9173 -0.2365
 7066SOL    HW232832   2.955   1.962   0.696 -0.1017  0.3344 -0.7817
 7067SOL     OW32833   2.954   2.929   4.679  0.0087 -0.0372  0.2642
 7067SOL    HW132834   3.000   2.851   4.650  0.0441  0.5036 -1.1081
 7067SOL    HW232835   3.000   2.988   4.619 -0.8093  0.2908 -0.0482
 7068SOL     OW32836   4.347   4.476   9.208  0.1661  0.1669 -0.8689
 7068SOL    HW132837   4.329   4.570   9.206  0.3007  0.2019 -0.4999
 7068SOL    HW232838   4.339   4.445   9.118 -0.3394 -0.9895 -0.4271
 7069SOL     OW32839   2.922   3.677   2.803  0.3521  0.3056  0.4750
 7069SOL    HW132840   2.859   3.669   2.732  0.6741  1.1477  0.0927
 7069SOL    HW232841   2.979   3.751   2.778  1.6866 -0.7271  0.4315
 7070SOL     OW32842   1.513   2.850   3.939  0.5096 -0.6748 -1.0412
 7070SOL    HW132843   1.532   2.911   4.010  0.3909 -0.9067 -0.8099
 7070SOL    HW232844   1.593   2.865   3.889  0.8691  0.3971 -0.1427
 7071SOL     OW32845   3.705   2.930   2.036  0.1866  0.6570  0.5633
 7071SOL    HW132846   3.641   2.981   2.086 -2.6952 -0.6686 -1.7893
 7071SOL    HW232847   3.712   2.993   1.965 -2.4813 -0.6647 -0.8452
 7072SOL     OW32848   1.868   0.029  14.606  0.1248  0.7735  0.2040
 7072SOL    HW132849   1.804   0.100  14.614  2.3790  2.3916  3.4481
 7072SOL    HW232850   1.948   0.081  14.603  0.7917 -0.1305  3.2293
 7073SOL     OW32851   0.983   2.054  17.123  0.0943  0.3587  0.3325
 7073SOL    HW132852   0.950   2.140  17.096  0.7340  0.8323  1.0685
 7073SOL    HW232853   0.933   2.037  17.203  1.5549  2.7051  1.7669
 7074SOL     OW32854   0.980   0.211   4.035 -0.1281 -0.3311  0.1870
 7074SOL    HW132855   0.920   0.149   3.993  0.3260  0.5818 -1.8025
 7074SOL    HW232856   1.056   0.154   4.033 -0.9269 -1.3590 -1.0862
 7075SOL     OW32857   0.178   4.682   0.417 -0.5236 -0.2972  0.0592
 7075SOL    HW132858   0.142   0.001   0.486 -0.6287  0.3717 -0.5249
 7075SOL    HW232859   0.261   4.651   0.452 -0.3432 -2.7308 -2.5826
 7076SOL     OW32860   0.218   2.242   6.463 -0.2089  0.5797 -0.5134
 7076SOL    HW132861   0.175   2.161   6.489 -1.3036  1.8906  1.7495
 7076SOL    HW232862   0.157   2.315   6.474  0.1164  0.3510  2.9377
 7077SOL     OW32863   1.671   2.578   1.547  0.5131 -0.2234 -0.0085
 7077SOL    HW132864   1.695   2.636   1.474  1.0482  1.7450  1.7354
 7077SOL    HW232865   1.756   2.562   1.589  0.4104 -0.9925 -0.0926
 7078SOL     OW32866   2.357   1.617   2.544  0.2210 -0.4447 -0.2640
 7078SOL    HW132867   2.444   1.608   2.506  0.3760 -0.0330 -0.0027
 7078SOL    HW232868   2.361   1.697   2.596  0.9496 -0.4773 -0.2714
 7079SOL     OW32869   4.044   3.361   3.565 -0.5138 -0.2784 -0.0649
 7079SOL    HW132870   4.044   3.402   3.651  1.8011 -1.2299  0.3680
 7079SOL    HW232871   4.126   3.312   3.560  0.9684  2.2363 -0.1162
 7080SOL     OW32872   3.305   2.841   4.657  0.0225  0.2778 -0.0599
 7080SOL    HW132873   3.306   2.874   4.747  0.8846 -0.8472  0.3491
 7080SOL    HW232874   3.397   2.813   4.651  0.0339  0.2154  0.4364
 7081SOL     OW32875   3.608   2.989   3.166  0.2282  0.5006 -0.2718
 7081SOL    HW132876   3.641   2.926   3.101 -1.4417 -1.1668  0.5030
 7081SOL    HW232877   3.696   3.008   3.200  0.1523  1.1602 -0.4545
 7082SOL     OW32878   0.570   0.552  11.217  0.3581  0.7825 -0.0886
 7082SOL    HW132879   0.642   0.591  11.167 -0.5203  2.4219 -0.0749
 7082SOL    HW232880   0.586   0.458  11.220  0.3727  0.8387  1.4793
 7083SOL     OW32881   0.715   2.946   7.010 -0.2052  0.2371 -0.3778
 7083SOL    HW132882   0.634   2.906   6.977 -0.7856  0.1141  1.2143
 7083SOL    HW232883   0.765   2.870   7.039 -1.2555 -0.5068 -0.5213
 7084SOL     OW32884   0.819   0.437   8.283  0.0707  0.3171  0.0735
 7084SOL    HW132885   0.811   0.382   8.360 -0.2781  0.4798  0.1537
 7084SOL    HW232886   0.851   0.513   8.332 -0.5988  1.1663 -0.8042
 7085SOL     OW32887   4.529   3.653   5.413 -0.4170  0.3993 -0.5079
 7085SOL    HW132888   4.515   3.731   5.466  0.9042 -2.5618  4.2223
 7085SOL    HW232889   4.442   3.615   5.400 -0.7610  0.6702  0.9930
 7086SOL     OW32890   1.427   0.641   9.059  0.6713 -0.0965  0.2227
 7086SOL    HW132891   1.397   0.729   9.035 -1.8420 -0.8743  0.5163
 7086SOL    HW232892   1.497   0.659   9.122  3.5223  0.4616 -3.0807
 7087SOL     OW32893   1.808   1.208  14.069 -0.4566 -0.0798 -0.7103
 7087SOL    HW132894   1.806   1.194  14.164 -1.7721  0.8962 -0.5938
 7087SOL    HW232895   1.773   1.127  14.033 -0.9993 -0.7811  1.3968
 7088SOL     OW32896   1.475   1.547   8.601 -0.2960  0.0882 -0.4311
 7088SOL    HW132897   1.550   1.605   8.589 -1.7584  2.3709  1.5265
 7088SOL    HW232898   1.449   1.535   8.509 -0.5391 -0.8680 -0.2339
 7089SOL     OW32899   0.486   1.879  12.048  0.2065  0.1289  0.4903
 7089SOL    HW132900   0.512   1.787  12.051 -0.1025  0.0221 -0.1902
 7089SOL    HW232901   0.403   1.874  12.002  0.4071 -2.4844  0.4090
 7090SOL     OW32902   3.997   0.554   2.478 -0.5181 -0.4807 -0.0540
 7090SOL    HW132903   4.011   0.521   2.567 -1.1700 -0.8511 -0.0905
 7090SOL    HW232904   4.088   0.545   2.449 -0.1462  2.0439  0.3441
 7091SOL     OW32905   2.162   0.554  16.235 -0.2656 -0.3603  0.3778
 7091SOL    HW132906   2.204   0.640  16.230  0.9870 -0.8409  2.6209
 7091SOL    HW232907   2.175   0.521  16.146 -0.5109  0.0684  0.1782
 7092SOL     OW32908   2.163   1.613   8.968  0.2088  0.1526  0.4907
 7092SOL    HW132909   2.133   1.527   8.937  0.7622  0.0441  0.2603
 7092SOL    HW232910   2.193   1.645   8.883 -0.7269  1.1444  0.5351
 7093SOL     OW32911   1.922   2.015   3.486 -0.0192  0.6445  0.6965
 7093SOL    HW132912   1.952   1.933   3.447 -0.1140  1.0170 -0.1562
 7093SOL    HW232913   1.921   1.997   3.580  2.8679 -2.3569  0.1825
 7094SOL     OW32914   4.403   4.086  17.310  0.4933  0.0390 -0.7521
 7094SOL    HW132915   4.478   4.099  17.253 -0.2255 -0.3802 -1.8021
 7094SOL    HW232916   4.379   4.178  17.320 -0.8303 -0.4924  1.0255
 7095SOL     OW32917   0.600   3.802   6.563 -0.0722  0.2151  0.2204
 7095SOL    HW132918   0.682   3.805   6.515 -0.5587  2.7235 -0.4645
 7095SOL    HW232919   0.561   3.889   6.571  1.8607  1.1897 -0.9438
 7096SOL     OW32920   2.482   4.064   4.618 -0.2695 -0.1951  0.2407
 7096SOL    HW132921   2.562   4.025   4.652  0.2380  0.3139 -0.3860
 7096SOL    HW232922   2.456   3.997   4.554  2.2732  1.5770 -2.5915
 7097SOL     OW32923   0.104   0.461  12.818 -0.0676  0.0017 -0.3774
 7097SOL    HW132924   0.135   0.524  12.883  0.7943 -2.2454  1.3691
 7097SOL    HW232925   0.183   0.407  12.820 -1.4448 -2.0329 -1.2420
 7098SOL     OW32926   0.832   2.453   3.499  0.2345 -0.1420  0.8308
 7098SOL    HW132927   0.879   2.371   3.513  1.5230  0.5446  0.4554
 7098SOL    HW232928   0.824   2.443   3.404 -3.1687 -1.3648  1.2150
 7099SOL     OW32929   3.093   1.295   5.614 -0.9596  0.7691 -0.8430
 7099SOL    HW132930   3.131   1.380   5.594  2.0137 -0.1978  0.6266
 7099SOL    HW232931   3.168   1.237   5.625 -1.1018  0.6445 -0.5247
 7100SOL     OW32932   2.493   1.041   6.105  0.1259 -0.6162 -0.2781
 7100SOL    HW132933   2.419   0.981   6.111  1.6038 -2.2290  2.1565
 7100SOL    HW232934   2.535   1.004   6.183 -0.2115  0.2505  0.3244
 7101SOL     OW32935   4.188   1.461  13.256 -0.3238  0.3727  0.1862
 7101SOL    HW132936   4.189   1.538  13.314 -0.5380  0.7134 -0.2598
 7101SOL    HW232937   4.108   1.481  13.208 -0.6931 -0.4273  0.4767
 7102SOL     OW32938   0.721   2.673   7.087 -0.0832  0.2040 -0.2097
 7102SOL    HW132939   0.726   2.689   7.181  1.0298 -0.5932 -0.1261
 7102SOL    HW232940   0.805   2.632   7.064  0.6833  1.7490 -0.1339
 7103SOL     OW32941   2.435   2.446   4.524  0.3374 -0.0312 -0.5798
 7103SOL    HW132942   2.513   2.399   4.554 -0.0812  0.2582  0.9185
 7103SOL    HW232943   2.411   2.389   4.451 -1.1683  0.3709 -0.3843
 7104SOL     OW32944   4.257   4.293  15.188  0.5172  0.0632 -0.1776
 7104SOL    HW132945   4.192   4.226  15.206 -1.7964  1.7209 -2.2975
 7104SOL    HW232946   4.314   4.277  15.264 -0.8169  1.5636  1.1282
 7105SOL     OW32947   4.131   0.330   8.885  0.0134  0.3846 -0.0045
 7105SOL    HW132948   4.085   0.410   8.908  0.8422  0.8437  0.0630
 7105SOL    HW232949   4.062   0.276   8.847  1.4213 -0.4364 -1.4369
 7106SOL     OW32950   1.562   0.713   5.686 -0.1001  0.5511 -0.0483
 7106SOL    HW132951   1.511   0.640   5.720 -1.3125  1.5465  0.2698
 7106SOL    HW232952   1.647   0.709   5.730 -0.8381 -0.8566  1.2249
 7107SOL     OW32953   4.375   1.616   2.740  0.7718 -0.4831 -0.1964
 7107SOL    HW132954   4.290   1.582   2.766  0.5796 -0.6223 -0.9971
 7107SOL    HW232955   4.357   1.690   2.681  0.1050 -1.0471 -0.6979
 7108SOL     OW32956   2.122   1.078   6.894  0.0473 -0.0110  0.3707
 7108SOL    HW132957   2.143   1.001   6.840  0.3401  1.2259 -1.2882
 7108SOL    HW232958   2.061   1.044   6.960 -1.2373  0.1404 -0.7316
 7109SOL     OW32959   0.062   0.412   8.629 -0.7337 -0.0384 -0.1891
 7109SOL    HW132960   0.012   0.419   8.709 -2.7206 -1.0274 -1.3413
 7109SOL    HW232961   0.143   0.460   8.646 -1.5358  1.6758 -1.1674
 7110SOL     OW32962   0.750   2.086   1.966 -0.8501  0.3683  0.0446
 7110SOL    HW132963   0.678   2.033   2.001 -1.1843  0.3570 -0.6532
 7110SOL    HW232964   0.740   2.075   1.872  1.5673 -1.9268  0.0820
 7111SOL     OW32965   4.401   1.076   4.476  0.8057 -0.3698 -0.4817
 7111SOL    HW132966   4.449   1.132   4.537 -1.6469  0.8410  0.3363
 7111SOL    HW232967   4.312   1.112   4.479  1.1272  0.6757 -3.2559
 7112SOL     OW32968   3.517   0.581  16.321  0.1339 -0.5506 -0.4814
 7112SOL    HW132969   3.471   0.529  16.387 -0.7345  1.3109  0.3716
 7112SOL    HW232970   3.456   0.648  16.291  1.1770  1.1509  1.2062
 7113SOL     OW32971   1.428   4.070   7.863 -0.0529 -0.1642  0.0733
 7113SOL    HW132972   1.513   4.082   7.820 -0.5942  0.0603 -0.9364
 7113SOL    HW232973   1.398   3.995   7.812  0.6973  0.4341 -1.2519
 7114SOL     OW32974   0.480   1.857   2.664 -0.0930 -0.3763 -0.5568
 7114SOL    HW132975   0.420   1.783   2.664 -2.7146  1.7649  0.0606
 7114SOL    HW232976   0.449   1.907   2.588  0.8931  1.3954  0.1983
 7115SOL     OW32977   1.749   0.451   4.928  0.5415  0.4380 -0.1011
 7115SOL    HW132978   1.666   0.427   4.888  0.2024 -0.2876  1.0204
 7115SOL    HW232979   1.750   0.378   4.991  0.8048  0.6359  0.1257
 7116SOL     OW32980   2.559   2.179   5.154  0.3521 -0.0032  0.1869
 7116SOL    HW132981   2.521   2.124   5.087 -2.0801  0.6153  1.0685
 7116SOL    HW232982   2.588   2.107   5.209 -0.2780  0.1748  0.7498
 7117SOL     OW32983   0.767   2.086  17.365 -0.0480 -0.0021 -0.0208
 7117SOL    HW132984   0.729   2.158  17.315  0.3486 -0.1420 -0.5239
 7117SOL    HW232985   0.821   2.130  17.432  1.3775  0.3676 -1.4091
 7118SOL     OW32986   3.670   1.516  11.498  0.5774  0.5084  0.2504
 7118SOL    HW132987   3.605   1.488  11.562  1.3426  0.4775  1.0182
 7118SOL    HW232988   3.700   1.430  11.469 -0.6673  0.2018 -0.1156
 7119SOL     OW32989   3.184   3.903   5.244 -0.0569 -0.1140 -0.5343
 7119SOL    HW132990   3.180   3.981   5.189  0.2303  0.4236  0.2011
 7119SOL    HW232991   3.185   3.837   5.175 -1.2693 -0.2275 -0.4371
 7120SOL     OW32992   0.688   1.370   3.183 -0.6144 -0.3050 -0.4639
 7120SOL    HW132993   0.723   1.459   3.186  0.2743 -0.6204 -2.0511
 7120SOL    HW232994   0.599   1.396   3.158 -0.7649 -0.0154  0.3481
 7121SOL     OW32995   4.568   2.490   9.996 -0.6431 -0.0331  0.3088
 7121SOL    HW132996   4.550   2.420  10.059  1.9155  0.0174  1.1291
 7121SOL    HW232997   4.661   2.469   9.993 -0.7541 -0.3587 -0.9117
 7122SOL     OW32998   3.410   0.206   5.165  0.4244 -0.3065  0.1370
 7122SOL    HW132999   3.475   0.275   5.152 -1.0412  0.4630 -3.1582
 7122SOL    HW233000   3.459   0.161   5.234 -0.2773  0.7164  1.3024
 7123SOL     OW33001   4.463   1.970   9.322 -0.0788  0.1921 -0.1574
 7123SOL    HW133002   4.382   1.982   9.272 -0.1195  1.0926  0.1317
 7123SOL    HW233003   4.479   2.059   9.353 -1.7236  0.4355  0.0169
 7124SOL     OW33004   1.604   0.695  14.457 -0.1619  0.1954 -0.1661
 7124SOL    HW133005   1.692   0.724  14.478 -1.0058  2.1283  0.6997
 7124SOL    HW233006   1.547   0.712  14.532 -1.2935 -1.5117 -0.6350
 7125SOL     OW33007   0.250   4.642   5.073  0.0592  0.2298 -0.6559
 7125SOL    HW133008   0.159   4.671   5.074 -0.0033 -0.0551  2.1288
 7125SOL    HW233009   0.297   4.726   5.075  1.6171 -0.6783  1.0441
 7126SOL     OW33010   0.245   1.596   5.565  0.1323 -0.4051  0.3194
 7126SOL    HW133011   0.278   1.685   5.550 -1.4090  0.0167 -0.5768
 7126SOL    HW233012   0.164   1.600   5.515 -0.7538 -2.3160  1.6321
 7127SOL     OW33013   0.064   0.013   6.099 -0.4002  0.2451 -0.5691
 7127SOL    HW133014   4.721   0.004   6.045 -0.7347 -1.6405  0.2566
 7127SOL    HW233015   0.113   0.082   6.054  0.9253 -1.0346 -1.0755
 7128SOL     OW33016   2.703   0.172   1.477  0.4446 -0.9392  0.8009
 7128SOL    HW133017   2.711   0.098   1.417  0.1080 -0.2247 -0.1184
 7128SOL    HW233018   2.731   0.132   1.560  2.5623 -0.3627  0.3470
 7129SOL     OW33019   4.558   1.919   5.468  0.0669 -0.1940  0.4633
 7129SOL    HW133020   4.495   1.892   5.535  2.0726  1.3847  2.9805
 7129SOL    HW233021   4.534   1.867   5.391 -1.1990  0.9846  0.0720
 7130SOL     OW33022   1.004   1.046   6.902 -0.9196 -0.4719 -0.2206
 7130SOL    HW133023   1.033   0.976   6.843 -0.0067 -0.9078  0.7590
 7130SOL    HW233024   1.007   1.119   6.840 -2.2822 -0.8328 -0.7175
 7131SOL     OW33025   3.275   0.746   4.418  0.2449 -0.0400 -0.3704
 7131SOL    HW133026   3.366   0.772   4.428 -0.3051  1.2136  1.2968
 7131SOL    HW233027   3.253   0.739   4.511 -2.4179  0.2531 -0.9604
 7132SOL     OW33028   3.882   1.277   7.936  0.5517 -0.4299 -0.1547
 7132SOL    HW133029   3.958   1.257   7.991  0.3350 -0.5099  0.1106
 7132SOL    HW233030   3.828   1.205   7.968 -0.9680  0.5757 -0.4440
 7133SOL     OW33031   3.858   0.327   6.883 -0.1060  0.0758  0.3361
 7133SOL    HW133032   3.818   0.412   6.868 -1.8052 -0.6115  0.8743
 7133SOL    HW233033   3.835   0.282   6.802  1.0885 -1.5439  0.8948
 7134SOL     OW33034   0.952   0.888   3.153  0.1053  0.1376  0.2052
 7134SOL    HW133035   0.878   0.863   3.098 -0.5800 -0.5033  1.4223
 7134SOL    HW233036   0.914   0.958   3.207  1.3154  0.4414  0.6534
 7135SOL     OW33037   0.336   3.279   8.136  0.4358  0.7113 -0.2320
 7135SOL    HW133038   0.413   3.335   8.144  0.0539  1.4639 -1.9866
 7135SOL    HW233039   0.262   3.329   8.171 -0.0833  0.2942 -0.7279
 7136SOL     OW33040   4.578   3.823   4.570  0.2167  0.5307  0.0321
 7136SOL    HW133041   4.619   3.816   4.656  1.6603 -1.4076 -0.8062
 7136SOL    HW233042   4.521   3.746   4.568 -0.4180  0.9870  0.3211
 7137SOL     OW33043   4.251   0.598   8.396  0.4677 -0.5901  0.0397
 7137SOL    HW133044   4.279   0.589   8.487  0.1015 -1.7805  0.0263
 7137SOL    HW233045   4.194   0.523   8.380 -0.7147  0.0471  1.2512
 7138SOL     OW33046   2.907   2.612  15.632  0.2797 -0.3759  0.0263
 7138SOL    HW133047   2.916   2.706  15.645 -0.0632 -0.7092  2.5502
 7138SOL    HW233048   2.999   2.586  15.634  1.3530  3.5782  0.4139
 7139SOL     OW33049   0.878   2.792   2.125  0.1596 -0.0494 -0.4186
 7139SOL    HW133050   0.960   2.743   2.133 -0.4160 -1.3683 -2.4213
 7139SOL    HW233051   0.838   2.753   2.047 -0.4063  0.6323 -0.4696
 7140SOL     OW33052   4.179   4.083   5.574 -0.3261  0.4838 -0.4561
 7140SOL    HW133053   4.110   4.149   5.576 -1.0018 -0.1489 -2.2039
 7140SOL    HW233054   4.234   4.124   5.641  1.6131 -2.4012 -0.3028
 7141SOL     OW33055   1.165   1.358  11.735 -0.3270 -0.7232 -0.1666
 7141SOL    HW133056   1.101   1.287  11.731 -1.2328  0.2691 -3.5515
 7141SOL    HW233057   1.251   1.316  11.747  0.4040  1.4270  2.1084
 7142SOL     OW33058   2.970   2.455  14.075  0.1863 -0.1790  0.1428
 7142SOL    HW133059   2.963   2.548  14.052 -0.2716 -0.2239  0.0826
 7142SOL    HW233060   2.893   2.425  14.026  0.5531  2.4949 -2.0711
 7143SOL     OW33061   4.573   4.124   6.873  0.3960 -0.9174  0.7371
 7143SOL    HW133062   4.578   4.147   6.780  0.5475  0.5107  1.0991
 7143SOL    HW233063   4.533   4.038   6.866 -0.2850 -0.5429  0.0518
 7144SOL     OW33064   1.232   2.054  13.185 -0.9225 -0.2293  0.3459
 7144SOL    HW133065   1.181   2.003  13.121  0.6912 -1.2136 -0.1703
 7144SOL    HW233066   1.232   2.012  13.271  0.4201 -0.0502  0.4356
 7145SOL     OW33067   2.052   2.024   5.293  0.1060 -0.7980 -0.6431
 7145SOL    HW133068   2.038   1.937   5.256 -1.7324 -1.6386  2.0235
 7145SOL    HW233069   2.028   2.015   5.385  0.1399 -0.2333 -0.5775
 7146SOL     OW33070   4.237   3.741   7.675  0.4436 -0.7224 -0.2739
 7146SOL    HW133071   4.208   3.802   7.743 -1.2285  1.6436 -3.0970
 7146SOL    HW233072   4.318   3.711   7.717  0.4559 -1.0654 -0.5461
 7147SOL     OW33073   1.324   1.607   7.084 -0.2111 -0.3785 -0.4059
 7147SOL    HW133074   1.396   1.553   7.050  1.7037  0.8349  1.7404
 7147SOL    HW233075   1.294   1.564   7.163 -3.3405  0.2758 -1.2654
 7148SOL     OW33076   0.608   2.454   1.456  0.1294 -0.4127 -0.2651
 7148SOL    HW133077   0.613   2.490   1.368  2.4374  2.9596  1.2273
 7148SOL    HW233078   0.609   2.535   1.508 -0.8794  0.1845 -1.1704
 7149SOL     OW33079   2.220   3.032   8.912  0.1224 -0.0582 -0.3295
 7149SOL    HW133080   2.137   3.024   8.960  1.8439 -2.5590  2.2326
 7149SOL    HW233081   2.287   3.004   8.974 -0.4242  0.1552  0.3677
 7150SOL     OW33082   1.043   3.240  17.266  0.5590  0.2999 -0.3709
 7150SOL    HW133083   1.025   3.326  17.303  1.6846  0.3207  0.1376
 7150SOL    HW233084   0.965   3.236  17.212  1.1860  2.0999 -1.4029
 7151SOL     OW33085   4.332   0.338   9.508  0.0638  0.6396 -0.4596
 7151SOL    HW133086   4.291   0.404   9.453  2.1265  2.3107  0.0020
 7151SOL    HW233087   4.425   0.332   9.483  0.8673 -0.3955  2.7069
 7152SOL     OW33088   1.900   1.422  11.066 -0.0660  0.4303  0.7914
 7152SOL    HW133089   1.822   1.446  11.116 -0.7786  3.8167 -1.9385
 7152SOL    HW233090   1.856   1.370  11.000  0.9576 -2.2800  2.2531
 7153SOL     OW33091   3.160   2.376   4.095  0.1122 -0.4868 -0.0448
 7153SOL    HW133092   3.193   2.442   4.155  0.1385  1.5469 -2.3166
 7153SOL    HW233093   3.230   2.310   4.091  0.1575 -0.4498  0.1290
 7154SOL     OW33094   1.730   2.308   6.244 -0.2220  0.0985  0.0910
 7154SOL    HW133095   1.695   2.328   6.157 -0.7157 -0.9823  0.0380
 7154SOL    HW233096   1.813   2.266   6.222 -0.3482  0.3663 -0.9088
 7155SOL     OW33097   3.689   1.271   9.352 -0.3559 -0.1071  0.3968
 7155SOL    HW133098   3.678   1.178   9.330 -0.2288 -0.6622  2.6619
 7155SOL    HW233099   3.691   1.260   9.447  0.2639 -0.2675  0.3661
 7156SOL     OW33100   2.452   4.503  11.182  0.7035 -0.4085 -0.3652
 7156SOL    HW133101   2.481   4.593  11.172 -1.1150  0.0097 -1.8093
 7156SOL    HW233102   2.530   4.459  11.218  2.4684  2.4466 -0.7299
 7157SOL     OW33103   0.379   3.484  16.920 -0.4808  0.6460 -0.2445
 7157SOL    HW133104   0.342   3.447  17.001  0.3150  1.9270  0.7083
 7157SOL    HW233105   0.312   3.547  16.895 -0.6952  0.0536 -1.1690
 7158SOL     OW33106   3.274   1.741  14.328  0.3909 -1.1890  0.0756
 7158SOL    HW133107   3.250   1.654  14.295  0.3254 -0.0091 -2.9207
 7158SOL    HW233108   3.248   1.799  14.257  0.1823 -0.2846  0.9056
 7159SOL     OW33109   0.122   0.562   7.563 -0.1088 -0.1718 -0.7178
 7159SOL    HW133110   0.117   0.549   7.658 -0.7309  0.0350 -0.7236
 7159SOL    HW233111   0.142   0.470   7.548  1.0785 -0.4352  2.3768
 7160SOL     OW33112   4.477   3.362   9.982  0.0943  0.1905  0.1750
 7160SOL    HW133113   4.404   3.319  10.028 -1.4624  2.4170 -0.2268
 7160SOL    HW233114   4.535   3.370  10.057 -0.3191  0.2341  0.4944
 7161SOL     OW33115   2.634   1.038  17.695  0.0568  0.5019  0.3196
 7161SOL    HW133116   2.626   1.001  17.607  0.2436 -2.4802  1.5416
 7161SOL    HW233117   2.549   1.080  17.701  0.0053  0.2466  1.3051
 7162SOL     OW33118   0.603   0.769  12.117  0.3245 -0.1880 -0.4387
 7162SOL    HW133119   0.631   0.706  12.183 -0.1746  1.0839  0.9937
 7162SOL    HW233120   0.551   0.826  12.173  1.0035  0.2960 -0.2958
 7163SOL     OW33121   0.868   1.303   7.971  0.8946 -0.0947 -0.2674
 7163SOL    HW133122   0.906   1.242   8.034  0.9985  0.3106  0.0568
 7163SOL    HW233123   0.848   1.243   7.899 -0.4682 -0.3160  0.2862
 7164SOL     OW33124   3.518   4.430   6.926 -0.6430  0.5598 -0.1064
 7164SOL    HW133125   3.483   4.404   6.841 -2.7127 -1.3994  1.3648
 7164SOL    HW233126   3.592   4.484   6.896  0.2151 -0.7654 -0.3709
 7165SOL     OW33127   4.709   0.295  12.463 -0.1467 -0.1503  0.0266
 7165SOL    HW133128   4.618   0.317  12.441 -0.9165  1.2287  4.5672
 7165SOL    HW233129   4.703   0.268  12.555  0.8542  2.2819  0.7912
 7166SOL     OW33130   4.213   1.280   5.163  0.2344 -0.4591  0.2783
 7166SOL    HW133131   4.150   1.242   5.224 -1.1056  0.2044 -0.7086
 7166SOL    HW233132   4.160   1.348   5.123  1.1390  0.1998  0.1996
 7167SOL     OW33133   0.183   2.380  13.077 -0.1600  0.9742 -0.3352
 7167SOL    HW133134   0.091   2.371  13.052  0.2782  1.0217 -1.9772
 7167SOL    HW233135   0.170   2.421  13.162  0.4588 -1.9475  1.1962
 7168SOL     OW33136   3.684   2.298   6.858  0.3632 -0.6113  0.3370
 7168SOL    HW133137   3.640   2.214   6.846  1.9146 -1.5862  1.4645
 7168SOL    HW233138   3.614   2.362   6.869  1.2755  0.3784  0.3967
 7169SOL     OW33139   0.781   1.783   4.622 -0.5767  0.3825 -0.2135
 7169SOL    HW133140   0.862   1.752   4.662 -0.1273  0.4011 -1.1217
 7169SOL    HW233141   0.808   1.875   4.620 -0.9726  0.5009 -0.1216
 7170SOL     OW33142   1.022   1.592   2.420 -0.1882  0.1106 -0.7944
 7170SOL    HW133143   1.097   1.637   2.382 -0.3542  0.5935 -0.5478
 7170SOL    HW233144   0.985   1.529   2.357  1.2267  0.0888 -1.6013
 7171SOL     OW33145   1.879   3.365   2.935  0.1884  0.3256 -0.4015
 7171SOL    HW133146   1.837   3.358   2.849 -0.9208 -0.6696  0.2173
 7171SOL    HW233147   1.808   3.406   2.985 -0.4618 -2.0015  0.5941
 7172SOL     OW33148   4.365   0.688  12.936  0.2984 -0.2418 -0.6355
 7172SOL    HW133149   4.445   0.643  12.908 -0.1978 -2.2189  1.1523
 7172SOL    HW233150   4.302   0.618  12.920  0.3659 -0.2862 -0.7068
 7173SOL     OW33151   2.865   3.428   6.479 -0.3695  0.0163 -0.1811
 7173SOL    HW133152   2.798   3.388   6.424  0.2559  0.0922 -0.9971
 7173SOL    HW233153   2.807   3.433   6.555 -1.4598 -0.4347 -0.9760
 7174SOL     OW33154   3.013   1.151  10.861  0.3001 -0.1447 -0.2807
 7174SOL    HW133155   3.079   1.130  10.927 -0.2737 -0.0586  0.3257
 7174SOL    HW233156   3.052   1.218  10.806  3.2131 -1.5768  0.0589
 7175SOL     OW33157   2.367   2.263  16.130  0.4706  0.0775 -0.2189
 7175SOL    HW133158   2.393   2.262  16.222  0.3857  0.8567 -0.1868
 7175SOL    HW233159   2.324   2.348  16.127  0.4244  0.1110  1.3790
 7176SOL     OW33160   3.247   3.758  14.486 -0.2196  0.7751 -0.4614
 7176SOL    HW133161   3.283   3.779  14.399 -0.5296 -0.3289 -0.8614
 7176SOL    HW233162   3.326   3.724  14.527 -0.7752  1.3379  1.0600
 7177SOL     OW33163   2.943   4.058  13.201  0.1029  0.4361  0.3889
 7177SOL    HW133164   2.985   4.001  13.265 -2.8482 -1.8658  0.2709
 7177SOL    HW233165   3.010   4.126  13.195  0.1811  0.3428  0.2069
 7178SOL     OW33166   4.452   4.234   5.142  0.0060  0.1700  0.0946
 7178SOL    HW133167   4.483   4.292   5.073 -0.5807  0.3268 -0.0354
 7178SOL    HW233168   4.534   4.187   5.158 -0.3686 -0.8953 -1.1497
 7179SOL     OW33169   0.020   4.065   2.873  0.6185  0.4273  0.8275
 7179SOL    HW133170   4.710   4.148   2.887 -0.8450 -0.4169  1.0074
 7179SOL    HW233171   0.063   4.090   2.792 -1.5696  0.3316 -0.3470
 7180SOL     OW33172   4.564   3.148   9.547 -0.1120 -0.1561  0.1782
 7180SOL    HW133173   4.512   3.208   9.600 -3.0778 -0.1427 -2.8054
 7180SOL    HW233174   4.585   3.202   9.471 -0.6982  1.6472  1.2972
 7181SOL     OW33175   2.139   3.851  12.146 -0.2835 -0.0386 -0.3299
 7181SOL    HW133176   2.143   3.904  12.066  0.1604  1.5206  0.7377
 7181SOL    HW233177   2.232   3.837  12.161 -0.2680 -1.8427 -2.0148
 7182SOL     OW33178   3.953   2.367   7.870 -0.0727  0.3229 -0.1875
 7182SOL    HW133179   3.982   2.308   7.940  1.1915  0.8099 -0.3076
 7182SOL    HW233180   3.858   2.368   7.888  0.2888 -1.9911  1.8681
 7183SOL     OW33181   1.681   4.518  12.297 -0.0959 -0.1430  0.0870
 7183SOL    HW133182   1.661   4.439  12.348  2.9831  0.1163  1.6792
 7183SOL    HW233183   1.776   4.503  12.302 -0.2695 -1.1038  0.5624
 7184SOL     OW33184   3.163   3.721   1.551 -0.6950  0.0470  0.0742
 7184SOL    HW133185   3.198   3.658   1.614  0.3078  1.3556  0.8270
 7184SOL    HW233186   3.193   3.671   1.475 -1.3051 -1.8892  1.0840
 7185SOL     OW33187   2.930   0.884   9.909  0.4567  0.8602 -0.2434
 7185SOL    HW133188   2.926   0.922   9.821 -0.2124 -0.3333 -0.7255
 7185SOL    HW233189   2.875   0.806   9.905  1.1405  0.5279 -3.4790
 7186SOL     OW33190   0.207   3.989   7.795 -0.4234 -0.4472 -0.0329
 7186SOL    HW133191   0.271   3.918   7.789 -0.8637 -0.7097 -1.8515
 7186SOL    HW233192   0.231   4.037   7.873 -1.3626  0.8620 -0.5493
 7187SOL     OW33193   3.026   3.128   5.064  0.4096  0.1028 -0.6285
 7187SOL    HW133194   3.035   3.041   5.024 -1.6493 -0.0280 -0.8281
 7187SOL    HW233195   2.969   3.099   5.135 -0.9294  2.4720 -0.7526
 7188SOL     OW33196   3.562   2.693   4.591 -0.3273  0.2963 -0.0922
 7188SOL    HW133197   3.524   2.691   4.503  1.3935  0.8586 -0.8499
 7188SOL    HW233198   3.555   2.599   4.608  0.1220  0.5110  1.3212
 7189SOL     OW33199   3.749   2.552   4.058  0.6334 -0.0804  0.6183
 7189SOL    HW133200   3.808   2.562   4.133  1.2059 -1.0782  0.3141
 7189SOL    HW233201   3.699   2.478   4.092 -0.0494 -0.1267 -0.4859
 7190SOL     OW33202   3.788   3.722  15.359 -0.1462  0.6714  0.6180
 7190SOL    HW133203   3.724   3.683  15.419 -0.5129  1.3116  0.6422
 7190SOL    HW233204   3.747   3.808  15.352 -0.9974  0.2316  0.1716
 7191SOL     OW33205   2.437   0.981  14.584 -0.3431  0.2698 -0.2356
 7191SOL    HW133206   2.433   1.015  14.674 -0.5092  1.5650 -0.7342
 7191SOL    HW233207   2.523   1.011  14.557  0.1542 -0.2366  0.7807
 7192SOL     OW33208   2.782   2.267   6.629  0.6862  1.0161  0.1941
 7192SOL    HW133209   2.755   2.349   6.669  0.4154 -0.0596  2.1997
 7192SOL    HW233210   2.804   2.216   6.707 -0.5020  0.1240 -0.0633
 7193SOL     OW33211   2.041   4.098   2.921 -0.5869 -0.0151 -0.3107
 7193SOL    HW133212   2.129   4.125   2.897 -0.2802  0.1638  0.9786
 7193SOL    HW233213   2.046   4.003   2.929  1.3152  0.2954  2.2355
 7194SOL     OW33214   0.237   1.837   8.477  0.4984 -0.2185  0.6348
 7194SOL    HW133215   0.151   1.827   8.438 -0.3472 -3.2604  3.3102
 7194SOL    HW233216   0.285   1.785   8.412 -0.1900  0.4282 -0.3941
 7195SOL     OW33217   4.172   3.846  12.695  0.7918 -0.3330  0.3382
 7195SOL    HW133218   4.085   3.884  12.704  1.0938 -0.2579  2.9210
 7195SOL    HW233219   4.150   3.764  12.651 -2.2213 -0.2174  1.6511
 7196SOL     OW33220   3.546   0.910   9.674  0.4614 -0.5104  0.3694
 7196SOL    HW133221   3.465   0.868   9.703  0.4902  0.2608  1.5448
 7196SOL    HW233222   3.556   0.866   9.589  0.9465 -1.0335  0.6932
 7197SOL     OW33223   0.628   0.316  15.962 -0.5878 -0.6316 -0.1984
 7197SOL    HW133224   0.611   0.389  16.022  2.3465  1.5293 -1.9544
 7197SOL    HW233225   0.660   0.253  16.026  1.4211 -0.2007 -0.7756
 7198SOL     OW33226   2.589   4.258  17.316 -0.1869 -0.1857 -0.8536
 7198SOL    HW133227   2.617   4.166  17.314 -0.5415 -0.2604 -2.0647
 7198SOL    HW233228   2.509   4.246  17.367  0.2457 -0.4961 -0.2436
 7199SOL     OW33229   4.445   2.619   4.939 -0.8430 -0.2923 -0.0966
 7199SOL    HW133230   4.435   2.524   4.944  0.8311 -0.5762 -1.9330
 7199SOL    HW233231   4.491   2.632   5.022 -2.4649  1.6580  0.4994
 7200SOL     OW33232   2.152   2.841  16.573 -0.0723  0.3455  0.7067
 7200SOL    HW133233   2.068   2.872  16.540  1.2517  1.1988 -1.8742
 7200SOL    HW233234   2.208   2.900  16.522 -1.8373  1.5963  0.2031
 7201SOL     OW33235   4.729   4.387   7.594  0.8256  0.2985  0.3510
 7201SOL    HW133236   0.023   4.405   7.505  0.7333  1.5149  0.5617
 7201SOL    HW233237   0.065   4.331   7.624  0.7720  0.1762  0.2482
 7202SOL     OW33238   0.811   1.631   7.158  0.3151  0.2270 -0.1075
 7202SOL    HW133239   0.902   1.603   7.162  0.7705  1.5686 -1.2195
 7202SOL    HW233240   0.760   1.557   7.125  2.1083 -0.7204 -0.7085
 7203SOL     OW33241   1.324   3.690   6.342 -0.3325 -0.0443  0.2795
 7203SOL    HW133242   1.369   3.742   6.274 -2.6834  2.6417  0.7859
 7203SOL    HW233243   1.335   3.736   6.425  3.5961  1.3553 -1.0010
 7204SOL     OW33244   4.146   0.957  13.914  0.0566 -0.2399  0.5201
 7204SOL    HW133245   4.159   0.875  13.866 -1.0358  0.8926 -1.6702
 7204SOL    HW233246   4.057   0.979  13.888 -0.0956 -3.4272 -1.6394
 7205SOL     OW33247   0.346   2.531   3.482  0.4800 -0.2970 -0.0399
 7205SOL    HW133248   0.421   2.542   3.424  0.5123 -1.2576 -0.1815
 7205SOL    HW233249   0.370   2.592   3.552 -1.1906 -0.1358  0.3771
 7206SOL     OW33250   0.720   4.615   2.480  0.2047  1.1194  0.2678
 7206SOL    HW133251   0.671   4.534   2.490 -1.9607  2.2629 -1.0427
 7206SOL    HW233252   0.809   4.585   2.462 -1.1878 -3.4427  1.0466
 7207SOL     OW33253   3.411   3.165  14.423 -1.0723 -0.4737 -0.0353
 7207SOL    HW133254   3.449   3.146  14.510  2.2157  0.5606 -1.2282
 7207SOL    HW233255   3.437   3.255  14.403 -0.5385 -0.4123  0.9011
 7208SOL     OW33256   3.685   0.691   2.028 -0.5510  0.4394  0.1700
 7208SOL    HW133257   3.747   0.758   1.999 -2.7194  2.0759 -0.6123
 7208SOL    HW233258   3.615   0.751   2.051 -1.4759 -0.8415  0.7111
 7209SOL     OW33259   2.075   3.488   7.297 -0.6943 -0.2004  0.2798
 7209SOL    HW133260   2.027   3.422   7.348 -2.1999  1.2191  0.7142
 7209SOL    HW233261   2.134   3.428   7.252 -0.7129  1.3629 -1.7766
 7210SOL     OW33262   1.760   3.289  13.804  0.1920 -0.0393  0.3614
 7210SOL    HW133263   1.810   3.324  13.877  1.4667 -1.3205  0.1058
 7210SOL    HW233264   1.821   3.298  13.731  1.1901 -1.0698  1.0739
 7211SOL     OW33265   1.423   0.863   3.928 -0.4666 -0.1063  0.0162
 7211SOL    HW133266   1.377   0.946   3.917 -3.2185 -1.3887  1.6735
 7211SOL    HW233267   1.428   0.876   4.023  0.9470 -1.3444  0.1180
 7212SOL     OW33268   1.816   1.175   6.044 -0.3410 -0.0039 -0.1023
 7212SOL    HW133269   1.756   1.109   6.078 -0.7193  1.2004  1.5417
 7212SOL    HW233270   1.775   1.256   6.076  0.7469  0.0475  1.1906
 7213SOL     OW33271   0.244   3.187  10.284 -0.0649  0.0691 -0.0076
 7213SOL    HW133272   0.237   3.243  10.361  0.3263  1.9663 -1.3566
 7213SOL    HW233273   0.158   3.207  10.248 -0.7813  0.2633  1.8276
 7214SOL     OW33274   0.249   4.594  15.109 -0.0147  0.0540 -0.3943
 7214SOL    HW133275   0.335   4.551  15.110  0.1019  0.2900 -0.2334
 7214SOL    HW233276   0.215   4.544  15.035  2.1528 -1.6048 -0.2850
 7215SOL     OW33277   3.363   4.399  10.661  0.6978  0.3831 -0.2980
 7215SOL    HW133278   3.371   4.341  10.586  0.5388 -0.1725  0.1100
 7215SOL    HW233279   3.455   4.415  10.682 -0.2165 -0.1777  4.1650
 7216SOL     OW33280   2.691   4.476  13.431 -0.8486  0.4354 -0.2040
 7216SOL    HW133281   2.736   4.398  13.398 -2.1986 -1.1197  1.5733
 7216SOL    HW233282   2.712   4.460  13.523  1.9842 -0.8919 -1.0742
 7217SOL     OW33283   3.342   1.144  12.024 -0.0333  0.1543  0.0197
 7217SOL    HW133284   3.428   1.178  11.998  0.2556 -0.2670  0.4240
 7217SOL    HW233285   3.363   1.051  12.023 -0.1960  0.1150  0.1751
 7218SOL     OW33286   1.202   1.197   0.571  0.0368 -0.1734 -0.3818
 7218SOL    HW133287   1.209   1.118   0.517 -0.5367 -2.1378  2.3536
 7218SOL    HW233288   1.241   1.264   0.516 -0.2476 -1.0869 -1.6867
 7219SOL     OW33289   0.869   0.193   7.499 -0.4061  0.2680  0.6535
 7219SOL    HW133290   0.922   0.172   7.576  0.0500 -1.2325 -0.0744
 7219SOL    HW233291   0.820   0.260   7.546 -0.8840  0.2450  0.1821
 7220SOL     OW33292   3.083   2.716   3.211  0.1302  0.0198  0.2919
 7220SOL    HW133293   3.140   2.698   3.285 -1.4813 -0.9642  1.3016
 7220SOL    HW233294   3.013   2.770   3.248 -0.3450 -0.2793 -0.1600
 7221SOL     OW33295   0.517   4.299   6.446  0.3979  0.3692  0.5013
 7221SOL    HW133296   0.555   4.279   6.361 -0.5799 -1.6880  0.5527
 7221SOL    HW233297   0.426   4.311   6.419  0.2639  0.6388  1.0546
 7222SOL     OW33298   3.400   2.515   5.844 -0.1773 -0.4105  0.4559
 7222SOL    HW133299   3.487   2.506   5.806  0.9228 -4.1154  3.7786
 7222SOL    HW233300   3.391   2.434   5.896 -0.3888 -1.6562 -1.5394
 7223SOL     OW33301   1.604   4.054   3.690 -0.1991 -0.0399 -0.0698
 7223SOL    HW133302   1.590   4.014   3.605  1.9102 -0.9620  0.0285
 7223SOL    HW233303   1.584   4.144   3.664 -0.3353 -0.1698 -0.4060
 7224SOL     OW33304   3.748   3.168   5.108  0.1642 -0.0760  0.3153
 7224SOL    HW133305   3.836   3.205   5.099  0.2189 -0.2187  0.2702
 7224SOL    HW233306   3.702   3.228   5.167 -1.7759  0.8971 -2.1713
 7225SOL     OW33307   3.826   0.986   2.011 -0.8405  0.1016 -0.4487
 7225SOL    HW133308   3.881   0.915   2.045  1.1110  1.1547 -1.4048
 7225SOL    HW233309   3.759   0.988   2.080  1.2594  1.3471  1.5695
 7226SOL     OW33310   0.174   1.134   4.378 -0.7033 -0.3332  0.1807
 7226SOL    HW133311   0.227   1.073   4.428 -1.1738  1.3166  2.7487
 7226SOL    HW233312   0.101   1.159   4.436 -2.3155  0.8596 -2.3405
 7227SOL     OW33313   0.305   2.812   3.015  0.3812  0.2812  0.4477
 7227SOL    HW133314   0.328   2.807   3.108 -2.8419  0.2274  1.2612
 7227SOL    HW233315   0.225   2.759   3.020  0.8233 -0.1811  2.6185
 7228SOL     OW33316   0.255   2.394   3.833 -0.2438  0.1286 -0.0458
 7228SOL    HW133317   0.208   2.472   3.803  1.3930  0.4745 -1.6987
 7228SOL    HW233318   0.297   2.366   3.751  0.0292  0.3500  0.0192
 7229SOL     OW33319   2.379   1.993  15.027 -0.2621 -0.4086  1.1752
 7229SOL    HW133320   2.301   2.013  14.975 -0.2591 -2.3375  0.4312
 7229SOL    HW233321   2.367   1.900  15.044  0.5280 -0.4194  1.6879
 7230SOL     OW33322   0.845   1.416   2.810 -0.4601  0.4035 -0.3812
 7230SOL    HW133323   0.909   1.437   2.742  1.3639 -1.3657  0.7877
 7230SOL    HW233324   0.854   1.321   2.815  0.1039  0.4984  0.4465
 7231SOL     OW33325   3.377   2.447  12.733  0.1263  0.0242  0.1569
 7231SOL    HW133326   3.410   2.359  12.754 -0.4393  0.3592  2.4769
 7231SOL    HW233327   3.345   2.445  12.643  0.5898  1.4584 -0.0379
 7232SOL     OW33328   1.685   4.686   1.945 -0.2801 -0.5321 -0.1318
 7232SOL    HW133329   1.666   0.004   2.022  1.7750 -0.3707  0.2676
 7232SOL    HW233330   1.734   4.611   1.980 -0.3313  0.3809  1.9328
 7233SOL     OW33331   2.637   4.712   4.694 -0.0492 -0.4127  0.0548
 7233SOL    HW133332   2.584   4.695   4.771  0.0321  0.5309  0.3232
 7233SOL    HW233333   2.703   0.034   4.731 -1.1730 -0.2786  1.8440
 7234SOL     OW33334   1.236   3.650  11.053 -0.0484  0.6512  0.0637
 7234SOL    HW133335   1.224   3.659  10.958 -1.7694  2.3123  0.4327
 7234SOL    HW233336   1.325   3.682  11.070 -0.6602  2.4604 -0.1792
 7235SOL     OW33337   0.827   3.563   8.748 -0.1033 -0.1887  0.0241
 7235SOL    HW133338   0.885   3.558   8.672 -0.3666 -2.6787 -0.0099
 7235SOL    HW233339   0.745   3.543   8.703  0.3132 -0.8937 -0.4258
 7236SOL     OW33340   0.355   3.627   4.532  0.3371  0.3244 -0.6509
 7236SOL    HW133341   0.447   3.651   4.543 -0.4741  2.8807  0.5238
 7236SOL    HW233342   0.304   3.708   4.539  0.0987 -0.0033  1.6534
 7237SOL     OW33343   1.926   4.178   1.926 -0.3749 -0.0576 -0.0297
 7237SOL    HW133344   1.878   4.108   1.881 -0.4516  0.9506 -1.5437
 7237SOL    HW233345   1.942   4.145   2.014 -1.2203 -0.6441 -0.1050
 7238SOL     OW33346   2.010   2.720  16.886  0.2902  0.1484  0.1321
 7238SOL    HW133347   1.937   2.658  16.897 -0.4513  0.9113 -0.4787
 7238SOL    HW233348   1.991   2.796  16.940 -1.4010  0.5502 -1.0193
 7239SOL     OW33349   1.888   1.339   2.070  0.6093 -0.0069 -0.2932
 7239SOL    HW133350   1.820   1.405   2.083  2.0438  1.5217 -0.6077
 7239SOL    HW233351   1.850   1.260   2.110  2.6873  0.1930  2.1613
 7240SOL     OW33352   1.164   3.166   7.814  0.1334  0.8104  0.4009
 7240SOL    HW133353   1.177   3.261   7.824  2.1820  0.5859 -0.1426
 7240SOL    HW233354   1.217   3.146   7.737  0.8032  0.1628  1.0331
 7241SOL     OW33355   1.812   0.595   9.077 -0.5743 -0.2451 -0.1225
 7241SOL    HW133356   1.767   0.576   9.160 -0.9261  2.2831  0.2622
 7241SOL    HW233357   1.903   0.576   9.102 -0.6326 -0.6190 -0.1944
 7242SOL     OW33358   3.237   1.177   2.848 -0.1806 -0.2508  0.0278
 7242SOL    HW133359   3.308   1.121   2.818  1.1133  2.3773 -1.7301
 7242SOL    HW233360   3.173   1.167   2.777 -0.7566  1.3017  0.3304
 7243SOL     OW33361   0.499   4.384   9.134 -0.4594 -0.0512 -0.7163
 7243SOL    HW133362   0.505   4.384   9.229 -0.7461  0.2232 -0.6957
 7243SOL    HW233363   0.417   4.338   9.115  0.0699 -1.1104 -0.3992
 7244SOL     OW33364   1.054   0.536   7.716  0.1455  0.4440  0.1646
 7244SOL    HW133365   1.054   0.509   7.624 -2.4740  2.1690 -0.3490
 7244SOL    HW233366   1.112   0.473   7.760 -0.2551 -0.7744 -1.0340
 7245SOL     OW33367   2.613   2.498   7.975  0.0073  0.1995 -0.3078
 7245SOL    HW133368   2.552   2.475   7.906 -0.4089  0.2311  0.0485
 7245SOL    HW233369   2.675   2.425   7.972  1.2003  1.2396 -0.9134
 7246SOL     OW33370   2.040   0.762   4.395  0.4047 -0.1648  0.2174
 7246SOL    HW133371   2.058   0.686   4.340 -0.1206  0.2430 -0.5170
 7246SOL    HW233372   1.946   0.780   4.385  1.0231  1.6834 -2.0744
 7247SOL     OW33373   3.247   3.949   3.262  0.5002 -0.3890  0.3154
 7247SOL    HW133374   3.312   3.939   3.332 -0.6903 -2.7274  1.0975
 7247SOL    HW233375   3.239   4.044   3.266  2.5514 -0.1395 -1.8798
 7248SOL     OW33376   2.509   2.736   1.742  0.1409 -0.7430  0.1312
 7248SOL    HW133377   2.601   2.761   1.730 -0.5498  2.6037  1.7731
 7248SOL    HW233378   2.464   2.770   1.665  3.8626  2.3483 -0.7479
 7249SOL     OW33379   4.594   4.305   1.609  0.0167 -0.6122  0.8066
 7249SOL    HW133380   4.689   4.316   1.618 -0.3145  1.8783  1.2928
 7249SOL    HW233381   4.562   4.388   1.646  0.3625  0.2574 -0.8594
 7250SOL     OW33382   1.644   1.964  16.053 -0.4939 -0.2576 -0.0168
 7250SOL    HW133383   1.720   2.022  16.043 -0.3391 -0.5004 -0.2403
 7250SOL    HW233384   1.684   1.898  16.109 -1.0273  0.0718  0.7557
 7251SOL     OW33385   2.452   1.155   5.194 -0.3053 -0.4793  0.2591
 7251SOL    HW133386   2.506   1.139   5.271 -0.3390 -1.6228  0.0423
 7251SOL    HW233387   2.518   1.144   5.126 -0.5865 -2.5828  0.3444
 7252SOL     OW33388   4.327   0.036   3.264 -0.4400 -0.5105  0.1616
 7252SOL    HW133389   4.352   0.014   3.174  0.0355 -1.3996  0.5140
 7252SOL    HW233390   4.238   0.068   3.250  1.4131  2.8567 -4.0401
 7253SOL     OW33391   2.235   1.010   3.883  0.1892  0.7167 -0.1500
 7253SOL    HW133392   2.275   1.065   3.816 -1.5646  0.5352 -1.3413
 7253SOL    HW233393   2.238   0.921   3.847  1.3497  0.5546  0.3630
 7254SOL     OW33394   4.639   3.679   6.931 -0.2766 -0.0708 -0.4287
 7254SOL    HW133395   4.572   3.658   6.996 -0.4867  0.2981 -0.5260
 7254SOL    HW233396   4.666   3.591   6.905  0.3035  0.3255 -1.1575
 7255SOL     OW33397   3.436   3.139   9.710 -0.4987 -0.0664  0.2418
 7255SOL    HW133398   3.487   3.182   9.778 -2.2981  1.6772  0.4702
 7255SOL    HW233399   3.497   3.172   9.644  3.7188 -3.0239  2.6331
 7256SOL     OW33400   0.263   3.177  10.002 -0.1631 -0.5055 -0.1683
 7256SOL    HW133401   0.275   3.099  10.057  1.6220  0.5196  0.9008
 7256SOL    HW233402   0.273   3.249  10.065  0.9310  0.3804 -1.3521
 7257SOL     OW33403   1.179   4.306  13.468 -0.5220  0.5690  0.0415
 7257SOL    HW133404   1.227   4.225  13.485  1.1277  1.5692  0.2005
 7257SOL    HW233405   1.182   4.344  13.556 -1.2780 -0.7104  0.6162
 7258SOL     OW33406   0.847   4.578   4.545  0.1766  0.0943  0.1012
 7258SOL    HW133407   0.757   4.580   4.510 -0.4637 -4.1312  1.5452
 7258SOL    HW233408   0.889   4.526   4.476 -0.8027 -0.5718 -0.0035
 7259SOL     OW33409   0.611   1.500  17.715  0.1893  0.0130  0.2364
 7259SOL    HW133410   0.642   1.457  17.636  0.8880 -0.1648  0.6172
 7259SOL    HW233411   0.631   1.432   0.035  3.0466 -0.3730 -1.0947
 7260SOL     OW33412   0.391   1.011   7.733  0.3202  0.2674 -0.2100
 7260SOL    HW133413   0.370   1.104   7.742 -0.4817 -0.0148  0.7821
 7260SOL    HW233414   0.368   0.975   7.818  0.8816 -2.2067 -1.0900
 7261SOL     OW33415   2.680   4.103   3.742 -0.6377 -0.4461 -0.1961
 7261SOL    HW133416   2.700   4.013   3.769  0.6903  0.4446  1.8243
 7261SOL    HW233417   2.683   4.107   3.647  1.4219 -0.4017 -0.1244
 7262SOL     OW33418   3.869   2.864   7.238  0.1771 -0.4576  0.0169
 7262SOL    HW133419   3.822   2.905   7.311  1.6532 -1.0658  1.3103
 7262SOL    HW233420   3.915   2.791   7.279 -0.2288 -2.2044 -2.6402
 7263SOL     OW33421   1.491   1.906   6.465 -0.1809  0.2317  0.1991
 7263SOL    HW133422   1.551   1.958   6.518 -0.9253  1.5112 -0.2085
 7263SOL    HW233423   1.489   1.962   6.387 -2.5237 -0.3104 -0.1340
 7264SOL     OW33424   3.205   2.146   4.866 -0.3219  0.4664  0.0175
 7264SOL    HW133425   3.193   2.192   4.950 -0.1153  0.3717  0.0978
 7264SOL    HW233426   3.143   2.074   4.875 -0.4692  0.3884 -1.6399
 7265SOL     OW33427   0.151   3.169   7.203  0.1299 -0.0176  0.0291
 7265SOL    HW133428   0.206   3.211   7.137  1.0439  1.5531  1.7787
 7265SOL    HW233429   0.109   3.251   7.230 -0.8792 -1.3315  2.4384
 7266SOL     OW33430   3.393   0.986   8.892 -0.1541 -1.0033  0.2819
 7266SOL    HW133431   3.317   0.932   8.915 -0.1958 -0.6690  0.9137
 7266SOL    HW233432   3.385   0.996   8.797  0.8414 -0.0457  0.2968
 7267SOL     OW33433   3.102   4.253  11.386  0.0521 -0.3471 -0.0224
 7267SOL    HW133434   3.196   4.270  11.399 -0.1123  0.5727  0.0153
 7267SOL    HW233435   3.096   4.172  11.436 -2.4674  0.0551  0.3061
 7268SOL     OW33436   1.294   2.155   7.321  0.6661  0.0335  0.4770
 7268SOL    HW133437   1.272   2.120   7.407  1.0844 -0.4834  0.3784
 7268SOL    HW233438   1.381   2.195   7.325  0.4115  0.4690  1.6266
 7269SOL     OW33439   0.276   1.679   6.912  0.3443 -0.1802 -0.1630
 7269SOL    HW133440   0.274   1.708   6.821 -0.3609 -0.0180 -0.0974
 7269SOL    HW233441   0.367   1.692   6.941  0.0246  0.3856  0.5815
 7270SOL     OW33442   0.877   0.065   2.266 -0.7949  0.0371  0.4589
 7270SOL    HW133443   0.887   4.717   2.311  0.1857 -1.3208 -2.3213
 7270SOL    HW233444   0.933   0.051   2.190 -0.0017 -3.2575  1.6524
 7271SOL     OW33445   1.237   0.830  12.649  0.0376  0.1334  0.3110
 7271SOL    HW133446   1.172   0.869  12.591 -1.4613 -2.9715 -0.0512
 7271SOL    HW233447   1.306   0.816  12.585 -0.7231  2.2247 -0.9557
 7272SOL     OW33448   2.117   1.902   7.832 -0.2558 -0.3692  0.1428
 7272SOL    HW133449   2.061   1.865   7.764 -1.3232  1.5528 -0.0548
 7272SOL    HW233450   2.206   1.882   7.804 -0.8095 -2.6690  0.0675
 7273SOL     OW33451   2.186   1.348   1.604  0.3422 -0.4298  0.3108
 7273SOL    HW133452   2.156   1.341   1.695  1.8428 -0.9360  0.7647
 7273SOL    HW233453   2.221   1.437   1.610 -0.8884  0.1135 -0.5684
 7274SOL     OW33454   1.148   3.091   7.327 -0.5483  0.4326  0.2782
 7274SOL    HW133455   1.195   3.054   7.401 -1.4627 -0.7487  0.2584
 7274SOL    HW233456   1.054   3.075   7.340 -0.3794 -0.8888 -0.2329
 7275SOL     OW33457   3.517   3.751   3.117 -0.0403 -0.4726  1.0135
 7275SOL    HW133458   3.430   3.778   3.146 -0.4586 -1.0324  0.2815
 7275SOL    HW233459   3.509   3.655   3.112  1.4302 -0.5013 -0.9992
 7276SOL     OW33460   0.897   1.599  14.133 -0.2325  0.3888  0.0064
 7276SOL    HW133461   0.913   1.614  14.226  0.6145 -2.1314  0.2625
 7276SOL    HW233462   0.872   1.506  14.134  1.5503 -0.0865  0.3774
 7277SOL     OW33463   0.706   1.011   5.744  0.2355  0.5201  0.2699
 7277SOL    HW133464   0.693   0.916   5.738  2.1887  0.2117  1.1390
 7277SOL    HW233465   0.617   1.030   5.772  0.4624  1.0690  0.6048
 7278SOL     OW33466   0.976   1.946   2.934  0.6906 -0.2079 -0.4212
 7278SOL    HW133467   0.912   1.897   2.883 -0.2760  0.1345  0.4640
 7278SOL    HW233468   0.939   2.032   2.915  0.2422 -0.8895 -2.6231
 7279SOL     OW33469   3.588   3.295   3.999 -0.1321  0.2725 -0.2670
 7279SOL    HW133470   3.605   3.247   4.080 -0.9437  0.9811  0.3222
 7279SOL    HW233471   3.569   3.383   4.031  0.5578 -0.8277  3.0940
 7280SOL     OW33472   4.153   3.216   9.823 -0.3255  0.0668  0.4043
 7280SOL    HW133473   4.094   3.154   9.866 -1.4388  0.1893 -0.9498
 7280SOL    HW233474   4.093   3.291   9.820 -0.8912 -0.3185  2.0920
 7281SOL     OW33475   4.537   4.385   1.890 -0.2293  0.0330  0.4314
 7281SOL    HW133476   4.523   4.479   1.906 -1.0385 -0.0888  0.4377
 7281SOL    HW233477   4.633   4.381   1.893 -0.3267 -1.7568  1.1294
 7282SOL     OW33478   3.325   1.119  15.268  0.2834  0.3670  0.8914
 7282SOL    HW133479   3.342   1.211  15.287 -1.4616  0.4117  2.1609
 7282SOL    HW233480   3.407   1.077  15.295  0.2158  0.6982  1.6081
 7283SOL     OW33481   1.742   0.207   5.075  0.0537 -0.2761  0.2188
 7283SOL    HW133482   1.806   0.137   5.081 -0.5353 -0.9690 -1.5732
 7283SOL    HW233483   1.678   0.187   5.143 -0.2534  1.4060  0.4303
 7284SOL     OW33484   1.779   2.035  13.339  0.1567 -0.1676 -0.7571
 7284SOL    HW133485   1.868   2.032  13.303  0.8669  0.5865  0.9643
 7284SOL    HW233486   1.744   1.947  13.320  0.1445 -0.8314  2.3476
 7285SOL     OW33487   1.271   0.817  10.903  0.2399  0.4370 -0.0024
 7285SOL    HW133488   1.227   0.900  10.920  0.8119  0.5886  0.7321
 7285SOL    HW233489   1.331   0.815  10.978 -2.3622 -0.4496  2.0242
 7286SOL     OW33490   2.265   2.384   1.026  0.2167 -0.6048  0.4807
 7286SOL    HW133491   2.183   2.429   1.045  0.8220  1.0804 -0.9687
 7286SOL    HW233492   2.250   2.295   1.060  0.2512 -0.3346  1.2145
 7287SOL     OW33493   4.401   0.323   2.036 -0.1220  0.3381  0.6234
 7287SOL    HW133494   4.398   0.377   1.957  0.0612 -0.9253 -0.2477
 7287SOL    HW233495   4.459   0.372   2.094  0.2914  0.7240 -0.1247
 7288SOL     OW33496   4.170   2.294   7.117 -0.0065  0.6028 -0.0313
 7288SOL    HW133497   4.078   2.268   7.122 -0.2224  1.6552  1.6275
 7288SOL    HW233498   4.204   2.248   7.193 -2.4328 -1.2972 -0.0848
 7289SOL     OW33499   0.767   1.843  14.106  0.3413 -0.2615  0.4579
 7289SOL    HW133500   0.768   1.816  14.014  2.6803 -0.7295  0.6219
 7289SOL    HW233501   0.827   1.779  14.145  1.1430 -0.0617 -0.4397
 7290SOL     OW33502   1.776   1.873   8.050  0.1645  0.1695 -0.7426
 7290SOL    HW133503   1.700   1.928   8.069  1.1302  0.6763  1.7968
 7290SOL    HW233504   1.733   1.792   8.021  0.9851 -0.1598 -1.0276
 7291SOL     OW33505   3.036   0.722  11.935 -0.5435 -0.1429  0.2088
 7291SOL    HW133506   3.079   0.729  12.020  1.8636 -0.5541 -0.9712
 7291SOL    HW233507   2.957   0.773  11.953  0.0024  0.1467  1.8222
 7292SOL     OW33508   1.993   4.626   6.337  0.0122 -0.2476  0.3081
 7292SOL    HW133509   2.011   4.555   6.275 -0.3108  0.3524 -0.4805
 7292SOL    HW233510   2.058   4.617   6.406  0.6698  0.3595 -0.2448
 7293SOL     OW33511   1.014   2.645   5.072  0.1574  0.5014 -0.5209
 7293SOL    HW133512   0.992   2.666   4.981  2.3709 -1.0307 -1.4118
 7293SOL    HW233513   1.099   2.604   5.060 -0.4086 -0.9199  0.3589
 7294SOL     OW33514   1.524   0.415  14.105  0.1677  0.2248 -0.3430
 7294SOL    HW133515   1.563   0.466  14.176 -0.0267  0.4146 -0.3740
 7294SOL    HW233516   1.484   0.480  14.047  1.0198  0.6667 -0.4319
 7295SOL     OW33517   3.129   1.002  15.059  0.3121 -0.7087  0.0221
 7295SOL    HW133518   3.208   1.047  15.088  0.5110  0.9006 -2.9516
 7295SOL    HW233519   3.161   0.964  14.977  3.1171  0.7622  0.4263
 7296SOL     OW33520   4.652   2.482  13.716 -0.1350 -0.1662  0.6439
 7296SOL    HW133521   4.729   2.532  13.689  0.4449 -1.2618  0.2690
 7296SOL    HW233522   4.670   2.469  13.809 -0.1804  0.7685  0.7823
 7297SOL     OW33523   0.844   4.601   9.139  0.1985 -0.2336 -0.2572
 7297SOL    HW133524   0.857   4.571   9.229  1.6387  2.0622  0.2961
 7297SOL    HW233525   0.748   4.611   9.138  0.3765  1.6108  1.2491
 7298SOL     OW33526   3.286   1.489  12.431 -0.1620  0.4838 -0.3117
 7298SOL    HW133527   3.265   1.412  12.379 -0.1146 -1.4382  2.5029
 7298SOL    HW233528   3.358   1.458  12.485  1.7191  0.8000 -2.6589
 7299SOL     OW33529   0.411   1.381   5.478 -0.0611 -0.7959  0.4204
 7299SOL    HW133530   0.342   1.446   5.491  1.0771  0.4993  0.0270
 7299SOL    HW233531   0.466   1.419   5.410 -0.2066 -0.6636  0.3783
 7300SOL     OW33532   1.734   1.449  13.920 -0.1625 -0.3698 -0.1324
 7300SOL    HW133533   1.705   1.396  13.845 -2.0105 -1.2078  1.1790
 7300SOL    HW233534   1.755   1.377  13.980  1.7345  0.8221  0.6328
 7301SOL     OW33535   1.792   3.702   8.568  0.0650  0.0883 -0.1983
 7301SOL    HW133536   1.808   3.794   8.587  0.5227  0.2465 -1.3835
 7301SOL    HW233537   1.884   3.673   8.564  0.5927  1.9036 -0.8648
 7302SOL     OW33538   0.328   1.198   3.339  0.4668 -0.3520 -0.5786
 7302SOL    HW133539   0.309   1.127   3.400  1.4327 -0.0314  0.1112
 7302SOL    HW233540   0.395   1.253   3.381 -0.3913 -0.1879  0.5576
 7303SOL     OW33541   4.420   3.189   4.683  0.1017 -0.0890  0.1696
 7303SOL    HW133542   4.383   3.186   4.771  1.0657 -0.3699  0.5663
 7303SOL    HW233543   4.346   3.150   4.636  0.6923 -1.7389  0.6240
 7304SOL     OW33544   1.127   1.141   2.362 -0.0087 -0.4736 -0.2287
 7304SOL    HW133545   1.067   1.070   2.336 -1.2848  0.3637  0.4377
 7304SOL    HW233546   1.177   1.088   2.424 -1.2855 -0.4411  0.8255
 7305SOL     OW33547   2.996   1.049  16.601  0.1301  0.5258  0.1063
 7305SOL    HW133548   3.045   1.042  16.520 -0.7722  0.3431 -0.4328
 7305SOL    HW233549   2.904   1.059  16.576 -0.5680 -0.5557  2.1802
 7306SOL     OW33550   4.354   2.880   7.517 -0.4075  0.3604  0.5250
 7306SOL    HW133551   4.333   2.876   7.424 -4.0448 -0.5315  1.4024
 7306SOL    HW233552   4.395   2.967   7.520 -0.3194  0.3773 -0.8285
 7307SOL     OW33553   3.259   0.795  12.488 -0.2190 -0.0424 -0.3191
 7307SOL    HW133554   3.291   0.705  12.498  1.8124  0.6076 -0.9822
 7307SOL    HW233555   3.236   0.813  12.579  0.5216 -2.5019  0.3533
 7308SOL     OW33556   2.087   0.622   8.705  0.2900 -0.0127  0.1974
 7308SOL    HW133557   2.094   0.623   8.610 -0.6002  2.3693  0.1726
 7308SOL    HW233558   2.064   0.712   8.727 -0.0323 -0.1548  0.4374
 7309SOL     OW33559   0.573   2.478  11.089  0.4999 -0.3015 -0.0817
 7309SOL    HW133560   0.642   2.447  11.148  1.4603  0.4803 -0.8001
 7309SOL    HW233561   0.514   2.402  11.089  0.7573 -0.5030  0.1000
 7310SOL     OW33562   0.084   1.653   6.558  0.2817  0.2906 -0.0180
 7310SOL    HW133563   0.167   1.673   6.602  0.6999  2.2304 -1.7066
 7310SOL    HW233564   0.101   1.692   6.473  1.2982  2.6722  1.2970
 7311SOL     OW33565   0.108   0.502   2.672 -0.5970 -0.3375  0.6264
 7311SOL    HW133566   0.181   0.513   2.611 -1.4886  1.4966 -0.1311
 7311SOL    HW233567   0.069   0.425   2.631 -0.2085  0.4398 -1.2091
 7312SOL     OW33568   2.130   0.534   7.740 -0.7380  0.1024  0.2598
 7312SOL    HW133569   2.163   0.574   7.820 -1.0636  1.5686 -0.3418
 7312SOL    HW233570   2.175   0.450   7.735 -1.2404 -0.2308  1.3379
 7313SOL     OW33571   2.016   0.447   3.261 -0.2673  0.3964  0.3534
 7313SOL    HW133572   2.002   0.352   3.261 -1.2331  0.5413 -0.5278
 7313SOL    HW233573   1.942   0.475   3.208  0.2843  1.0124 -0.0928
 7314SOL     OW33574   0.449   2.406   4.116 -0.3747  0.2569 -0.2308
 7314SOL    HW133575   0.476   2.334   4.059 -1.5205 -0.1390 -0.2799
 7314SOL    HW233576   0.526   2.462   4.121  0.5676 -1.0124 -0.7294
 7315SOL     OW33577   0.014   2.557   2.797 -0.4968 -0.9640 -0.3152
 7315SOL    HW133578   4.670   2.513   2.770 -0.7354  0.2867 -1.6180
 7315SOL    HW233579   4.721   2.642   2.830  0.1794 -0.3300 -1.3707
 7316SOL     OW33580   1.880   0.034  10.161  0.1743  1.1153 -0.0345
 7316SOL    HW133581   1.949   0.053  10.097  3.3417  0.1075  3.0766
 7316SOL    HW233582   1.849   0.122  10.184  0.9932  1.0273  1.3889
 7317SOL     OW33583   2.857   0.496  10.113  0.0447 -0.3740  0.1916
 7317SOL    HW133584   2.810   0.554  10.173  0.7641  0.9873 -0.5588
 7317SOL    HW233585   2.823   0.410  10.138 -0.4899 -0.1160  0.3595
 7318SOL     OW33586   3.351   2.874   0.337 -0.1138 -0.2321  0.1618
 7318SOL    HW133587   3.354   2.791   0.386 -2.3902  0.5863  1.6526
 7318SOL    HW233588   3.351   2.838   0.249 -0.5688  0.3724 -0.0809
 7319SOL     OW33589   4.017   3.512   7.036 -0.1516  0.4648  0.0120
 7319SOL    HW133590   4.068   3.593   7.037 -0.3103  0.5925 -1.3350
 7319SOL    HW233591   3.981   3.520   6.947  2.0175 -0.2785 -0.9353
 7320SOL     OW33592   4.525   1.673   6.978  0.2956  0.3645 -0.3795
 7320SOL    HW133593   4.482   1.732   7.040  1.5396  0.5014  0.3579
 7320SOL    HW233594   4.603   1.640   7.022 -0.6414  1.4606  2.0824
 7321SOL     OW33595   0.369   0.049   3.005  0.2750 -0.6215  0.5557
 7321SOL    HW133596   0.436   0.015   3.064 -0.3852 -0.1651  1.5596
 7321SOL    HW233597   0.323   0.122   3.048  1.1970 -0.4057  1.1637
 7322SOL     OW33598   2.401   4.599   7.125  0.4440 -0.2381  0.1486
 7322SOL    HW133599   2.357   4.642   7.198 -3.1619  0.2073 -2.2642
 7322SOL    HW233600   2.333   4.534   7.110 -1.7106  1.7076  1.5331
 7323SOL     OW33601   2.387   3.789  14.314 -0.7618  0.4329 -0.2118
 7323SOL    HW133602   2.476   3.761  14.332 -0.3588  1.0859 -1.1585
 7323SOL    HW233603   2.378   3.873  14.357  1.8082  1.3947 -1.5448
 7324SOL     OW33604   2.748   2.915   8.353  0.3035  0.0518  0.5332
 7324SOL    HW133605   2.842   2.906   8.373  0.0272 -1.8197  1.0236
 7324SOL    HW233606   2.706   2.957   8.428 -1.1321 -1.3564  0.5325
 7325SOL     OW33607   3.825   1.161  17.175 -0.0866  0.3459 -0.0851
 7325SOL    HW133608   3.901   1.201  17.131  0.9826 -1.9786 -0.3375
 7325SOL    HW233609   3.866   1.122  17.252 -1.2266 -1.5514 -0.4397
 7326SOL     OW33610   2.418   0.120   9.105 -0.2800  0.1063 -0.4059
 7326SOL    HW133611   2.336   0.155   9.069 -0.2696  1.3240  0.7415
 7326SOL    HW233612   2.483   0.169   9.055  0.4781 -1.0783 -0.5985
 7327SOL     OW33613   1.236   3.941   7.653 -0.0910  0.4233 -0.2840
 7327SOL    HW133614   1.141   3.952   7.658 -0.0598  1.0539 -1.2035
 7327SOL    HW233615   1.273   4.023   7.620  0.5564 -0.5562 -1.9324
 7328SOL     OW33616   0.992   1.088   9.926  0.0911 -0.2916  0.0695
 7328SOL    HW133617   1.009   0.996   9.946 -0.0208  0.5618  4.0665
 7328SOL    HW233618   1.073   1.117   9.885 -1.1094  2.0237 -0.6555
 7329SOL     OW33619   2.792   4.246  15.969 -0.3607  0.0019 -0.2020
 7329SOL    HW133620   2.882   4.216  15.968 -0.2451  0.3004  1.8003
 7329SOL    HW233621   2.746   4.163  15.981 -2.7099  1.1816 -0.9565
 7330SOL     OW33622   3.854   4.662   9.433  0.1267 -0.8705  0.0388
 7330SOL    HW133623   3.844   4.659   9.528  1.6727 -0.7162  0.2091
 7330SOL    HW233624   3.761   4.653   9.412 -0.4825 -0.2902  2.4443
 7331SOL     OW33625   3.322   1.097   5.730 -0.5061  0.2749  0.5511
 7331SOL    HW133626   3.402   1.078   5.777  1.0739  0.5297 -2.0426
 7331SOL    HW233627   3.263   1.028   5.761 -1.2904  0.1691 -1.1072
 7332SOL     OW33628   4.194   0.329  16.888 -0.2553 -0.0082  0.4589
 7332SOL    HW133629   4.143   0.409  16.902 -1.4764 -0.7811  0.4764
 7332SOL    HW233630   4.168   0.302  16.800  0.5642 -2.3642  0.9529
 7333SOL     OW33631   1.616   1.663  14.031  0.1210  0.1629  0.6364
 7333SOL    HW133632   1.644   1.584  13.984  0.4737  0.6168  0.0840
 7333SOL    HW233633   1.565   1.700  13.959 -0.2866 -0.1347  0.7735
 7334SOL     OW33634   4.418   0.653  16.437  0.0142  0.4228 -0.1736
 7334SOL    HW133635   4.394   0.742  16.462 -0.6763  0.8512 -2.3501
 7334SOL    HW233636   4.422   0.612  16.523  0.7838 -0.3607 -0.5861
 7335SOL     OW33637   1.720   3.493   8.741 -0.6674 -0.1952 -0.3935
 7335SOL    HW133638   1.733   3.580   8.702  1.3200 -0.4919 -0.4009
 7335SOL    HW233639   1.812   3.468   8.750 -0.9534 -1.1456 -0.0727
 7336SOL     OW33640   0.825   4.056  13.153 -0.1557 -0.1179 -0.2219
 7336SOL    HW133641   0.878   3.996  13.100 -1.6112 -0.1006 -1.7137
 7336SOL    HW233642   0.780   3.995  13.211  0.0041  0.6728  0.7309
 7337SOL     OW33643   3.681   1.448   7.378 -0.5176  0.1204 -0.0703
 7337SOL    HW133644   3.611   1.419   7.436 -1.8334 -0.6660 -2.0322
 7337SOL    HW233645   3.627   1.488   7.310 -0.8986 -2.0709 -1.0695
 7338SOL     OW33646   0.445   3.689   5.513 -0.0445  0.4870 -1.0259
 7338SOL    HW133647   0.515   3.745   5.477  2.3308 -2.5516 -1.1067
 7338SOL    HW233648   0.478   3.684   5.603 -0.0288  0.1249 -1.0539
 7339SOL     OW33649   0.839   2.992   4.436  0.7369  0.1216 -0.4176
 7339SOL    HW133650   0.918   3.044   4.425  0.9471 -0.8583 -3.5504
 7339SOL    HW233651   0.869   2.911   4.477  0.9700  0.6807  0.5064
 7340SOL     OW33652   4.312   2.239   3.142 -0.0868 -0.1616 -0.3404
 7340SOL    HW133653   4.398   2.264   3.109  0.2118 -0.5538  0.1602
 7340SOL    HW233654   4.287   2.310   3.201  0.9886  1.2989 -1.6430
 7341SOL     OW33655   2.569   3.230   8.500  0.2463  0.2916  0.2358
 7341SOL    HW133656   2.617   3.170   8.557  0.6844 -1.0187 -1.5041
 7341SOL    HW233657   2.558   3.303   8.560 -0.9503  0.2756  0.0437
 7342SOL     OW33658   2.347   3.300   9.554  0.0049 -0.1866 -0.9349
 7342SOL    HW133659   2.284   3.346   9.499  0.1417  1.8901  0.6598
 7342SOL    HW233660   2.311   3.211   9.545  0.7541 -0.4764 -1.1078
 7343SOL     OW33661   0.613   0.995   8.582 -0.0347 -0.1144 -0.2888
 7343SOL    HW133662   0.638   1.036   8.498 -1.1225 -0.5846 -0.8470
 7343SOL    HW233663   0.635   1.058   8.650 -1.1157 -2.4159  2.1682
 7344SOL     OW33664   1.986   4.654   8.514  0.3371  0.4983  0.0770
 7344SOL    HW133665   1.972   4.560   8.504  1.0069  0.5268 -1.1016
 7344SOL    HW233666   2.067   4.661   8.564  0.4391  2.3271 -0.3184
 7345SOL     OW33667   2.633   0.107   1.099  0.3976 -0.4336  0.3995
 7345SOL    HW133668   2.643   0.183   1.157 -0.0317 -1.3096  1.6292
 7345SOL    HW233669   2.637   0.151   1.014 -2.8989 -2.4145 -0.7533
 7346SOL     OW33670   2.419   2.625  13.323 -0.4744  0.0744  0.0887
 7346SOL    HW133671   2.409   2.616  13.228 -0.7946 -1.5981  0.2659
 7346SOL    HW233672   2.335   2.662  13.351 -0.0142  0.6683  0.6635
 7347SOL     OW33673   1.629   0.963   7.642  0.3260 -0.1128  0.2356
 7347SOL    HW133674   1.551   1.015   7.620  1.3204  1.6292  0.7878
 7347SOL    HW233675   1.595   0.930   7.724 -0.6682  2.7937  1.0053
 7348SOL     OW33676   2.612   2.263   6.905 -0.3935 -0.5177 -0.2304
 7348SOL    HW133677   2.647   2.351   6.889  0.7689 -0.8319  0.6064
 7348SOL    HW233678   2.672   2.222   6.967  0.1288  0.0471 -0.3681
 7349SOL     OW33679   3.935   2.009   3.914  0.5828 -0.6053  0.1988
 7349SOL    HW133680   3.852   1.962   3.902  1.0129 -1.1697 -0.5614
 7349SOL    HW233681   3.931   2.066   3.838  2.2486 -0.3120  0.3385
 7350SOL     OW33682   1.991   1.823  14.092  0.5285  0.1363  0.0010
 7350SOL    HW133683   2.009   1.804  14.000  3.4029  0.1892  0.5491
 7350SOL    HW233684   1.997   1.918  14.102 -1.5790  0.1098  1.3376
 7351SOL     OW33685   1.991   4.138   2.209  0.1841 -0.7328 -0.3950
 7351SOL    HW133686   1.940   4.082   2.268  0.7838 -1.6540 -0.7583
 7351SOL    HW233687   2.069   4.084   2.204  0.3196 -0.7356  1.6124
 7352SOL     OW33688   4.254   1.040   2.596  0.1806 -0.1450  0.3390
 7352SOL    HW133689   4.176   1.096   2.590  0.7780  0.6796  0.2003
 7352SOL    HW233690   4.289   1.040   2.685  1.3103  1.9448 -0.0871
 7353SOL     OW33691   1.091   0.714   5.379  0.1669 -0.1838  0.0086
 7353SOL    HW133692   1.004   0.700   5.415  0.4698 -1.7688  0.1470
 7353SOL    HW233693   1.145   0.658   5.435 -2.1775 -3.3013 -0.8010
 7354SOL     OW33694   0.120   1.335   5.698 -0.2896  0.0891 -0.0819
 7354SOL    HW133695   0.125   1.367   5.607  0.6969  3.6531  1.2401
 7354SOL    HW233696   0.071   1.253   5.697 -0.1119 -0.0200  0.1627
 7355SOL     OW33697   1.338   4.212  10.719  0.8078 -0.2177 -0.2147
 7355SOL    HW133698   1.408   4.264  10.680  0.6599 -1.0226 -1.5385
 7355SOL    HW233699   1.390   4.133  10.734  1.7854  0.2546 -1.1427
 7356SOL     OW33700   4.542   2.759  12.717 -0.3024  0.2065 -0.3183
 7356SOL    HW133701   4.490   2.828  12.676 -0.3713  0.1519 -0.3244
 7356SOL    HW233702   4.526   2.779  12.810  0.3196 -2.9375  0.4646
 7357SOL     OW33703   2.453   1.514   5.805  0.0838  0.4481  0.4378
 7357SOL    HW133704   2.436   1.528   5.712 -0.8491  2.2306  0.8571
 7357SOL    HW233705   2.491   1.427   5.817 -1.4674 -0.4236 -1.1038
 7358SOL     OW33706   2.057   4.348   5.224 -0.4603 -0.7004  0.3306
 7358SOL    HW133707   2.089   4.278   5.166  0.1630 -0.2314  0.1185
 7358SOL    HW233708   2.016   4.405   5.160  0.9902 -0.2491 -0.1865
 7359SOL     OW33709   3.658   3.376  17.717  0.3502  0.4491  0.5927
 7359SOL    HW133710   3.638   3.327   0.053 -2.8114  0.0723 -0.4152
 7359SOL    HW233711   3.587   3.440  17.709 -0.2998 -0.2071  1.0266
 7360SOL     OW33712   0.134   0.185   2.584  0.0071 -0.2100  0.2960
 7360SOL    HW133713   0.213   0.140   2.555 -0.8701 -0.6435 -1.4608
 7360SOL    HW233714   0.062   0.133   2.549  0.8775 -0.9562 -0.3739
 7361SOL     OW33715   2.070   2.091   4.837  0.3482  1.1985  0.0302
 7361SOL    HW133716   1.984   2.079   4.798 -0.8310  1.6677  2.4506
 7361SOL    HW233717   2.045   2.142   4.914  1.0805 -0.5294  1.4218
 7362SOL     OW33718   4.155   0.456   1.878 -0.2275 -0.2505 -0.3201
 7362SOL    HW133719   4.159   0.497   1.792 -0.5556 -0.8963 -0.6410
 7362SOL    HW233720   4.061   0.437   1.874  0.0690 -1.7587 -0.2751
 7363SOL     OW33721   3.837   1.434  12.909 -0.2123  0.4054  0.1740
 7363SOL    HW133722   3.878   1.520  12.899  1.6413 -0.3910  0.8261
 7363SOL    HW233723   3.910   1.384  12.872  0.2142  0.5319  0.8517
 7364SOL     OW33724   0.897   0.650   8.421 -0.3188 -0.3601 -0.5051
 7364SOL    HW133725   0.986   0.681   8.440 -0.8409 -0.3760  1.9036
 7364SOL    HW233726   0.852   0.669   8.503  3.1591 -2.2792  1.8504
 7365SOL     OW33727   2.949   0.734   4.888 -0.1188 -0.7315  0.2441
 7365SOL    HW133728   3.040   0.736   4.917  0.1479 -2.2464 -0.4830
 7365SOL    HW233729   2.914   0.671   4.951 -0.8582 -1.7677 -1.1997
 7366SOL     OW33730   4.456   3.176   7.597  0.0697  0.2066  0.0258
 7366SOL    HW133731   4.461   3.187   7.502 -0.7747  2.5236  0.2383
 7366SOL    HW233732   4.549   3.182   7.621 -0.3456  0.0192  1.6937
 7367SOL     OW33733   4.453   0.258   0.301 -0.0797 -0.3507  0.5211
 7367SOL    HW133734   4.389   0.189   0.319 -0.6535  0.0529  0.0003
 7367SOL    HW233735   4.398   0.335   0.287  0.1004  0.0161  1.7858
 7368SOL     OW33736   4.158   2.039   7.233  0.6239  0.8309 -0.3060
 7368SOL    HW133737   4.245   2.064   7.265  0.1248  0.1566  1.5253
 7368SOL    HW233738   4.167   1.947   7.257 -0.4581  0.8677  0.2450
 7369SOL     OW33739   2.520   2.806  15.183 -0.1394  0.0621  0.4534
 7369SOL    HW133740   2.556   2.894  15.175  0.4789 -0.0744  1.8371
 7369SOL    HW233741   2.541   2.782  15.273  1.9838  1.1054  0.2431
 7370SOL     OW33742   0.684   3.348   4.463 -0.1556  0.0613 -0.5805
 7370SOL    HW133743   0.615   3.339   4.397 -2.0561  0.8275  1.2989
 7370SOL    HW233744   0.671   3.272   4.520 -0.3755  1.2518  0.9534
 7371SOL     OW33745   1.062   3.422   2.953 -0.4622 -0.2400 -0.5181
 7371SOL    HW133746   1.084   3.329   2.944  1.4930  0.1510  0.3075
 7371SOL    HW233747   1.109   3.430   3.036 -0.4851 -0.3643 -0.4921
 7372SOL     OW33748   1.873   1.776  15.920  0.6460 -0.7914 -0.3622
 7372SOL    HW133749   1.810   1.704  15.918  1.5481 -1.5414 -2.0804
 7372SOL    HW233750   1.867   1.805  16.011 -1.6085  1.2103 -1.1283
 7373SOL     OW33751   2.508   4.670  12.642  0.4873  0.2528 -0.1859
 7373SOL    HW133752   2.446   4.735  12.675  0.6414  0.2191  0.1664
 7373SOL    HW233753   2.555   4.660  12.724 -1.3771  0.6733  0.9350
 7374SOL     OW33754   0.923   0.817   8.981  0.2065  0.2165  0.2843
 7374SOL    HW133755   0.877   0.743   9.021 -1.0209  0.3286 -0.9171
 7374SOL    HW233756   0.964   0.769   8.909 -0.3825  1.7523 -1.0538
 7375SOL     OW33757   2.373   1.913   0.006 -0.0754  0.4121  0.0494
 7375SOL    HW133758   2.348   1.927  17.659 -0.3875 -2.7093 -0.3462
 7375SOL    HW233759   2.385   1.818   0.006  1.7550  0.6220  2.1069
 7376SOL     OW33760   0.699   3.998   5.716 -0.3133  0.2929  0.3787
 7376SOL    HW133761   0.781   3.985   5.669  0.4488  0.1534  1.7526
 7376SOL    HW233762   0.679   3.906   5.732  0.4050 -0.1381 -1.2306
 7377SOL     OW33763   3.712   2.375   5.246 -0.2266  0.3275  0.0605
 7377SOL    HW133764   3.632   2.373   5.194  0.3416 -1.1583 -0.7845
 7377SOL    HW233765   3.710   2.291   5.293 -0.0873  0.4210  0.2319
 7378SOL     OW33766   3.868   1.687   8.143  0.1886 -0.2066  0.2959
 7378SOL    HW133767   3.934   1.633   8.187  0.2186  1.5073  2.3423
 7378SOL    HW233768   3.924   1.757   8.110 -0.0707  1.2927  2.9906
 7379SOL     OW33769   2.565   4.477   3.791 -0.4330 -0.1450  0.1884
 7379SOL    HW133770   2.472   4.488   3.811 -0.1898  1.3963  0.4370
 7379SOL    HW233771   2.585   4.555   3.739 -2.0834  0.1163 -0.0648
 7380SOL     OW33772   2.192   4.260   1.762  0.4291  0.2818  0.6167
 7380SOL    HW133773   2.239   4.315   1.824 -1.5187  0.8216  1.6058
 7380SOL    HW233774   2.102   4.274   1.790  0.7749  1.6968  0.9854
 7381SOL     OW33775   3.475   3.082  13.724 -0.2470  0.1977  0.5502
 7381SOL    HW133776   3.386   3.114  13.711  0.5630  1.7039 -1.2774
 7381SOL    HW233777   3.530   3.156  13.698  0.7446 -0.7144  0.0405
 7382SOL     OW33778   1.538   2.038   2.861 -0.0666 -0.2375  0.0161
 7382SOL    HW133779   1.605   1.985   2.905  2.2762  2.1998 -0.5523
 7382SOL    HW233780   1.513   2.106   2.924 -1.2963  1.5013 -2.3481
 7383SOL     OW33781   0.619   4.116   4.950  0.0198 -0.2051  0.0167
 7383SOL    HW133782   0.631   4.136   5.043 -1.5654  0.3108  0.1151
 7383SOL    HW233783   0.650   4.201   4.922  0.8772  0.3539  2.6718
 7384SOL     OW33784   3.845   3.861   9.696 -0.5869 -0.7346  0.5192
 7384SOL    HW133785   3.882   3.948   9.714  0.1562 -0.8395 -0.5096
 7384SOL    HW233786   3.931   3.820   9.704  0.2222  1.0462  1.1496
 7385SOL     OW33787   3.577   2.180   9.720 -0.0148 -0.6013  0.3002
 7385SOL    HW133788   3.574   2.275   9.730  1.3693 -0.4080 -1.1861
 7385SOL    HW233789   3.671   2.170   9.729  0.0097 -1.7667 -1.2635
 7386SOL     OW33790   0.248   2.779  17.586 -0.9046 -0.0274 -0.1322
 7386SOL    HW133791   0.189   2.745  17.519 -1.2742  2.9318 -1.3164
 7386SOL    HW233792   0.201   2.758  17.667  1.1222  1.5529  1.4413
 7387SOL     OW33793   3.227   3.026   4.875 -0.1531  0.3572  0.4250
 7387SOL    HW133794   3.173   3.104   4.882 -0.5056  0.0568  1.0824
 7387SOL    HW233795   3.317   3.060   4.872 -0.1258  0.3368  1.0473
 7388SOL     OW33796   0.629   0.525  15.274  0.0070  0.1120  0.2363
 7388SOL    HW133797   0.559   0.583  15.245  0.0800 -0.3044 -0.7648
 7388SOL    HW233798   0.636   0.545  15.368  1.1050 -0.5083  0.2817
 7389SOL     OW33799   3.939   4.679  11.264 -0.5050  0.2100 -0.3922
 7389SOL    HW133800   3.862   4.638  11.226 -0.6938 -1.4795  1.7640
 7389SOL    HW233801   3.914   0.020  11.315 -0.3475  1.3630 -2.0566
 7390SOL     OW33802   4.665   2.237   4.863  0.1305  0.4239 -0.0080
 7390SOL    HW133803   4.619   2.188   4.932 -0.5290  0.8053 -0.1793
 7390SOL    HW233804   4.729   2.174   4.829  0.3841  0.6427  0.0641
 7391SOL     OW33805   4.453   2.667   4.594  0.0334 -0.0871  0.4168
 7391SOL    HW133806   4.458   2.571   4.594 -3.9138 -0.3195 -0.4400
 7391SOL    HW233807   4.524   2.687   4.655 -0.2070 -1.4077  1.1381
 7392SOL     OW33808   1.165   1.249   5.990  0.3844 -0.1429  0.3473
 7392SOL    HW133809   1.236   1.194   5.957  1.3553 -0.3209  2.7153
 7392SOL    HW233810   1.091   1.198   5.957 -1.6141  1.9226  1.6431
 7393SOL     OW33811   3.938   2.623   6.665  0.3405  0.3041 -0.1704
 7393SOL    HW133812   3.985   2.680   6.726 -0.5584 -1.5186  2.1981
 7393SOL    HW233813   3.999   2.625   6.591  0.1123  1.2908 -0.3414
 7394SOL     OW33814   3.255   2.934   4.361 -0.0189 -1.1647  0.3093
 7394SOL    HW133815   3.280   2.915   4.452  0.4855 -0.8994  0.2271
 7394SOL    HW233816   3.245   3.028   4.347  0.1073 -1.1498  0.3203
 7395SOL     OW33817   1.639   3.767  13.002 -0.2482 -0.3872  0.2115
 7395SOL    HW133818   1.609   3.677  13.018 -1.9158  0.0238 -0.6527
 7395SOL    HW233819   1.554   3.809  13.014  0.7153  1.4975  0.4686
 7396SOL     OW33820   4.011   2.357  11.480 -0.3368  0.1436  0.1724
 7396SOL    HW133821   4.038   2.442  11.445 -0.8997  0.7067  1.1030
 7396SOL    HW233822   4.021   2.377  11.574 -1.2501  0.3285  0.2252
 7397SOL     OW33823   4.681   3.682   0.977  0.7435 -0.2906 -0.3371
 7397SOL    HW133824   4.667   3.611   1.039  2.1746 -1.2991 -1.1722
 7397SOL    HW233825   0.019   3.645   0.929  0.9845  0.1596 -0.3173
 7398SOL     OW33826   0.654   1.375   1.849  0.0479 -0.1055  0.5778
 7398SOL    HW133827   0.578   1.411   1.896 -1.9018  1.5102 -3.8166
 7398SOL    HW233828   0.605   1.321   1.787  0.1671  0.7881 -0.2941
 7399SOL     OW33829   2.863   4.508  10.570  0.6855  0.0316 -0.2438
 7399SOL    HW133830   2.936   4.451  10.597  2.6064  2.7242  0.2082
 7399SOL    HW233831   2.810   4.457  10.508  1.7378  1.0242 -1.9817
 7400SOL     OW33832   4.661   2.585   9.737  0.0733  0.3541 -0.0533
 7400SOL    HW133833   4.709   2.536   9.803 -1.2908 -1.7206 -0.5880
 7400SOL    HW233834   4.671   2.666   9.786 -2.2664  1.5850 -1.5717
 7401SOL     OW33835   2.290   0.332   8.539  0.1604  0.1604 -0.1046
 7401SOL    HW133836   2.225   0.345   8.470 -1.6027 -1.2731  1.2637
 7401SOL    HW233837   2.357   0.290   8.485 -0.0251 -1.2566  0.7669
 7402SOL     OW33838   1.131   4.558  15.672 -0.3279  0.3451  0.1774
 7402SOL    HW133839   1.072   4.603  15.611  0.4163  0.5133 -0.4322
 7402SOL    HW233840   1.187   4.632  15.695 -0.6064  0.8529 -0.7780
 7403SOL     OW33841   2.219   3.202   6.726 -0.0932  0.1382  0.8507
 7403SOL    HW133842   2.163   3.143   6.676  2.1241  0.5099 -2.0590
 7403SOL    HW233843   2.300   3.187   6.676 -1.0028 -0.6241 -0.3826
 7404SOL     OW33844   2.248   0.027   6.181 -0.4090  0.4131  0.2458
 7404SOL    HW133845   2.164   0.057   6.144 -0.1952  0.6701 -0.0318
 7404SOL    HW233846   2.314   0.085   6.144 -1.0126 -0.3456 -2.0267
 7405SOL     OW33847   2.854   0.427   1.030  0.1481 -0.0031 -0.4996
 7405SOL    HW133848   2.880   0.427   0.938 -1.5647  1.5973 -0.9823
 7405SOL    HW233849   2.769   0.384   1.020 -0.3736  1.0472 -0.5893
 7406SOL     OW33850   3.870   3.672   1.074 -1.0076 -0.4019 -0.6277
 7406SOL    HW133851   3.943   3.611   1.068 -0.2076  0.3414  1.5218
 7406SOL    HW233852   3.891   3.725   1.151 -1.4024 -1.2242  0.0402
 7407SOL     OW33853   3.124   3.370   5.413 -0.1171 -0.3804  0.2211
 7407SOL    HW133854   3.061   3.326   5.471 -0.1230 -0.2403  0.3220
 7407SOL    HW233855   3.155   3.432   5.479 -1.1131  0.7877 -0.4041
 7408SOL     OW33856   3.428   4.016  14.876  0.2492 -0.3099  0.5546
 7408SOL    HW133857   3.499   4.071  14.842  0.2947 -0.8232 -0.1830
 7408SOL    HW233858   3.440   4.025  14.971  2.1571  0.7525  0.2002
 7409SOL     OW33859   2.616   0.217  13.615 -1.0147 -0.6396 -0.3084
 7409SOL    HW133860   2.692   0.250  13.566 -0.3337  0.6932  1.6431
 7409SOL    HW233861   2.608   0.133  13.568  0.0060 -0.6460 -0.4819
 7410SOL     OW33862   2.647   4.663   6.240  0.3738  0.0862 -0.3565
 7410SOL    HW133863   2.664   0.021   6.236  0.4332  0.0746 -0.3841
 7410SOL    HW233864   2.603   4.645   6.157 -3.8953 -1.3663  2.2169
 7411SOL     OW33865   2.745   3.235   1.929  0.8752 -0.8618 -0.0618
 7411SOL    HW133866   2.687   3.163   1.955  0.7194 -0.3893  0.9131
 7411SOL    HW233867   2.829   3.204   1.960  1.0741 -1.0239 -0.7742
 7412SOL     OW33868   2.620   4.056   2.641  0.6107 -0.2320 -0.7862
 7412SOL    HW133869   2.525   4.051   2.634  0.4916 -0.3869  1.2026
 7412SOL    HW233870   2.634   4.052   2.735 -2.9648 -0.3519 -0.2638
 7413SOL     OW33871   4.199   1.678   0.172  0.3409 -0.1074  0.9802
 7413SOL    HW133872   4.242   1.737   0.233  1.7418  1.1965 -1.2393
 7413SOL    HW233873   4.108   1.671   0.201  0.1121 -0.6556  0.1388
 7414SOL     OW33874   0.618   0.851   2.442 -0.1520  0.2025 -0.9769
 7414SOL    HW133875   0.564   0.804   2.378 -1.2588 -1.0436  0.8735
 7414SOL    HW233876   0.579   0.814   2.521  1.2023 -0.8974 -0.8198
 7415SOL     OW33877   0.595   1.976  11.696 -0.1943  0.1186  0.6570
 7415SOL    HW133878   0.603   2.035  11.771  1.2959  0.2189  0.4174
 7415SOL    HW233879   0.669   1.919  11.718 -1.2283 -0.5240  2.4876
 7416SOL     OW33880   3.991   4.377   9.955 -0.1625 -0.0132  0.4596
 7416SOL    HW133881   4.020   4.286   9.960 -1.6352 -0.5327 -0.4779
 7416SOL    HW233882   4.070   4.426   9.932  0.0303 -0.4669  0.1384
 7417SOL     OW33883   3.630   0.909  17.037  0.6870  0.2994 -0.2443
 7417SOL    HW133884   3.704   0.964  17.010 -0.9246  1.0891 -3.0405
 7417SOL    HW233885   3.592   0.894  16.951  1.1369  1.4408 -0.6509
 7418SOL     OW33886   0.624   0.697  11.571  0.0656  0.4173 -0.2213
 7418SOL    HW133887   0.717   0.703  11.547 -0.2685 -1.0367 -1.8907
 7418SOL    HW233888   0.620   0.741  11.655 -2.6764 -0.0175 -0.1088
 7419SOL     OW33889   4.315   2.656   0.296  0.3037 -0.1058  0.3163
 7419SOL    HW133890   4.221   2.667   0.310  0.2741  0.6070 -0.4101
 7419SOL    HW233891   4.347   2.746   0.302  0.1768 -0.0547  0.2281
 7420SOL     OW33892   3.511   0.173  15.226 -0.4825 -0.0955  0.1615
 7420SOL    HW133893   3.488   0.109  15.158 -1.3662  0.2029  0.1751
 7420SOL    HW233894   3.604   0.152  15.231 -0.3611  1.0000  2.3902
 7421SOL     OW33895   2.984   2.674  10.346  0.6747  0.2243  0.7441
 7421SOL    HW133896   2.893   2.658  10.321  0.3036  2.9574  0.4348
 7421SOL    HW233897   3.028   2.589  10.353  3.7435  1.9218  2.2511
 7422SOL     OW33898   0.542   1.391   3.798  0.6733  0.4616  0.2822
 7422SOL    HW133899   0.491   1.334   3.856 -2.7454  2.4737 -0.7723
 7422SOL    HW233900   0.631   1.371   3.826 -0.5553 -2.9219  1.8271
 7423SOL     OW33901   1.180   3.545   4.887 -0.6578  0.1012  0.0758
 7423SOL    HW133902   1.263   3.502   4.868 -0.7040  0.6483 -1.3386
 7423SOL    HW233903   1.169   3.514   4.977  0.6938  0.1503  0.2606
 7424SOL     OW33904   1.087   3.593   2.709 -0.3707 -0.4330  1.0727
 7424SOL    HW133905   1.045   3.540   2.777 -0.8722 -1.3718  0.0331
 7424SOL    HW233906   1.169   3.629   2.745  0.3502  0.2577 -1.2718
 7425SOL     OW33907   0.738   3.206   1.333  0.0026 -0.4378 -0.0684
 7425SOL    HW133908   0.819   3.179   1.290 -0.7170 -0.4061 -1.4452
 7425SOL    HW233909   0.677   3.175   1.265  1.9285 -1.0707 -1.5010
 7426SOL     OW33910   0.245   0.407   9.810  0.1933  0.4126 -0.6646
 7426SOL    HW133911   0.152   0.406   9.834  0.8845  1.4509  2.0157
 7426SOL    HW233912   0.265   0.492   9.771 -1.1549  0.7902 -0.5243
 7427SOL     OW33913   2.136   2.723  12.921  0.1809 -0.4797 -0.8532
 7427SOL    HW133914   2.085   2.763  12.992 -1.0346 -3.2295 -0.1550
 7427SOL    HW233915   2.227   2.738  12.944  0.0556 -0.0427 -0.6347
 7428SOL     OW33916   2.079   4.278   5.677  0.8893 -0.3127 -0.1662
 7428SOL    HW133917   2.077   4.355   5.620  1.7313 -0.5174 -0.4693
 7428SOL    HW233918   2.038   4.210   5.624  1.2684 -0.5730 -0.1228
 7429SOL     OW33919   0.326   2.865   1.368 -0.1527 -0.1460 -0.1249
 7429SOL    HW133920   0.337   2.812   1.447  2.5364  0.3465 -0.1837
 7429SOL    HW233921   0.261   2.806   1.330  0.0649  0.0970 -0.8724
 7430SOL     OW33922   0.373   0.831   4.245  0.1589 -0.5023 -0.3260
 7430SOL    HW133923   0.334   0.811   4.330  0.0036  0.4495 -0.1741
 7430SOL    HW233924   0.344   0.920   4.230 -0.0608 -0.1187  2.2419
 7431SOL     OW33925   1.369   1.066   9.835 -0.2460  0.2230  0.4303
 7431SOL    HW133926   1.432   1.066   9.907 -1.2566 -1.2894  1.3183
 7431SOL    HW233927   1.302   1.096   9.897  0.1740 -0.2535  1.1183
 7432SOL     OW33928   1.910   0.993   5.206 -0.0853  0.1710 -0.2835
 7432SOL    HW133929   1.874   1.081   5.195 -0.6096 -0.0194 -0.0922
 7432SOL    HW233930   2.002   1.012   5.190 -0.0046  0.5775  0.6542
 7433SOL     OW33931   1.176   0.456   8.923  0.4787 -0.4365  0.2080
 7433SOL    HW133932   1.097   0.507   8.902 -0.1829 -1.0532  1.1769
 7433SOL    HW233933   1.236   0.530   8.934  0.1079 -0.1222  0.1339
 7434SOL     OW33934   1.848   0.762   6.454 -0.0543  0.0180  0.8168
 7434SOL    HW133935   1.860   0.692   6.518  1.3420  0.0401  0.5734
 7434SOL    HW233936   1.826   0.715   6.374  1.3951  1.5409 -0.4843
 7435SOL     OW33937   4.358   1.750   8.102  1.1288 -0.0731  0.7561
 7435SOL    HW133938   4.366   1.826   8.159 -0.3350  0.7613 -0.1381
 7435SOL    HW233939   4.389   1.792   8.021 -3.2602  5.3304  1.9166
 7436SOL     OW33940   0.604   3.285   9.431 -0.3389 -0.5539  0.1343
 7436SOL    HW133941   0.599   3.347   9.503  1.0003  0.1336 -0.3740
 7436SOL    HW233942   0.554   3.335   9.366  1.6382  1.1190 -0.0713
 7437SOL     OW33943   1.133   4.672   4.783 -0.1122  0.2152 -0.5148
 7437SOL    HW133944   1.077   4.665   4.860 -2.0775  0.4776 -1.9088
 7437SOL    HW233945   1.211   4.636   4.825 -2.4043 -1.4377  2.3449
 7438SOL     OW33946   0.266   1.128   1.983  0.1318 -0.3283  0.1787
 7438SOL    HW133947   0.193   1.148   2.042 -0.7649  0.5583 -1.2299
 7438SOL    HW233948   0.320   1.202   2.010 -0.5448  0.5965 -1.0074
 7439SOL     OW33949   1.826   4.358   8.160  0.1125 -0.6251 -0.2291
 7439SOL    HW133950   1.778   4.373   8.078  0.1450 -0.8329 -0.2886
 7439SOL    HW233951   1.753   4.348   8.221 -0.1441 -1.4364 -0.6628
 7440SOL     OW33952   0.183   3.423   0.496  0.0216  0.0836 -0.5290
 7440SOL    HW133953   0.244   3.384   0.434 -0.5997 -2.3916  0.4368
 7440SOL    HW233954   0.158   3.347   0.548  1.4320  0.3395  0.5234
 7441SOL     OW33955   3.906   3.706   3.953  0.3911  0.1316 -0.3108
 7441SOL    HW133956   3.873   3.656   3.878 -0.3418  1.1108 -0.6514
 7441SOL    HW233957   3.854   3.787   3.949  0.9784  0.4078 -2.3244
 7442SOL     OW33958   3.198   4.415  12.964  0.2109 -0.5018  0.3213
 7442SOL    HW133959   3.243   4.499  12.969 -1.7725  0.5388  0.5651
 7442SOL    HW233960   3.203   4.399  12.870  1.8637 -1.2969  0.5488
 7443SOL     OW33961   0.386   2.961  14.315 -0.5464 -0.2081  0.3962
 7443SOL    HW133962   0.421   2.872  14.307  2.1124  0.8369  0.3256
 7443SOL    HW233963   0.363   2.964  14.408 -0.5842  1.1175  0.3420
 7444SOL     OW33964   3.990   4.688   8.619 -0.3461 -0.3130  0.0834
 7444SOL    HW133965   3.935   4.732   8.683 -0.8951 -1.4373  0.3746
 7444SOL    HW233966   3.970   4.599   8.647 -1.0139 -0.4958 -0.9883
 7445SOL     OW33967   0.297   3.932   3.342 -0.0730  0.3721  0.5653
 7445SOL    HW133968   0.337   3.877   3.274 -4.2095 -0.3589 -1.2968
 7445SOL    HW233969   0.321   3.886   3.423 -2.2312 -2.1254 -0.2000
 7446SOL     OW33970   3.300   3.212   1.689  0.7914  0.8255  0.4578
 7446SOL    HW133971   3.359   3.209   1.614  0.9850  0.4268  0.6258
 7446SOL    HW233972   3.348   3.153   1.747 -0.4559  0.6441  1.2899
 7447SOL     OW33973   0.469   0.649   2.986  0.1498 -0.2131  0.1672
 7447SOL    HW133974   0.500   0.608   3.066 -1.5739 -1.1281  0.3816
 7447SOL    HW233975   0.384   0.679   3.018  0.8618  0.0994  1.7509
 7448SOL     OW33976   0.422   2.723   5.049 -0.3047 -0.2276  0.1905
 7448SOL    HW133977   0.485   2.655   5.071  0.0610 -0.4884 -1.6541
 7448SOL    HW233978   0.445   2.808   5.088 -0.4357 -0.1355  0.0649
 7449SOL     OW33979   3.056   1.122   8.137  0.1735  0.0713  0.0813
 7449SOL    HW133980   3.081   1.037   8.100 -0.1223 -0.2739  0.6724
 7449SOL    HW233981   3.108   1.181   8.082 -1.0836  2.6034  1.6046
 7450SOL     OW33982   3.821   3.918   7.220  0.3367  0.0874 -0.0670
 7450SOL    HW133983   3.815   3.824   7.203  0.0371 -0.0593  0.8299
 7450SOL    HW233984   3.857   3.914   7.309 -2.8840  1.0238  1.2984
 7451SOL     OW33985   2.163   3.412   9.368 -0.1854 -0.2483 -0.5561
 7451SOL    HW133986   2.215   3.397   9.289  0.2329  1.0735 -0.5278
 7451SOL    HW233987   2.085   3.359   9.350 -2.2501  1.6498  2.7916
 7452SOL     OW33988   2.376   2.473   6.293  0.0812  0.3799  0.6182
 7452SOL    HW133989   2.327   2.551   6.322 -0.7607 -0.1798  0.6965
 7452SOL    HW233990   2.316   2.407   6.327  0.8711 -0.8797 -0.4334
 7453SOL     OW33991   2.076   3.555   2.493 -0.1270  0.0780  0.0134
 7453SOL    HW133992   2.038   3.627   2.442  1.5681  1.2160  0.3615
 7453SOL    HW233993   2.104   3.503   2.418 -0.9303  2.9101 -2.2762
 7454SOL     OW33994   3.045   0.057  15.854  0.0269 -0.0837  0.5018
 7454SOL    HW133995   3.055   0.138  15.904 -1.6570 -0.0155  0.7310
 7454SOL    HW233996   3.084   4.733  15.918 -0.7869  0.0423  1.1141
 7455SOL     OW33997   1.747   3.964   8.558 -0.6018 -0.1236  0.0275
 7455SOL    HW133998   1.760   4.059   8.564  0.6799 -0.3109  0.2616
 7455SOL    HW233999   1.663   3.947   8.601 -1.8704  2.8986 -1.2989
 7456SOL     OW34000   3.280   4.011  15.143  0.6335 -0.1946 -0.2144
 7456SOL    HW134001   3.213   4.034  15.079 -1.3051 -0.5906  1.7097
 7456SOL    HW234002   3.263   3.920  15.166  0.7272  0.1452  1.1886
 7457SOL     OW34003   0.731   1.442  13.859 -0.2156 -0.2347  0.0143
 7457SOL    HW134004   0.767   1.358  13.885  0.1913  0.2608  1.0331
 7457SOL    HW234005   0.636   1.429  13.865 -0.1628 -1.5004 -2.0663
 7458SOL     OW34006   0.055   0.100  12.143  0.7083  0.3315  0.1871
 7458SOL    HW134007   4.720   0.042  12.114  1.3341 -0.3742  0.0526
 7458SOL    HW234008   0.044   0.179  12.091 -1.0367  0.0378  0.1081
 7459SOL     OW34009   3.937   2.975  13.361  0.0034 -0.1500  0.5123
 7459SOL    HW134010   3.992   3.052  13.372 -1.6608  0.9794  0.9047
 7459SOL    HW234011   3.985   2.912  13.415  0.1762 -0.5896 -0.1563
 7460SOL     OW34012   2.057   0.266  11.650  0.1358 -0.0122  0.3681
 7460SOL    HW134013   2.137   0.225  11.682 -0.5295 -0.5184  1.3972
 7460SOL    HW234014   2.016   0.196  11.598 -0.2123  0.6493 -0.2364
 7461SOL     OW34015   3.444   1.984   8.720 -0.5125  0.9552  0.0676
 7461SOL    HW134016   3.442   1.939   8.804 -2.4693  0.7461 -0.0729
 7461SOL    HW234017   3.457   1.907   8.664 -0.5568  1.6621 -0.9092
 7462SOL     OW34018   2.184   1.611   0.090  0.0042 -0.2172 -0.1159
 7462SOL    HW134019   2.231   1.641   0.168 -0.0020 -1.6399  0.4425
 7462SOL    HW234020   2.252   1.610   0.023 -1.4503  1.1427 -1.5897
 7463SOL     OW34021   1.640   0.491   2.283  0.3421  0.3027  0.3506
 7463SOL    HW134022   1.664   0.520   2.370 -0.8768  0.0174  0.7833
 7463SOL    HW234023   1.715   0.441   2.252  0.9338  1.0053  0.6797
 7464SOL     OW34024   2.456   2.034   4.954  0.3223  0.1298  0.1675
 7464SOL    HW134025   2.371   1.991   4.968  1.2958 -1.8555  0.0545
 7464SOL    HW234026   2.441   2.100   4.886  1.3295  0.9586  0.7538
 7465SOL     OW34027   1.478   1.155   9.613 -0.0678 -1.1788  0.1480
 7465SOL    HW134028   1.463   1.123   9.702 -0.4556 -0.2939  0.3964
 7465SOL    HW234029   1.558   1.112   9.582  0.0819  0.5378 -1.7775
 7466SOL     OW34030   1.414   3.196   3.163 -0.5803 -0.1609 -0.6524
 7466SOL    HW134031   1.406   3.169   3.254 -0.0970  0.5180 -0.4099
 7466SOL    HW234032   1.497   3.150   3.149 -0.3140 -0.1934  1.0999
 7467SOL     OW34033   0.082   3.539   4.494 -0.2519 -0.0981 -0.1896
 7467SOL    HW134034   0.158   3.528   4.551 -0.5477  1.3788  0.5021
 7467SOL    HW234035   0.084   3.633   4.474  0.1468 -0.0785 -0.0557
 7468SOL     OW34036   4.537   2.939   5.008  0.6725  0.4663  0.4277
 7468SOL    HW134037   4.466   2.998   4.985  1.2974  1.2653  0.5552
 7468SOL    HW234038   4.486   2.873   5.055 -0.5205  1.7346  0.9059
 7469SOL     OW34039   3.332   0.270   3.019  0.7841 -0.4074  0.0991
 7469SOL    HW134040   3.383   0.207   3.070  0.8117 -1.4638 -1.2442
 7469SOL    HW234041   3.361   0.254   2.930 -0.1077  0.7646 -0.3921
 7470SOL     OW34042   3.985   3.361  11.429  0.6474 -0.5110  0.3201
 7470SOL    HW134043   4.035   3.328  11.504  1.9466  0.4402 -0.1201
 7470SOL    HW234044   3.962   3.447  11.465 -3.5250 -1.9542  1.0462
 7471SOL     OW34045   4.037   0.122   2.011  0.2885 -0.0357  0.2726
 7471SOL    HW134046   4.058   0.029   2.024 -0.0037  0.2181  2.6726
 7471SOL    HW234047   3.964   0.127   1.950  1.9434 -2.9802 -1.9508
 7472SOL     OW34048   0.397   2.972   3.531 -0.1720  0.4173  0.1211
 7472SOL    HW134049   0.336   3.038   3.564 -2.8704 -0.9498 -2.1564
 7472SOL    HW234050   0.390   2.896   3.590 -1.1192  1.2927  1.1535
 7473SOL     OW34051   0.615   1.699   9.361  0.6197  0.0995  0.0086
 7473SOL    HW134052   0.565   1.684   9.281  1.1444  1.1911 -0.5219
 7473SOL    HW234053   0.700   1.699   9.318  0.4297 -1.3843 -0.3520
 7474SOL     OW34054   3.652   0.826  12.200 -0.0528  0.7635 -0.1503
 7474SOL    HW134055   3.719   0.888  12.228  0.7618 -0.4783  0.6497
 7474SOL    HW234056   3.700   0.755  12.157 -0.0978 -0.1203  1.2610
 7475SOL     OW34057   0.152   2.243   8.101  0.0255 -0.0172  0.3329
 7475SOL    HW134058   0.083   2.271   8.162  0.8116 -1.3701  1.8423
 7475SOL    HW234059   0.172   2.156   8.135  0.0257 -0.3955 -0.6510
 7476SOL     OW34060   1.124   1.679   7.861  1.2090 -0.5678  0.0394
 7476SOL    HW134061   1.096   1.706   7.948  1.2287 -1.4205  0.3052
 7476SOL    HW234062   1.046   1.702   7.811  2.0187  1.6540 -0.2126
 7477SOL     OW34063   1.706   0.655   4.784 -1.0080  0.5833  0.3337
 7477SOL    HW134064   1.722   0.632   4.693  0.9195 -0.1391  0.8451
 7477SOL    HW234065   1.731   0.575   4.830 -1.5774 -0.2234 -0.7715
 7478SOL     OW34066   0.828   3.368   9.294  0.3301  0.2213 -0.3088
 7478SOL    HW134067   0.736   3.343   9.305  0.8997 -2.0634 -0.7605
 7478SOL    HW234068   0.830   3.384   9.200 -1.8038  3.1799  0.1646
 7479SOL     OW34069   0.044   0.213   3.511  0.6339  0.0353 -0.4523
 7479SOL    HW134070   4.720   0.286   3.529 -0.3271 -0.8548 -0.1127
 7479SOL    HW234071   0.019   0.188   3.422  1.1452  0.0224 -0.5929
 7480SOL     OW34072   2.075   2.979  16.013 -0.2476  0.9448 -0.1303
 7480SOL    HW134073   2.161   2.952  15.980  0.2256  1.7297  0.4565
 7480SOL    HW234074   2.098   3.040  16.083 -1.6618  0.5776  0.6415
 7481SOL     OW34075   0.170   2.103  16.367  0.0597  0.1540 -0.1858
 7481SOL    HW134076   0.250   2.093  16.316 -0.8277  3.0119 -2.0708
 7481SOL    HW234077   0.117   2.156  16.308  2.5453  2.3929 -0.3813
 7482SOL     OW34078   4.342   1.852   7.459 -0.6378  0.1736  0.1679
 7482SOL    HW134079   4.252   1.834   7.487 -0.1879 -0.9274  0.9353
 7482SOL    HW234080   4.368   1.913   7.528  0.8101  0.5532 -0.6994
 7483SOL     OW34081   3.686   4.069   6.236 -0.7589  0.4444  0.6317
 7483SOL    HW134082   3.632   4.059   6.315  0.2332  1.4689  1.4375
 7483SOL    HW234083   3.726   3.983   6.225 -0.5648  0.8488 -1.7470
 7484SOL     OW34084   2.464   1.270   4.310 -0.1226  0.9161 -0.5609
 7484SOL    HW134085   2.433   1.183   4.287  0.0876  0.1794  1.9914
 7484SOL    HW234086   2.379   1.313   4.314  0.4221  1.9168  0.3140
 7485SOL     OW34087   0.428   1.991   0.317 -0.7768 -0.0052  0.5550
 7485SOL    HW134088   0.443   1.903   0.353 -0.9588 -0.2885 -0.0536
 7485SOL    HW234089   0.384   1.973   0.234 -0.9289  0.5955  0.5073
 7486SOL     OW34090   4.107   2.060   4.885 -0.5681 -0.1361  0.0626
 7486SOL    HW134091   4.069   2.079   4.800  1.8196 -1.4701 -1.2848
 7486SOL    HW234092   4.071   2.128   4.942 -1.6874 -0.7088  0.0321
 7487SOL     OW34093   2.159   1.896   8.585 -0.2495  0.5882 -0.3151
 7487SOL    HW134094   2.105   1.962   8.628 -2.2033 -1.3018  0.1807
 7487SOL    HW234095   2.148   1.894   8.490  1.7188  0.3877 -0.5260
 7488SOL     OW34096   3.960   4.693  14.666  0.0068  0.0066  0.1036
 7488SOL    HW134097   3.982   4.602  14.644  2.0210  0.9910 -1.9132
 7488SOL    HW234098   4.051   4.715  14.686  0.0147 -0.2625  0.3612
 7489SOL     OW34099   4.463   0.109   1.267  0.1301 -0.1154  0.8786
 7489SOL    HW134100   4.383   0.097   1.216  0.2408 -1.6323  1.0484
 7489SOL    HW234101   4.479   0.017   1.291  4.7742  0.2646 -0.7454
 7490SOL     OW34102   4.566   4.306  10.844  0.2970 -0.7051 -0.0794
 7490SOL    HW134103   4.539   4.215  10.826  4.1732 -2.3059  2.2881
 7490SOL    HW234104   4.661   4.299  10.850  0.2427 -1.4908 -0.0782
 7491SOL     OW34105   0.091   3.799   1.480  0.0928  0.7042 -0.0707
 7491SOL    HW134106   0.159   3.808   1.547  1.2809  0.9578 -1.3131
 7491SOL    HW234107   0.044   3.881   1.495 -0.6727  0.3078 -0.2995
 7492SOL     OW34108   0.044   0.815   9.022 -0.2408  0.5953 -0.2571
 7492SOL    HW134109   0.098   0.802   9.100  2.1737  1.7290 -1.7184
 7492SOL    HW234110   0.024   0.909   9.026 -0.6968  0.4577  0.6255
 7493SOL     OW34111   0.082   1.582   8.202 -0.5091  0.5639 -0.4418
 7493SOL    HW134112   0.011   1.545   8.255 -0.7071  1.9427  0.2568
 7493SOL    HW234113   0.144   1.611   8.269  0.7761  0.0936 -1.4215
 7494SOL     OW34114   4.379   4.220   4.549  0.1513  0.0115 -0.4358
 7494SOL    HW134115   4.342   4.202   4.635 -0.0989 -1.0792 -0.7584
 7494SOL    HW234116   4.469   4.193   4.562 -0.2498 -0.0189  2.2736
 7495SOL     OW34117   4.388   3.314   5.360 -0.0297 -0.3672  0.2015
 7495SOL    HW134118   4.345   3.393   5.392 -0.4806 -1.1833  1.6615
 7495SOL    HW234119   4.326   3.284   5.294 -0.6909  0.6381  0.3812
 7496SOL     OW34120   2.717   0.767  14.102 -0.5799  0.4734  0.2466
 7496SOL    HW134121   2.710   0.832  14.032  1.0915  0.6847  0.2756
 7496SOL    HW234122   2.657   0.698  14.074 -1.3027  1.4826 -0.6820
 7497SOL     OW34123   2.074   1.457   0.299 -0.5366  0.0827  0.1854
 7497SOL    HW134124   2.059   1.497   0.213  0.0657 -2.0853 -0.9299
 7497SOL    HW234125   2.169   1.450   0.296 -0.5364  0.9685 -1.6898
 7498SOL     OW34126   0.274   0.855  11.205  0.0292  0.4319  0.3214
 7498SOL    HW134127   0.338   0.788  11.231 -2.0253 -0.2110  3.8105
 7498SOL    HW234128   0.236   0.886  11.288 -1.2874  1.3863 -0.6405
 7499SOL     OW34129   2.795   4.235   6.377 -0.1010  0.0170  0.3991
 7499SOL    HW134130   2.727   4.178   6.413 -0.4689  0.1259 -0.1318
 7499SOL    HW234131   2.767   4.245   6.286  0.5135  1.2055  0.3398
 7500SOL     OW34132   2.607   1.343   9.012 -0.1550 -0.3653 -0.3988
 7500SOL    HW134133   2.534   1.356   8.952 -0.7167  0.7126  0.5058
 7500SOL    HW234134   2.597   1.415   9.075 -0.5783 -2.3441  1.7775
 7501SOL     OW34135   4.157   2.184   9.952  0.0903  0.3814 -0.0052
 7501SOL    HW134136   4.171   2.274   9.979  0.8270  0.4704 -0.6871
 7501SOL    HW234137   4.210   2.142  10.020 -2.2677 -1.0072  0.9896
 7502SOL     OW34138   1.231   3.229   5.557  0.4493  0.2355 -0.4347
 7502SOL    HW134139   1.193   3.159   5.505 -0.8358 -0.9143  2.0339
 7502SOL    HW234140   1.325   3.214   5.543  0.1291 -0.7357 -1.5380
 7503SOL     OW34141   2.278   0.732   6.526  0.5250 -0.3853 -0.1428
 7503SOL    HW134142   2.237   0.752   6.442  0.7448  1.6003  0.2296
 7503SOL    HW234143   2.286   0.637   6.521 -1.2256 -0.6405  1.8658
 7504SOL     OW34144   3.889   3.117   6.624 -0.2687  0.4233 -0.2723
 7504SOL    HW134145   3.962   3.164   6.584  0.7399  0.8661  2.0937
 7504SOL    HW234146   3.859   3.069   6.548  0.7303 -0.5687 -0.0503
 7505SOL     OW34147   0.041   2.611   9.476  0.9625 -0.1952  0.7017
 7505SOL    HW134148   0.120   2.580   9.520  3.2165  0.8825 -2.5510
 7505SOL    HW234149   4.726   2.635   9.553  0.8957  0.5800  0.4270
 7506SOL     OW34150   3.005   2.477   3.109  0.0182 -0.1053 -0.2056
 7506SOL    HW134151   2.952   2.553   3.085 -1.5292 -0.3032  2.5144
 7506SOL    HW234152   3.041   2.525   3.184  1.4729  1.7901 -2.1149
 7507SOL     OW34153   1.523   3.835   1.749  0.7285  0.1411  0.0801
 7507SOL    HW134154   1.594   3.843   1.685  1.4950 -1.1055  0.7843
 7507SOL    HW234155   1.534   3.747   1.784  1.2384  0.4096  0.5875
 7508SOL     OW34156   1.352   2.076   6.301  0.2287  0.2603 -0.0403
 7508SOL    HW134157   1.364   2.081   6.206  1.7349  3.1949  0.3017
 7508SOL    HW234158   1.346   2.169   6.325  0.0895 -0.0797  1.2453
 7509SOL     OW34159   4.526   0.257   0.024  0.2215 -0.0627 -0.4279
 7509SOL    HW134160   4.489   0.248   0.111 -1.2765 -1.0080 -1.1731
 7509SOL    HW234161   4.560   0.347   0.030  1.1217 -0.4541  0.2866
 7510SOL     OW34162   3.763   0.715   8.468 -0.5506  0.3926 -0.2420
 7510SOL    HW134163   3.748   0.752   8.555 -0.3036 -2.1237  0.8460
 7510SOL    HW234164   3.693   0.650   8.464 -0.2359  0.1291 -1.3647
 7511SOL     OW34165   2.449   0.261   0.521 -0.1367 -1.0834 -0.2771
 7511SOL    HW134166   2.399   0.180   0.506  0.2486 -0.9201 -2.4506
 7511SOL    HW234167   2.385   0.321   0.559 -0.1727 -1.6701  0.5840
 7512SOL     OW34168   3.989   2.788   3.757 -0.2899 -0.0476 -0.7964
 7512SOL    HW134169   4.027   2.775   3.670 -0.8961  2.1012 -1.3830
 7512SOL    HW234170   4.018   2.710   3.804  1.3243  1.0389  0.0153
 7513SOL     OW34171   1.495   0.657  13.395  0.3027 -0.0265 -0.0908
 7513SOL    HW134172   1.500   0.565  13.420 -1.3060 -0.1147 -0.0883
 7513SOL    HW234173   1.440   0.637  13.319 -0.6997 -0.1954  0.6932
 7514SOL     OW34174   0.583   4.571  12.902 -0.5289  0.3662  0.1685
 7514SOL    HW134175   0.640   4.554  12.978 -0.0436  2.5674  0.2826
 7514SOL    HW234176   0.638   4.630  12.851 -1.4665  0.9767 -0.1378
 7515SOL     OW34177   3.120   4.329   4.347 -1.0279 -0.7155 -0.0232
 7515SOL    HW134178   3.072   4.408   4.320  0.3152  0.9458  2.4469
 7515SOL    HW234179   3.081   4.269   4.284 -3.0871 -0.4046  0.9287
 7516SOL     OW34180   3.933   0.465   7.399  0.0723 -0.1971 -0.3117
 7516SOL    HW134181   3.929   0.406   7.475  2.6555 -0.7793 -0.6300
 7516SOL    HW234182   3.997   0.427   7.340  0.5505  0.3106 -0.1147
 7517SOL     OW34183   0.132   2.788   7.458  0.0456  0.4991 -0.2351
 7517SOL    HW134184   0.057   2.814   7.512 -1.0428 -2.3736 -0.3691
 7517SOL    HW234185   0.103   2.824   7.374  0.4943  0.3336 -0.4613
 7518SOL     OW34186   3.347   1.638   8.457  0.1092 -0.1944  0.1594
 7518SOL    HW134187   3.376   1.634   8.366  0.7556  0.5807  0.3279
 7518SOL    HW234188   3.332   1.545   8.477  2.1731 -0.9378 -1.6866
 7519SOL     OW34189   1.627   0.345   7.350 -0.1047  0.0907 -0.3347
 7519SOL    HW134190   1.601   0.275   7.291  0.9389  1.4317 -2.4027
 7519SOL    HW234191   1.599   0.422   7.301  2.3223  0.7393 -0.7007
 7520SOL     OW34192   0.877   1.333  14.224  0.1709  0.3770 -0.0977
 7520SOL    HW134193   0.861   1.267  14.157  0.4638 -1.8021  1.9525
 7520SOL    HW234194   0.797   1.332  14.276  0.6269 -0.2007  0.5930
 7521SOL     OW34195   3.294   4.273   1.775  0.2926  0.8971 -0.1745
 7521SOL    HW134196   3.293   4.222   1.856 -0.3981  0.2559 -0.5835
 7521SOL    HW234197   3.209   4.249   1.739  0.6528 -1.5473  0.6012
 7522SOL     OW34198   1.704   1.982  15.672 -0.4281 -0.2571 -0.1820
 7522SOL    HW134199   1.700   2.070  15.708 -0.8042  0.3737 -1.7417
 7522SOL    HW234200   1.780   1.942  15.715  0.1300  0.7320 -0.2536
 7523SOL     OW34201   2.538   1.177  16.318 -0.5091  0.2000  0.6910
 7523SOL    HW134202   2.498   1.149  16.236  1.1927  2.5360 -0.9378
 7523SOL    HW234203   2.560   1.265  16.287 -0.1078 -0.0496  0.2643
 7524SOL     OW34204   0.816   3.233   6.314 -0.5850 -0.3207  0.3921
 7524SOL    HW134205   0.831   3.140   6.302 -1.3648 -0.6585  2.1159
 7524SOL    HW234206   0.810   3.259   6.222 -0.2266 -0.1216  0.4245
 7525SOL     OW34207   3.745   3.530  10.267 -0.0088 -0.1352  0.4708
 7525SOL    HW134208   3.731   3.577  10.349 -2.2423 -3.1638  1.8099
 7525SOL    HW234209   3.667   3.552  10.217 -2.3022 -4.4343  2.2140
 7526SOL     OW34210   4.257   2.967   2.941 -0.3446 -0.5672 -0.3834
 7526SOL    HW134211   4.257   3.040   3.002 -0.0607 -1.2370  0.4259
 7526SOL    HW234212   4.191   2.906   2.975 -2.3858  2.3989  0.9032
 7527SOL     OW34213   4.127   3.837   3.847  0.0097  0.4704 -0.1127
 7527SOL    HW134214   4.062   3.799   3.905  1.1731  1.0464  1.5833
 7527SOL    HW234215   4.103   3.805   3.760 -0.1456 -1.0114  0.4751
 7528SOL     OW34216   4.280   0.255   1.742 -0.6680  0.0281  0.0668
 7528SOL    HW134217   4.229   0.313   1.799  0.2784  0.8075  0.1484
 7528SOL    HW234218   4.369   0.285   1.762 -1.7300  1.2128  3.0275
 7529SOL     OW34219   2.197   3.805   4.069 -0.1233 -0.6764 -0.3487
 7529SOL    HW134220   2.266   3.760   4.118 -2.3925 -0.9867  2.5240
 7529SOL    HW234221   2.250   3.838   3.996  0.8060  0.7292  0.9256
 7530SOL     OW34222   3.811   3.688   4.634  0.2963 -0.2977 -0.0058
 7530SOL    HW134223   3.827   3.704   4.727 -0.3244 -0.4379  0.1234
 7530SOL    HW234224   3.833   3.776   4.603  0.7777 -1.4660 -2.9773
 7531SOL     OW34225   3.602   0.848   2.743  0.1156 -0.2114  0.4481
 7531SOL    HW134226   3.697   0.847   2.750 -0.2375  1.7253  6.1307
 7531SOL    HW234227   3.573   0.917   2.804  1.5182  0.9523 -0.2096
 7532SOL     OW34228   3.406   3.799   8.462  0.5836 -0.0147 -0.4882
 7532SOL    HW134229   3.464   3.732   8.425 -1.4503 -1.9964 -0.1092
 7532SOL    HW234230   3.330   3.746   8.485 -0.5004  1.6846 -0.1844
 7533SOL     OW34231   1.039   2.748   8.580 -0.3824 -0.1114  0.0979
 7533SOL    HW134232   1.071   2.715   8.497  1.7019 -3.0779  2.1002
 7533SOL    HW234233   1.088   2.690   8.638 -0.0742 -0.7568 -0.8164
 7534SOL     OW34234   2.325   4.714   2.348 -0.4183 -0.3965  0.1393
 7534SOL    HW134235   2.246   4.662   2.332  0.0668 -0.9998 -0.2920
 7534SOL    HW234236   2.332   4.736   2.441 -1.0341 -2.0486  0.5785
 7535SOL     OW34237   3.796   3.194  11.980 -0.5871  0.3481 -0.0311
 7535SOL    HW134238   3.748   3.146  12.047  0.0005  0.3353  0.3812
 7535SOL    HW234239   3.775   3.285  12.003  1.1518  1.0530 -1.2124
 7536SOL     OW34240   0.805   1.734  13.301  0.5942 -0.2976  0.5394
 7536SOL    HW134241   0.716   1.702  13.316  0.3943  0.0434  0.0977
 7536SOL    HW234242   0.787   1.799  13.233  2.6206  0.1201  0.4161
 7537SOL     OW34243   0.832   0.583   3.009  0.0187  0.3249  0.8586
 7537SOL    HW134244   0.906   0.587   2.949 -0.1861 -2.8010  0.3934
 7537SOL    HW234245   0.808   0.676   3.008  0.2547  0.3844  0.6528
 7538SOL     OW34246   4.475   2.635   3.338  0.0015  0.3791 -0.1972
 7538SOL    HW134247   4.427   2.555   3.358 -0.4499  0.7425  0.1725
 7538SOL    HW234248   4.549   2.598   3.291  0.8451  1.9557 -0.1364
 7539SOL     OW34249   3.731   1.822  14.968 -0.3520  0.3320  0.7530
 7539SOL    HW134250   3.675   1.897  14.949 -0.6332 -0.1286 -0.2140
 7539SOL    HW234251   3.788   1.841  14.894 -0.3014 -1.1407  0.4106
 7540SOL     OW34252   4.142   4.220  15.540 -0.3528 -0.2023  0.3347
 7540SOL    HW134253   4.065   4.257  15.584  0.0298 -1.1906  1.8271
 7540SOL    HW234254   4.101   4.169  15.470  1.4479 -1.9091  0.5483
 7541SOL     OW34255   2.383   2.910  16.141 -0.2651  0.0950 -0.5013
 7541SOL    HW134256   2.320   2.838  16.135 -0.7906  0.7016 -2.3168
 7541SOL    HW234257   2.465   2.865  16.119 -0.0484  0.1776  0.1506
 7542SOL     OW34258   2.310   0.114  12.762 -0.3723  0.0282  0.0610
 7542SOL    HW134259   2.220   0.082  12.771 -1.1408  1.8128 -1.2091
 7542SOL    HW234260   2.319   0.115  12.858  0.2674 -1.5268  0.0104
 7543SOL     OW34261   1.947   2.463   7.261  0.2376  0.0763 -0.2333
 7543SOL    HW134262   2.028   2.420   7.234 -0.0495 -0.8788  0.4387
 7543SOL    HW234263   1.884   2.392   7.271  1.6863 -1.0208  0.9939
 7544SOL     OW34264   3.548   4.097   4.675 -0.6571 -0.1078 -0.1694
 7544SOL    HW134265   3.590   4.088   4.761  2.1106 -0.0879 -1.5226
 7544SOL    HW234266   3.454   4.099   4.695 -0.4563 -1.8217  0.9577
 7545SOL     OW34267   0.213   0.936   7.077  0.3088  0.3259 -0.3339
 7545SOL    HW134268   0.204   0.882   7.156  2.0458 -1.1667 -1.1544
 7545SOL    HW234269   0.276   0.880   7.032 -0.3786 -0.7129 -0.0093
 7546SOL     OW34270   0.112   0.240   8.117 -0.0467  0.4982  0.0869
 7546SOL    HW134271   0.116   0.221   8.210 -0.0178 -0.2015 -0.0579
 7546SOL    HW234272   0.096   0.333   8.130 -2.6615  0.1052 -0.1977
 7547SOL     OW34273   1.047   3.120   6.013  0.2204 -0.4091 -0.3187
 7547SOL    HW134274   0.962   3.153   6.042 -0.1661  0.6663 -2.6692
 7547SOL    HW234275   1.055   3.169   5.931  3.0683 -2.7160 -1.4312
 7548SOL     OW34276   3.507   4.162  12.594 -0.1258  0.2956 -0.0368
 7548SOL    HW134277   3.585   4.173  12.540 -0.0012  3.7866  0.8343
 7548SOL    HW234278   3.499   4.255  12.617  0.4216  0.2237  0.4369
 7549SOL     OW34279   1.209   2.836   9.490  0.2757 -0.1189 -0.0112
 7549SOL    HW134280   1.209   2.915   9.545  0.9512 -0.3199  0.2698
 7549SOL    HW234281   1.293   2.850   9.448  0.4342  0.3352  0.4476
 7550SOL     OW34282   4.735   0.825   0.586  0.2153 -0.2365 -0.3441
 7550SOL    HW134283   4.653   0.790   0.621  1.7063 -2.1092  1.3339
 7550SOL    HW234284   0.059   0.801   0.657  1.4042 -0.6764 -1.4970
 7551SOL     OW34285   1.670   4.297  10.152  0.1383 -0.3790  0.3424
 7551SOL    HW134286   1.676   4.380  10.106  1.0419  0.3215  1.7453
 7551SOL    HW234287   1.746   4.246  10.122 -0.0200  0.0404 -0.7930
 7552SOL     OW34288   2.998   2.840   8.409 -0.0854 -0.0741 -0.1823
 7552SOL    HW134289   3.037   2.831   8.496  1.9593  0.9814 -1.0092
 7552SOL    HW234290   3.037   2.758   8.381  4.8909  2.5997 -0.9977
 7553SOL     OW34291   2.264   0.552  14.869 -0.3234  0.4106  0.0347
 7553SOL    HW134292   2.278   0.555  14.964 -1.8209  0.5690  0.2546
 7553SOL    HW234293   2.356   0.543  14.844 -1.6749 -0.0061 -4.8996
 7554SOL     OW34294   1.251   3.755  14.983  0.5197  0.2094 -0.2240
 7554SOL    HW134295   1.200   3.754  15.064 -0.2330  0.2044 -0.6998
 7554SOL    HW234296   1.336   3.793  15.008  0.3113  1.1188 -0.9146
 7555SOL     OW34297   4.479   3.881   6.860 -0.0746 -0.3887 -0.4730
 7555SOL    HW134298   4.567   3.847   6.874  0.0064  0.3391  0.7512
 7555SOL    HW234299   4.432   3.798   6.863 -0.8359  0.0964  0.6950
 7556SOL     OW34300   4.649   2.589   8.086  0.0889 -0.4486  0.3745
 7556SOL    HW134301   4.585   2.621   8.148  0.3368 -1.6949  1.2689
 7556SOL    HW234302   4.730   2.600   8.137  0.3868  2.5526 -0.7459
 7557SOL     OW34303   1.500   4.264   2.176 -0.0833 -0.2805  0.6668
 7557SOL    HW134304   1.582   4.310   2.157 -0.8896 -0.1592 -2.4964
 7557SOL    HW234305   1.458   4.270   2.090 -0.1676  0.9499  0.7840
 7558SOL     OW34306   0.513   1.543   9.139  0.4493  0.0130  0.2583
 7558SOL    HW134307   0.448   1.609   9.118  0.6632  0.2435  0.3240
 7558SOL    HW234308   0.458   1.464   9.139  0.0539  0.2919 -2.8142
 7559SOL     OW34309   4.233   1.004   9.523 -0.0493  0.2494 -0.0584
 7559SOL    HW134310   4.169   0.934   9.512 -0.3685  0.4327  0.6713
 7559SOL    HW234311   4.188   1.088   9.530 -1.0330 -0.4397  1.8510
 7560SOL     OW34312   1.107   2.496   3.207  0.2425  0.1523  0.4292
 7560SOL    HW134313   1.186   2.495   3.154  0.6283 -1.2730  1.0249
 7560SOL    HW234314   1.136   2.515   3.296  2.6104 -1.5908  0.0362
 7561SOL     OW34315   1.430   0.635   9.509 -0.6230 -0.0611  0.7678
 7561SOL    HW134316   1.397   0.690   9.580  0.1125 -0.2287  1.2419
 7561SOL    HW234317   1.368   0.646   9.437  0.9200  1.8285 -0.2670
 7562SOL     OW34318   3.855   0.410  13.016 -0.3749 -0.5811 -0.1944
 7562SOL    HW134319   3.931   0.388  13.070 -1.3503 -0.5826  1.1859
 7562SOL    HW234320   3.792   0.341  13.037  0.6345 -1.2190  0.7684
 7563SOL     OW34321   4.010   4.263  11.227  0.2658 -0.5846  0.5156
 7563SOL    HW134322   4.086   4.262  11.285 -0.0473 -1.6274  0.9192
 7563SOL    HW234323   3.961   4.184  11.253 -1.6336  0.7722  1.0726
 7564SOL     OW34324   1.913   1.975   7.416 -0.2028 -0.0988  0.6087
 7564SOL    HW134325   1.921   1.935   7.503  1.0453  0.6938  0.8586
 7564SOL    HW234326   1.856   2.049   7.433  0.2936  0.5180 -0.4127
 7565SOL     OW34327   0.146   0.206   9.427 -0.3015  0.0046 -0.2376
 7565SOL    HW134328   0.130   0.206   9.333  0.9311  0.5429 -0.4535
 7565SOL    HW234329   0.207   0.280   9.436  0.9971 -1.0786 -0.1473
 7566SOL     OW34330   0.337   1.730   2.078  0.3745  0.5568  0.0579
 7566SOL    HW134331   0.343   1.689   2.164  0.5807 -0.0912 -0.2656
 7566SOL    HW234332   0.351   1.657   2.018 -0.1856  0.9429 -0.5423
 7567SOL     OW34333   2.163   3.251  15.405  0.3098  0.5248 -0.2809
 7567SOL    HW134334   2.077   3.223  15.435  0.7321 -0.8495 -0.3401
 7567SOL    HW234335   2.155   3.269  15.311  0.5071 -0.5479 -0.5046
 7568SOL     OW34336   2.305   3.882  15.764  0.4873  0.1868 -0.6632
 7568SOL    HW134337   2.249   3.946  15.720 -0.3039 -0.9584 -1.3344
 7568SOL    HW234338   2.316   3.930  15.846  0.6201 -0.5903 -0.2244
 7569SOL     OW34339   2.606   1.904   6.673 -0.2345 -0.6810 -0.5480
 7569SOL    HW134340   2.513   1.918   6.657 -0.3345 -1.1574 -0.3675
 7569SOL    HW234341   2.634   1.850   6.599  0.8056 -1.1069  0.1514
 7570SOL     OW34342   0.785   2.391   2.973 -0.7325 -0.8247  0.3954
 7570SOL    HW134343   0.824   2.461   2.919 -2.8279  0.2339  0.2441
 7570SOL    HW234344   0.696   2.399   2.938 -1.2906 -3.2047  1.3170
 7571SOL     OW34345   0.958   0.368   4.553  0.5870 -0.2221 -0.2475
 7571SOL    HW134346   1.040   0.326   4.579 -0.1043 -1.9379 -0.8676
 7571SOL    HW234347   0.941   0.311   4.478 -0.1357  1.8482 -1.6710
 7572SOL     OW34348   0.524   0.203   5.560  0.3297  0.3170 -0.1107
 7572SOL    HW134349   0.582   0.262   5.608  0.7758 -1.8935  2.0825
 7572SOL    HW234350   0.589   0.183   5.493  0.2761  0.3717 -0.1798
 7573SOL     OW34351   2.860   0.510   3.441  0.3671 -0.0677  0.3312
 7573SOL    HW134352   2.915   0.581   3.471 -1.9313  0.7274  2.6666
 7573SOL    HW234353   2.883   0.499   3.348  1.3285 -0.6722  0.6350
 7574SOL     OW34354   3.755   3.561   1.443 -0.3602  0.5589  0.2627
 7574SOL    HW134355   3.710   3.532   1.522 -0.0828 -0.1840  0.1548
 7574SOL    HW234356   3.824   3.495   1.451 -0.7428  0.0548 -0.5380
 7575SOL     OW34357   1.782   4.516   9.508  0.1230  0.0926  0.0649
 7575SOL    HW134358   1.694   4.522   9.545  0.1770 -4.3353  0.9355
 7575SOL    HW234359   1.768   4.468   9.427  0.3015  1.5467 -0.8306
 7576SOL     OW34360   3.650   2.067   4.353 -0.1340 -0.1910 -0.0883
 7576SOL    HW134361   3.711   2.002   4.319  2.3981  1.8505  0.5479
 7576SOL    HW234362   3.631   2.026   4.437 -1.7573  0.8269  0.0567
 7577SOL     OW34363   0.452   4.088   8.200 -0.3542  0.5434  0.4537
 7577SOL    HW134364   0.455   4.182   8.180  0.5074  0.1709 -1.1830
 7577SOL    HW234365   0.483   4.097   8.290 -0.5458  1.3438  0.4481
 7578SOL     OW34366   3.943   4.420   3.373 -0.0357 -0.4522 -0.4854
 7578SOL    HW134367   3.964   4.455   3.286  1.4149 -2.9085 -1.1222
 7578SOL    HW234368   3.915   4.504   3.409 -0.8321 -1.3039  0.9059
 7579SOL     OW34369   4.607   4.616   7.717 -0.0941 -0.2653  0.1391
 7579SOL    HW134370   4.680   4.675   7.736 -0.3052  0.3738 -1.0177
 7579SOL    HW234371   4.641   4.527   7.712  1.8429  0.6565 -3.5894
 7580SOL     OW34372   3.669   1.160   9.608 -0.6170 -0.4097  0.3819
 7580SOL    HW134373   3.603   1.091   9.618 -0.7335 -0.6843 -2.4188
 7580SOL    HW234374   3.688   1.181   9.700 -1.5139  0.6445  0.3290
 7581SOL     OW34375   2.515   3.412   2.993 -0.1476 -0.2359  0.2734
 7581SOL    HW134376   2.601   3.456   2.996 -0.5079  0.5805 -1.2839
 7581SOL    HW234377   2.482   3.455   2.914  0.8280  1.0305  0.5484
 7582SOL     OW34378   2.474   1.686  14.145  0.0004 -0.2895  0.2337
 7582SOL    HW134379   2.378   1.688  14.151 -0.0804  0.4616 -1.1335
 7582SOL    HW234380   2.504   1.774  14.166 -0.0330  0.1187 -1.4105
 7583SOL     OW34381   4.635   4.329   2.994  0.1114 -0.2175 -0.3028
 7583SOL    HW134382   4.608   4.419   2.977 -1.1735 -0.4455  0.5628
 7583SOL    HW234383   4.561   4.281   2.955 -0.7466 -1.6371  3.1326
 7584SOL     OW34384   0.916   0.481   4.222  0.1022 -0.4528  0.0826
 7584SOL    HW134385   0.827   0.491   4.255  0.6026 -1.8652  1.8937
 7584SOL    HW234386   0.928   0.386   4.229 -1.2277 -0.6544 -0.3648
 7585SOL     OW34387   0.190   4.717   6.674  0.0557 -0.2527 -0.1744
 7585SOL    HW134388   0.248   0.044   6.630 -0.8831  2.2922  2.2275
 7585SOL    HW234389   0.144   0.036   6.736  1.9151 -0.9869  1.8520
 7586SOL     OW34390   4.496   2.050  13.526  0.1853 -0.3788 -0.2494
 7586SOL    HW134391   4.417   2.070  13.476  1.2520  0.2318 -1.6868
 7586SOL    HW234392   4.464   1.966  13.560  0.6291 -1.0185 -1.4417
 7587SOL     OW34393   1.035   1.649   8.568 -0.0764 -0.2020  0.0007
 7587SOL    HW134394   1.101   1.689   8.625  1.8102 -1.4785 -1.2679
 7587SOL    HW234395   1.066   1.559   8.576  2.2717  0.7443  1.7595
 7588SOL     OW34396   0.332   1.819  16.021 -0.6233  0.1336  0.1057
 7588SOL    HW134397   0.248   1.853  15.988  0.1718  1.7205 -0.2542
 7588SOL    HW234398   0.315   1.725  16.013 -1.8768  0.2660  1.0736
 7589SOL     OW34399   3.834   2.608   5.549 -0.0486  0.0111 -0.7728
 7589SOL    HW134400   3.924   2.611   5.583  0.2132  1.9470 -1.6240
 7589SOL    HW234401   3.844   2.636   5.458  0.9932 -0.4042 -0.7840
 7590SOL     OW34402   3.642   4.699  15.463 -0.4913 -0.1465  0.1563
 7590SOL    HW134403   3.550   4.675  15.456 -0.0180 -1.7065 -0.7484
 7590SOL    HW234404   3.691   4.634  15.413 -1.7216 -1.5355  0.7483
 7591SOL     OW34405   0.433   2.130  15.144 -0.5575 -0.0705 -0.4687
 7591SOL    HW134406   0.516   2.178  15.143 -0.3010 -0.5670 -2.6346
 7591SOL    HW234407   0.413   2.124  15.237 -0.4757  1.1929 -0.3631
 7592SOL     OW34408   4.345   2.408   6.926  0.4482 -0.4149  0.2072
 7592SOL    HW134409   4.285   2.342   6.960 -0.4217  0.2795  0.0423
 7592SOL    HW234410   4.322   2.475   6.990 -1.3438  0.8109 -1.7153
 7593SOL     OW34411   1.236   2.944   8.484  0.2019 -0.1611  0.0117
 7593SOL    HW134412   1.170   2.878   8.505 -0.5349  0.4451 -0.3601
 7593SOL    HW234413   1.273   2.967   8.569  0.0114 -1.6841  0.4964
 7594SOL     OW34414   3.575   0.563   8.916  0.2025 -0.2181  0.9606
 7594SOL    HW134415   3.559   0.539   9.007  0.0490 -0.5823  0.8389
 7594SOL    HW234416   3.662   0.602   8.925  0.7632 -0.6394 -2.6305
 7595SOL     OW34417   3.830   4.248  14.431  0.3119 -0.6228 -0.2999
 7595SOL    HW134418   3.803   4.168  14.387 -2.2300  0.4386 -0.6667
 7595SOL    HW234419   3.793   4.314  14.373  2.3799  1.3542  0.6468
 7596SOL     OW34420   4.126   2.050   3.491  0.2599 -0.3096  0.0663
 7596SOL    HW134421   4.221   2.062   3.484 -0.1866  2.6461 -0.6918
 7596SOL    HW234422   4.114   2.056   3.396 -2.0883 -0.0107  0.3881
 7597SOL     OW34423   3.542   2.242   2.795 -0.1639  0.7741 -0.3253
 7597SOL    HW134424   3.538   2.155   2.756 -3.6920  0.1780  1.3603
 7597SOL    HW234425   3.626   2.271   2.760  0.4444  0.0368  0.5178
 7598SOL     OW34426   2.141   1.967   9.158  0.0618 -0.5112  0.4085
 7598SOL    HW134427   2.092   2.049   9.168  0.9347  0.0675 -0.1023
 7598SOL    HW234428   2.178   1.952   9.245 -1.6440  0.8330  1.3666
 7599SOL     OW34429   0.797   4.163   3.936  0.0165 -0.0289  0.3969
 7599SOL    HW134430   0.839   4.249   3.930  1.4813 -0.7230  0.8800
 7599SOL    HW234431   0.806   4.138   4.028  0.1008  1.7476  0.8760
 7600SOL     OW34432   3.691   0.988   9.327 -0.1014  1.0608 -0.1109
 7600SOL    HW134433   3.649   0.909   9.293  3.8316 -1.0210 -0.1429
 7600SOL    HW234434   3.753   0.949   9.388 -1.2269 -0.0203  0.3408
 7601SOL     OW34435   2.632   0.228   6.303  0.2504  0.3348  0.0157
 7601SOL    HW134436   2.598   0.310   6.339  3.1085  1.1894  0.8452
 7601SOL    HW234437   2.652   0.270   6.219 -1.2774 -1.5691 -1.2848
 7602SOL     OW34438   1.086   4.568   3.633 -0.1935  0.7247  0.3122
 7602SOL    HW134439   1.129   4.505   3.690  1.8188  0.6585 -1.2892
 7602SOL    HW234440   1.045   4.510   3.568 -0.0687 -0.1230  0.9919
 7603SOL     OW34441   2.072   3.704  11.766  0.1391  0.6142  0.0609
 7603SOL    HW134442   2.085   3.637  11.699 -1.0655 -0.7871  1.2218
 7603SOL    HW234443   2.014   3.655  11.825  0.6470  0.4404  0.4212
 7604SOL     OW34444   4.087   2.628   5.662  0.1354 -0.4858  0.1695
 7604SOL    HW134445   4.107   2.540   5.692 -0.5367  0.0631  2.2258
 7604SOL    HW234446   4.173   2.669   5.665 -0.2797  0.3132  1.0228
 7605SOL     OW34447   0.859   3.541   4.051  0.1264 -0.2201  0.1255
 7605SOL    HW134448   0.890   3.489   4.124  0.2662  0.5758  0.6290
 7605SOL    HW234449   0.836   3.622   4.096  1.5132 -0.7930  1.8054
 7606SOL     OW34450   2.307   4.274   4.627 -0.4270 -0.1434 -0.4793
 7606SOL    HW134451   2.258   4.213   4.683  1.1239  0.6880  1.7914
 7606SOL    HW234452   2.394   4.236   4.635 -0.3255  0.4019  1.0132
 7607SOL     OW34453   3.824   3.675   5.683  0.4936  0.0204 -0.8609
 7607SOL    HW134454   3.901   3.675   5.739  0.2228 -0.0806 -0.4909
 7607SOL    HW234455   3.799   3.585   5.703 -0.3922  0.4577 -0.0315
 7608SOL     OW34456   0.566   2.284   5.789  0.2354 -0.0370 -0.3064
 7608SOL    HW134457   0.508   2.359   5.785 -1.6394 -1.4065  1.6469
 7608SOL    HW234458   0.518   2.225   5.846  1.4519  0.7485  1.5257
 7609SOL     OW34459   1.264   1.486   1.756  0.1754  0.0318  0.5069
 7609SOL    HW134460   1.221   1.443   1.830  3.6111 -2.2020  1.1751
 7609SOL    HW234461   1.214   1.567   1.749  2.1056  1.0887 -1.1618
 7610SOL     OW34462   3.381   0.493   0.807  0.0904  0.3126 -0.7671
 7610SOL    HW134463   3.474   0.473   0.819 -0.1327 -0.5510 -0.4277
 7610SOL    HW234464   3.388   0.577   0.762  1.2568 -0.4024 -1.9160
 7611SOL     OW34465   2.942   3.923   6.617 -0.0187 -0.0968  0.3927
 7611SOL    HW134466   2.965   3.834   6.644  1.0248 -0.0459 -0.3231
 7611SOL    HW234467   2.996   3.976   6.676 -4.0317  0.1902  3.8384
 7612SOL     OW34468   0.293   3.613   6.197  0.3934  0.0340 -0.0229
 7612SOL    HW134469   0.352   3.617   6.273  1.0535 -0.1008 -0.5298
 7612SOL    HW234470   0.280   3.706   6.178 -2.0787  0.5230  4.1023
 7613SOL     OW34471   0.072   0.989  15.330 -0.3026  0.6373  0.2831
 7613SOL    HW134472   4.732   1.042  15.351  0.3533  1.7414 -0.1457
 7613SOL    HW234473   0.136   1.022  15.393 -1.4948  1.2816  1.1421
 7614SOL     OW34474   2.406   4.206   5.558 -0.7611  0.0659  0.2686
 7614SOL    HW134475   2.311   4.195   5.559 -1.0361  2.1870 -1.6343
 7614SOL    HW234476   2.404   4.301   5.548 -1.8093 -0.1429 -1.7453
 7615SOL     OW34477   4.681   4.285   2.489  0.0043 -0.3777  0.2264
 7615SOL    HW134478   4.586   4.279   2.495  0.2363 -2.7579  1.6071
 7615SOL    HW234479   4.706   4.375   2.509 -2.2086  0.5453 -1.1790
 7616SOL     OW34480   3.909   0.605   4.152 -0.1100  0.0858 -0.0918
 7616SOL    HW134481   3.843   0.574   4.089  0.3320  2.7721 -1.8581
 7616SOL    HW234482   3.930   0.695   4.128  3.1462 -1.1482 -1.9388
 7617SOL     OW34483   0.476   4.580  16.500  0.1365 -0.2034 -0.3590
 7617SOL    HW134484   0.391   4.602  16.462  0.5306  1.8337 -0.0792
 7617SOL    HW234485   0.531   4.620  16.433  0.2544  3.1532  1.7541
 7618SOL     OW34486   2.909   4.632   7.590 -0.0008 -0.1624 -0.5196
 7618SOL    HW134487   2.830   4.686   7.590 -0.8355 -1.3698 -0.4182
 7618SOL    HW234488   2.919   4.610   7.682  1.2887  2.0109 -0.1750
 7619SOL     OW34489   0.695   2.538   9.644 -1.1263  0.0917 -0.2812
 7619SOL    HW134490   0.673   2.577   9.559  0.5952  1.9171  0.1182
 7619SOL    HW234491   0.621   2.477   9.655  0.1066 -1.2965  0.2693
 7620SOL     OW34492   3.178   3.258   3.175 -0.0082 -0.8297  0.6032
 7620SOL    HW134493   3.156   3.188   3.113 -0.1129 -0.3545  0.1049
 7620SOL    HW234494   3.261   3.218   3.200  0.6839  0.1871 -0.0646
 7621SOL     OW34495   0.373   1.137   8.880  0.1256 -0.1146 -0.7250
 7621SOL    HW134496   0.387   1.070   8.947 -2.3365 -0.3060 -0.4057
 7621SOL    HW234497   0.374   1.215   8.935 -2.6037 -0.2833 -0.4396
 7622SOL     OW34498   3.200   2.486  13.063  0.4712  0.2185  0.0306
 7622SOL    HW134499   3.120   2.517  13.105 -0.9737 -1.1658 -1.6858
 7622SOL    HW234500   3.177   2.398  13.030 -1.0878  0.4147  0.6028
 7623SOL     OW34501   0.432   3.780  13.014  0.2371 -0.5271  0.2194
 7623SOL    HW134502   0.364   3.828  13.062 -0.4024 -2.0276  0.8090
 7623SOL    HW234503   0.443   3.823  12.929  0.0632 -1.4299 -0.2550
 7624SOL     OW34504   0.076   1.989   9.634  0.2658  0.0594  0.4136
 7624SOL    HW134505   0.037   2.056   9.689 -2.8571 -0.5022 -1.1282
 7624SOL    HW234506   0.169   1.997   9.655  0.3248  0.2200  0.1038
 7625SOL     OW34507   3.220   3.077  10.515  0.2504  0.1442  0.1984
 7625SOL    HW134508   3.298   3.091  10.461  0.1029 -0.6372 -0.2151
 7625SOL    HW234509   3.200   2.984  10.502  2.5353 -0.2889 -0.3397
 7626SOL     OW34510   1.555   2.464   8.048 -0.6407 -0.8779 -0.1159
 7626SOL    HW134511   1.650   2.461   8.052 -0.5329 -0.3639 -2.2564
 7626SOL    HW234512   1.541   2.439   7.957 -1.1617 -0.2844 -0.1964
 7627SOL     OW34513   4.297   4.526   3.148  0.3195  0.3502  0.4844
 7627SOL    HW134514   4.235   4.585   3.107 -0.5694  0.3656  1.8742
 7627SOL    HW234515   4.316   4.573   3.229 -1.8789  2.7042 -0.3666
 7628SOL     OW34516   2.654   0.438   8.185 -0.2394  0.0211  0.5591
 7628SOL    HW134517   2.634   0.461   8.276 -1.0356  0.3533  0.2923
 7628SOL    HW234518   2.742   0.470   8.166  0.0680  0.3484  2.4689
 7629SOL     OW34519   4.385   0.980   7.510 -0.2386 -0.4491 -0.5666
 7629SOL    HW134520   4.398   1.044   7.440 -0.6337 -2.1382 -2.1819
 7629SOL    HW234521   4.427   1.030   7.580 -2.2845  0.9695 -0.3379
 7630SOL     OW34522   1.011   3.332   8.115 -0.0793  0.3097 -0.0260
 7630SOL    HW134523   1.041   3.370   8.033  1.1435 -0.7718 -0.0746
 7630SOL    HW234524   0.928   3.287   8.097 -0.4568  0.9953 -0.0107
 7631SOL     OW34525   3.127   0.912  14.724  0.7087  0.5284 -0.0041
 7631SOL    HW134526   3.049   0.873  14.684  0.9006  0.5074 -0.3602
 7631SOL    HW234527   3.139   0.845  14.792  0.3283  0.6990  0.2305
 7632SOL     OW34528   0.295   2.182   3.999  0.3144  0.2374 -0.0773
 7632SOL    HW134529   0.243   2.202   4.076  2.0302  0.4773  1.0263
 7632SOL    HW234530   0.291   2.266   3.952  0.7332  0.1420 -0.2911
 7633SOL     OW34531   3.275   1.210  12.902 -0.4416 -0.2181  0.3385
 7633SOL    HW134532   3.254   1.298  12.871  0.3738 -0.5834 -1.2588
 7633SOL    HW234533   3.187   1.176  12.916  0.3423 -1.1399  3.0305
 7634SOL     OW34534   3.693   0.746  17.584 -0.2382  0.2448 -0.7157
 7634SOL    HW134535   3.681   0.658  17.545  1.8342  1.4901 -4.1810
 7634SOL    HW234536   3.599   0.762  17.598  0.1154  1.9491 -0.3343
 7635SOL     OW34537   2.280   2.630   4.452  0.5655  0.8113  0.0757
 7635SOL    HW134538   2.346   2.674   4.398  1.3568 -0.5966 -0.0882
 7635SOL    HW234539   2.341   2.573   4.499  2.2500  2.7354  0.2325
 7636SOL     OW34540   2.784   0.936   6.528 -0.0163  0.2509  0.1050
 7636SOL    HW134541   2.743   0.992   6.593  1.4269  0.4425  0.8453
 7636SOL    HW234542   2.781   0.982   6.444  0.4430  1.1261  0.5661
 7637SOL     OW34543   0.054   3.257   5.661  0.0215 -0.7034 -0.2465
 7637SOL    HW134544   4.700   3.227   5.649 -0.5940  1.2146 -0.4396
 7637SOL    HW234545   0.054   3.283   5.753  1.3321  3.1806 -1.3561
 7638SOL     OW34546   1.059   4.446   8.325  0.1933 -0.2211  0.1550
 7638SOL    HW134547   1.072   4.540   8.333  2.8706 -0.5649 -0.1230
 7638SOL    HW234548   1.010   4.438   8.243 -0.5744 -0.8116  0.6592
 7639SOL     OW34549   3.195   0.657   4.172 -0.6514 -0.5529 -0.4314
 7639SOL    HW134550   3.213   0.696   4.258  0.8233  0.5698 -1.2376
 7639SOL    HW234551   3.100   0.667   4.174 -0.5694 -0.0100  0.8783
 7640SOL     OW34552   1.766   1.956   4.082  0.6061 -0.1664  0.5995
 7640SOL    HW134553   1.855   1.934   4.108 -0.3733 -3.7124  0.9432
 7640SOL    HW234554   1.728   2.002   4.157  0.0636 -0.9149  0.7781
 7641SOL     OW34555   0.674   2.740  13.012 -0.0171  0.6129 -0.1523
 7641SOL    HW134556   0.693   2.781  12.928 -1.9302  0.1359 -0.8125
 7641SOL    HW234557   0.616   2.667  12.990 -1.6666  2.0127 -0.4237
 7642SOL     OW34558   2.108   4.085   6.385 -0.1407  0.1478  0.2995
 7642SOL    HW134559   2.148   4.093   6.298  0.8690 -2.4621  0.5235
 7642SOL    HW234560   2.032   4.029   6.375  0.6165 -1.5218  3.8709
 7643SOL     OW34561   1.365   2.154   8.421 -0.0461  0.4724 -0.6917
 7643SOL    HW134562   1.338   2.149   8.513 -2.9313 -0.1320 -1.5756
 7643SOL    HW234563   1.447   2.203   8.429  0.7867 -0.9171 -0.7227
 7644SOL     OW34564   2.047   4.156   4.457  0.5127  0.4828 -0.4283
 7644SOL    HW134565   2.108   4.085   4.439  0.4117  0.3666 -0.3143
 7644SOL    HW234566   2.088   4.186   4.539 -0.4969  0.4349  0.0910
 7645SOL     OW34567   4.118   3.183   4.315 -0.3634  0.1885  0.0860
 7645SOL    HW134568   4.171   3.263   4.318 -0.8903  0.5378 -0.0731
 7645SOL    HW234569   4.044   3.211   4.261  0.8463  2.8185 -0.2376
 7646SOL     OW34570   3.534   2.707   9.756  0.3881  0.2144  0.6065
 7646SOL    HW134571   3.490   2.763   9.820 -0.0367  1.9473 -1.2166
 7646SOL    HW234572   3.520   2.764   9.681 -2.0518 -1.6219 -0.3285
 7647SOL     OW34573   1.120   3.708   1.839 -0.3528  0.6183  0.1094
 7647SOL    HW134574   1.112   3.660   1.757 -1.6221  2.8274 -1.0732
 7647SOL    HW234575   1.167   3.789   1.817 -0.4956  1.2805  2.2329
 7648SOL     OW34576   0.598   4.382   8.891 -0.2180 -0.5725  0.2981
 7648SOL    HW134577   0.538   4.440   8.844 -0.0624 -1.1453 -0.6068
 7648SOL    HW234578   0.559   4.369   8.978 -0.9725 -0.3219 -0.0022
 7649SOL     OW34579   0.075   2.865   0.308  0.7791 -0.0610 -0.5423
 7649SOL    HW134580   0.149   2.827   0.355 -1.1097 -4.4737 -1.1679
 7649SOL    HW234581   0.077   2.821   0.223 -5.1759  1.8909 -1.7003
 7650SOL     OW34582   4.727   3.503  10.074 -0.2767  0.4553  0.2849
 7650SOL    HW134583   4.731   3.572  10.007  0.5448 -0.0882 -0.2127
 7650SOL    HW234584   0.007   3.426  10.020  1.5593  0.9020  0.2175
 7651SOL     OW34585   2.819   2.781   8.807 -0.1038 -0.4207 -0.0940
 7651SOL    HW134586   2.900   2.788   8.857  0.2482 -0.4412 -0.6658
 7651SOL    HW234587   2.763   2.737   8.872 -1.0805  0.7095 -0.1502
 7652SOL     OW34588   4.676   1.288   2.378  0.2810 -0.1964  0.3863
 7652SOL    HW134589   4.628   1.336   2.310 -0.4560 -0.3614  0.7887
 7652SOL    HW234590   4.604   1.234   2.411 -0.6623  1.7003  1.4162
 7653SOL     OW34591   3.228   3.805  17.389  0.6469  0.6755  0.2844
 7653SOL    HW134592   3.252   3.897  17.377  2.0580  0.4383  1.2204
 7653SOL    HW234593   3.166   3.796  17.461  0.3895 -2.3293 -0.3233
 7654SOL     OW34594   0.415   3.284   4.888  0.4621  0.0485  0.0410
 7654SOL    HW134595   0.344   3.318   4.834 -0.0799  1.3636  1.5762
 7654SOL    HW234596   0.372   3.267   4.972  2.8317 -0.5728  1.1251
 7655SOL     OW34597   3.336   3.398  11.710  0.3757  0.1256 -0.0656
 7655SOL    HW134598   3.379   3.429  11.631  0.0032  2.2169  0.5491
 7655SOL    HW234599   3.412   3.349  11.741 -1.4844 -1.2428  2.4132
 7656SOL     OW34600   2.974   0.341   9.847 -0.2801 -0.2637  0.3075
 7656SOL    HW134601   3.013   0.320   9.932  1.0289 -0.2992 -0.3023
 7656SOL    HW234602   2.886   0.373   9.867 -1.1385 -1.3469 -1.7964
 7657SOL     OW34603   4.600   1.838  16.692 -1.2716  0.1933 -0.0262
 7657SOL    HW134604   4.521   1.876  16.654 -1.6611  0.0303  0.6167
 7657SOL    HW234605   4.643   1.797  16.616 -3.3547 -1.2810 -0.4380
 7658SOL     OW34606   1.783   1.374   3.384 -0.4306 -0.0459 -1.0251
 7658SOL    HW134607   1.871   1.376   3.348  0.3148  0.3319  0.8783
 7658SOL    HW234608   1.735   1.390   3.302 -2.5815 -0.4071  0.1642
 7659SOL     OW34609   3.190   3.647   3.697 -0.2815  0.4500  0.3432
 7659SOL    HW134610   3.107   3.657   3.651  1.5037 -0.7049 -3.0968
 7659SOL    HW234611   3.196   3.731   3.742 -0.7586  0.2499  0.7927
 7660SOL     OW34612   1.461   3.665   8.518  0.2040  0.6666  0.4221
 7660SOL    HW134613   1.504   3.580   8.506  0.1949  0.8826 -1.1438
 7660SOL    HW234614   1.544   3.714   8.516  0.7585 -0.3211 -0.9557
 7661SOL     OW34615   0.058   2.015   4.770  0.0689  0.5056 -0.5936
 7661SOL    HW134616   0.067   1.926   4.802  1.6786  0.8457 -0.1149
 7661SOL    HW234617   0.071   2.004   4.676 -2.3277 -0.9508 -0.7665
 7662SOL     OW34618   4.129   1.064  15.006  0.2471  0.1603 -0.0980
 7662SOL    HW134619   4.180   1.127  14.955  3.3246 -2.4479 -0.2769
 7662SOL    HW234620   4.059   1.110  15.051  1.5359  2.9567 -0.9309
 7663SOL     OW34621   4.648   3.165  10.194 -0.1170 -0.2136 -0.0961
 7663SOL    HW134622   4.644   3.131  10.283  0.5146  0.3730  0.1586
 7663SOL    HW234623   4.588   3.109  10.145  0.8991 -1.0333 -0.4112
 7664SOL     OW34624   4.677   1.987   3.486 -0.2735 -0.6541 -0.3024
 7664SOL    HW134625   4.661   1.929   3.560 -3.6698 -0.0514 -0.5378
 7664SOL    HW234626   0.034   1.968   3.474 -0.4084 -0.6922 -1.3594
 7665SOL     OW34627   3.021   0.428  15.798 -0.9770 -0.0204 -0.0228
 7665SOL    HW134628   3.079   0.431  15.722 -0.6554  2.2689  0.3063
 7665SOL    HW234629   3.065   0.368  15.858  1.6166  0.5014 -1.4112
 7666SOL     OW34630   4.173   4.370   6.435  0.2778 -0.2608 -0.1972
 7666SOL    HW134631   4.190   4.331   6.349  1.2193  1.7708 -0.9501
 7666SOL    HW234632   4.241   4.437   6.445 -0.6021  0.6846 -0.6137
 7667SOL     OW34633   4.483   3.364   7.963  0.1161  0.5648 -0.1282
 7667SOL    HW134634   4.493   3.441   8.020  2.6803  1.0897 -1.3013
 7667SOL    HW234635   4.576   3.347   7.950  0.0433 -0.3772  0.5890
 7668SOL     OW34636   4.572   2.236  10.419 -0.7033 -0.0677  0.3679
 7668SOL    HW134637   4.571   2.154  10.468  2.1692  0.5112  1.4080
 7668SOL    HW234638   4.639   2.283  10.469 -0.0117  1.4303 -1.9645
 7669SOL     OW34639   2.530   1.486   7.155 -0.0627 -1.2004  0.4441
 7669SOL    HW134640   2.551   1.580   7.157 -1.4035 -0.8867  0.1045
 7669SOL    HW234641   2.451   1.496   7.208 -0.9194 -0.0602 -1.0354
 7670SOL     OW34642   2.742   2.019   7.290  0.2709  0.3660 -0.2164
 7670SOL    HW134643   2.783   2.071   7.360 -0.9886 -0.6832  1.3191
 7670SOL    HW234644   2.734   1.937   7.339  0.7445 -0.3476 -1.3449
 7671SOL     OW34645   4.366   1.878  16.540  0.4763 -0.1679 -0.2291
 7671SOL    HW134646   4.331   1.791  16.521  0.0039  0.2521 -1.3039
 7671SOL    HW234647   4.327   1.895  16.625 -0.8772 -1.1779 -0.6431
 7672SOL     OW34648   0.323   2.075  14.556 -0.1593  0.0142 -0.0025
 7672SOL    HW134649   0.375   2.093  14.478  0.7567  1.1271  0.8637
 7672SOL    HW234650   0.338   1.981  14.568 -0.8717 -0.1571 -0.4631
 7673SOL     OW34651   3.168   0.696   5.041 -0.8211  0.1842 -0.6223
 7673SOL    HW134652   3.254   0.728   5.016 -1.8287  2.8385 -0.7386
 7673SOL    HW234653   3.174   0.600   5.042  0.3084  0.2659 -0.5029
 7674SOL     OW34654   4.125   3.227   5.243  0.1589  0.1077 -0.1516
 7674SOL    HW134655   4.099   3.170   5.170 -0.4182  1.2048 -0.8049
 7674SOL    HW234656   4.088   3.182   5.318 -3.1494 -0.0902 -1.9159
 7675SOL     OW34657   2.421   1.997  16.121  0.0470 -0.3810 -0.0900
 7675SOL    HW134658   2.399   1.977  16.030 -0.5003 -0.0463 -0.0300
 7675SOL    HW234659   2.413   2.092  16.118 -3.3891 -0.6471  1.0058
 7676SOL     OW34660   1.726   3.883  10.912  0.5597  0.0307 -0.0326
 7676SOL    HW134661   1.759   3.863  10.824  1.0332 -1.7406  0.5499
 7676SOL    HW234662   1.799   3.938  10.942  0.7707 -1.4153  2.0478
 7677SOL     OW34663   1.807   2.210   5.987 -0.6135  0.0658  0.4131
 7677SOL    HW134664   1.767   2.154   5.921  2.6592 -0.2379 -1.3028
 7677SOL    HW234665   1.899   2.182   5.986 -0.4205  0.7330 -0.1969
 7678SOL     OW34666   0.270   4.128   4.553 -0.1511  0.0283  0.1349
 7678SOL    HW134667   0.325   4.083   4.617  2.5934  1.6125 -1.1043
 7678SOL    HW234668   0.333   4.175   4.498 -0.7743  1.5844  0.7313
 7679SOL     OW34669   0.889   1.697   4.284  0.2962 -0.3009 -0.2441
 7679SOL    HW134670   0.928   1.690   4.371 -1.2605  1.2879  0.5848
 7679SOL    HW234671   0.946   1.762   4.244 -3.0192  1.7170 -1.6431
 7680SOL     OW34672   3.570   4.699   9.446  0.1350 -0.2066  0.0361
 7680SOL    HW134673   3.520   4.639   9.502  0.2100  0.4749  0.8281
 7680SOL    HW234674   3.541   0.048   9.478 -1.3011 -0.2309 -1.1633
 7681SOL     OW34675   0.847   2.089   4.294 -0.0434  0.2134 -0.0752
 7681SOL    HW134676   0.835   2.028   4.221 -3.1381  1.5711 -0.7130
 7681SOL    HW234677   0.760   2.128   4.283 -0.0120  0.7822  1.7890
 7682SOL     OW34678   0.273   1.687   4.477  0.4065  0.4053 -0.0752
 7682SOL    HW134679   0.265   1.601   4.519 -1.9325 -0.7107 -2.8073
 7682SOL    HW234680   0.200   1.664   4.419  1.0300  0.8845 -1.0361
 7683SOL     OW34681   2.639   3.888   5.321  0.5895 -0.0225  0.2772
 7683SOL    HW134682   2.559   3.838   5.310  0.9038 -0.6075  0.6444
 7683SOL    HW234683   2.609   3.971   5.284 -1.4435 -1.2018 -0.6806
 7684SOL     OW34684   1.443   2.870   7.531  0.1316  0.2712 -0.0607
 7684SOL    HW134685   1.499   2.945   7.513  0.4303  0.1449  0.3500
 7684SOL    HW234686   1.464   2.843   7.620  2.8688 -2.4369 -1.5587
 7685SOL     OW34687   1.975   1.775   7.652 -0.2328 -0.5370  0.0487
 7685SOL    HW134688   1.893   1.819   7.630 -0.8753 -2.0183 -0.6112
 7685SOL    HW234689   1.947   1.688   7.682 -0.5897 -1.0353 -1.7230
 7686SOL     OW34690   1.784   2.187   7.551 -0.5204  0.2854 -0.1584
 7686SOL    HW134691   1.694   2.193   7.584 -1.6318 -2.8301 -2.5242
 7686SOL    HW234692   1.837   2.211   7.626 -0.4765  0.8252 -0.3638
 7687SOL     OW34693   2.058   1.924  13.315  0.2623  0.1229 -0.0877
 7687SOL    HW134694   2.037   1.871  13.238  0.4487 -1.3309  0.8516
 7687SOL    HW234695   2.152   1.938  13.310  0.5024 -0.8640  1.8925
 7688SOL     OW34696   3.618   4.632   9.178  0.2286  0.3091 -0.4484
 7688SOL    HW134697   3.566   4.552   9.172  2.3400 -1.1884  0.9523
 7688SOL    HW234698   3.600   4.662   9.267  2.0249  1.8217 -0.5847
 7689SOL     OW34699   3.874   1.585   2.078 -0.5123 -0.0761 -0.5241
 7689SOL    HW134700   3.880   1.490   2.083  2.3260  0.1585  0.2485
 7689SOL    HW234701   3.786   1.610   2.108 -0.8832  0.2572 -1.8830
 7690SOL     OW34702   2.877   3.120   8.010 -0.7256  0.0619 -0.0547
 7690SOL    HW134703   2.902   3.177   7.937  1.3103 -0.1564  0.4685
 7690SOL    HW234704   2.946   3.055   7.998  1.3912  2.0699  1.1686
 7691SOL     OW34705   2.726   2.900   5.785  0.0678 -0.2030 -0.1810
 7691SOL    HW134706   2.712   2.937   5.872  0.8951  1.3125 -0.6994
 7691SOL    HW234707   2.752   2.971   5.726  0.0065 -0.8627 -1.0098
 7692SOL     OW34708   1.187   1.134   5.156  0.0828 -0.1215 -0.3583
 7692SOL    HW134709   1.225   1.051   5.126  0.7923 -0.3042  1.0326
 7692SOL    HW234710   1.163   1.168   5.070  0.8309 -0.6889 -0.7919
 7693SOL     OW34711   0.787   4.287   3.072 -0.0386  0.2531  0.9422
 7693SOL    HW134712   0.720   4.341   3.113  0.6049  1.7274  0.0799
 7693SOL    HW234713   0.786   4.313   2.980 -0.9946 -0.9207  0.6251
 7694SOL     OW34714   1.581   0.756   5.017  0.2194 -0.6183  0.1746
 7694SOL    HW134715   1.585   0.736   4.924 -1.0175  0.0011 -0.0021
 7694SOL    HW234716   1.635   0.684   5.052  0.7762 -0.2312  0.1017
 7695SOL     OW34717   1.853   0.438  10.609 -0.3476  0.0375 -0.2967
 7695SOL    HW134718   1.889   0.354  10.638 -0.8222  0.4312  1.4402
 7695SOL    HW234719   1.905   0.490  10.670  0.2903 -0.8774 -0.0669
 7696SOL     OW34720   2.431   4.374   7.642 -0.3108 -0.1293 -0.5184
 7696SOL    HW134721   2.395   4.439   7.582 -1.0505  0.4413  0.5370
 7696SOL    HW234722   2.387   4.395   7.725  1.2796  0.1422  0.2565
 7697SOL     OW34723   0.920   3.522  16.923  0.1323 -0.3449 -0.3302
 7697SOL    HW134724   0.879   3.533  17.009  1.0195 -1.7524  0.2874
 7697SOL    HW234725   1.006   3.564  16.923  0.8603 -1.8251 -1.1315
 7698SOL     OW34726   2.514   3.155   5.840  0.2036  0.5770  0.8691
 7698SOL    HW134727   2.554   3.134   5.756 -0.1429 -0.1162  0.8830
 7698SOL    HW234728   2.435   3.102   5.837  0.0365  0.9088 -0.4373
 7699SOL     OW34729   0.845   0.796   4.585  0.1086  0.1945  0.2799
 7699SOL    HW134730   0.827   0.708   4.617 -0.7561 -0.0420 -0.8274
 7699SOL    HW234731   0.901   0.770   4.511 -0.9328  0.5946 -0.6567
 7700SOL     OW34732   0.116   3.548   0.822  0.2783 -0.1938 -0.1840
 7700SOL    HW134733   0.187   3.537   0.758 -0.0255  1.0703 -0.7375
 7700SOL    HW234734   0.049   3.581   0.763 -2.9541 -3.9918  1.3337
 7701SOL     OW34735   4.035   1.477  14.783  0.0744  0.0541 -0.4964
 7701SOL    HW134736   3.968   1.475  14.715 -0.2653 -0.0265 -0.1604
 7701SOL    HW234737   4.088   1.399  14.768  2.2362  1.7530 -1.7356
 7702SOL     OW34738   3.161   2.147   6.642  0.3210 -0.1230  0.3960
 7702SOL    HW134739   3.101   2.095   6.589  0.8958 -0.4233  0.0495
 7702SOL    HW234740   3.110   2.172   6.720  0.7624  0.8703  0.3659
 7703SOL     OW34741   2.635   1.830   6.963  0.0444  0.3578  0.2915
 7703SOL    HW134742   2.624   1.830   6.868 -0.3645 -2.5551  0.3210
 7703SOL    HW234743   2.561   1.780   6.997 -0.6508  0.4550 -1.0704
 7704SOL     OW34744   0.183   4.284  12.699  0.0369 -0.2465 -0.0808
 7704SOL    HW134745   0.115   4.273  12.633  0.0581 -1.4355  0.0927
 7704SOL    HW234746   0.201   4.376  12.682 -2.5091  0.4464  1.0097
 7705SOL     OW34747   0.475   0.808   7.042  0.5217  0.0942 -0.0467
 7705SOL    HW134748   0.521   0.849   7.115 -0.6006  0.4516  0.4578
 7705SOL    HW234749   0.496   0.715   7.046 -0.7740 -0.0738  2.8033
 7706SOL     OW34750   0.033   2.899   0.604 -0.0775 -0.5683 -0.6163
 7706SOL    HW134751   0.115   2.853   0.582 -0.5490 -1.5950 -0.2514
 7706SOL    HW234752   4.697   2.839   0.624 -1.1729  0.8508 -0.3306
 7707SOL     OW34753   4.048   2.049   2.144  0.1664  0.3278 -0.0420
 7707SOL    HW134754   4.079   1.973   2.095 -0.6113  0.0772 -0.1415
 7707SOL    HW234755   4.080   2.116   2.084 -3.0290  0.0694 -2.0395
 7708SOL     OW34756   3.840   3.627   7.203  0.3048  0.1014 -0.2148
 7708SOL    HW134757   3.865   3.571   7.130  0.8928  0.7524 -0.5119
 7708SOL    HW234758   3.886   3.592   7.279  1.0809 -1.4322 -1.3886
 7709SOL     OW34759   1.808   2.893   2.803 -0.6968  0.3864 -0.6038
 7709SOL    HW134760   1.892   2.933   2.780 -1.7465  3.8808  1.6151
 7709SOL    HW234761   1.761   2.975   2.817  0.5359  1.2148 -1.3446
 7710SOL     OW34762   0.259   3.568  16.021  0.0017  0.0354  0.1357
 7710SOL    HW134763   0.317   3.560  15.945 -0.8904  0.0915 -0.5532
 7710SOL    HW234764   0.193   3.509  15.987  0.0901  0.0250 -0.0208
 7711SOL     OW34765   4.384   3.781   9.711 -0.0531  0.5720 -0.3235
 7711SOL    HW134766   4.453   3.847   9.701  1.5157 -0.5494  2.8870
 7711SOL    HW234767   4.446   3.716   9.745 -0.1177  0.0981 -1.1075
 7712SOL     OW34768   2.882   0.834   7.116  0.2701  0.5803  0.3952
 7712SOL    HW134769   2.931   0.752   7.109 -1.4559 -0.4101 -0.2039
 7712SOL    HW234770   2.841   0.834   7.203  1.3192 -3.4992  0.8978
 7713SOL     OW34771   2.338   0.766   5.588 -0.7140 -0.0765 -0.3642
 7713SOL    HW134772   2.426   0.803   5.599 -0.6326 -0.5413  0.5919
 7713SOL    HW234773   2.306   0.821   5.516  0.1622  1.0395  0.0952
 7714SOL     OW34774   3.304   4.059   5.568  0.5641  0.0193 -0.2716
 7714SOL    HW134775   3.216   4.060   5.604  0.5419  0.5539 -0.3413
 7714SOL    HW234776   3.358   4.062   5.647 -0.0840  3.0438  0.0356
 7715SOL     OW34777   2.731   3.563   8.921 -0.1109  0.2234 -0.0731
 7715SOL    HW134778   2.716   3.575   9.015 -0.4589 -2.8121  0.2593
 7715SOL    HW234779   2.692   3.645   8.891 -1.3015 -0.3789 -0.2039
 7716SOL     OW34780   4.319   2.655   0.013 -0.0930 -0.0190 -0.7068
 7716SOL    HW134781   4.407   2.619   0.011 -0.8123 -1.8985  1.2250
 7716SOL    HW234782   4.303   2.662   0.107 -1.1085  1.9906 -1.0265
 7717SOL     OW34783   3.158   1.101   6.306  0.8934 -0.3392  0.0678
 7717SOL    HW134784   3.223   1.093   6.375  0.0079 -1.2535  0.7782
 7717SOL    HW234785   3.205   1.167   6.254 -1.5723 -0.0009 -1.7137
 7718SOL     OW34786   1.396   4.734  10.307 -0.2003  0.2863 -0.6972
 7718SOL    HW134787   1.398   4.673  10.233 -1.7290 -0.6954  0.0713
 7718SOL    HW234788   1.490   4.735  10.323 -0.8352 -0.4180  3.0473
 7719SOL     OW34789   4.087   2.275   5.510  0.1205  0.0578 -0.8735
 7719SOL    HW134790   4.004   2.239   5.541  0.6271 -1.2968 -1.0821
 7719SOL    HW234791   4.118   2.322   5.588  3.1505 -0.5818 -1.6903
 7720SOL     OW34792   0.412   2.133  16.131  0.8231  0.1885 -0.4352
 7720SOL    HW134793   0.393   2.074  16.058 -0.6303  0.1167  0.0163
 7720SOL    HW234794   0.470   2.070  16.175  1.8237  1.7188  0.4048
 7721SOL     OW34795   2.724   0.418   2.433 -0.2086  0.0716  0.3762
 7721SOL    HW134796   2.704   0.508   2.407  3.1644  0.6364 -0.2044
 7721SOL    HW234797   2.690   0.372   2.357  2.8361 -0.9432 -0.3425
 7722SOL     OW34798   3.946   4.641   5.101  0.7490 -1.0618 -0.0670
 7722SOL    HW134799   3.960   4.670   5.011  2.1186 -1.3764  0.0427
 7722SOL    HW234800   4.037   4.619   5.123  1.7375  0.0874 -2.9815
 7723SOL     OW34801   0.108   0.095  10.124 -0.1418  0.4250 -0.7339
 7723SOL    HW134802   0.098   0.027  10.058  0.6420  0.1992 -0.6262
 7723SOL    HW234803   0.204   0.097  10.122 -0.0948 -1.1547 -0.2955
 7724SOL     OW34804   4.545   0.738   7.360 -0.2303 -0.0798  0.2566
 7724SOL    HW134805   4.456   0.749   7.327  1.1418 -0.0782 -3.3879
 7724SOL    HW234806   4.569   0.831   7.365 -1.5026  0.1472  2.3588
 7725SOL     OW34807   0.291   3.890   1.642 -0.3267  0.2086 -0.0459
 7725SOL    HW134808   0.306   3.982   1.618 -0.3244 -0.6350 -3.3819
 7725SOL    HW234809   0.377   3.852   1.654 -0.0698  1.6070  2.4905
 7726SOL     OW34810   1.899   1.462   4.141  0.1995 -0.3932  0.0422
 7726SOL    HW134811   1.916   1.389   4.082  1.5212 -1.4215  1.7123
 7726SOL    HW234812   1.807   1.484   4.127  0.4416  0.6275  0.0545
 7727SOL     OW34813   2.073   2.414  15.842  0.5735 -0.0638 -0.3444
 7727SOL    HW134814   2.049   2.506  15.855  0.1566 -0.3311  0.8007
 7727SOL    HW234815   2.099   2.388  15.931  1.5246  1.2258 -0.2442
 7728SOL     OW34816   0.432   0.494   7.287  0.3193  0.0047 -0.2511
 7728SOL    HW134817   0.450   0.517   7.378 -0.2431 -1.1065  0.1366
 7728SOL    HW234818   0.410   0.402   7.296  0.4925  0.0360  0.4367
 7729SOL     OW34819   0.881   4.644  13.996  0.3208  0.0576 -0.2924
 7729SOL    HW134820   0.954   4.630  13.935  0.0943  1.5684 -0.9037
 7729SOL    HW234821   0.796   4.637  13.952 -0.1698 -0.9980  0.8309
 7730SOL     OW34822   3.780   3.018   5.704  0.5424 -0.1291 -0.0170
 7730SOL    HW134823   3.796   2.933   5.745  2.7255 -0.0460 -0.7100
 7730SOL    HW234824   3.776   2.991   5.612  1.5638  1.2531 -0.4845
 7731SOL     OW34825   1.961   3.133   3.785 -0.2627 -0.0325 -0.0120
 7731SOL    HW134826   1.890   3.070   3.772  0.6065 -0.3465 -3.2468
 7731SOL    HW234827   1.965   3.175   3.699 -0.3154 -1.4884 -0.7332
 7732SOL     OW34828   3.261   1.410  17.027  0.1583 -0.6963  0.5445
 7732SOL    HW134829   3.317   1.353  16.974  2.4552  0.9313  1.2118
 7732SOL    HW234830   3.243   1.352  17.101 -0.5240 -2.5801 -1.1012
 7733SOL     OW34831   1.945   0.657   8.396  0.4961  0.3548  0.3102
 7733SOL    HW134832   2.040   0.659   8.402  0.6185  1.9078 -2.3479
 7733SOL    HW234833   1.941   0.612   8.312  0.9750  4.0737 -1.6529
 7734SOL     OW34834   1.625   2.681   5.496 -0.3661  0.4892 -0.2115
 7734SOL    HW134835   1.678   2.620   5.444 -0.2197  0.2392  0.2284
 7734SOL    HW234836   1.643   2.772   5.471 -0.3214  0.5228 -0.0581
 7735SOL     OW34837   2.909   2.600   4.889  0.4539 -0.3359 -0.8950
 7735SOL    HW134838   2.989   2.550   4.875 -0.3561 -1.0836 -2.9362
 7735SOL    HW234839   2.836   2.558   4.842 -0.1560  0.6164 -0.7992
 7736SOL     OW34840   4.392   1.694  11.048  0.2695  0.4074 -0.4032
 7736SOL    HW134841   4.409   1.613  11.095  0.4492  1.2109  0.8902
 7736SOL    HW234842   4.310   1.722  11.090  0.3839  1.1347 -0.6567
 7737SOL     OW34843   4.031   4.295   3.092  0.1652 -0.4153  0.0669
 7737SOL    HW134844   4.058   4.295   3.000  3.7520  1.8156  1.1194
 7737SOL    HW234845   4.041   4.386   3.118 -1.8492  0.3199 -1.7982
 7738SOL     OW34846   3.657   2.891   6.834  0.4345 -0.3182  0.3281
 7738SOL    HW134847   3.693   2.812   6.793  0.7575 -0.6762  1.3047
 7738SOL    HW234848   3.612   2.937   6.763 -0.5842  0.8215  1.7142
 7739SOL     OW34849   1.616   3.091   7.507  0.0578 -0.2848  0.0831
 7739SOL    HW134850   1.691   3.109   7.564  0.2389 -0.1479 -0.1976
 7739SOL    HW234851   1.562   3.169   7.523 -0.1116 -0.2549 -0.6392
 7740SOL     OW34852   1.036   3.618   5.719  0.1961  0.3995 -0.4048
 7740SOL    HW134853   1.021   3.709   5.693 -1.1764  0.4103  0.4134
 7740SOL    HW234854   1.099   3.591   5.652  0.0376 -0.3914 -0.2362
 7741SOL     OW34855   0.513   4.100   2.829 -0.3672 -0.0626 -0.1335
 7741SOL    HW134856   0.481   4.047   2.902  0.6974  0.0817  0.4420
 7741SOL    HW234857   0.433   4.147   2.806  0.5256  0.9770 -1.0918
 7742SOL     OW34858   3.957   0.720   7.150 -0.3238  0.1977 -0.1250
 7742SOL    HW134859   3.936   0.716   7.056  0.5288 -0.2354 -0.3012
 7742SOL    HW234860   4.037   0.772   7.148  0.5616 -1.1963 -1.2981
 7743SOL     OW34861   4.247   3.285  10.640  0.1405  0.3224  0.5091
 7743SOL    HW134862   4.261   3.318  10.729 -0.5554 -0.8947  1.0658
 7743SOL    HW234863   4.333   3.297  10.599 -0.2400 -1.2836 -0.7429
 7744SOL     OW34864   2.636   0.506   4.387 -0.1225  0.4027 -0.3534
 7744SOL    HW134865   2.691   0.579   4.356  1.6849 -1.8846 -2.5667
 7744SOL    HW234866   2.598   0.484   4.302 -0.8157 -2.1378  0.6378
 7745SOL     OW34867   1.855   2.080   4.397 -0.1666 -0.5201  0.8948
 7745SOL    HW134868   1.937   2.032   4.409 -0.1634 -0.7763 -0.2026
 7745SOL    HW234869   1.796   2.009   4.420  0.0979 -1.3863 -1.0889
 7746SOL     OW34870   0.445   2.755   3.269  0.1793 -0.3030  0.3529
 7746SOL    HW134871   0.526   2.716   3.236 -0.7007 -0.5377 -1.5059
 7746SOL    HW234872   0.475   2.845   3.286  0.6615 -0.4671  0.3635
 7747SOL     OW34873   2.735   2.350  17.683 -0.4018 -0.3287  0.2779
 7747SOL    HW134874   2.820   2.308  17.670  0.2409  0.9554  0.3106
 7747SOL    HW234875   2.749   2.404  17.605 -0.2780  0.6611  0.9899
 7748SOL     OW34876   1.228   3.625   8.345  0.0273 -0.3181 -0.1533
 7748SOL    HW134877   1.298   3.632   8.410  1.9028  0.4255 -2.2527
 7748SOL    HW234878   1.191   3.539   8.362 -0.7273  0.0165 -0.0822
 7749SOL     OW34879   2.572   1.154   2.862 -0.6774  0.0224 -0.8326
 7749SOL    HW134880   2.512   1.130   2.791 -1.5917  0.1423 -0.1058
 7749SOL    HW234881   2.516   1.199   2.925  1.0536 -0.9458  1.3580
 7750SOL     OW34882   0.832   4.251   4.623 -0.4156  0.1405 -0.2948
 7750SOL    HW134883   0.842   4.307   4.546  2.2771  0.3532  0.2118
 7750SOL    HW234884   0.923   4.226   4.639 -0.8603 -0.1824  1.6834
 7751SOL     OW34885   3.512   4.430   0.337  0.1951  0.3091  0.2635
 7751SOL    HW134886   3.510   4.362   0.405 -0.5773 -0.9463 -1.0232
 7751SOL    HW234887   3.431   4.472   0.367  0.5257  0.5812  0.7697
 7752SOL     OW34888   2.937   3.151  13.724  0.4492 -0.5115 -0.4000
 7752SOL    HW134889   3.015   3.154  13.779 -0.1025 -1.2928  0.4142
 7752SOL    HW234890   2.981   3.186  13.647  0.0520 -1.7203 -1.1595
 7753SOL     OW34891   3.258   4.086  14.684 -0.0995  0.2151  0.2919
 7753SOL    HW134892   3.323   4.116  14.620  1.0626 -1.5617  0.6428
 7753SOL    HW234893   3.312   4.056  14.757  0.2986 -1.3838 -0.6546
 7754SOL     OW34894   0.139   0.132   4.142 -0.3109  0.2777 -0.0183
 7754SOL    HW134895   0.094   0.089   4.215  2.4963 -0.0611  1.5462
 7754SOL    HW234896   0.100   0.088   4.067  0.1812  2.1281 -1.3578
 7755SOL     OW34897   0.208   3.095   3.211 -0.3449  0.2307 -0.5199
 7755SOL    HW134898   0.149   3.124   3.281 -0.9217  0.3446 -1.0536
 7755SOL    HW234899   0.184   3.150   3.137 -0.8999 -0.4614 -0.8585
 7756SOL     OW34900   3.316   1.299  16.692 -0.3052  0.3665  0.2491
 7756SOL    HW134901   3.348   1.295  16.782 -0.4613 -1.4747  0.2302
 7756SOL    HW234902   3.376   1.246  16.639  1.0421  0.4781  1.6770
 7757SOL     OW34903   1.201   1.997   5.319 -0.1051 -0.2322  0.5142
 7757SOL    HW134904   1.262   1.930   5.287  0.9162  1.0323 -0.2004
 7757SOL    HW234905   1.142   1.951   5.378 -1.9640  0.7443 -0.5581
 7758SOL     OW34906   2.823   3.246   3.572 -0.6715 -0.4250  0.4416
 7758SOL    HW134907   2.827   3.171   3.512 -1.9606  0.3856 -0.6516
 7758SOL    HW234908   2.907   3.291   3.573 -0.9775  0.1902 -1.3688
 7759SOL     OW34909   1.023   2.791   7.377 -0.4897  0.3440 -0.1266
 7759SOL    HW134910   1.020   2.697   7.395  0.0182  0.7362  1.9772
 7759SOL    HW234911   0.977   2.831   7.451 -0.9397  0.8010 -0.6499
 7760SOL     OW34912   2.141   0.304   1.508  0.3223  0.9933  0.0002
 7760SOL    HW134913   2.111   0.334   1.422  0.3497  0.1225 -0.3062
 7760SOL    HW234914   2.229   0.272   1.490 -0.3295  0.0018 -1.3487
 7761SOL     OW34915   1.523   4.025   5.873  0.1898  0.2168 -0.1319
 7761SOL    HW134916   1.574   4.040   5.793 -0.8241 -0.4424 -0.9072
 7761SOL    HW234917   1.490   3.935   5.872 -0.0692  0.3297 -2.7135
 7762SOL     OW34918   2.442   4.527   6.582  0.0511 -0.8874 -0.0616
 7762SOL    HW134919   2.532   4.544   6.608 -0.8218 -1.1542  3.0514
 7762SOL    HW234920   2.443   4.433   6.567 -1.2757 -0.6752 -1.5602
 7763SOL     OW34921   3.213   2.349   5.710 -0.1764  0.0738  0.4499
 7763SOL    HW134922   3.265   2.429   5.717 -2.2663  1.4562 -0.0114
 7763SOL    HW234923   3.273   2.284   5.746 -0.3238 -1.1911 -1.6248
 7764SOL     OW34924   1.558   4.329   3.683 -0.1500 -0.4046  0.4621
 7764SOL    HW134925   1.485   4.345   3.623  0.0037  1.3733  0.7406
 7764SOL    HW234926   1.549   4.404   3.741 -0.1222 -0.1093  0.0837
 7765SOL     OW34927   0.833   0.416   6.074 -0.2550 -0.3873 -0.5751
 7765SOL    HW134928   0.900   0.356   6.042  1.3180  0.6387  0.7710
 7765SOL    HW234929   0.793   0.370   6.147  0.1594 -1.1052 -0.7979
 7766SOL     OW34930   2.766   0.345   6.932  0.0259  0.0088 -0.6781
 7766SOL    HW134931   2.789   0.282   6.864  1.3947 -1.1131  0.8549
 7766SOL    HW234932   2.679   0.367   6.900 -0.8522 -2.6858 -0.1233
 7767SOL     OW34933   4.534   1.354   1.880 -0.5533  0.2685 -0.1688
 7767SOL    HW134934   4.552   1.261   1.889 -0.7463  0.2457 -0.0267
 7767SOL    HW234935   4.445   1.360   1.913  0.1272 -0.8649  1.8535
 7768SOL     OW34936   0.849   2.723  14.147 -0.1176  0.7346  0.1489
 7768SOL    HW134937   0.931   2.772  14.137 -0.1564  0.9277  0.7938
 7768SOL    HW234938   0.847   2.710  14.242 -0.0708 -1.7299 -0.1692
 7769SOL     OW34939   1.947   3.516   7.893 -0.2858 -0.0363 -0.1920
 7769SOL    HW134940   1.940   3.434   7.845 -1.1337  0.5867 -1.1336
 7769SOL    HW234941   1.947   3.462   7.972 -2.5530 -0.1790 -0.2841
 7770SOL     OW34942   2.656   1.226   7.426  0.4678 -0.2892 -0.5359
 7770SOL    HW134943   2.648   1.136   7.395  0.7782 -0.8611  1.0190
 7770SOL    HW234944   2.669   1.196   7.516 -1.7923  1.6633  0.4274
 7771SOL     OW34945   1.339   0.177   9.204 -0.3312  0.2406 -0.2814
 7771SOL    HW134946   1.292   0.154   9.124 -0.0454 -2.4111  0.3266
 7771SOL    HW234947   1.388   0.250   9.165  0.4070  0.1371  0.4506
 7772SOL     OW34948   0.139   2.299   7.574 -0.7665 -0.3333 -0.1922
 7772SOL    HW134949   0.174   2.252   7.498 -1.0487 -1.6041  0.4667
 7772SOL    HW234950   0.059   2.324   7.527 -0.0721 -1.1669 -1.8440
 7773SOL     OW34951   0.794   0.311  15.734  0.8448 -0.5043 -0.1338
 7773SOL    HW134952   0.828   0.400  15.721  1.1244 -0.6270 -0.2279
 7773SOL    HW234953   0.748   0.322  15.817 -0.5584  0.7204 -1.0759
 7774SOL     OW34954   2.039   4.040  15.359 -0.8296 -0.3954 -0.2648
 7774SOL    HW134955   2.080   4.008  15.279  0.4022  0.1755  0.1432
 7774SOL    HW234956   2.023   4.133  15.346  0.8590  0.0068  0.5201
 7775SOL     OW34957   0.262   0.005  16.375 -0.6822 -0.0317  0.0857
 7775SOL    HW134958   0.247   0.058  16.297 -2.2268 -3.6706 -2.0616
 7775SOL    HW234959   0.207   4.663  16.372 -1.9073  0.7962  1.0028
 7776SOL     OW34960   3.579   2.311   0.699  0.6859 -0.1924  0.5054
 7776SOL    HW134961   3.657   2.309   0.755  1.6280 -1.5487 -0.8638
 7776SOL    HW234962   3.613   2.296   0.611 -0.4957  1.1297 -0.1749
 7777SOL     OW34963   0.147   2.582  10.932 -0.0287  0.4171 -0.1540
 7777SOL    HW134964   0.193   2.622  10.859  1.3484 -1.8042 -0.4930
 7777SOL    HW234965   0.183   2.494  10.928 -0.1890  0.3533 -0.2004
 7778SOL     OW34966   2.559   0.356   6.751  0.2313  0.5281  0.4303
 7778SOL    HW134967   2.505   0.291   6.705 -0.1459  1.4740 -0.4530
 7778SOL    HW234968   2.607   0.388   6.676 -0.0338  0.5323  0.2629
 7779SOL     OW34969   0.402   1.094   5.454 -0.0143 -0.4550 -0.3175
 7779SOL    HW134970   0.379   1.091   5.547  0.4493 -1.3575 -0.2366
 7779SOL    HW234971   0.385   1.188   5.445 -2.0580 -1.0227 -2.4169
 7780SOL     OW34972   2.680   0.371   7.743  0.2016 -0.3507  0.5235
 7780SOL    HW134973   2.748   0.362   7.676  0.1046 -0.1323  0.3971
 7780SOL    HW234974   2.611   0.417   7.695  2.0771  1.9736  0.0438
 7781SOL     OW34975   1.332   1.940   3.654  0.0907 -0.0485 -0.1519
 7781SOL    HW134976   1.244   1.950   3.618 -0.4005 -0.7694  0.8353
 7781SOL    HW234977   1.349   2.030   3.681  1.5040 -0.6827  1.0701
 7782SOL     OW34978   1.048   1.568  13.239 -0.1143 -0.0130 -0.3391
 7782SOL    HW134979   0.967   1.534  13.277  0.3360  1.5111  1.9782
 7782SOL    HW234980   1.001   1.609  13.167  1.0381 -0.2789 -1.2359
 7783SOL     OW34981   4.108   1.208   3.430 -0.5133  0.1784 -0.0166
 7783SOL    HW134982   4.121   1.144   3.359  1.0252  2.6555 -1.9635
 7783SOL    HW234983   4.048   1.268   3.386  0.7698  0.3319 -1.5863
 7784SOL     OW34984   4.635   0.418   3.953  0.5862  0.6901 -0.4246
 7784SOL    HW134985   4.583   0.339   3.940  0.9808  0.2755  0.5498
 7784SOL    HW234986   4.569   0.483   3.978 -1.2642 -0.9968 -0.9476
 7785SOL     OW34987   4.498   3.198   6.459  0.2993  0.8902 -0.5193
 7785SOL    HW134988   4.523   3.272   6.514  3.0995  0.7909 -1.6354
 7785SOL    HW234989   4.568   3.136   6.480  0.4625  1.1221 -0.3833
 7786SOL     OW34990   0.553   2.101   5.575 -0.1814  0.2992  0.0259
 7786SOL    HW134991   0.468   2.059   5.586  1.0608 -1.5255  2.4930
 7786SOL    HW234992   0.554   2.160   5.650  2.2975  0.8784 -0.4384
 7787SOL     OW34993   3.861   1.933   6.537 -0.3920 -0.0293  0.3380
 7787SOL    HW134994   3.942   1.929   6.588  1.5202  2.0293 -2.5627
 7787SOL    HW234995   3.851   2.027   6.526 -0.5212 -0.3752 -2.6861
 7788SOL     OW34996   2.204   1.458   4.840  0.3290  0.0390  0.3822
 7788SOL    HW134997   2.146   1.510   4.784 -1.6658 -1.7038  0.8255
 7788SOL    HW234998   2.134   1.393   4.850 -1.0291  1.6169  1.0305
 7789SOL     OW34999   0.429   2.778   6.259 -0.0063  0.5925  0.4320
 7789SOL    HW135000   0.502   2.782   6.320  0.6170 -0.1363 -0.2673
 7789SOL    HW235001   0.471   2.723   6.193 -2.3215  0.7863 -1.2298
 7790SOL     OW35002   0.421   4.469   8.700  0.8599  1.3710 -0.4436
 7790SOL    HW135003   0.325   4.464   8.702  0.9411 -0.0577  0.0879
 7790SOL    HW235004   0.436   4.534   8.631  0.9910  0.5599 -1.1858
 7791SOL     OW35005   3.858   3.654   2.361 -0.3646 -0.2296  0.1661
 7791SOL    HW135006   3.788   3.592   2.342  0.9397 -1.1810 -1.5459
 7791SOL    HW235007   3.877   3.676   2.270  0.3814 -5.2865 -0.9204
 7792SOL     OW35008   3.598   0.004  12.753  0.5456 -0.2897 -0.2381
 7792SOL    HW135009   3.676   0.031  12.802  1.2829  1.0203 -2.1130
 7792SOL    HW235010   3.565   0.092  12.736 -0.5570 -1.1003 -2.2966
 7793SOL     OW35011   4.684   0.919   1.806 -0.4133  0.7033 -0.1513
 7793SOL    HW135012   4.597   0.886   1.781 -0.0296  0.8175 -1.6364
 7793SOL    HW235013   4.706   0.846   1.864 -0.4554  0.6517 -0.2007
 7794SOL     OW35014   2.884   4.356   8.195 -0.1024  0.0929 -0.2544
 7794SOL    HW135015   2.892   4.447   8.164 -0.6128 -0.7497 -2.8871
 7794SOL    HW235016   2.790   4.364   8.212 -0.2177  1.7875 -1.6148
 7795SOL     OW35017   0.598   3.622  15.323 -0.3538  0.5672 -0.2687
 7795SOL    HW135018   0.610   3.691  15.258  0.5793 -0.0103 -0.7195
 7795SOL    HW235019   0.652   3.550  15.290 -1.3994 -0.9312  1.2350
 7796SOL     OW35020   2.228   3.131   3.910  0.2005 -0.6413 -1.0314
 7796SOL    HW135021   2.258   3.219   3.932 -1.6564 -0.0925 -0.6979
 7796SOL    HW235022   2.139   3.156   3.886  0.1161  0.0310 -0.0125
 7797SOL     OW35023   3.907   1.167  10.804  0.0296  0.2488 -0.1757
 7797SOL    HW135024   3.899   1.213  10.720  0.0218 -0.6797 -0.6798
 7797SOL    HW235025   3.823   1.179  10.848  1.4026  0.7574  2.2802
 7798SOL     OW35026   3.841   4.234   4.287  0.3137  0.3368  0.0222
 7798SOL    HW135027   3.902   4.280   4.230  1.2043  1.3071  1.7564
 7798SOL    HW235028   3.843   4.148   4.245 -2.9130 -0.3817  1.2961
 7799SOL     OW35029   0.593   1.026   2.859 -0.3835  0.4431  0.2581
 7799SOL    HW135030   0.600   1.095   2.793  0.8682  1.3114  1.2966
 7799SOL    HW235031   0.502   1.000   2.843  0.1028 -0.3373 -1.2165
 7800SOL     OW35032   4.177   1.159  10.822  0.5878  0.7294  0.5962
 7800SOL    HW135033   4.085   1.160  10.794  0.4770  1.6568  0.9703
 7800SOL    HW235034   4.190   1.254  10.829 -0.5318  0.9417 -0.1278
 7801SOL     OW35035   0.223   2.983   5.572 -0.6162 -0.1163 -0.1524
 7801SOL    HW135036   0.180   3.056   5.528  0.8021 -0.3736 -2.0249
 7801SOL    HW235037   0.183   2.921   5.510 -1.0465 -0.6130  0.6307
 7802SOL     OW35038   4.257   3.175   3.594 -0.0678 -0.0945 -0.0507
 7802SOL    HW135039   4.257   3.144   3.684 -1.1701 -0.3949 -0.1451
 7802SOL    HW235040   4.318   3.248   3.598 -1.1935  0.8664 -0.2218
 7803SOL     OW35041   1.308   2.983   4.787 -0.1361  0.5873 -0.1088
 7803SOL    HW135042   1.375   3.036   4.831 -0.5574  0.1578  1.0312
 7803SOL    HW235043   1.231   3.038   4.804  0.4162  1.1133  0.6872
 7804SOL     OW35044   1.755   3.646   2.492 -0.4274 -0.6090  0.3221
 7804SOL    HW135045   1.845   3.675   2.476 -0.2329 -1.5307 -0.2183
 7804SOL    HW235046   1.735   3.690   2.575  1.5530 -2.4986  1.7875
 7805SOL     OW35047   0.754   3.553   7.280  0.6452 -0.5155  0.3093
 7805SOL    HW135048   0.730   3.644   7.298  1.5148 -0.4325  1.0206
 7805SOL    HW235049   0.800   3.557   7.196  1.1787 -1.5261  0.5627
 7806SOL     OW35050   0.702   1.356   7.037 -0.5529  0.2419  0.0204
 7806SOL    HW135051   0.653   1.278   7.009 -0.0994  0.3788 -1.1596
 7806SOL    HW235052   0.782   1.344   6.987  0.7031  2.3348  1.5459
 7807SOL     OW35053   0.271   1.920   0.110  0.4217  0.4870  0.1243
 7807SOL    HW135054   0.192   1.879   0.074  1.0592 -0.3324 -0.3358
 7807SOL    HW235055   0.306   1.972   0.038  0.4078  0.9025  0.4176
 7808SOL     OW35056   4.697   2.963   4.788 -0.4671  0.3008 -0.8338
 7808SOL    HW135057   4.626   2.961   4.852 -1.0197  0.1242 -1.4571
 7808SOL    HW235058   4.704   2.869   4.775  2.2336  0.2308  1.0580
 7809SOL     OW35059   1.814   2.898   4.214 -0.1891 -0.3837 -0.0042
 7809SOL    HW135060   1.824   2.831   4.147  0.7879 -1.7552  1.4918
 7809SOL    HW235061   1.877   2.955   4.171 -1.7483  0.9324 -0.5490
 7810SOL     OW35062   3.376   2.782  11.082 -0.1851  0.6002  0.2297
 7810SOL    HW135063   3.378   2.828  11.166 -1.0641 -2.3630  1.8840
 7810SOL    HW235064   3.282   2.764  11.078 -0.1489  0.5317 -0.3279
 7811SOL     OW35065   3.714   1.106   8.296 -0.9832  0.2663 -0.4649
 7811SOL    HW135066   3.754   1.117   8.210  0.1007  1.6876  0.2098
 7811SOL    HW235067   3.631   1.063   8.277  0.3941 -0.5183 -4.6260
 7812SOL     OW35068   2.330   0.296   1.009 -0.2617  0.0706 -0.4630
 7812SOL    HW135069   2.334   0.241   1.087 -1.9165 -0.1713 -0.5460
 7812SOL    HW235070   2.339   0.225   0.946 -1.0036  1.0943 -1.7233
 7813SOL     OW35071   2.843   3.840  15.048  0.1982  0.0680  0.0765
 7813SOL    HW135072   2.760   3.798  15.023 -0.1744  0.7605  0.1401
 7813SOL    HW235073   2.816   3.883  15.129 -0.7699  3.1125 -1.8277
 7814SOL     OW35074   3.780   1.563   6.880  0.3094 -0.7043  0.2088
 7814SOL    HW135075   3.721   1.556   6.955 -0.3566 -1.5402 -0.3852
 7814SOL    HW235076   3.777   1.656   6.860  0.4992 -0.9154 -0.7796
 7815SOL     OW35077   1.381   0.886   2.273 -0.2186  0.1241  0.1292
 7815SOL    HW135078   1.344   0.949   2.211 -0.5722 -1.0799 -0.8897
 7815SOL    HW235079   1.428   0.950   2.327 -0.1423  0.0831  0.1108
 7816SOL     OW35080   4.123   3.757   1.998 -0.6902 -0.0272 -0.4313
 7816SOL    HW135081   4.147   3.849   1.995  0.2454 -0.1913  1.8224
 7816SOL    HW235082   4.113   3.739   1.904  1.2010 -1.8592 -0.2832
 7817SOL     OW35083   2.218   3.603  10.129  0.2503 -0.4743  0.0071
 7817SOL    HW135084   2.225   3.593  10.224 -0.3742 -2.2609 -0.1273
 7817SOL    HW235085   2.265   3.525  10.098  0.8736  0.0850 -0.4645
 7818SOL     OW35086   4.698   3.937   6.019 -0.7042  1.1989  0.0757
 7818SOL    HW135087   4.718   3.853   5.978  0.2461  1.2021  0.5296
 7818SOL    HW235088   4.719   4.002   5.952  1.2503  1.0440  0.5360
 7819SOL     OW35089   3.699   3.390  15.301  0.4470  0.6536  0.4631
 7819SOL    HW135090   3.765   3.364  15.237  0.7994 -1.9329  1.9274
 7819SOL    HW235091   3.747   3.466  15.335  1.7129 -0.2741  0.7295
 7820SOL     OW35092   1.424   0.010   6.088  0.7051 -0.1572  0.3087
 7820SOL    HW135093   1.492   4.713   6.029 -0.1788  0.4493 -1.0560
 7820SOL    HW235094   1.341   4.731   6.042  1.4255  1.8142 -1.6723
 7821SOL     OW35095   4.244   0.533   2.324 -0.1595 -0.1977 -0.1324
 7821SOL    HW135096   4.199   0.604   2.279  0.7208 -0.1173 -0.8781
 7821SOL    HW235097   4.246   0.462   2.261 -1.3880  0.9876 -1.4989
 7822SOL     OW35098   4.702   0.995   8.444  0.6663 -0.3118 -0.0088
 7822SOL    HW135099   4.704   0.933   8.517  0.3754 -1.6247 -1.1141
 7822SOL    HW235100   4.616   0.974   8.407 -0.2099 -0.7039  2.2411
 7823SOL     OW35101   4.274   3.446   1.755 -0.4662  0.6839 -0.0642
 7823SOL    HW135102   4.223   3.524   1.778 -0.4658  0.8189 -0.5265
 7823SOL    HW235103   4.287   3.406   1.841 -0.4042 -1.6310 -1.1702
 7824SOL     OW35104   1.098   1.737  16.896  0.1352  0.4002  0.0162
 7824SOL    HW135105   1.071   1.694  16.815  0.2363  0.0991  0.1410
 7824SOL    HW235106   1.024   1.705  16.947 -1.0721  0.8739 -1.4462
 7825SOL     OW35107   1.741   2.881   5.898 -0.1899  0.4903 -0.5690
 7825SOL    HW135108   1.802   2.862   5.827  1.0410 -1.8071  1.1281
 7825SOL    HW235109   1.661   2.844   5.860 -0.2666 -1.8215  1.8175
 7826SOL     OW35110   1.920   3.894   5.248  0.1259 -0.1922 -0.0463
 7826SOL    HW135111   2.015   3.897   5.235 -0.0812  2.7208 -0.7637
 7826SOL    HW235112   1.908   3.847   5.331 -0.3120 -0.0173 -0.0093
 7827SOL     OW35113   3.770   2.339   5.800 -0.3307  0.5757  0.2139
 7827SOL    HW135114   3.767   2.251   5.837  1.1401  1.3336  2.0995
 7827SOL    HW235115   3.862   2.349   5.777 -1.1425  2.7289 -2.0570
 7828SOL     OW35116   2.578   3.048   7.929 -0.7610  0.3165  0.3088
 7828SOL    HW135117   2.567   2.955   7.910  1.8896 -0.5951  3.1139
 7828SOL    HW235118   2.655   3.059   7.985  0.1959  0.5777 -1.0670
 7829SOL     OW35119   4.042   4.010   9.244  1.2297 -0.0731 -0.3453
 7829SOL    HW135120   3.964   3.997   9.298 -0.2337  3.3850 -1.6059
 7829SOL    HW235121   4.006   3.979   9.162 -0.2926  1.4336 -0.2486
 7830SOL     OW35122   1.817   1.710   9.324 -0.7002 -0.1517  0.0599
 7830SOL    HW135123   1.890   1.703   9.262  1.1857 -0.9961  2.3746
 7830SOL    HW235124   1.872   1.701   9.402  0.4967 -1.2538 -0.9038
 7831SOL     OW35125   1.948   3.256   3.536 -0.0028 -0.4740 -0.2307
 7831SOL    HW135126   2.042   3.274   3.527  0.3723 -0.7771  2.9087
 7831SOL    HW235127   1.913   3.271   3.449 -0.5482  1.5169  0.3490
 7832SOL     OW35128   1.073   1.899  13.018 -0.6582 -0.0288 -0.2728
 7832SOL    HW135129   1.016   1.822  13.019 -0.2547 -0.3268 -0.2720
 7832SOL    HW235130   1.019   1.966  12.976  1.5911  2.4852  0.8233
 7833SOL     OW35131   1.849   1.359   4.383  0.3788  0.8442 -0.4752
 7833SOL    HW135132   1.866   1.399   4.297  3.3010  1.9074  0.6085
 7833SOL    HW235133   1.843   1.276   4.335  2.1709 -0.7716  2.1185
 7834SOL     OW35134   2.972   3.558   4.201  0.4066  0.3619 -0.6519
 7834SOL    HW135135   2.919   3.631   4.167 -0.0725 -0.3898 -1.5223
 7834SOL    HW235136   2.991   3.514   4.118 -0.4792  0.0019 -0.6659
 7835SOL     OW35137   4.133   3.504   2.723  0.3907 -0.5839  0.7806
 7835SOL    HW135138   4.148   3.513   2.817  0.8422  0.5559  0.6054
 7835SOL    HW235139   4.086   3.421   2.724 -1.3703  0.4246  0.9728
 7836SOL     OW35140   4.431   1.715   2.034  0.0501 -0.1773  0.2806
 7836SOL    HW135141   4.394   1.770   1.964 -1.4123  0.3283  1.4667
 7836SOL    HW235142   4.411   1.761   2.115 -0.4819 -1.3444  0.8090
 7837SOL     OW35143   0.923   1.046  16.656  0.2258  0.0897 -0.1169
 7837SOL    HW135144   0.877   1.002  16.728 -1.4553 -0.5270 -1.5519
 7837SOL    HW235145   0.992   1.075  16.716  0.4364  0.7891 -0.6983
 7838SOL     OW35146   2.984   0.666   3.621 -0.0480  0.2947  0.3011
 7838SOL    HW135147   2.968   0.759   3.604  0.8213  0.4048  0.0543
 7838SOL    HW235148   2.984   0.667   3.716 -1.3922 -2.2571  0.3388
 7839SOL     OW35149   0.804   3.449   3.044  0.2231  0.9695  0.8806
 7839SOL    HW135150   0.890   3.437   3.005 -0.1136 -1.1462  0.7939
 7839SOL    HW235151   0.753   3.412   2.972  0.5023  0.1603  1.0921
 7840SOL     OW35152   2.492   2.229   2.053 -0.1787  0.0913 -0.0785
 7840SOL    HW135153   2.568   2.275   2.017 -0.5695  1.1245  0.4210
 7840SOL    HW235154   2.517   2.224   2.145 -1.3767  1.5777  0.3387
 7841SOL     OW35155   4.475   2.990  17.081  0.1100 -0.2846 -0.1580
 7841SOL    HW135156   4.413   2.981  17.153  2.6336 -1.5600  1.8677
 7841SOL    HW235157   4.521   2.906  17.080 -1.9867 -1.4614  1.1244
 7842SOL     OW35158   1.253   2.198   3.237 -0.0812 -0.1651 -0.5271
 7842SOL    HW135159   1.280   2.274   3.289 -1.6899 -1.1810  1.7861
 7842SOL    HW235160   1.241   2.228   3.147 -2.6144  0.6441  0.0892
 7843SOL     OW35161   0.787   0.012  11.057 -0.1124  0.0663 -0.0358
 7843SOL    HW135162   0.724   0.065  11.009 -1.5981 -0.0613  1.8153
 7843SOL    HW235163   0.739   4.666  11.070 -4.9701  2.9533  0.2535
 7844SOL     OW35164   3.909   3.256   1.645  0.1470 -0.1926 -0.7043
 7844SOL    HW135165   3.982   3.194   1.648  1.3456  1.2661  0.6467
 7844SOL    HW235166   3.941   3.304   1.568  0.8884  0.9353  0.2960
 7845SOL     OW35167   1.837   0.834  12.437 -0.1392 -0.2550 -0.3315
 7845SOL    HW135168   1.870   0.771  12.501 -2.0462 -1.1551 -0.2405
 7845SOL    HW235169   1.915   0.865  12.390  0.1838  0.5396  0.7275
 7846SOL     OW35170   0.979   2.232   6.096 -0.2495  0.0024 -0.1454
 7846SOL    HW135171   0.943   2.168   6.158 -1.8814  0.2332 -0.8690
 7846SOL    HW235172   1.018   2.179   6.027 -1.7261  1.1951 -1.8954
 7847SOL     OW35173   0.285   2.730   9.032  0.2071 -0.0593  0.3294
 7847SOL    HW135174   0.372   2.729   8.991 -0.2967  0.4369 -0.7564
 7847SOL    HW235175   0.292   2.774   9.117 -0.5834 -0.6367  0.6833
 7848SOL     OW35176   0.266   2.654   6.923 -0.1618 -0.2542 -0.0219
 7848SOL    HW135177   0.256   2.561   6.905  0.3402 -0.3483  0.1731
 7848SOL    HW235178   0.208   2.693   6.858 -1.5771 -0.2922  1.2001
 7849SOL     OW35179   0.060   0.765   5.884 -0.6352  0.1674  0.5966
 7849SOL    HW135180   0.065   0.740   5.792  1.0264  0.2211  0.6647
 7849SOL    HW235181   0.139   0.820   5.887  1.0285 -2.1556 -0.5531
 7850SOL     OW35182   3.859   2.667   1.931 -0.2085 -0.2459  0.6219
 7850SOL    HW135183   3.884   2.748   1.976 -0.0978  0.2073 -0.2632
 7850SOL    HW235184   3.888   2.688   1.842  1.4783  0.1541  1.2671
 7851SOL     OW35185   1.344   1.384   9.604  0.1785  0.0277  0.3170
 7851SOL    HW135186   1.334   1.395   9.510  2.8514  1.1346  0.1759
 7851SOL    HW235187   1.394   1.302   9.609  0.0734 -0.0502  0.0838
 7852SOL     OW35188   0.863   0.941   7.975 -0.3916  0.1488  0.8202
 7852SOL    HW135189   0.844   0.873   8.040  0.8346 -1.4006 -0.4572
 7852SOL    HW235190   0.786   0.994   7.993 -1.5759 -1.0474 -0.7470
 7853SOL     OW35191   0.824   0.721   5.450  0.1097  0.3119 -0.1308
 7853SOL    HW135192   0.762   0.676   5.508 -0.8527  1.3311 -0.3656
 7853SOL    HW235193   0.764   0.733   5.377 -0.9936 -2.3516  0.3121
 7854SOL     OW35194   1.405   0.774  12.219 -0.0427 -0.0067 -0.2902
 7854SOL    HW135195   1.423   0.868  12.216 -1.1431  0.2710  1.7341
 7854SOL    HW235196   1.388   0.763  12.312 -1.0948 -0.8641 -0.5913
 7855SOL     OW35197   1.452   2.414   5.517 -0.1418 -0.2957  0.3199
 7855SOL    HW135198   1.542   2.392   5.539  0.3860 -0.1551 -1.7232
 7855SOL    HW235199   1.424   2.329   5.484 -0.6010  0.5368 -1.4696
 7856SOL     OW35200   4.674   2.659  13.050 -0.5612 -0.4795  0.1566
 7856SOL    HW135201   4.634   2.683  13.134 -0.5458  1.6293 -0.4347
 7856SOL    HW235202   4.644   2.726  12.989 -0.4432 -2.4906 -2.0688
 7857SOL     OW35203   1.706   3.258   4.865 -0.2753 -0.2397  0.0320
 7857SOL    HW135204   1.764   3.326   4.830 -0.5658  1.2852  2.5299
 7857SOL    HW235205   1.771   3.206   4.911  1.4709  0.5224 -1.5399
 7858SOL     OW35206   4.628   2.988   3.461 -0.3269 -0.4816 -0.3661
 7858SOL    HW135207   4.657   2.941   3.540 -1.0304  3.5192  2.3004
 7858SOL    HW235208   4.691   3.059   3.464 -1.5767  0.6687 -1.6721
 7859SOL     OW35209   3.503   3.587   4.667 -0.6871  0.3704 -0.2875
 7859SOL    HW135210   3.534   3.558   4.754 -0.0711  0.3078 -0.5231
 7859SOL    HW235211   3.571   3.654   4.655  1.3012 -1.3838  1.0128
 7860SOL     OW35212   2.829   3.693   5.369  0.4279 -1.4286 -0.0753
 7860SOL    HW135213   2.785   3.776   5.351  1.6917 -0.9978 -1.1446
 7860SOL    HW235214   2.900   3.721   5.426 -0.0006 -1.3027  0.3943
 7861SOL     OW35215   2.341   3.073   4.372  0.4285  0.4713 -0.0594
 7861SOL    HW135216   2.388   3.055   4.453  0.0627  0.0834  0.0682
 7861SOL    HW235217   2.412   3.067   4.308  0.1578  0.2576 -0.3467
 7862SOL     OW35218   1.475   3.538   6.659 -0.4755  0.1491 -0.1750
 7862SOL    HW135219   1.428   3.476   6.715 -1.2232  1.3817  0.5407
 7862SOL    HW235220   1.416   3.606   6.627  1.0489  2.3367  1.6413
 7863SOL     OW35221   4.395   1.069   9.743  1.0053 -0.2737  0.1636
 7863SOL    HW135222   4.470   1.083   9.684 -1.1763  0.4032 -2.4876
 7863SOL    HW235223   4.351   0.998   9.697  1.3025 -0.4230  0.1131
 7864SOL     OW35224   3.200   3.088  10.825  0.2925  0.2834 -0.4213
 7864SOL    HW135225   3.139   3.018  10.849 -1.5159  1.8405 -0.4979
 7864SOL    HW235226   3.219   3.071  10.732  1.5169  0.7651 -0.2588
 7865SOL     OW35227   2.324   2.023   0.694 -0.5428  0.1750 -0.5041
 7865SOL    HW135228   2.368   2.108   0.693  2.1456 -1.2344  0.0749
 7865SOL    HW235229   2.229   2.036   0.703 -0.7000 -1.3071  0.0123
 7866SOL     OW35230   4.684   4.449   5.937  1.1653 -0.0446  0.1414
 7866SOL    HW135231   4.717   4.412   5.854  2.2700  2.9581 -0.7359
 7866SOL    HW235232   4.594   4.478   5.922  0.0609 -3.2149  0.5666
 7867SOL     OW35233   4.567   1.775   6.724 -0.4595  0.3060  0.5168
 7867SOL    HW135234   4.556   1.734   6.810 -0.8599  0.5722  0.5909
 7867SOL    HW235235   4.593   1.701   6.669  2.8672  2.3109 -0.6380
 7868SOL     OW35236   1.506   4.419   2.721 -0.1850 -0.3392 -0.0609
 7868SOL    HW135237   1.580   4.478   2.737  0.8010 -1.3799 -0.7784
 7868SOL    HW235238   1.490   4.391   2.811  0.0271  1.3905  0.5121
 7869SOL     OW35239   2.485   0.793   4.181  0.1700 -0.1415 -0.0344
 7869SOL    HW135240   2.440   0.744   4.250 -1.4147 -1.4984 -2.0419
 7869SOL    HW235241   2.579   0.776   4.188  0.0318 -0.3265  1.3926
 7870SOL     OW35242   0.570   3.000   9.377  0.2400  0.3370 -0.1175
 7870SOL    HW135243   0.607   3.087   9.387 -0.0759  0.4395  0.1619
 7870SOL    HW235244   0.575   2.981   9.471 -0.2234  1.5077  0.1420
 7871SOL     OW35245   2.620   0.790   3.894 -0.1038 -0.1584 -0.2085
 7871SOL    HW135246   2.547   0.791   3.956 -1.2771 -0.6107 -1.5808
 7871SOL    HW235247   2.608   0.710   3.843  1.6353 -0.9169  0.5711
 7872SOL     OW35248   3.430   2.093   6.512 -0.6092 -0.3549  0.6660
 7872SOL    HW135249   3.353   2.108   6.566  0.3209  1.7886  1.3686
 7872SOL    HW235250   3.409   2.150   6.438  0.3804 -1.4285 -0.4486
 7873SOL     OW35251   3.063   3.897   4.071  0.0427 -0.1371  0.9597
 7873SOL    HW135252   2.993   3.895   4.006  0.7897 -0.2985  0.1540
 7873SOL    HW235253   3.133   3.867   4.013 -0.5372  1.3011 -0.4806
 7874SOL     OW35254   1.090   2.402   8.509 -0.4690  0.0017 -0.4079
 7874SOL    HW135255   1.042   2.419   8.590  0.6968 -1.4594  0.5966
 7874SOL    HW235256   1.109   2.309   8.510  0.9456  0.2955  0.9012
 7875SOL     OW35257   1.241   3.303   1.790 -0.2505  0.1008  0.1395
 7875SOL    HW135258   1.162   3.335   1.749 -1.1820  0.2075  2.0113
 7875SOL    HW235259   1.241   3.352   1.873  2.2276 -0.6927  0.6183
 7876SOL     OW35260   0.330   0.983   0.298  0.2712  0.5784  0.2701
 7876SOL    HW135261   0.289   1.022   0.375 -1.8145  1.0606 -1.0841
 7876SOL    HW235262   0.245   0.944   0.275  1.2378 -0.6708 -1.2282
 7877SOL     OW35263   4.581   4.183   3.229  0.1455 -0.1420 -0.4233
 7877SOL    HW135264   4.595   4.246   3.158 -2.0800 -0.3539 -1.0464
 7877SOL    HW235265   4.647   4.117   3.210 -2.5638 -2.8936 -0.1974
 7878SOL     OW35266   2.700   1.362   3.694  0.2232 -0.2295 -0.1383
 7878SOL    HW135267   2.768   1.299   3.675  0.0698 -0.3992 -0.1208
 7878SOL    HW235268   2.741   1.439   3.654 -2.0148  1.1399  0.1643
 7879SOL     OW35269   0.533   0.460   3.193 -0.8367 -0.1343  0.0852
 7879SOL    HW135270   0.607   0.478   3.251  0.0836  1.6060 -1.6308
 7879SOL    HW235271   0.468   0.471   3.262 -0.4602  0.7604  0.2886
 7880SOL     OW35272   2.728   0.212   8.516 -0.2595 -0.1893 -0.4866
 7880SOL    HW135273   2.790   0.169   8.576  0.4352  2.4920  0.7606
 7880SOL    HW235274   2.776   0.290   8.487  0.6695 -0.5259  0.1207
 7881SOL     OW35275   3.351   2.039   4.348 -0.2790 -0.7078 -0.3300
 7881SOL    HW135276   3.337   2.075   4.435 -0.0801 -1.6854  0.1120
 7881SOL    HW235277   3.445   2.048   4.335 -0.2862 -0.8824 -0.5113
 7882SOL     OW35278   2.933   1.679  17.101 -0.2155 -0.7234 -0.4305
 7882SOL    HW135279   2.996   1.667  17.030 -0.4245 -0.3662 -0.6762
 7882SOL    HW235280   2.955   1.604  17.156  0.1858 -0.3743 -0.1093
 7883SOL     OW35281   1.709   1.535   2.963 -1.2937  0.1814  0.3355
 7883SOL    HW135282   1.664   1.459   3.001 -3.2830  0.5972 -1.1621
 7883SOL    HW235283   1.642   1.582   2.912 -0.6096 -0.4344 -1.1224
 7884SOL     OW35284   4.495   3.415   3.240  0.2828  0.1290  0.0930
 7884SOL    HW135285   4.533   3.455   3.318  0.7442 -0.8621  0.3700
 7884SOL    HW235286   4.404   3.415   3.268 -0.1024  3.0620 -1.0921
 7885SOL     OW35287   4.213   2.099   2.384 -0.9239  0.0545 -0.0696
 7885SOL    HW135288   4.230   2.186   2.348 -2.9363 -0.0829 -1.3392
 7885SOL    HW235289   4.174   2.047   2.314 -0.1447  3.0210 -2.6592
 7886SOL     OW35290   2.006   1.317   2.393 -0.2457 -0.6790  0.4563
 7886SOL    HW135291   1.951   1.387   2.357  0.9263 -0.0298 -0.0902
 7886SOL    HW235292   2.087   1.363   2.370 -0.1058 -1.1173  0.0688
 7887SOL     OW35293   2.915   0.116   8.672 -0.2796 -0.0507  0.0953
 7887SOL    HW135294   2.992   0.060   8.667  1.1188  2.1112 -2.6810
 7887SOL    HW235295   2.903   0.120   8.767  1.4676 -0.8526  0.3463
 7888SOL     OW35296   1.426   1.356   2.289  0.3310 -0.1116 -0.1070
 7888SOL    HW135297   1.388   1.297   2.225 -3.2131  2.1768 -0.0967
 7888SOL    HW235298   1.379   1.437   2.269  0.3103  0.7022  3.2389
 7889SOL     OW35299   3.652   3.639  10.476  0.2974  0.1943 -0.2526
 7889SOL    HW135300   3.651   3.613  10.568  1.0895 -0.1447 -0.3413
 7889SOL    HW235301   3.584   3.706  10.482 -0.0010  0.0448 -1.9149
 7890SOL     OW35302   0.328   1.807  11.689 -0.0973 -0.4559 -0.0714
 7890SOL    HW135303   0.406   1.857  11.713  0.2806 -2.6691  3.3337
 7890SOL    HW235304   0.266   1.873  11.660 -0.7964  0.0480  2.5653
 7891SOL     OW35305   1.251   3.456   1.505 -0.1341 -0.1049 -0.1291
 7891SOL    HW135306   1.322   3.392   1.507 -0.2103 -0.0929  2.2004
 7891SOL    HW235307   1.286   3.516   1.440  0.5798 -0.1177  0.2494
 7892SOL     OW35308   1.555   3.416   8.057 -0.4144  0.1330 -0.2897
 7892SOL    HW135309   1.629   3.368   8.020 -0.2903 -0.7375  1.0820
 7892SOL    HW235310   1.505   3.346   8.098  0.6555 -0.3709  0.1578
 7893SOL     OW35311   3.980   1.325   5.966  0.1973 -0.1941  0.0994
 7893SOL    HW135312   3.896   1.371   5.964 -1.8075 -3.7886  1.5675
 7893SOL    HW235313   4.025   1.374   6.035 -0.0925 -0.1967  0.2880
 7894SOL     OW35314   4.623   1.067   0.374 -0.0828  0.3914  0.0781
 7894SOL    HW135315   4.656   1.002   0.311  0.3098  0.6672  0.0011
 7894SOL    HW235316   4.696   1.100   0.425  0.7808 -2.8715  0.9496
 7895SOL     OW35317   1.748   0.753  17.189 -0.1642 -0.0640  0.1021
 7895SOL    HW135318   1.756   0.773  17.096 -0.0933 -1.2358 -0.1430
 7895SOL    HW235319   1.700   0.671  17.202 -0.9418  0.2366 -0.8679
 7896SOL     OW35320   2.147   3.202   4.240  0.0849  0.0519  0.2716
 7896SOL    HW135321   2.209   3.130   4.253  1.1813  0.8844 -0.3147
 7896SOL    HW235322   2.071   3.152   4.211  0.4539 -1.3639  1.6924
 7897SOL     OW35323   1.385   1.431   9.899 -0.5545  0.1195 -0.5311
 7897SOL    HW135324   1.400   1.443   9.993  1.3841  1.7667 -1.0568
 7897SOL    HW235325   1.294   1.401   9.899 -0.6265  0.3285  0.4154
 7898SOL     OW35326   2.699   1.959   4.283 -0.1697 -0.2212 -0.2198
 7898SOL    HW135327   2.765   2.011   4.329 -0.8326  1.9774 -1.7588
 7898SOL    HW235328   2.643   1.947   4.360 -1.9083  1.0823 -1.2852
 7899SOL     OW35329   4.067   1.391   8.845  0.3066 -0.6354  0.5855
 7899SOL    HW135330   4.029   1.353   8.767 -1.5085  2.4203 -0.0248
 7899SOL    HW235331   3.992   1.418   8.899  0.6488 -0.4239  0.9606
 7900SOL     OW35332   3.361   1.783   1.996  0.1656 -0.1445 -0.4846
 7900SOL    HW135333   3.308   1.862   2.002 -0.6380 -0.6970 -0.1948
 7900SOL    HW235334   3.395   1.803   1.909 -0.4775 -0.9254 -0.9174
 7901SOL     OW35335   2.110   0.185  14.621 -0.0689  0.1355 -0.0299
 7901SOL    HW135336   2.079   0.245  14.689  3.0375  1.1154  0.5757
 7901SOL    HW235337   2.108   0.251  14.551 -3.2619 -0.0891 -0.1376
 7902SOL     OW35338   4.687   3.391   1.648  0.1070 -0.2952 -0.3908
 7902SOL    HW135339   4.614   3.422   1.595  1.5017 -0.0826 -2.1993
 7902SOL    HW235340   0.013   3.353   1.586 -0.4938 -0.1362 -1.0893
 7903SOL     OW35341   4.535   3.946   2.494 -0.1412 -0.3174  0.0894
 7903SOL    HW135342   4.558   3.886   2.565 -2.7511  0.5117  1.6209
 7903SOL    HW235343   4.464   3.900   2.449 -0.0089 -1.4007  0.9934
 7904SOL     OW35344   1.748   3.794   9.955 -0.0528 -0.1767 -0.4611
 7904SOL    HW135345   1.762   3.838  10.039  0.3822  0.8183 -1.0676
 7904SOL    HW235346   1.782   3.852   9.888 -0.0531  0.4983  0.1260
 7905SOL     OW35347   0.479   4.058  10.489  0.7628 -0.0577 -0.1018
 7905SOL    HW135348   0.516   3.971  10.504  0.9028  0.2619  1.3997
 7905SOL    HW235349   0.464   4.058  10.395  0.9312  3.1282 -0.1556
 7906SOL     OW35350   1.589   4.081   2.987  0.1053  0.1626 -0.2576
 7906SOL    HW135351   1.674   4.091   3.029 -0.6099  1.0129  1.0089
 7906SOL    HW235352   1.568   4.169   2.955  1.9652  1.0829  1.0658
 7907SOL     OW35353   0.849   3.644   1.844  0.1982 -0.7966 -0.4326
 7907SOL    HW135354   0.844   3.702   1.768 -0.7915 -0.2164  0.0623
 7907SOL    HW235355   0.936   3.664   1.878 -0.0423 -1.6151  0.6608
 7908SOL     OW35356   2.144   1.465  11.477 -0.1220 -0.1524 -0.1693
 7908SOL    HW135357   2.061   1.512  11.466 -0.1699 -0.5686 -1.6153
 7908SOL    HW235358   2.185   1.504  11.399 -3.2086  2.4402 -0.5079
 7909SOL     OW35359   1.472   0.810   4.684  0.3219 -0.6144  0.0071
 7909SOL    HW135360   1.545   0.754   4.710  1.3330  1.3693  1.5006
 7909SOL    HW235361   1.523   0.890   4.668  0.8598 -0.7723  0.9403
 7910SOL     OW35362   1.271   2.351  11.070  0.9829 -0.6150  0.3251
 7910SOL    HW135363   1.200   2.394  11.118  1.4690 -0.2978  0.7625
 7910SOL    HW235364   1.245   2.362  10.979  0.0883 -0.4203  0.5995
 7911SOL     OW35365   3.219   4.478   9.525 -0.2206  0.1756 -0.2226
 7911SOL    HW135366   3.201   4.400   9.577 -1.7927 -0.1082 -1.2049
 7911SOL    HW235367   3.132   4.512   9.507  0.6986  1.4647 -2.2770
 7912SOL     OW35368   1.173   1.842   6.193 -0.1296  0.2748 -0.2522
 7912SOL    HW135369   1.226   1.921   6.197  2.0036 -1.1732 -0.0529
 7912SOL    HW235370   1.184   1.808   6.105  0.9053  0.3294 -0.1401
 7913SOL     OW35371   2.088   2.819   3.878  0.2633 -0.4421 -0.1118
 7913SOL    HW135372   2.140   2.791   3.954 -3.4614 -0.5948  2.4085
 7913SOL    HW235373   1.997   2.811   3.908 -0.7326  0.9596 -2.8143
 7914SOL     OW35374   1.533   0.146   7.152 -0.2136 -0.0843 -0.1150
 7914SOL    HW135375   1.479   0.068   7.152  0.7105 -0.7235 -0.0680
 7914SOL    HW235376   1.624   0.118   7.155  0.6228  2.5911 -0.2749
 7915SOL     OW35377   4.519   0.318   1.403  0.5873  0.3907 -0.1078
 7915SOL    HW135378   4.502   0.243   1.346 -0.8994  0.5345  0.1347
 7915SOL    HW235379   4.613   0.332   1.415  0.2014  2.0552  1.0654
 7916SOL     OW35380   3.755   0.177   7.233 -0.1419 -0.3453  0.4015
 7916SOL    HW135381   3.815   0.242   7.197 -1.2238  0.2463 -0.3353
 7916SOL    HW235382   3.783   0.181   7.325 -0.6605 -1.0870  0.5930
 7917SOL     OW35383   3.857   4.398  16.761  0.1712 -0.2344  0.0560
 7917SOL    HW135384   3.930   4.340  16.740 -0.2676 -0.7002 -0.1677
 7917SOL    HW235385   3.789   4.344  16.801  2.5970 -2.3544  1.2423
 7918SOL     OW35386   1.857   2.098   9.387 -0.0113 -0.1257 -0.4797
 7918SOL    HW135387   1.833   2.136   9.471 -0.3357 -2.7307  0.5987
 7918SOL    HW235388   1.920   2.160   9.351  1.6019 -1.3768  0.2059
 7919SOL     OW35389   1.044   3.232   8.668 -0.0605 -0.6410 -0.3518
 7919SOL    HW135390   1.035   3.140   8.691 -0.6448 -0.6635 -0.6602
 7919SOL    HW235391   1.118   3.257   8.724  1.1998  0.5275 -2.5147
 7920SOL     OW35392   2.400   3.820   3.844  0.2105  0.0898 -0.1705
 7920SOL    HW135393   2.416   3.732   3.879 -0.9390 -0.4386 -1.0029
 7920SOL    HW235394   2.380   3.805   3.752 -1.6495  1.8178 -0.0410
 7921SOL     OW35395   1.224   4.461   9.196 -0.4870  0.2579  0.5380
 7921SOL    HW135396   1.175   4.423   9.124 -3.0105  1.3255  1.7037
 7921SOL    HW235397   1.248   4.384   9.248  0.0741  0.9759  1.3478
 7922SOL     OW35398   1.433   1.471   6.595  0.0149  0.0292 -0.0009
 7922SOL    HW135399   1.346   1.502   6.569 -0.3687 -0.4143  0.7630
 7922SOL    HW235400   1.427   1.382   6.562 -2.6254  0.3468 -0.4170
 7923SOL     OW35401   0.768   0.064   2.668  0.1931  0.1358 -0.5345
 7923SOL    HW135402   0.702   0.119   2.624  0.4849  1.6214  0.9127
 7923SOL    HW235403   0.743   4.721   2.620  0.4214 -0.5006  0.4013
 7924SOL     OW35404   0.891   2.266   9.715 -0.0073  0.1640  0.1842
 7924SOL    HW135405   0.923   2.177   9.732  1.0445  0.6800  0.9073
 7924SOL    HW235406   0.900   2.312   9.798 -2.0668  1.0588 -0.0997
 7925SOL     OW35407   0.358   1.726   8.272  0.1667 -0.0762  0.5593
 7925SOL    HW135408   0.427   1.792   8.268 -0.1144  0.0230 -2.9581
 7925SOL    HW235409   0.404   1.650   8.237  0.6340  0.5487 -0.2021
 7926SOL     OW35410   1.432   3.548   3.992 -0.4226  0.1995  0.0788
 7926SOL    HW135411   1.437   3.640   3.968 -1.0985  0.0291 -0.7247
 7926SOL    HW235412   1.352   3.528   3.944 -0.9240  2.0868  0.1255
 7927SOL     OW35413   4.429   4.160   2.958 -0.0189 -0.7498 -0.5380
 7927SOL    HW135414   4.370   4.190   2.889  0.7398  1.9783  0.0058
 7927SOL    HW235415   4.399   4.072   2.981 -0.3744 -1.1140 -2.4017
 7928SOL     OW35416   1.491   0.322  11.974  0.2134  0.3881  0.1854
 7928SOL    HW135417   1.479   0.276  11.891 -2.2691 -0.4796  1.0216
 7928SOL    HW235418   1.520   0.409  11.946  1.9410  0.0865  1.0840
 7929SOL     OW35419   2.860   3.144  10.801  0.4135 -0.3617  0.0676
 7929SOL    HW135420   2.889   3.230  10.830  0.1535 -0.0548 -0.5909
 7929SOL    HW235421   2.801   3.128  10.875 -0.0382  1.6033  0.1211
 7930SOL     OW35422   4.678   3.803   7.231 -0.1274 -0.1005 -0.1581
 7930SOL    HW135423   4.636   3.720   7.256 -0.3973  0.8459  2.5803
 7930SOL    HW235424   0.003   3.808   7.305  0.7847 -0.1704 -0.9097
 7931SOL     OW35425   4.471   4.144   8.843 -0.1345  0.4898 -0.0661
 7931SOL    HW135426   4.522   4.183   8.913  1.3617  1.1198 -1.4931
 7931SOL    HW235427   4.380   4.145   8.874 -0.8095  1.9331 -2.0981
 7932SOL     OW35428   0.413   3.801   3.564  0.1550  0.1381  0.3527
 7932SOL    HW135429   0.448   3.838   3.645 -1.9092  1.3495  0.6684
 7932SOL    HW235430   0.497   3.762   3.537  0.1600  1.7084 -1.8981
 7933SOL     OW35431   2.010   1.293   4.957  0.2858  0.8142 -0.1305
 7933SOL    HW135432   1.940   1.253   4.905 -0.0453  1.1287  0.0762
 7933SOL    HW235433   2.074   1.222   4.948  0.3624  1.0086 -1.1579
 7934SOL     OW35434   1.687   1.764   3.884  0.1888  0.3190 -0.2295
 7934SOL    HW135435   1.648   1.828   3.825  1.4676  1.1117 -0.2041
 7934SOL    HW235436   1.717   1.830   3.946  0.1694  0.8848 -0.8261
 7935SOL     OW35437   0.389   1.860   5.256  0.0391 -0.5002 -0.9232
 7935SOL    HW135438   0.309   1.905   5.228  0.9480  0.7598 -1.4511
 7935SOL    HW235439   0.405   1.799   5.185  0.1195  0.3451 -1.6272
 7936SOL     OW35440   1.842   4.161   3.076  1.1084  0.0593  0.3131
 7936SOL    HW135441   1.919   4.148   3.021  0.9761 -0.8908  0.3627
 7936SOL    HW235442   1.855   4.254   3.095  1.0818  0.1678 -0.2041
 7937SOL     OW35443   0.849   0.370   5.246 -0.2831 -0.2862 -0.2301
 7937SOL    HW135444   0.914   0.428   5.285 -0.0922 -1.4884  1.2471
 7937SOL    HW235445   0.892   0.310   5.185 -1.1884 -1.6645  0.4761
 7938SOL     OW35446   3.398   3.669   8.989 -0.0274  0.1298  0.2314
 7938SOL    HW135447   3.392   3.661   8.894  0.6938 -0.7949  0.2695
 7938SOL    HW235448   3.356   3.752   9.014  1.7111  0.5575  1.7026
 7939SOL     OW35449   3.481   1.434   5.870 -0.4546  0.7001  0.2026
 7939SOL    HW135450   3.480   1.376   5.946 -0.0414  2.4499  1.5334
 7939SOL    HW235451   3.389   1.460   5.862 -0.8897 -0.4096  1.5104
 7940SOL     OW35452   2.151   2.639  13.291 -0.2573  0.0714  0.3077
 7940SOL    HW135453   2.091   2.701  13.248  0.0899 -0.2195 -0.5949
 7940SOL    HW235454   2.095   2.581  13.342  0.0949  0.6620  1.3636
 7941SOL     OW35455   3.050   0.488   0.125  0.6860 -0.3002  0.6456
 7941SOL    HW135456   2.989   0.562   0.133  2.1442  0.8872  0.6873
 7941SOL    HW235457   3.048   0.469   0.031  0.2442 -1.9355  0.9864
 7942SOL     OW35458   1.628   4.195   5.632 -0.0277 -0.4125  0.3317
 7942SOL    HW135459   1.677   4.239   5.701 -0.1630 -0.9208  0.7528
 7942SOL    HW235460   1.687   4.199   5.556  0.6499 -1.1783  0.8117
 7943SOL     OW35461   1.961   4.471   2.716 -0.1672  0.2457 -0.5943
 7943SOL    HW135462   2.042   4.461   2.665  0.6976  0.5318  0.7160
 7943SOL    HW235463   1.904   4.458   2.641  0.1156  0.5264 -0.8611
 7944SOL     OW35464   3.730   4.441  14.243  0.6302  0.2482  0.5114
 7944SOL    HW135465   3.711   4.522  14.290  0.9053  0.0750  0.9307
 7944SOL    HW235466   3.680   4.445  14.162 -0.0870  3.2973  1.1273
 7945SOL     OW35467   3.629   3.553   3.560  0.1219  0.6910 -0.2114
 7945SOL    HW135468   3.607   3.514   3.644 -0.4759 -0.1602 -0.7589
 7945SOL    HW235469   3.558   3.539   3.497 -1.1510  0.3671  1.3068
 7946SOL     OW35470   3.885   3.321   9.327  0.5013  0.2034 -0.2242
 7946SOL    HW135471   3.860   3.311   9.235  0.4854  1.1592 -0.3218
 7946SOL    HW235472   3.835   3.401   9.341 -1.2027 -1.0992  1.2385
 7947SOL     OW35473   4.372   3.226  12.123  0.0789 -1.0832  0.1796
 7947SOL    HW135474   4.416   3.230  12.038 -1.5862 -1.0376 -0.6729
 7947SOL    HW235475   4.291   3.271  12.098  0.6356  1.0357  2.1156
 7948SOL     OW35476   3.230   2.701   9.253 -0.3763 -0.0095 -0.5883
 7948SOL    HW135477   3.173   2.761   9.300  0.0720  1.3256 -1.7485
 7948SOL    HW235478   3.263   2.763   9.188  1.4054 -0.8022 -0.4243
 7949SOL     OW35479   0.549   0.892   4.667  0.0593  0.3190  0.4180
 7949SOL    HW135480   0.530   0.829   4.737  0.9339 -0.3331  0.0712
 7949SOL    HW235481   0.628   0.849   4.634 -1.0417 -1.0865 -0.3275
 7950SOL     OW35482   1.169   0.160   8.997 -0.6309  0.1978 -0.4688
 7950SOL    HW135483   1.099   0.109   9.038 -1.3219  0.5782 -1.1873
 7950SOL    HW235484   1.118   0.239   8.980  0.8951  1.1113 -0.8020
 7951SOL     OW35485   4.113   1.531   2.327  0.0382  0.1139  0.0450
 7951SOL    HW135486   4.172   1.606   2.338  0.2536 -0.0152 -0.2202
 7951SOL    HW235487   4.074   1.548   2.242 -0.8383  0.9739  0.6147
 7952SOL     OW35488   4.054   4.350   1.678  0.0845 -1.1845  0.0349
 7952SOL    HW135489   4.031   4.264   1.644 -0.9029 -1.3570  1.1114
 7952SOL    HW235490   4.138   4.324   1.716  0.2080 -1.2913 -0.3127
 7953SOL     OW35491   4.685   0.243  12.731  0.2732 -0.4096  0.5710
 7953SOL    HW135492   4.731   0.323  12.757  0.6079 -0.1071 -0.9507
 7953SOL    HW235493   4.604   0.251  12.783 -0.0185 -0.3037  0.1003
 7954SOL     OW35494   2.862   3.491   4.625 -0.7936  0.1130 -0.1027
 7954SOL    HW135495   2.907   3.416   4.585 -1.2784 -1.2569  1.9264
 7954SOL    HW235496   2.790   3.503   4.562 -3.0231  1.5919  2.7531
 7955SOL     OW35497   1.267   2.587   2.047  0.9370  0.3309 -0.3979
 7955SOL    HW135498   1.175   2.586   2.023 -0.1362 -1.1265  3.7555
 7955SOL    HW235499   1.292   2.495   2.047 -1.2694 -0.2459  0.0699
 7956SOL     OW35500   0.695   2.851   7.744 -0.7054 -0.6125  0.1496
 7956SOL    HW135501   0.770   2.910   7.742 -1.6677  0.6383  1.3205
 7956SOL    HW235502   0.639   2.896   7.807 -1.5386 -0.9914 -0.3217
 7957SOL     OW35503   1.678   2.839   8.419  0.7774  0.2949 -0.1596
 7957SOL    HW135504   1.602   2.832   8.361 -0.4017 -2.2187  1.7022
 7957SOL    HW235505   1.754   2.833   8.361  0.2932  0.0719 -0.7649
 7958SOL     OW35506   3.475   0.950   8.263 -0.0142 -0.2607  0.0913
 7958SOL    HW135507   3.386   0.930   8.293 -1.7473  3.4899 -2.5836
 7958SOL    HW235508   3.506   0.868   8.224 -0.5656 -0.8813  0.9551
 7959SOL     OW35509   4.502   3.884   1.666 -0.0034 -0.2232  0.1663
 7959SOL    HW135510   4.517   3.800   1.709  0.9433 -0.7176 -1.1531
 7959SOL    HW235511   4.421   3.870   1.617  0.0016  1.5502 -0.3522
 7960SOL     OW35512   3.989   1.004   1.657  0.5951 -0.2620 -0.3297
 7960SOL    HW135513   4.018   1.038   1.572  0.9800  2.0099  0.7029
 7960SOL    HW235514   4.020   1.073   1.716  0.4519  0.2039 -0.7980
 7961SOL     OW35515   4.261   2.655   8.472 -0.1291  0.2437 -0.1573
 7961SOL    HW135516   4.330   2.677   8.534 -0.7330  0.4532  0.4421
 7961SOL    HW235517   4.253   2.561   8.489  1.2348 -0.0567 -1.1469
 7962SOL     OW35518   1.582   4.509   8.827 -0.7275  0.2614  0.7494
 7962SOL    HW135519   1.616   4.575   8.766 -1.1929  0.5019  0.7486
 7962SOL    HW235520   1.626   4.537   8.907  0.4257 -0.9672  0.5488
 7963SOL     OW35521   2.707   3.618  10.202  0.3831  0.5960  0.1686
 7963SOL    HW135522   2.650   3.551  10.240 -0.8327  0.3539 -2.0604
 7963SOL    HW235523   2.732   3.663  10.282 -0.0710 -0.5450  0.9501
 7964SOL     OW35524   0.243   2.862   9.930 -0.1521  0.5272  0.1170
 7964SOL    HW135525   0.318   2.816   9.891 -1.7946 -0.5052 -1.8820
 7964SOL    HW235526   0.262   2.943   9.883  0.6847 -0.9170 -2.0871
 7965SOL     OW35527   2.853   1.272   9.339 -0.0963 -0.7762 -0.4661
 7965SOL    HW135528   2.937   1.273   9.294  0.6507 -0.4839  0.9557
 7965SOL    HW235529   2.844   1.363   9.367  0.2635 -0.5991 -0.9173
 7966SOL     OW35530   0.529   3.984   4.068 -0.2355  0.0894 -0.0250
 7966SOL    HW135531   0.580   3.940   4.136  0.2476 -0.2926 -0.6313
 7966SOL    HW235532   0.446   4.008   4.109 -0.3223 -0.1255 -0.0787
 7967SOL     OW35533   1.702   1.537   2.607  0.3488  0.2239 -0.1188
 7967SOL    HW135534   1.751   1.546   2.689  0.9216 -0.7989 -0.3481
 7967SOL    HW235535   1.662   1.624   2.598  0.5985  0.2940 -0.5516
 7968SOL     OW35536   4.086   3.493   6.377  0.0471  0.1693  0.1188
 7968SOL    HW135537   4.057   3.402   6.390  0.9541  0.0219  1.0979
 7968SOL    HW235538   4.181   3.495   6.366  0.0701 -1.3931  0.0262
 7969SOL     OW35539   3.461   3.518   4.348  0.4002  0.1907 -0.2241
 7969SOL    HW135540   3.473   3.425   4.368  0.0668 -0.0911 -1.3280
 7969SOL    HW235541   3.367   3.534   4.357  0.2085  0.1286 -1.9750
 7970SOL     OW35542   0.209   3.104   6.085  0.4309  0.2089  0.1425
 7970SOL    HW135543   0.229   3.104   5.992 -1.7132 -3.3788 -0.3073
 7970SOL    HW235544   0.267   3.172   6.121  0.4866 -0.6031  1.6107
 7971SOL     OW35545   3.239   0.802  15.321  0.0785  0.0683 -0.5401
 7971SOL    HW135546   3.308   0.867  15.313  0.1046  0.1444  0.2544
 7971SOL    HW235547   3.289   0.722  15.337 -0.3790 -0.2090 -0.4698
 7972SOL     OW35548   2.424   0.193  13.015 -0.2654 -0.4982 -0.1660
 7972SOL    HW135549   2.506   0.219  12.974 -0.9042  1.1432 -0.4330
 7972SOL    HW235550   2.462   0.135  13.081 -0.2970  0.0859  0.3651
 7973SOL     OW35551   1.909   0.413   8.717  0.2630  0.7172 -0.0816
 7973SOL    HW135552   1.945   0.354   8.650 -0.8405 -0.5610  0.4508
 7973SOL    HW235553   1.985   0.470   8.729  0.9175 -0.0731 -0.4055
 7974SOL     OW35554   2.258   1.415  12.551 -0.0998  0.3623 -0.1059
 7974SOL    HW135555   2.324   1.407  12.482 -0.4128 -0.6232 -0.2998
 7974SOL    HW235556   2.302   1.430  12.635  0.8346  1.0712 -0.7214
 7975SOL     OW35557   4.560   1.332   4.865 -0.0890  0.0231 -0.0583
 7975SOL    HW135558   4.473   1.353   4.832 -1.1833 -5.4254 -0.6506
 7975SOL    HW235559   4.546   1.241   4.891  1.1587 -0.3780 -0.8037
 7976SOL     OW35560   2.725   4.028   8.899 -0.2912 -0.4964 -0.7180
 7976SOL    HW135561   2.699   4.051   8.988 -2.1001 -0.8536 -1.1559
 7976SOL    HW235562   2.786   4.098   8.878  0.7142 -1.7649 -1.9824
 7977SOL     OW35563   1.798   0.998   3.793  0.6687 -0.0665  0.1945
 7977SOL    HW135564   1.850   1.067   3.752  1.0729 -1.5313 -1.7500
 7977SOL    HW235565   1.857   0.929   3.763 -1.0868 -0.1648 -3.0813
 7978SOL     OW35566   4.124   3.499  11.788  0.0484 -0.1579 -0.0012
 7978SOL    HW135567   4.146   3.427  11.729  2.2110 -0.0887  0.7295
 7978SOL    HW235568   4.080   3.555  11.724 -1.0572  1.5795  2.2584
 7979SOL     OW35569   3.274   3.996  15.571  0.4745  0.0766  0.0916
 7979SOL    HW135570   3.260   3.904  15.547  2.8404 -0.5252  1.0627
 7979SOL    HW235571   3.205   4.035  15.518  0.7056  1.0839  0.5400
 7980SOL     OW35572   2.097   2.586  14.559  0.3493 -0.0708 -0.1201
 7980SOL    HW135573   2.051   2.518  14.510  1.3755 -0.9293  0.0965
 7980SOL    HW235574   2.186   2.553  14.542 -0.9081 -4.3227  1.6066
 7981SOL     OW35575   2.163   2.058   9.895 -0.9524  0.1211  0.0418
 7981SOL    HW135576   2.103   2.132   9.909 -0.3519  0.3460  1.4107
 7981SOL    HW235577   2.220   2.061   9.972  1.1109 -0.9531 -1.4637
 7982SOL     OW35578   4.707   2.589   5.861  0.1287 -0.3804  0.1032
 7982SOL    HW135579   0.002   2.674   5.831 -2.7876  0.5819 -0.2581
 7982SOL    HW235580   4.728   2.537   5.783 -1.2517  1.2537 -1.3857
 7983SOL     OW35581   0.538   0.446   4.549  0.1458 -0.0307  0.1489
 7983SOL    HW135582   0.613   0.489   4.590 -0.1179 -1.1023  1.7614
 7983SOL    HW235583   0.556   0.354   4.569  0.6739 -0.5412 -2.7350
 7984SOL     OW35584   0.398   2.499   6.368 -0.2751  0.1945 -0.1206
 7984SOL    HW135585   0.419   2.506   6.461  0.6347 -0.7589 -0.2423
 7984SOL    HW235586   0.304   2.490   6.381 -0.3073 -1.0768 -1.1286
 7985SOL     OW35587   2.617   1.110  14.850  0.0481 -0.1071  0.1263
 7985SOL    HW135588   2.648   1.196  14.821  1.6290 -1.3070 -1.6995
 7985SOL    HW235589   2.677   1.078  14.917  0.8413 -1.0707 -1.0586
 7986SOL     OW35590   2.452   3.842   5.865 -0.0714  0.1020  0.1027
 7986SOL    HW135591   2.503   3.902   5.810 -2.3932  1.9568  0.0068
 7986SOL    HW235592   2.518   3.785   5.905 -1.2613 -1.6950 -0.5175
 7987SOL     OW35593   2.227   4.363   7.143  0.1356  0.4120 -0.6031
 7987SOL    HW135594   2.208   4.298   7.210 -0.2665  0.4123 -0.7164
 7987SOL    HW235595   2.145   4.370   7.093 -0.1528 -3.4333 -0.7071
 7988SOL     OW35596   0.385   1.203   4.188  0.7682 -0.9497 -0.0303
 7988SOL    HW135597   0.433   1.274   4.230 -1.9887 -0.0756  1.6019
 7988SOL    HW235598   0.312   1.193   4.248  0.1631 -1.9977 -0.9402
 7989SOL     OW35599   4.518   2.241   9.344 -0.3608  0.6361  0.5149
 7989SOL    HW135600   4.607   2.256   9.376 -0.0839  3.1391 -1.4185
 7989SOL    HW235601   4.500   2.306   9.276  1.2007  0.2969 -0.2167
 7990SOL     OW35602   0.512   4.422   4.592 -0.9193 -0.2175  0.5826
 7990SOL    HW135603   0.417   4.432   4.601 -0.8904  0.7643 -0.1259
 7990SOL    HW235604   0.527   4.333   4.560 -0.1210  0.4934 -1.0400
 7991SOL     OW35605   0.166   3.452   8.284  0.5255 -0.1122  0.4213
 7991SOL    HW135606   0.156   3.546   8.275  1.3317  0.1708  2.4009
 7991SOL    HW235607   0.146   3.431   8.375 -0.2893  3.0062  0.9337
 7992SOL     OW35608   3.331   3.789   1.804 -0.1760 -0.0351 -0.1112
 7992SOL    HW135609   3.391   3.812   1.875 -1.5281  0.2886  0.9234
 7992SOL    HW235610   3.368   3.835   1.729  1.0195 -1.4341 -0.3771
 7993SOL     OW35611   1.503   4.586   9.529 -0.6198  0.1392  0.5082
 7993SOL    HW135612   1.537   4.657   9.582  1.2952 -0.9748  0.7612
 7993SOL    HW235613   1.429   4.623   9.480  0.7962  0.4071 -1.4641
 7994SOL     OW35614   3.126   1.086   4.080  0.8243 -0.2697  0.3666
 7994SOL    HW135615   3.033   1.107   4.075  0.3181 -2.6792 -0.7937
 7994SOL    HW235616   3.146   1.091   4.174 -1.2751  0.3114  0.7970
 7995SOL     OW35617   0.324   2.115   0.568  0.0605 -0.1531 -0.5186
 7995SOL    HW135618   0.412   2.121   0.606  0.1096  1.4077 -0.8659
 7995SOL    HW235619   0.353   2.114   0.477  2.6018 -4.9719  0.3508
 7996SOL     OW35620   2.988   3.149   6.329 -0.2740  0.5619  0.5051
 7996SOL    HW135621   2.907   3.101   6.346  0.5511 -0.5675  1.1872
 7996SOL    HW235622   3.007   3.186   6.416  1.6565  2.8450 -0.8781
 7997SOL     OW35623   0.758   4.121  16.266 -0.5360 -0.2685  0.1181
 7997SOL    HW135624   0.675   4.161  16.293  0.0351  0.8081  0.2898
 7997SOL    HW235625   0.807   4.104  16.347 -2.7961 -1.4972  1.2560
 7998SOL     OW35626   0.422   3.483   2.753  0.9608  0.6377  0.3148
 7998SOL    HW135627   0.415   3.424   2.678 -0.3998  2.7153 -1.1810
 7998SOL    HW235628   0.372   3.559   2.722  1.9020  0.8124 -0.7901
 7999SOL     OW35629   0.950   0.727   7.091  0.3196 -0.0163  0.2455
 7999SOL    HW135630   0.971   0.658   7.028 -1.2256 -2.2947  2.2758
 7999SOL    HW235631   0.871   0.768   7.057 -0.2656 -2.3450 -1.1454
 8000SOL     OW35632   3.361   2.573  17.731  0.1185 -0.9036 -0.2145
 8000SOL    HW135633   3.401   2.491  17.701 -1.7214 -1.5734 -0.8145
 8000SOL    HW235634   3.307   2.600  17.656 -0.9110  0.3990  1.0089
 8001SOL     OW35635   3.423   3.570  12.016 -0.1604  0.3291  0.6596
 8001SOL    HW135636   3.376   3.653  12.027  1.2730  1.2613 -0.1414
 8001SOL    HW235637   3.351   3.510  12.000 -0.0109  0.0222  1.1613
 8002SOL     OW35638   3.690   0.681  12.830  0.3946 -0.6472  0.2906
 8002SOL    HW135639   3.725   0.641  12.751  2.8578 -1.5737  1.8334
 8002SOL    HW235640   3.631   0.741  12.784  0.2722 -0.1726  1.0571
 8003SOL     OW35641   2.826   2.449   5.958 -0.0738  0.2088  0.0607
 8003SOL    HW135642   2.920   2.462   5.973 -0.0276 -0.1957  0.1111
 8003SOL    HW235643   2.816   2.356   5.975 -0.1977  0.0970 -0.6354
 8004SOL     OW35644   0.884   3.846  12.930 -0.0310  0.3216  0.4939
 8004SOL    HW135645   0.816   3.886  12.876 -1.1485 -0.1576  1.5477
 8004SOL    HW235646   0.827   3.792  12.985  1.8189 -0.4491  1.6655
 8005SOL     OW35647   1.872   2.818  14.453 -0.0167 -0.3528  0.0932
 8005SOL    HW135648   1.876   2.809  14.357  2.4367  1.8688 -0.0213
 8005SOL    HW235649   1.887   2.728  14.480  2.4634  0.2669  0.8493
 8006SOL     OW35650   0.818   0.067  11.646  0.4644  0.2631 -0.2468
 8006SOL    HW135651   0.821   0.160  11.623 -2.9846  0.1420 -1.2832
 8006SOL    HW235652   0.807   0.019  11.564  1.3994  0.1832 -0.3181
 8007SOL     OW35653   1.602   1.026   6.172  0.2244 -0.3101 -0.0561
 8007SOL    HW135654   1.571   0.938   6.149 -1.4429  0.2517  0.0221
 8007SOL    HW235655   1.607   1.016   6.267  1.0686  1.2012  0.0523
 8008SOL     OW35656   4.730   4.322   6.946 -0.3819  0.5113 -0.5110
 8008SOL    HW135657   0.000   4.321   6.850 -2.7963 -0.9099 -0.6451
 8008SOL    HW235658   4.666   4.252   6.952 -1.4024  1.5726  0.8717
 8009SOL     OW35659   4.111   4.604  13.743 -0.2886  0.0526  0.2506
 8009SOL    HW135660   4.154   4.565  13.667  0.3023  0.7700  0.2155
 8009SOL    HW235661   4.179   4.613  13.810 -1.2332 -0.3762  1.2649
 8010SOL     OW35662   1.355   0.274   3.232  0.0146 -0.3641  0.4663
 8010SOL    HW135663   1.260   0.264   3.229  0.0693 -0.5797 -0.7256
 8010SOL    HW235664   1.389   0.191   3.265  2.2055 -0.0669 -1.0403
 8011SOL     OW35665   0.310   4.338  16.042  0.1813  0.7103 -0.2038
 8011SOL    HW135666   0.220   4.347  16.073  0.3111 -2.1961  0.9601
 8011SOL    HW235667   0.350   4.396  16.106 -0.8287  0.8110  0.3443
 8012SOL     OW35668   0.226   2.458   4.285  0.5739 -0.1176 -0.5403
 8012SOL    HW135669   0.276   2.377   4.282  1.6568  0.5512 -0.5440
 8012SOL    HW235670   0.146   2.439   4.237 -0.5906  0.2401  1.2619
 8013SOL     OW35671   4.579   4.454   2.233  0.3759 -0.1607 -0.2923
 8013SOL    HW135672   4.633   4.385   2.271 -0.0813 -0.2943  0.1224
 8013SOL    HW235673   4.603   4.453   2.141 -0.8769 -0.8811 -0.6132
 8014SOL     OW35674   4.143   3.143  15.383 -0.2158 -0.3856  0.5605
 8014SOL    HW135675   4.092   3.079  15.432  0.4762 -0.2709  1.4196
 8014SOL    HW235676   4.106   3.140  15.294  1.9297  2.2177 -0.4131
 8015SOL     OW35677   0.920   1.712   9.365  0.4029 -0.2617 -0.5838
 8015SOL    HW135678   0.940   1.620   9.348 -0.7061 -0.5196 -0.4822
 8015SOL    HW235679   0.926   1.703   9.460  1.7784 -0.5981 -0.7070
 8016SOL     OW35680   0.640   2.872   3.074 -0.0806 -0.5447 -0.8668
 8016SOL    HW135681   0.575   2.927   3.118  3.0487  0.3599  2.6307
 8016SOL    HW235682   0.641   2.793   3.129  0.6940 -0.3147 -0.5454
 8017SOL     OW35683   0.422   0.811   8.631  0.0405 -0.4192 -0.1271
 8017SOL    HW135684   0.441   0.774   8.545  1.8948  0.1923  0.0017
 8017SOL    HW235685   0.478   0.888   8.623 -1.3846  0.6840  0.5338
 8018SOL     OW35686   4.377   1.424   1.331 -0.6115 -0.2709 -0.2858
 8018SOL    HW135687   4.413   1.386   1.411 -0.0027  1.3142  0.1755
 8018SOL    HW235688   4.351   1.348   1.278 -2.2583  0.4621 -0.5288
 8019SOL     OW35689   3.549   3.668   1.252 -0.3327  0.6941 -0.6115
 8019SOL    HW135690   3.612   3.625   1.311 -0.6397 -1.1376 -1.6165
 8019SOL    HW235691   3.583   3.644   1.166  0.7403  1.3545 -0.3747
 8020SOL     OW35692   0.821   1.942   9.280  0.0303 -0.3150  0.8378
 8020SOL    HW135693   0.797   1.986   9.361 -0.2164  0.3426  0.4088
 8020SOL    HW235694   0.846   1.851   9.300 -1.8030 -1.2312 -1.0332
 8021SOL     OW35695   2.693   1.228  17.207 -0.8728 -0.0980  0.1974
 8021SOL    HW135696   2.788   1.219  17.204 -0.9095  0.3750 -2.4339
 8021SOL    HW235697   2.667   1.140  17.178 -2.1889  0.6271 -0.8338
 8022SOL     OW35698   2.999   1.351  14.565  0.4010 -0.4262  0.0295
 8022SOL    HW135699   2.967   1.274  14.613  1.9064 -0.8487  0.3539
 8022SOL    HW235700   2.920   1.368  14.514  0.4996 -1.2726 -0.3965
 8023SOL     OW35701   4.150   4.091   7.270  0.2624 -0.8912  0.2063
 8023SOL    HW135702   4.244   4.097   7.257  0.2020 -0.3864 -0.0041
 8023SOL    HW235703   4.136   4.011   7.322  0.3122  1.2261  3.5136
 8024SOL     OW35704   1.937   1.680   0.615 -0.2826  0.3487 -0.0351
 8024SOL    HW135705   1.867   1.689   0.550 -2.0941 -0.2024  1.8815
 8024SOL    HW235706   1.920   1.746   0.682  0.1844  2.8137 -2.3339
 8025SOL     OW35707   3.736   1.304   8.475 -0.5702  0.0793 -0.2182
 8025SOL    HW135708   3.726   1.218   8.436  0.9279  0.4953 -1.5528
 8025SOL    HW235709   3.664   1.294   8.537 -2.3251 -0.3645 -2.3369
 8026SOL     OW35710   0.572   2.709   4.392  0.0607  0.3727  0.5516
 8026SOL    HW135711   0.612   2.750   4.316  2.4368 -0.5249  1.3130
 8026SOL    HW235712   0.618   2.626   4.400  1.0001  0.6718 -1.7632
 8027SOL     OW35713   1.289   4.116   2.877  0.4093 -0.3774  0.6645
 8027SOL    HW135714   1.266   4.037   2.926  0.5965 -1.4359 -0.9666
 8027SOL    HW235715   1.345   4.081   2.808 -1.1798  0.4755 -1.0352
 8028SOL     OW35716   1.607   3.173   8.926  0.4509 -0.4730  0.0305
 8028SOL    HW135717   1.612   3.176   8.830 -2.6768  4.3717 -0.0132
 8028SOL    HW235718   1.511   3.169   8.934  0.5213 -1.8228  0.2007
 8029SOL     OW35719   3.467   3.759  14.781 -0.1399  0.9645 -0.2867
 8029SOL    HW135720   3.422   3.844  14.785 -0.6194  0.8315 -2.5683
 8029SOL    HW235721   3.477   3.741  14.875  2.7002 -3.2047 -1.3979
 8030SOL     OW35722   4.153   3.946   5.854 -0.0904  0.4985 -0.0256
 8030SOL    HW135723   4.146   3.926   5.761  0.4683 -0.9596  0.2572
 8030SOL    HW235724   4.079   4.007   5.850 -0.6429 -0.2007 -0.3352
 8031SOL     OW35725   3.948   0.399   9.372  0.7200 -0.3897 -0.0574
 8031SOL    HW135726   3.944   0.405   9.468 -2.2640 -1.4999 -0.1219
 8031SOL    HW235727   4.019   0.461   9.353  1.0129 -0.4758  0.7752
 8032SOL     OW35728   2.702   1.210   3.235 -0.0975 -0.1588  0.0194
 8032SOL    HW135729   2.654   1.249   3.308 -2.8981  1.5680 -2.7758
 8032SOL    HW235730   2.794   1.201   3.263  0.0591 -1.7557 -0.9989
 8033SOL     OW35731   3.011   1.712  11.408 -0.1958 -0.0089 -0.0426
 8033SOL    HW135732   3.060   1.753  11.479 -0.0686 -0.1001 -0.0768
 8033SOL    HW235733   2.992   1.629  11.452  1.4399  0.3936  1.4239
 8034SOL     OW35734   4.115   1.002   9.189  0.0516 -0.5955  0.0605
 8034SOL    HW135735   4.151   1.081   9.229  0.1936 -1.5479  1.8025
 8034SOL    HW235736   4.190   0.949   9.164 -0.1818  0.2795 -2.5521
 8035SOL     OW35737   3.670   2.495   8.199  0.1651 -0.4147  0.6302
 8035SOL    HW135738   3.635   2.431   8.262 -1.8480 -0.5800 -0.6876
 8035SOL    HW235739   3.713   2.559   8.255 -1.6970 -0.1738  1.7786
 8036SOL     OW35740   2.711   3.381   5.383 -0.1463  0.2032  0.3891
 8036SOL    HW135741   2.664   3.298   5.399 -0.2796  0.3772  0.9094
 8036SOL    HW235742   2.791   3.358   5.335  2.1741  2.1093  3.3725
 8037SOL     OW35743   0.080   1.965   6.679 -0.0864 -0.1424 -0.4136
 8037SOL    HW135744   0.116   1.917   6.605 -0.6939 -0.5067 -0.4646
 8037SOL    HW235745   0.035   1.901   6.733  1.3684 -1.2567 -0.5366
 8038SOL     OW35746   3.332   0.921  17.518  0.5059 -0.0538  0.7766
 8038SOL    HW135747   3.383   0.998  17.543  0.2265  0.7255 -1.1226
 8038SOL    HW235748   3.351   0.907  17.425 -0.8722 -0.1831  0.5253
 8039SOL     OW35749   4.440   1.841   7.199  0.1609  0.5229  0.8662
 8039SOL    HW135750   4.460   1.934   7.200  1.2965  0.2809 -0.6451
 8039SOL    HW235751   4.403   1.837   7.288  0.9542 -1.5891  1.0990
 8040SOL     OW35752   4.301   3.773   4.366  0.0079 -0.7131 -0.2440
 8040SOL    HW135753   4.289   3.856   4.412 -2.2824  0.7562 -3.4454
 8040SOL    HW235754   4.341   3.803   4.285 -2.2462  0.8712 -0.7949
 8041SOL     OW35755   4.291   3.012   2.341  0.0927  0.4917  0.0104
 8041SOL    HW135756   4.281   3.014   2.246 -0.6710  1.3197  0.1145
 8041SOL    HW235757   4.377   3.053   2.352  0.9255 -1.1141 -0.5351
 8042SOL     OW35758   3.376   3.930   9.785 -0.2724 -0.3178 -0.2105
 8042SOL    HW135759   3.358   4.014   9.828  3.9132  0.8639 -0.8260
 8042SOL    HW235760   3.398   3.962   9.698  0.2544 -0.4008 -0.1032
 8043SOL     OW35761   3.749   0.858   6.001 -0.5476 -0.0745  0.5152
 8043SOL    HW135762   3.815   0.903   5.949 -0.6801 -1.4415 -0.8550
 8043SOL    HW235763   3.781   0.875   6.089 -1.3728  0.5738  0.6828
 8044SOL     OW35764   0.778   0.118  10.299 -0.1371  0.7887  0.2995
 8044SOL    HW135765   0.785   0.052  10.229 -2.6645 -0.6630  1.3933
 8044SOL    HW235766   0.694   0.095  10.339 -0.9037 -0.6308 -2.0892
 8045SOL     OW35767   2.598   0.933   1.534  1.0723 -0.0492 -0.0755
 8045SOL    HW135768   2.529   0.994   1.510  0.6397 -0.4019  0.2761
 8045SOL    HW235769   2.604   0.861   1.471  2.7314 -0.6707  0.7705
 8046SOL     OW35770   2.569   0.384   8.665  0.0898 -0.1198  0.1237
 8046SOL    HW135771   2.531   0.332   8.736 -2.0049 -0.4538 -1.2385
 8046SOL    HW235772   2.633   0.322   8.630 -1.9992 -1.8462 -0.6007
 8047SOL     OW35773   4.192   3.630   8.495  0.3958  0.0932 -0.1387
 8047SOL    HW135774   4.189   3.679   8.413 -0.2933  3.8324  2.1186
 8047SOL    HW235775   4.201   3.539   8.464 -0.6168  0.1813 -0.6911
 8048SOL     OW35776   0.887   0.136   9.048 -0.1963 -0.1954 -0.4528
 8048SOL    HW135777   0.897   0.041   9.056  0.8495 -0.3065 -3.0346
 8048SOL    HW235778   0.866   0.165   9.137  0.4377  0.8139 -0.6297
 8049SOL     OW35779   4.249   0.362   3.316 -0.3571 -0.0633  0.1750
 8049SOL    HW135780   4.166   0.408   3.313  0.6328  1.5480 -2.1978
 8049SOL    HW235781   4.261   0.343   3.410 -1.8908  0.4849  0.4716
 8050SOL     OW35782   1.818   4.569   6.561 -0.3913  0.0010  0.1130
 8050SOL    HW135783   1.895   4.599   6.512 -0.0232  1.4359  1.5590
 8050SOL    HW235784   1.822   4.475   6.547  0.2164  0.1903 -0.9625
 8051SOL     OW35785   0.782   4.534  15.528 -0.0019  0.2329 -0.0719
 8051SOL    HW135786   0.721   4.566  15.594  0.6859  0.4262  0.4712
 8051SOL    HW235787   0.795   4.441  15.548 -2.6325  0.0269  0.6892
 8052SOL     OW35788   4.417   0.966  12.893 -0.7398 -0.4875 -0.4497
 8052SOL    HW135789   4.411   0.871  12.879 -0.1795 -0.6541  0.4344
 8052SOL    HW235790   4.405   0.979  12.987 -0.6139 -2.7637 -0.1049
 8053SOL     OW35791   0.650   0.868   5.171 -0.3608 -0.1858  0.4849
 8053SOL    HW135792   0.743   0.857   5.153 -0.0937 -0.7978  2.2274
 8053SOL    HW235793   0.649   0.953   5.215 -0.2721 -0.2082  0.5302
 8054SOL     OW35794   1.743   1.912   6.194 -0.2420 -0.3369 -0.4974
 8054SOL    HW135795   1.683   1.935   6.123 -1.5393  0.7790  0.9539
 8054SOL    HW235796   1.690   1.839   6.226 -0.1016 -1.3687 -2.5916
 8055SOL     OW35797   2.718   1.817   8.324 -0.5905 -0.2281  0.7216
 8055SOL    HW135798   2.648   1.879   8.343 -1.1401 -0.7591  0.4043
 8055SOL    HW235799   2.728   1.840   8.232 -0.2801 -0.5944  0.6642
 8056SOL     OW35800   0.724   0.065   3.002 -0.1672  0.2579  0.2520
 8056SOL    HW135801   0.724   0.158   3.027  1.0513  0.3668 -0.1781
 8056SOL    HW235802   0.687   0.075   2.914 -0.4550 -1.3203  0.2037
 8057SOL     OW35803   2.727   1.133   7.131  0.0478 -0.1385 -0.1725
 8057SOL    HW135804   2.642   1.172   7.112  1.1507  1.8303 -1.0526
 8057SOL    HW235805   2.731   1.075   7.055 -0.5531 -1.8533  1.0935
 8058SOL     OW35806   2.222   0.944   6.110 -0.2279 -0.3169  0.5937
 8058SOL    HW135807   2.156   0.912   6.171 -2.6998 -0.6333 -2.2461
 8058SOL    HW235808   2.208   1.038   6.117 -1.0103 -0.4276  0.4768
 8059SOL     OW35809   0.664   1.582   2.599 -0.2820 -0.2327  0.1422
 8059SOL    HW135810   0.714   1.656   2.565 -1.6918  0.0518 -1.3018
 8059SOL    HW235811   0.601   1.602   2.668 -1.9965  1.8563 -2.0125
 8060SOL     OW35812   0.341   1.130   8.043  0.0334 -0.2045  0.0380
 8060SOL    HW135813   0.316   1.222   8.031  3.2306  0.5207 -0.9478
 8060SOL    HW235814   0.260   1.097   8.082 -0.2832  1.3827  0.7252
 8061SOL     OW35815   2.050   0.690   4.725 -0.0215 -0.2283 -0.0538
 8061SOL    HW135816   1.991   0.718   4.655  0.6635 -0.4225 -0.7109
 8061SOL    HW235817   2.008   0.740   4.795 -0.4972 -0.2334 -0.3383
 8062SOL     OW35818   4.463   3.442  11.659  0.0923  0.3612 -0.5038
 8062SOL    HW135819   4.412   3.512  11.698  1.6672  0.8219  0.7179
 8062SOL    HW235820   4.550   3.481  11.649  0.7491 -1.4239 -1.8621
 8063SOL     OW35821   1.058   0.962   4.693 -0.0920 -0.5821 -0.1888
 8063SOL    HW135822   0.971   0.923   4.702 -0.1076  0.1792  2.9746
 8063SOL    HW235823   1.109   0.918   4.761 -1.4146  0.8031  1.7040
 8064SOL     OW35824   1.796   4.534   6.068  0.3046  0.7477  0.1112
 8064SOL    HW135825   1.742   4.509   6.143  1.1484 -0.2146  0.3874
 8064SOL    HW235826   1.885   4.523   6.101  0.7856 -1.9790 -2.1552
 8065SOL     OW35827   3.763   4.044  16.779  0.5825  0.4537 -0.6102
 8065SOL    HW135828   3.725   4.059  16.693  3.5592  0.8873 -1.8586
 8065SOL    HW235829   3.714   4.098  16.841  0.4534  0.5723 -0.8206
 8066SOL     OW35830   4.188   2.211   1.962 -0.1014  0.0683  0.2270
 8066SOL    HW135831   4.149   2.207   1.875 -3.2341 -0.9330  1.6649
 8066SOL    HW235832   4.156   2.299   1.984  2.3932  1.3979 -1.5191
 8067SOL     OW35833   0.426   1.465  13.065  0.4901 -0.3843 -0.2672
 8067SOL    HW135834   0.423   1.396  13.130 -0.6968 -0.4514 -0.3945
 8067SOL    HW235835   0.333   1.489  13.061  0.4295 -0.8680 -1.8047
 8068SOL     OW35836   0.562   4.308  16.316 -0.6320  0.1690 -0.3446
 8068SOL    HW135837   0.541   4.371  16.247 -0.1701  0.8788  0.1709
 8068SOL    HW235838   0.538   4.357  16.394  0.6199 -0.8544  0.6886
 8069SOL     OW35839   3.777   2.673   7.553  0.2130 -0.6660 -0.3064
 8069SOL    HW135840   3.702   2.618   7.575 -0.7868  0.4838 -0.8634
 8069SOL    HW235841   3.824   2.671   7.637 -2.6121  0.7581  1.3137
 8070SOL     OW35842   1.142   3.962  14.809  0.1507  0.6394 -0.1059
 8070SOL    HW135843   1.051   3.944  14.785  0.3906  0.8891 -1.1949
 8070SOL    HW235844   1.153   3.892  14.873  0.6970  1.4515  0.6973
 8071SOL     OW35845   0.568   3.100   9.065  0.2750 -0.2280  0.1713
 8071SOL    HW135846   0.520   3.065   9.139  0.0648  1.1656  0.6959
 8071SOL    HW235847   0.491   3.104   9.009 -0.8679  1.7619  1.8947
 8072SOL     OW35848   0.332   3.362   6.511 -0.2885 -0.6454 -0.3940
 8072SOL    HW135849   0.372   3.435   6.464  0.7796 -1.4278 -0.6811
 8072SOL    HW235850   0.367   3.286   6.465 -0.3891 -0.9780  0.0792
 8073SOL     OW35851   0.965   0.541   3.949 -0.2333 -0.0196  0.0935
 8073SOL    HW135852   0.937   0.520   4.038  1.4688 -2.1261  0.1357
 8073SOL    HW235853   1.021   0.466   3.929 -1.1243 -0.7525  0.3796
 8074SOL     OW35854   1.772   2.734  13.800  0.3595 -0.0223 -0.3588
 8074SOL    HW135855   1.712   2.798  13.837 -1.1961 -0.9250 -1.3467
 8074SOL    HW235856   1.713   2.675  13.754  1.6095 -1.7226  0.2008
 8075SOL     OW35857   0.652   1.408   4.821  0.0024  0.0863  0.0690
 8075SOL    HW135858   0.669   1.336   4.881  1.8748 -1.2171 -2.0411
 8075SOL    HW235859   0.710   1.399   4.745  0.1001 -0.1056  0.1687
 8076SOL     OW35860   4.643   1.654   8.891  0.4160 -0.1583  0.1485
 8076SOL    HW135861   4.718   1.687   8.941 -0.7984  0.2231  1.7170
 8076SOL    HW235862   4.636   1.719   8.820 -0.0431 -0.4091 -0.0326
 8077SOL     OW35863   1.607   1.820  16.835 -0.1061 -0.5859  0.0350
 8077SOL    HW135864   1.635   1.729  16.841  1.2450 -0.1221  0.6042
 8077SOL    HW235865   1.512   1.808  16.830 -0.1645  0.3293 -0.9363
 8078SOL     OW35866   4.702   3.656   0.614 -1.0776 -0.0707 -0.0581
 8078SOL    HW135867   4.683   3.637   0.522 -1.0030  1.3125 -0.3554
 8078SOL    HW235868   4.638   3.727   0.619 -0.0860  0.8679 -0.7965
 8079SOL     OW35869   2.372   0.541   0.876  0.1332  0.1178 -0.0423
 8079SOL    HW135870   2.310   0.567   0.808 -3.1845 -1.8306  2.2454
 8079SOL    HW235871   2.332   0.460   0.908  0.0763 -0.3499 -1.2652
 8080SOL     OW35872   1.560   1.035  15.913 -0.2959  0.2945 -0.5345
 8080SOL    HW135873   1.566   0.956  15.967 -1.5445 -0.0283 -0.8684
 8080SOL    HW235874   1.613   1.102  15.956 -2.1540  1.6195 -0.3389
 8081SOL     OW35875   4.575   4.724   8.863 -0.4366  0.0849 -0.6040
 8081SOL    HW135876   4.531   0.066   8.829  1.2228  0.6508 -1.4637
 8081SOL    HW235877   4.664   0.005   8.833 -0.3393  1.2734  0.3288
 8082SOL     OW35878   0.868   1.752   7.771  0.0528 -0.7958 -0.3947
 8082SOL    HW135879   0.824   1.837   7.774  1.5717 -0.0245 -0.5269
 8082SOL    HW235880   0.819   1.703   7.838 -1.4512 -1.4187 -1.9567
 8083SOL     OW35881   3.839   0.775   9.374  0.0710 -0.1598  0.0681
 8083SOL    HW135882   3.925   0.764   9.414  0.0651  0.4802  0.2696
 8083SOL    HW235883   3.856   0.728   9.292  0.7373  0.5258 -0.1994
 8084SOL     OW35884   1.271   3.307  12.286  0.1410  0.6463 -0.2288
 8084SOL    HW135885   1.199   3.245  12.300 -0.6595  1.5339 -0.3980
 8084SOL    HW235886   1.329   3.267  12.221 -0.5575  1.4811 -1.3733
 8085SOL     OW35887   1.529   4.124   8.245  0.2645 -0.4682  0.0633
 8085SOL    HW135888   1.585   4.046   8.240 -0.9135 -1.4729  2.2725
 8085SOL    HW235889   1.450   4.081   8.280  0.4943 -1.1830 -0.2826
 8086SOL     OW35890   3.629   1.219   6.990  0.8792 -0.3170 -0.1032
 8086SOL    HW135891   3.724   1.222   6.997  0.9134  0.2814 -0.8207
 8086SOL    HW235892   3.621   1.297   7.047 -1.4402  1.2106 -2.5177
 8087SOL     OW35893   2.589   4.648   3.589 -0.0923  0.5189 -0.2476
 8087SOL    HW135894   2.505   4.633   3.545  0.3016  0.7527 -1.0818
 8087SOL    HW235895   2.644   4.586   3.542 -0.4678  0.2538 -0.3378
 8088SOL     OW35896   2.741   1.361  15.937  0.3359  0.4628  0.1173
 8088SOL    HW135897   2.732   1.381  15.844 -2.2503 -2.5313 -0.2860
 8088SOL    HW235898   2.813   1.300  15.925  1.0465  0.9222  2.0859
 8089SOL     OW35899   1.687   0.866  15.264 -0.2609 -0.2590  0.9536
 8089SOL    HW135900   1.655   0.914  15.187 -0.8891 -2.1211  0.0408
 8089SOL    HW235901   1.762   0.910  15.303  0.9103 -1.1515 -0.2819
 8090SOL     OW35902   3.385   4.082   4.911 -0.1340 -0.0240  0.2091
 8090SOL    HW135903   3.312   4.115   4.964  1.5557  0.8366  2.0279
 8090SOL    HW235904   3.460   4.136   4.938 -0.0536  0.0749 -0.2242
 8091SOL     OW35905   2.658   4.332   7.877 -0.4444  0.3486 -0.1220
 8091SOL    HW135906   2.750   4.309   7.863 -1.2296 -1.0918 -2.8939
 8091SOL    HW235907   2.615   4.290   7.803  2.1801 -1.3824 -0.6620
 8092SOL     OW35908   1.949   2.823  13.126 -0.6629  0.1181  0.2345
 8092SOL    HW135909   1.887   2.832  13.054 -0.2801  1.9938  0.1297
 8092SOL    HW235910   1.981   2.910  13.149  0.5737 -1.1118  3.2716
 8093SOL     OW35911   1.136   2.662  10.379  0.2672 -0.3433  0.1137
 8093SOL    HW135912   1.139   2.637  10.471 -0.7214 -0.3474  0.1377
 8093SOL    HW235913   1.059   2.719  10.382 -0.6819 -1.7591  2.1100
 8094SOL     OW35914   2.191   3.927   2.614 -0.1081  0.0720 -0.6832
 8094SOL    HW135915   2.263   3.864   2.608 -1.0798 -1.0873 -0.0426
 8094SOL    HW235916   2.238   4.006   2.640  0.9945 -0.6485 -0.4662
 8095SOL     OW35917   3.338   0.049   1.388  0.5407 -0.5248 -0.5215
 8095SOL    HW135918   3.267   0.097   1.432  0.4133 -1.9672  0.8183
 8095SOL    HW235919   3.302   0.023   1.303 -1.1501  0.2981 -0.0715
 8096SOL     OW35920   1.992   2.243   5.032  0.2663 -0.0870  0.0149
 8096SOL    HW135921   2.028   2.235   5.120 -1.5367 -1.4948  0.6358
 8096SOL    HW235922   1.904   2.281   5.042 -0.6665 -2.0383 -0.8113
 8097SOL     OW35923   0.943   0.924  17.559 -0.0622  0.4251  0.4953
 8097SOL    HW135924   0.968   0.872  17.635 -2.2742 -1.5855 -0.1543
 8097SOL    HW235925   1.015   0.986  17.555 -0.2344  0.6145  0.2642
 8098SOL     OW35926   3.012   4.258  17.373  0.6607 -0.1882  0.0849
 8098SOL    HW135927   2.932   4.308  17.361  1.1291  0.8234  1.2054
 8098SOL    HW235928   3.068   4.320  17.419 -1.4269  1.3191  0.5752
 8099SOL     OW35929   0.217   1.146   6.842  0.4996  0.4567  0.1625
 8099SOL    HW135930   0.249   1.055   6.843 -0.2768  0.1848  0.8229
 8099SOL    HW235931   0.299   1.194   6.857  1.1771 -0.7526  0.3585
 8100SOL     OW35932   4.311   2.790   5.215 -0.3316 -0.5336  0.3643
 8100SOL    HW135933   4.228   2.789   5.167 -0.3783  1.3816  0.4074
 8100SOL    HW235934   4.300   2.717   5.276 -0.6823  1.8984  3.2715
 8101SOL     OW35935   3.484   3.982   8.876  0.1712 -0.1126 -0.1091
 8101SOL    HW135936   3.431   3.940   8.944 -0.8401 -1.2964 -1.6161
 8101SOL    HW235937   3.555   4.004   8.936 -0.9473 -1.5037  1.7336
 8102SOL     OW35938   2.021   0.465  10.089  0.0986 -0.1323 -0.8362
 8102SOL    HW135939   1.953   0.500  10.031 -1.6036 -2.8482 -0.4877
 8102SOL    HW235940   2.004   0.509  10.173 -1.6682 -0.4086 -1.0356
 8103SOL     OW35941   4.625   4.140   8.086  0.1300  0.1012  0.3530
 8103SOL    HW135942   4.642   4.053   8.051  0.1948  0.5158 -0.6418
 8103SOL    HW235943   4.623   4.127   8.181 -2.1485  0.4946  0.3568
 8104SOL     OW35944   0.545   3.016   6.102  0.6163 -1.0443  0.2236
 8104SOL    HW135945   0.573   2.942   6.049 -2.3481 -0.1070 -2.6620
 8104SOL    HW235946   0.489   3.054   6.034  2.9749 -1.4786 -1.9308
 8105SOL     OW35947   0.729   2.593   0.848 -0.2485 -0.0187 -0.3922
 8105SOL    HW135948   0.659   2.528   0.855  0.0238 -0.5032 -2.2413
 8105SOL    HW235949   0.672   2.668   0.868  0.6375  0.6166 -0.2415
 8106SOL     OW35950   1.250   3.865   3.027  0.4724  0.2768 -0.6392
 8106SOL    HW135951   1.254   3.794   3.091  0.3782 -1.2128 -2.2742
 8106SOL    HW235952   1.160   3.897   3.039  0.2865 -0.4176 -0.2097
 8107SOL     OW35953   0.327   2.542   0.705 -0.3501 -0.5133 -0.6272
 8107SOL    HW135954   0.386   2.613   0.679  1.2497 -1.3624  0.6566
 8107SOL    HW235955   0.381   2.494   0.768 -0.0398  0.5615 -0.0741
 8108SOL     OW35956   2.968   2.979   2.454 -0.0783  0.0173 -0.4024
 8108SOL    HW135957   3.005   2.973   2.366  0.8615  0.0906 -0.0112
 8108SOL    HW235958   3.029   2.921   2.500  2.4116  1.6658 -1.6143
 8109SOL     OW35959   3.595   1.493   5.469 -0.4214  0.2538  0.5222
 8109SOL    HW135960   3.552   1.475   5.386  1.5280  3.3648 -1.1644
 8109SOL    HW235961   3.651   1.566   5.442 -0.4775 -0.4517 -1.4900
 8110SOL     OW35962   0.457   0.932  12.255  0.1610  0.2192 -0.0536
 8110SOL    HW135963   0.368   0.918  12.223 -0.9122 -1.4561  3.6150
 8110SOL    HW235964   0.443   0.926  12.350  0.4867 -0.7145 -0.0634
 8111SOL     OW35965   3.372   4.328  14.227  0.2580  0.7841 -0.1159
 8111SOL    HW135966   3.287   4.305  14.265  0.0715  0.7359 -0.5623
 8111SOL    HW235967   3.400   4.397  14.286 -0.7455  0.4762  0.7202
 8112SOL     OW35968   1.489   2.555   8.434  0.3611 -0.1690 -0.0502
 8112SOL    HW135969   1.529   2.468   8.445  0.7314 -0.0354 -0.3317
 8112SOL    HW235970   1.551   2.591   8.371 -2.6407  1.2091 -2.1779
 8113SOL     OW35971   4.126   0.940   9.810  0.8624  0.3262  0.4326
 8113SOL    HW135972   4.073   1.015   9.782 -0.6454 -0.3790  1.3928
 8113SOL    HW235973   4.183   0.981   9.875 -0.2112  0.0846  1.5429
 8114SOL     OW35974   3.408   4.617  15.916  0.0359  0.9099  0.0101
 8114SOL    HW135975   3.485   4.629  15.860 -1.4316  0.0385 -2.2146
 8114SOL    HW235976   3.372   4.539  15.874  0.7310 -0.1432  1.3660
 8115SOL     OW35977   4.198   2.383   7.767 -0.4915  0.2072 -0.0235
 8115SOL    HW135978   4.239   2.456   7.814 -1.9010  1.5167 -0.8389
 8115SOL    HW235979   4.114   2.381   7.814  0.3172 -0.5052  1.3790
 8116SOL     OW35980   2.867   3.666   4.926  0.2041 -0.7260 -0.4142
 8116SOL    HW135981   2.813   3.659   5.005 -0.4190 -2.3649 -0.9784
 8116SOL    HW235982   2.894   3.575   4.920  0.6712 -0.5049 -1.6050
 8117SOL     OW35983   1.974   4.482   4.983  0.2031  0.1533  0.4801
 8117SOL    HW135984   2.052   4.449   4.938  1.2837  0.3519  2.1817
 8117SOL    HW235985   1.914   4.447   4.917 -1.8840 -0.8949  2.9480
 8118SOL     OW35986   3.187   4.385   3.479  0.2646 -0.0490 -0.6647
 8118SOL    HW135987   3.245   4.460   3.488 -0.1350  0.4190 -2.0173
 8118SOL    HW235988   3.222   4.342   3.401  0.9035  2.4926 -1.7792
 8119SOL     OW35989   2.150   1.351   8.877 -0.2046  0.4831 -0.1517
 8119SOL    HW135990   2.134   1.263   8.910  0.3231  0.6068  0.4179
 8119SOL    HW235991   2.244   1.366   8.871 -0.1374  1.2522  2.8721
 8120SOL     OW35992   1.716   1.875   4.511 -0.8319 -0.0559 -0.1278
 8120SOL    HW135993   1.629   1.902   4.538 -0.7460 -0.8777  0.9589
 8120SOL    HW235994   1.694   1.782   4.509 -0.3905 -0.1371 -0.9367
 8121SOL     OW35995   3.237   3.820  12.056  0.5800  0.1359  0.5159
 8121SOL    HW135996   3.234   3.782  12.144 -1.7798  0.2519  0.4640
 8121SOL    HW235997   3.157   3.786  12.017 -0.8126  1.4486  2.2413
 8122SOL     OW35998   3.488   4.370   7.223 -0.0268  0.0004 -0.2469
 8122SOL    HW135999   3.573   4.415   7.232  0.9289 -1.9087  0.2299
 8122SOL    HW236000   3.464   4.397   7.135  0.8095 -0.3810 -0.5940
 8123SOL     OW36001   3.258   4.718  14.356 -0.4967  0.5863  0.1090
 8123SOL    HW136002   3.264   0.077  14.360  0.9532  0.6496 -3.2139
 8123SOL    HW236003   3.164   4.708  14.374 -1.2535  4.1691 -1.9333
 8124SOL     OW36004   1.065   4.212   0.335 -0.8944 -0.4768  0.2952
 8124SOL    HW136005   1.109   4.175   0.258  1.4261  1.0553  0.8878
 8124SOL    HW236006   0.973   4.222   0.311 -1.6544 -0.4840  3.2634
 8125SOL     OW36007   0.965   2.901  13.232  0.4255  0.2860  0.3384
 8125SOL    HW136008   1.035   2.946  13.279 -0.4897  0.8617  1.1372
 8125SOL    HW236009   1.016   2.830  13.193 -3.3093 -0.5798 -3.0589
 8126SOL     OW36010   0.232   4.081   6.564  0.3075  0.6577  0.0223
 8126SOL    HW136011   0.147   4.111   6.532  0.4166  0.6078 -0.3034
 8126SOL    HW236012   0.208   4.045   6.650  1.8785 -2.5230 -0.8772
 8127SOL     OW36013   4.292   4.474   2.202 -0.3064 -0.6068 -0.3968
 8127SOL    HW136014   4.385   4.472   2.224 -0.7863  0.3418  1.7754
 8127SOL    HW236015   4.273   4.387   2.238 -0.4530 -0.3793  0.0825
 8128SOL     OW36016   3.503   0.281   4.451  0.0213 -0.3018  0.2491
 8128SOL    HW136017   3.470   0.272   4.540  2.3255 -0.9607  1.0399
 8128SOL    HW236018   3.597   0.262   4.448 -0.3696 -2.1561 -0.7321
 8129SOL     OW36019   3.748   3.553   9.347 -0.2410 -0.4133 -0.4957
 8129SOL    HW136020   3.723   3.585   9.261 -2.2290  0.2035  0.3055
 8129SOL    HW236021   3.703   3.615   9.405 -0.6151 -1.2656  0.1152
 8130SOL     OW36022   1.239   4.270   0.538  0.0802 -0.4418  0.1357
 8130SOL    HW136023   1.298   4.315   0.478 -0.9607 -1.6542 -1.7801
 8130SOL    HW236024   1.159   4.281   0.488 -0.2114  0.2946  0.7620
 8131SOL     OW36025   2.954   1.186  17.260  0.4588 -0.1625 -1.0561
 8131SOL    HW136026   2.987   1.102  17.227 -0.3730 -0.2676 -1.6137
 8131SOL    HW236027   3.029   1.222  17.308  1.3762 -0.1212 -2.5039
 8132SOL     OW36028   4.247   4.724   8.500 -0.3577  0.2081  0.0778
 8132SOL    HW136029   4.169   4.714   8.555 -0.8091  1.3516 -0.3618
 8132SOL    HW236030   4.301   4.652   8.532 -2.3463 -0.4068  2.0996
 8133SOL     OW36031   3.203   2.041   5.346 -0.6267  0.4445  0.0615
 8133SOL    HW136032   3.152   2.118   5.320  0.7724  1.4165  0.1884
 8133SOL    HW236033   3.198   1.988   5.266 -0.2121 -0.3984  0.5863
 8134SOL     OW36034   4.382   2.431   9.045  0.2194  0.3062  0.4669
 8134SOL    HW136035   4.422   2.468   9.124  1.1477 -1.8878  1.0327
 8134SOL    HW236036   4.460   2.394   9.003 -0.1996  0.0242 -0.0551
 8135SOL     OW36037   2.402   2.611   7.506 -0.3200 -0.2978  0.1370
 8135SOL    HW136038   2.329   2.556   7.478 -0.0182 -0.3440 -0.5459
 8135SOL    HW236039   2.438   2.646   7.425  2.2969 -3.1612  0.0662
 8136SOL     OW36040   1.696   2.521  12.445  0.4642  0.3575  0.6548
 8136SOL    HW136041   1.632   2.453  12.464 -0.5090  0.3257 -2.8177
 8136SOL    HW236042   1.777   2.479  12.476 -0.3099  0.0932  2.3510
 8137SOL     OW36043   3.775   2.732   9.903  0.5567  0.1124  0.0634
 8137SOL    HW136044   3.726   2.731   9.821  0.7182 -1.2288 -0.0138
 8137SOL    HW236045   3.840   2.662   9.903  0.0602 -0.3386  0.2896
 8138SOL     OW36046   2.858   0.772   0.872  0.5268  0.2594  0.4646
 8138SOL    HW136047   2.765   0.755   0.854  0.4128  0.1473  1.1629
 8138SOL    HW236048   2.866   0.773   0.968 -1.3545  1.8421  0.6033
 8139SOL     OW36049   2.266   2.327   0.008 -0.4134 -0.3726 -0.1816
 8139SOL    HW136050   2.253   2.235  17.727 -2.3883 -0.5532  1.5520
 8139SOL    HW236051   2.232   2.338   0.097  1.6130  0.3672  0.5040
 8140SOL     OW36052   2.431   1.614  17.360 -0.1787 -0.0265  0.5004
 8140SOL    HW136053   2.428   1.531  17.313  2.8346 -0.6261  1.4001
 8140SOL    HW236054   2.517   1.600  17.399 -0.4751 -1.2402  0.7261
 8141SOL     OW36055   4.170   0.026  14.811  0.3734 -0.3967 -0.5376
 8141SOL    HW136056   4.147   0.016  14.904 -3.0589 -1.0180 -1.4393
 8141SOL    HW236057   4.264   0.044  14.814  0.5690 -1.1068 -2.3754
 8142SOL     OW36058   2.313   3.401   3.172  0.2146  0.4857 -0.0342
 8142SOL    HW136059   2.235   3.415   3.118  0.5910  1.4338 -0.3159
 8142SOL    HW236060   2.379   3.422   3.106  0.5364 -0.5103 -0.0362
 8143SOL     OW36061   1.179   4.716   8.315 -0.3835  0.0139  0.3701
 8143SOL    HW136062   1.239   4.729   8.242 -1.5758 -0.6391 -0.7434
 8143SOL    HW236063   1.241   4.723   8.387 -1.6279  1.1379  1.3295
 8144SOL     OW36064   1.060   4.263   5.622  0.1996  0.5383 -0.1770
 8144SOL    HW136065   1.109   4.312   5.688  0.7201 -2.5129  1.6942
 8144SOL    HW236066   1.130   4.252   5.558  0.5257 -0.6163  0.3802
 8145SOL     OW36067   4.069   1.597   4.977 -0.1855  0.2595  0.6365
 8145SOL    HW136068   4.154   1.624   4.943  0.0458 -2.9974 -1.3585
 8145SOL    HW236069   4.079   1.640   5.062 -1.9325  2.1831 -0.1432
 8146SOL     OW36070   0.710   4.440   7.828  0.6741  0.1679 -0.6971
 8146SOL    HW136071   0.627   4.486   7.813  0.9059  0.5530 -0.8237
 8146SOL    HW236072   0.766   4.505   7.871  2.3708 -0.2085 -2.3235
 8147SOL     OW36073   1.371   4.577   3.934  0.6207  0.1034 -0.4852
 8147SOL    HW136074   1.432   4.621   3.874  0.8222 -1.5628 -1.5126
 8147SOL    HW236075   1.426   4.561   4.012 -0.3316 -0.2510  0.1096
 8148SOL     OW36076   3.359   3.689  15.352 -0.3177  0.6828  0.1351
 8148SOL    HW136077   3.363   3.677  15.257  3.7547 -1.5283  0.5727
 8148SOL    HW236078   3.297   3.618  15.371 -1.1231  1.0366 -1.1533
 8149SOL     OW36079   0.554   4.417   5.211  0.4936 -0.4977  0.1672
 8149SOL    HW136080   0.624   4.360   5.244 -1.1063 -3.4104 -1.4750
 8149SOL    HW236081   0.603   4.482   5.160  2.5042 -3.0709 -1.1929
 8150SOL     OW36082   1.655   3.702   6.790 -0.3278  0.4733 -0.4525
 8150SOL    HW136083   1.598   3.650   6.732 -0.3769 -1.1071  1.0357
 8150SOL    HW236084   1.636   3.667   6.877 -3.8876  1.8195 -0.6932
 8151SOL     OW36085   0.584   0.404   5.223 -0.1647 -0.2150  0.2760
 8151SOL    HW136086   0.677   0.399   5.244 -0.1614 -2.9139 -0.3891
 8151SOL    HW236087   0.564   0.495   5.245  1.3165 -0.0940  1.1077
 8152SOL     OW36088   1.919   0.196  14.353 -0.3490 -0.2795 -0.5695
 8152SOL    HW136089   1.974   0.256  14.302  2.4076 -0.8082  1.8301
 8152SOL    HW236090   1.854   0.242  14.406 -1.9861 -0.6904 -2.2256
 8153SOL     OW36091   3.292   1.609   6.122 -0.1669 -0.1486  0.7314
 8153SOL    HW136092   3.341   1.634   6.201  0.5796  4.0810 -1.0681
 8153SOL    HW236093   3.276   1.694   6.081  0.2084 -0.2109  0.4549
 8154SOL     OW36094   0.672   4.084   2.253  0.1754  0.2996  0.3759
 8154SOL    HW136095   0.634   4.007   2.210  0.8920 -0.4739  1.1187
 8154SOL    HW236096   0.700   4.050   2.339  0.5115  1.4619  0.7249
 8155SOL     OW36097   0.659   1.623  14.553 -0.3645 -0.3740  0.1507
 8155SOL    HW136098   0.660   1.713  14.520  0.5927 -1.2998 -2.3174
 8155SOL    HW236099   0.668   1.636  14.648  1.8869  0.7291 -0.2165
 8156SOL     OW36100   2.637   1.824   5.040  0.5365  0.1007 -0.2308
 8156SOL    HW136101   2.591   1.888   4.986  1.6158 -0.1655 -1.4608
 8156SOL    HW236102   2.721   1.868   5.054  0.1687  1.2245 -1.5766
 8157SOL     OW36103   0.780   1.096   7.503  0.3116  0.2215 -0.3478
 8157SOL    HW136104   0.756   1.168   7.444  2.1561  0.7692 -0.4181
 8157SOL    HW236105   0.723   1.021   7.487  2.1884 -0.5148 -3.6647
 8158SOL     OW36106   0.874   2.598   7.776  0.3098 -0.1414 -0.0464
 8158SOL    HW136107   0.811   2.669   7.784 -0.2336 -0.5792 -0.3866
 8158SOL    HW236108   0.840   2.534   7.838  1.3392  0.5774  1.2371
 8159SOL     OW36109   1.896   1.031   7.620  0.1857 -0.3337  0.4753
 8159SOL    HW136110   1.907   1.102   7.683 -1.5146 -0.4097  0.8644
 8159SOL    HW236111   1.803   1.025   7.640  0.2627  1.0233  1.2336
 8160SOL     OW36112   4.610   0.946  11.310  0.4222  0.1502  0.0117
 8160SOL    HW136113   4.607   0.858  11.274 -1.5223  0.5625 -0.8508
 8160SOL    HW236114   4.530   0.978  11.270  0.1113 -0.9320 -0.2314
 8161SOL     OW36115   1.363   0.438   8.411 -0.6543 -0.2872  0.0512
 8161SOL    HW136116   1.310   0.399   8.481 -0.5635 -1.6405 -0.6303
 8161SOL    HW236117   1.438   0.480   8.454 -0.7657 -0.1423  0.1059
 8162SOL     OW36118   4.118   4.658   7.595  0.1837 -0.1921 -0.3407
 8162SOL    HW136119   4.121   0.012   7.563  1.3369  1.0203  3.1933
 8162SOL    HW236120   4.212   4.640   7.592  0.2922  0.0748  1.1970
 8163SOL     OW36121   1.476   1.483   3.580 -0.0971  0.0282  0.3680
 8163SOL    HW136122   1.395   1.519   3.544  0.8583  2.0435  0.2215
 8163SOL    HW236123   1.503   1.550   3.642 -0.9307  1.2525 -0.5973
 8164SOL     OW36124   1.924   2.906   9.764 -0.5256  0.3319 -0.3834
 8164SOL    HW136125   1.881   2.846   9.825 -0.7759  2.1872  1.2778
 8164SOL    HW236126   1.844   2.927   9.716 -0.9930 -0.4057  0.0674
 8165SOL     OW36127   2.347   0.591   3.928  0.1815  0.0786 -0.2604
 8165SOL    HW136128   2.329   0.642   3.849 -0.0568  0.0454 -0.2260
 8165SOL    HW236129   2.370   0.506   3.890  1.6502  0.4739 -0.2567
 8166SOL     OW36130   0.352   3.111   1.594 -0.5737  0.3484 -0.2203
 8166SOL    HW136131   0.286   3.042   1.596  0.2991 -0.5355 -1.9736
 8166SOL    HW236132   0.364   3.142   1.504 -0.0746  1.5275  0.2516
 8167SOL     OW36133   1.423   2.475   4.916 -0.3025 -0.7619 -0.3689
 8167SOL    HW136134   1.343   2.527   4.906 -1.6705 -2.6641  0.9092
 8167SOL    HW236135   1.450   2.480   4.824 -1.3385 -0.0433 -0.6423
 8168SOL     OW36136   0.135   2.772  11.633 -0.2670 -0.0939  0.1176
 8168SOL    HW136137   0.121   2.858  11.593  2.4884 -0.7296 -2.2811
 8168SOL    HW236138   0.074   2.764  11.705 -2.7680 -0.0810 -1.9967
 8169SOL     OW36139   4.506   2.372   9.691 -0.0506 -0.0487  0.1070
 8169SOL    HW136140   4.473   2.408   9.773 -1.8114 -0.3400 -0.4902
 8169SOL    HW236141   4.564   2.444   9.664 -0.2362  0.1151  0.1475
 8170SOL     OW36142   2.989   1.436  13.222  0.1308  0.2598 -0.0884
 8170SOL    HW136143   2.949   1.508  13.270 -1.6916  0.3934 -1.7825
 8170SOL    HW236144   2.926   1.418  13.152  0.9184 -0.1681 -0.6907
 8171SOL     OW36145   1.446   3.738   7.170 -0.8487 -0.1120 -0.0947
 8171SOL    HW136146   1.518   3.677   7.153  1.9374  2.8375  1.3522
 8171SOL    HW236147   1.388   3.671   7.206  1.6574 -0.8317  2.5992
 8172SOL     OW36148   4.633   3.100   9.050  0.2658 -0.2757  0.2047
 8172SOL    HW136149   4.616   3.184   9.092 -2.7930  0.1800 -1.9285
 8172SOL    HW236150   4.661   3.049   9.126 -2.3488 -1.5273  0.3413
 8173SOL     OW36151   0.758   1.807   2.783  0.2555 -0.0488  0.1661
 8173SOL    HW136152   0.682   1.855   2.749 -0.3136 -1.0923 -0.0469
 8173SOL    HW236153   0.822   1.803   2.712 -0.4787 -1.3936 -0.4274
 8174SOL     OW36154   2.411   1.051   0.743  0.0702  0.1259  0.1007
 8174SOL    HW136155   2.408   1.024   0.651  1.5119  0.3548 -0.0172
 8174SOL    HW236156   2.399   1.145   0.745  0.1436  0.1323  0.2453
 8175SOL     OW36157   4.340   3.482   3.974 -0.0487 -0.2761  0.4900
 8175SOL    HW136158   4.397   3.405   3.970 -2.7026 -2.3254  2.2878
 8175SOL    HW236159   4.404   3.552   3.990  0.4367 -1.1563  2.4709
 8176SOL     OW36160   1.036   1.041   1.585  0.0449 -0.4209 -0.4872
 8176SOL    HW136161   1.069   1.027   1.674 -1.5943 -1.6788 -0.0630
 8176SOL    HW236162   1.048   1.135   1.588 -1.1445 -0.2884  0.1641
 8177SOL     OW36163   3.274   4.186   8.621  0.0953  0.1419 -0.2454
 8177SOL    HW136164   3.278   4.113   8.558  3.1266  1.1955 -1.2809
 8177SOL    HW236165   3.226   4.251   8.570  1.2398  1.0325 -0.1909
 8178SOL     OW36166   3.082   0.905   5.422 -0.1124 -0.1622 -0.2482
 8178SOL    HW136167   3.071   0.913   5.517 -1.5949 -0.2667 -0.4053
 8178SOL    HW236168   3.035   0.824   5.403  1.8110 -1.4360  0.4844
 8179SOL     OW36169   3.741   3.108   4.490 -0.2888  0.2474 -0.2916
 8179SOL    HW136170   3.833   3.085   4.475 -0.2423  0.0258  0.3323
 8179SOL    HW236171   3.729   3.126   4.583 -0.2371 -0.2532 -0.1845
 8180SOL     OW36172   0.745   4.170   6.288  0.1522 -0.4736 -0.5386
 8180SOL    HW136173   0.830   4.140   6.256  0.3767  1.3374 -1.6368
 8180SOL    HW236174   0.689   4.112   6.237 -0.9067 -0.2619  0.3645
 8181SOL     OW36175   1.561   2.591  17.315  0.8062  0.3803  0.0361
 8181SOL    HW136176   1.499   2.534  17.360  1.1200  1.5627  1.9534
 8181SOL    HW236177   1.520   2.669  17.353  3.5364  1.0293  1.6528
 8182SOL     OW36178   4.692   0.946   7.381 -0.4438  0.4258  0.1945
 8182SOL    HW136179   4.721   1.030   7.344  2.3330  1.0328  3.7381
 8182SOL    HW236180   4.713   0.949   7.475  2.5026 -2.7860 -0.3636
 8183SOL     OW36181   0.563   1.668   6.895 -0.2500 -0.2546 -0.2705
 8183SOL    HW136182   0.584   1.715   6.814 -0.9033  0.1051 -0.2321
 8183SOL    HW236183   0.651   1.640   6.917 -1.3790 -1.9296  2.0852
 8184SOL     OW36184   0.253   3.198   2.675  0.2413 -0.2010  0.9975
 8184SOL    HW136185   0.341   3.172   2.703  0.4675  1.1109  1.5043
 8184SOL    HW236186   0.204   3.119   2.700 -1.3857  0.0616 -1.3842
 8185SOL     OW36187   1.575   2.463   0.621 -0.0226 -0.4226 -0.7292
 8185SOL    HW136188   1.642   2.409   0.578  1.8263  0.7962  0.6318
 8185SOL    HW236189   1.551   2.411   0.698 -1.4304 -0.7143 -1.3668
 8186SOL     OW36190   4.086   3.006  17.174 -0.3289  0.2716 -0.5010
 8186SOL    HW136191   4.040   2.967  17.100 -0.9247  0.4724 -0.2328
 8186SOL    HW236192   4.025   3.048  17.234 -0.4932  0.6616 -0.9438
 8187SOL     OW36193   0.746   3.711  13.638 -0.3965  0.0530  0.2086
 8187SOL    HW136194   0.832   3.670  13.646 -0.7669 -0.7808 -0.0178
 8187SOL    HW236195   0.746   3.770  13.714 -0.5559 -0.5866  0.7090
 8188SOL     OW36196   1.758   4.397   1.966  0.3683  0.2022 -0.3378
 8188SOL    HW136197   1.673   4.364   1.937  1.8466 -2.1855 -1.9410
 8188SOL    HW236198   1.814   4.327   1.931  0.2136  0.1160 -0.4141
 8189SOL     OW36199   3.756   3.952   1.081 -0.4834  0.1431 -0.4305
 8189SOL    HW136200   3.711   3.870   1.063 -0.3682  0.1994 -0.9807
 8189SOL    HW236201   3.727   3.972   1.170 -0.3990 -0.5832 -0.2423
 8190SOL     OW36202   0.177   4.141   8.567 -0.1764 -0.7576 -0.6536
 8190SOL    HW136203   0.154   4.228   8.600 -2.3006 -1.6663  0.2751
 8190SOL    HW236204   0.255   4.144   8.622 -0.8840 -3.9311  0.5522
 8191SOL     OW36205   3.730   0.061   7.515 -0.3520  0.1706  0.3421
 8191SOL    HW136206   3.722   4.729   7.449 -2.0758 -0.4314  1.1814
 8191SOL    HW236207   3.652   0.050   7.569  0.1646 -0.8567  0.8676
 8192SOL     OW36208   4.582   4.145  15.136  0.2601  0.8173  0.1335
 8192SOL    HW136209   4.528   4.167  15.212 -0.8896 -0.1437 -0.4126
 8192SOL    HW236210   4.520   4.125  15.066  1.4929  0.8023 -0.9516
 8193SOL     OW36211   2.623   0.089   5.259  0.1411  0.4625  0.2018
 8193SOL    HW136212   2.646   0.181   5.268  0.0298  0.6035 -0.8775
 8193SOL    HW236213   2.618   0.088   5.163 -0.1901  1.2898  0.2159
 8194SOL     OW36214   3.224   4.707   6.160  0.2396  0.3717 -0.1399
 8194SOL    HW136215   3.309   4.710   6.117  0.7207 -0.5913  0.7613
 8194SOL    HW236216   3.213   0.063   6.136  0.9667  0.7617  1.0521
 8195SOL     OW36217   0.254   3.983   5.827 -0.2101 -0.2995 -0.0378
 8195SOL    HW136218   0.249   3.889   5.810 -0.4506 -0.1986 -0.5195
 8195SOL    HW236219   0.169   3.992   5.871  0.3585  0.0456  0.9665
 8196SOL     OW36220   0.516   2.426   9.260  0.1582  0.5122  0.3766
 8196SOL    HW136221   0.608   2.430   9.285  0.1606  0.1132  0.4294
 8196SOL    HW236222   0.522   2.379   9.176 -0.5205  0.6605  0.2405
 8197SOL     OW36223   2.937   0.365   7.179  0.4006  0.6482  0.0729
 8197SOL    HW136224   2.876   0.405   7.241 -0.4951 -0.4659 -0.0855
 8197SOL    HW236225   2.887   0.366   7.097 -0.9132 -0.7985  0.8425
 8198SOL     OW36226   2.951   0.534   3.192  0.0766  0.3548  0.3622
 8198SOL    HW136227   3.027   0.592   3.184  0.3355 -0.2902 -1.9411
 8198SOL    HW236228   2.952   0.493   3.105 -2.6456  0.7403  0.1522
 8199SOL     OW36229   1.246   1.429   8.994  0.0953 -0.0144  0.6470
 8199SOL    HW136230   1.245   1.417   9.089  1.0021  0.6031  0.7304
 8199SOL    HW236231   1.301   1.507   8.989 -1.1096  0.6932 -1.5296
 8200SOL     OW36232   1.405   0.010   8.924  0.2259  0.2710 -0.2622
 8200SOL    HW136233   1.363   4.686   8.863  0.2662  0.1609 -0.1808
 8200SOL    HW236234   1.333   0.072   8.936  1.5753  1.7064  0.3741
 8201SOL     OW36235   2.419   3.168  16.199 -0.2229  0.4316  0.7715
 8201SOL    HW136236   2.381   3.090  16.159  0.8194  0.3095  0.0219
 8201SOL    HW236237   2.480   3.132  16.263 -0.2079 -1.0651 -0.0833
 8202SOL     OW36238   0.603   0.282  11.207  0.1846 -0.1829 -0.0194
 8202SOL    HW136239   0.657   0.304  11.131  1.1094  1.6259  1.1564
 8202SOL    HW236240   0.676   0.249  11.261 -0.0932  1.0529  1.1175
 8203SOL     OW36241   4.599   1.597   4.488  0.3501  0.0193 -0.0694
 8203SOL    HW136242   4.567   1.512   4.518  0.5756 -0.4288 -1.0985
 8203SOL    HW236243   4.567   1.656   4.556 -3.1917 -2.8419  0.7775
 8204SOL     OW36244   2.156   0.418   1.279  0.2486 -0.3845  0.2625
 8204SOL    HW136245   2.116   0.472   1.211  2.4022 -2.3901 -2.6263
 8204SOL    HW236246   2.224   0.480   1.305 -0.7532  0.7595  0.1719
 8205SOL     OW36247   1.059   0.470   6.443  0.1908 -0.6403  0.3788
 8205SOL    HW136248   1.083   0.415   6.369 -1.3283  0.2667 -0.7896
 8205SOL    HW236249   0.966   0.450   6.445 -0.2370  1.3160  0.5682
 8206SOL     OW36250   1.168   3.485   2.027 -0.1038  0.0140  0.2446
 8206SOL    HW136251   1.137   3.554   1.968  2.1752 -0.7846 -1.8570
 8206SOL    HW236252   1.090   3.460   2.078 -0.2746 -0.2920 -0.1701
 8207SOL     OW36253   3.510   1.760  13.181 -0.2438 -0.4402  0.0338
 8207SOL    HW136254   3.556   1.687  13.139  0.0370 -0.3660  0.2102
 8207SOL    HW236255   3.461   1.700  13.237 -0.1441  1.0142  1.6773
 8208SOL     OW36256   0.936   1.981  17.669  0.4812  0.5621 -0.1325
 8208SOL    HW136257   0.877   2.042  17.623  0.5448  1.6491  1.2203
 8208SOL    HW236258   0.880   1.911  17.702 -0.3404  0.7853 -1.0523
 8209SOL     OW36259   3.822   4.099   3.211  0.5031  0.2678  0.2349
 8209SOL    HW136260   3.871   4.167   3.165  1.6783 -1.3497 -0.8870
 8209SOL    HW236261   3.802   4.036   3.141  0.7841  2.1948 -1.5807
 8210SOL     OW36262   2.613   2.476   6.399 -0.0232  0.4366  0.3923
 8210SOL    HW136263   2.520   2.489   6.378 -0.2862 -0.0840  1.2278
 8210SOL    HW236264   2.627   2.386   6.368  0.1497  0.2078  1.1500
 8211SOL     OW36265   4.205   1.281   7.954 -0.5050  0.1517 -0.0335
 8211SOL    HW136266   4.222   1.370   7.984 -0.2416 -0.7748  2.5376
 8211SOL    HW236267   4.237   1.232   8.029  1.5558 -0.3758 -1.2672
 8212SOL     OW36268   1.722   0.683   4.525  0.1001 -0.2383  0.0672
 8212SOL    HW136269   1.727   0.769   4.483 -1.3853  0.2541  0.8921
 8212SOL    HW236270   1.667   0.632   4.466 -1.3670  1.3031  0.0973
 8213SOL     OW36271   2.192   4.578   8.699  0.2176 -0.3287 -0.4188
 8213SOL    HW136272   2.142   4.536   8.769  1.6340 -0.2659  0.6325
 8213SOL    HW236273   2.216   4.500   8.650  0.7020 -0.3088 -0.2113
 8214SOL     OW36274   0.985   2.913  16.697  0.3051 -0.4490 -0.3417
 8214SOL    HW136275   0.936   2.967  16.759 -0.9857  0.1803 -1.9199
 8214SOL    HW236276   1.016   2.844  16.756 -2.2875 -1.1353  0.1884
 8215SOL     OW36277   4.607   3.790   6.522 -0.1924 -0.3721 -0.5197
 8215SOL    HW136278   4.545   3.862   6.506 -0.0059  0.1123  0.9296
 8215SOL    HW236279   4.691   3.824   6.491  1.0339 -3.1052 -0.1278
 8216SOL     OW36280   4.029   2.871   8.040 -0.0524  0.3377 -0.1121
 8216SOL    HW136281   3.985   2.787   8.051  0.7683  0.1400  1.6615
 8216SOL    HW236282   3.970   2.930   8.088  1.6307  1.1554  0.9591
 8217SOL     OW36283   1.043   2.958   6.834  0.4628 -0.3815 -0.3065
 8217SOL    HW136284   0.979   3.027   6.817 -0.5851 -0.5721  2.9277
 8217SOL    HW236285   1.022   2.940   6.925 -2.5278  0.0686 -0.9155
 8218SOL     OW36286   4.260   3.827   2.713  0.1246  0.0281 -0.0308
 8218SOL    HW136287   4.221   3.768   2.649  3.2685 -0.9780 -0.9675
 8218SOL    HW236288   4.203   3.903   2.700 -0.7616 -0.9274 -1.6732
 8219SOL     OW36289   2.088   0.157  17.333  0.0658 -0.4326  0.4711
 8219SOL    HW136290   1.993   0.159  17.345  0.3631  2.4781  2.2640
 8219SOL    HW236291   2.119   0.097  17.401  1.5029 -1.8651 -1.4167
 8220SOL     OW36292   2.059   0.386  12.491 -0.7384 -0.1690  0.2518
 8220SOL    HW136293   2.036   0.299  12.458 -0.9272 -1.2975  3.3281
 8220SOL    HW236294   2.154   0.376  12.495 -0.5501  1.0120 -1.3414
 8221SOL     OW36295   2.049   3.033   6.254 -0.8230  0.3547 -0.0526
 8221SOL    HW136296   2.122   2.995   6.205 -0.6655  0.0821  0.3882
 8221SOL    HW236297   1.973   2.976   6.244  0.5304 -1.1186 -1.8051
 8222SOL     OW36298   0.991   2.657   9.545 -0.0548 -0.2700 -0.0886
 8222SOL    HW136299   1.074   2.693   9.513  0.9597 -1.8565  0.7688
 8222SOL    HW236300   0.935   2.734   9.536 -0.7742 -0.5611  1.8467
 8223SOL     OW36301   3.136   2.650  12.723 -0.7975  0.1901  0.0527
 8223SOL    HW136302   3.103   2.560  12.725 -0.0233 -0.1091 -0.2904
 8223SOL    HW236303   3.190   2.652  12.644 -3.0044 -0.6938 -1.4661
 8224SOL     OW36304   4.108   0.870   5.872 -0.8069 -0.0747  0.6548
 8224SOL    HW136305   4.032   0.929   5.868  0.8247  1.8541 -2.2059
 8224SOL    HW236306   4.167   0.924   5.926  0.4432  0.5501 -1.3246
 8225SOL     OW36307   2.807   1.090   2.980  0.0668  0.3600  0.7804
 8225SOL    HW136308   2.770   1.020   3.034  0.2845 -0.0646  0.3760
 8225SOL    HW236309   2.734   1.125   2.930 -0.4622 -0.2874  1.0931
 8226SOL     OW36310   1.990   1.095  14.494 -0.1021  0.1677  0.1174
 8226SOL    HW136311   2.018   1.181  14.524 -0.3879  0.0028  0.8597
 8226SOL    HW236312   2.053   1.051  14.551 -0.5886  0.3651  0.8102
 8227SOL     OW36313   0.716   0.529   2.360  0.8258  0.1225 -0.6333
 8227SOL    HW136314   0.765   0.538   2.278  1.1841 -1.5260 -0.6108
 8227SOL    HW236315   0.628   0.562   2.341  0.1583 -2.7665 -2.6612
 8228SOL     OW36316   1.252   2.884   4.029  0.1481 -0.8204  0.0801
 8228SOL    HW136317   1.170   2.843   4.002  0.4536 -2.5437  1.7755
 8228SOL    HW236318   1.314   2.811   4.025 -0.4834 -1.3111 -0.6796
 8229SOL     OW36319   2.330   0.359   2.437 -0.4853  0.0073  0.3313
 8229SOL    HW136320   2.287   0.363   2.523  0.0301  1.7080  0.4941
 8229SOL    HW236321   2.390   0.285   2.443 -1.4483 -0.7380  0.8009
 8230SOL     OW36322   0.140   3.619   2.012  0.2612  0.4945 -0.9382
 8230SOL    HW136323   0.113   3.557   2.079  2.1313 -2.1882 -2.6823
 8230SOL    HW236324   0.146   3.583   1.923 -1.3166  0.4040 -1.0133
 8231SOL     OW36325   1.105   2.695   6.182  0.1092  0.1379 -0.5905
 8231SOL    HW136326   1.016   2.730   6.176  0.7590  1.7566 -0.7584
 8231SOL    HW236327   1.099   2.632   6.110 -0.6472  1.4490 -1.6904
 8232SOL     OW36328   3.002   3.179   1.685 -0.0839 -0.2584 -0.1354
 8232SOL    HW136329   2.971   3.194   1.596 -1.0044 -0.3483  0.1743
 8232SOL    HW236330   3.090   3.217   1.687 -0.1566 -0.0779 -0.3338
 8233SOL     OW36331   4.132   0.267   1.346 -0.1829  0.3700 -0.8601
 8233SOL    HW136332   4.098   0.235   1.429 -1.0138  1.2942 -0.8446
 8233SOL    HW236333   4.194   0.337   1.366  1.6422 -1.5427  0.0643
 8234SOL     OW36334   2.337   2.924   5.766  0.1111  0.0073  0.0463
 8234SOL    HW136335   2.394   2.889   5.698  0.8702 -0.9083  1.1737
 8234SOL    HW236336   2.347   2.849   5.824 -2.1992 -1.2867 -1.2140
 8235SOL     OW36337   2.207   0.715   5.078  0.2199  0.0804  0.6720
 8235SOL    HW136338   2.134   0.663   5.045  0.7036 -0.3336  0.2633
 8235SOL    HW236339   2.253   0.745   4.999  0.3413  0.0578  0.7337
 8236SOL     OW36340   2.122   2.625   7.688 -0.0747  0.4391  0.1035
 8236SOL    HW136341   2.188   2.556   7.694 -1.6335 -0.9780  0.9713
 8236SOL    HW236342   2.117   2.633   7.593  1.0073  2.4403  0.2014
 8237SOL     OW36343   0.076   4.389   1.922 -0.7749 -0.2447 -0.1439
 8237SOL    HW136344   0.113   4.326   1.985 -1.7024  0.7835  1.4447
 8237SOL    HW236345   0.110   4.360   1.838  0.0106 -1.4131  0.5755
 8238SOL     OW36346   2.997   1.665  12.707  0.0729  0.0825  0.2697
 8238SOL    HW136347   2.923   1.694  12.653 -0.8354 -0.8578  0.9993
 8238SOL    HW236348   2.975   1.720  12.783  3.2048  0.3995  0.9229
 8239SOL     OW36349   1.985   0.255   5.266 -0.4484 -0.4948  0.5252
 8239SOL    HW136350   1.967   0.342   5.303 -0.1348 -0.8075  1.4348
 8239SOL    HW236351   2.064   0.266   5.213  1.2332 -2.3141  2.6089
 8240SOL     OW36352   2.271   1.719   8.747  0.4286 -0.2400 -0.3167
 8240SOL    HW136353   2.230   1.771   8.678  1.6238 -0.3392 -1.0938
 8240SOL    HW236354   2.365   1.729   8.734  0.1737  1.4882 -0.8376
 8241SOL     OW36355   2.142   0.442   6.915  0.0305  0.0190  0.4997
 8241SOL    HW136356   2.137   0.537   6.922 -0.9559  0.0871 -1.2819
 8241SOL    HW236357   2.233   0.417   6.929 -0.2595 -0.2264  2.0153
 8242SOL     OW36358   3.855   2.506  17.644 -0.2013 -0.3188 -0.0521
 8242SOL    HW136359   3.942   2.466  17.631 -0.8822 -1.8228 -0.0032
 8242SOL    HW236360   3.872   2.595  17.612 -2.3406  0.0583 -0.0782
 8243SOL     OW36361   3.318   1.192   6.519 -0.3918  0.2857 -0.1549
 8243SOL    HW136362   3.395   1.184   6.575 -0.3722  2.9380  0.2007
 8243SOL    HW236363   3.258   1.245   6.571 -0.8314  0.5319 -0.9160
 8244SOL     OW36364   0.445   2.253   4.555 -0.0798 -0.3373 -0.3490
 8244SOL    HW136365   0.499   2.242   4.477  0.5448 -2.9707  0.4859
 8244SOL    HW236366   0.359   2.235   4.518  0.2255 -1.2873 -0.5898
 8245SOL     OW36367   1.356   2.483   3.065 -0.2059 -0.2635  0.3567
 8245SOL    HW136368   1.332   2.527   2.984 -1.3646 -0.3059  0.6871
 8245SOL    HW236369   1.433   2.433   3.037  0.2375 -0.2215  1.5246
 8246SOL     OW36370   3.190   4.108   8.891  0.1345  0.2745 -0.0121
 8246SOL    HW136371   3.127   4.045   8.857 -1.1863  1.8734 -0.5530
 8246SOL    HW236372   3.226   4.143   8.810  0.7263 -0.0394  0.1159
 8247SOL     OW36373   4.639   4.652   6.617  0.2953  0.1351 -0.1191
 8247SOL    HW136374   4.651   4.656   6.522  0.7035  0.8722 -0.0363
 8247SOL    HW236375   4.728   4.685   6.631  0.4493 -0.9720  1.4398
 8248SOL     OW36376   4.255   2.095   4.044 -0.0564  0.2148 -0.4907
 8248SOL    HW136377   4.208   2.178   4.040 -1.3577 -0.3087  3.1230
 8248SOL    HW236378   4.337   2.121   4.085 -0.8957  1.5355  0.3590
 8249SOL     OW36379   3.062   3.564   3.426 -0.0396 -0.5880 -0.2283
 8249SOL    HW136380   2.970   3.587   3.415  0.2816  1.1658  0.7390
 8249SOL    HW236381   3.044   3.479   3.466 -1.3076  0.9194  2.3901
 8250SOL     OW36382   4.535   4.545   4.840  0.2191  0.0360 -0.1596
 8250SOL    HW136383   4.521   4.577   4.751 -0.7623  2.1536  0.7650
 8250SOL    HW236384   4.533   4.450   4.827 -2.1422 -0.0658  0.7841
 8251SOL     OW36385   0.103   1.919   9.113 -0.3365  0.3397  0.7293
 8251SOL    HW136386   0.099   1.921   9.209 -0.1927  0.6007  0.7314
 8251SOL    HW236387   0.013   1.939   9.088 -0.3943 -0.5355  0.2517
 8252SOL     OW36388   1.878   2.432   1.707 -0.1660  0.1983 -0.0734
 8252SOL    HW136389   1.830   2.364   1.754  0.0401 -0.2024 -0.4313
 8252SOL    HW236390   1.946   2.372   1.674  0.5528  0.2881  1.2446
 8253SOL     OW36391   3.395   2.562   7.847 -0.0961 -0.3446 -0.2346
 8253SOL    HW136392   3.397   2.467   7.840  1.2919 -0.2238 -1.6708
 8253SOL    HW236393   3.428   2.572   7.936  0.6559 -2.5905 -0.2516
 8254SOL     OW36394   0.563   1.452   2.861 -0.3973  0.3428 -0.6550
 8254SOL    HW136395   0.657   1.460   2.843 -0.3627  2.1180  0.2767
 8254SOL    HW236396   0.549   1.374   2.807  0.6745  0.9633 -1.8295
 8255SOL     OW36397   0.578   0.091   5.134 -0.5423  0.2603  0.3884
 8255SOL    HW136398   0.598   0.156   5.201 -1.2303  1.1462 -0.2787
 8255SOL    HW236399   0.486   0.106   5.116 -0.2899  0.7792 -0.4492
 8256SOL     OW36400   2.734   2.527   6.867  0.3866  0.2963  0.1009
 8256SOL    HW136401   2.807   2.562   6.919  1.3285  0.6923 -1.4850
 8256SOL    HW236402   2.726   2.568   6.781  1.0669  1.0929  0.4173
 8257SOL     OW36403   0.221   2.198   2.940  0.6402 -0.1490  0.2633
 8257SOL    HW136404   0.308   2.169   2.913  0.7272  1.3523 -1.1020
 8257SOL    HW236405   0.240   2.235   3.026  2.2960 -0.2569 -0.0618
 8258SOL     OW36406   1.299   0.345   5.337 -0.2243 -0.7250 -0.2338
 8258SOL    HW136407   1.318   0.427   5.291  0.5622 -1.8156 -1.8868
 8258SOL    HW236408   1.288   0.298   5.254 -1.2231 -1.9759  0.6293
 8259SOL     OW36409   2.128   0.434  12.775 -0.1653 -0.6697 -0.3958
 8259SOL    HW136410   2.093   0.403  12.692 -0.9836 -0.5916 -0.0733
 8259SOL    HW236411   2.071   0.398  12.842 -0.5012 -0.2080 -0.4381
 8260SOL     OW36412   3.465   0.052   3.108 -0.0676 -0.4152 -0.1001
 8260SOL    HW136413   3.527   0.044   3.180  0.8838  0.0651 -0.8694
 8260SOL    HW236414   3.392   0.003   3.148  0.4897 -0.5300  0.7742
 8261SOL     OW36415   3.049   3.366   8.395 -0.1666 -0.8359  0.1277
 8261SOL    HW136416   2.972   3.330   8.350  0.8369 -0.9212 -1.5545
 8261SOL    HW236417   3.119   3.312   8.358  0.6095  1.5595 -1.8903
 8262SOL     OW36418   1.184   1.062   3.805  0.0611  0.2346  0.0268
 8262SOL    HW136419   1.144   0.983   3.768  2.4398 -0.4424 -1.0280
 8262SOL    HW236420   1.256   1.092   3.750  3.3365 -0.1570  4.1886
 8263SOL     OW36421   0.943   4.222   6.762  0.3040  0.3733  0.0705
 8263SOL    HW136422   0.871   4.285   6.760  0.2568  0.3469  0.7330
 8263SOL    HW236423   0.929   4.171   6.842  0.3175  0.9011  0.4162
 8264SOL     OW36424   3.979   2.618   2.749 -0.2405 -0.0281  0.0698
 8264SOL    HW136425   4.017   2.691   2.797  1.0849 -0.9541  0.4227
 8264SOL    HW236426   4.038   2.545   2.768 -0.1780 -0.0087 -0.0501
 8265SOL     OW36427   4.614   3.536   8.581  0.0435 -0.3349  0.0073
 8265SOL    HW136428   4.681   3.476   8.615  0.0908  0.7593  1.8073
 8265SOL    HW236429   4.610   3.588   8.661  1.3738  0.1623 -0.2561
 8266SOL     OW36430   3.464   2.311   5.091  0.1231 -0.4985  0.6925
 8266SOL    HW136431   3.493   2.289   5.002  1.2584 -1.8780  1.4074
 8266SOL    HW236432   3.424   2.394   5.067 -0.7749 -0.9089  0.7846
 8267SOL     OW36433   2.632   0.976  13.929  0.1006  0.0515 -0.0824
 8267SOL    HW136434   2.602   0.933  13.848  0.8329 -0.1084 -0.2681
 8267SOL    HW236435   2.560   1.004  13.987 -0.1484  0.5737 -0.6400
 8268SOL     OW36436   2.764   1.045   0.194 -0.3043 -0.2174  0.1765
 8268SOL    HW136437   2.753   0.952   0.215 -1.6711  0.0109  0.4458
 8268SOL    HW236438   2.735   1.035   0.103 -1.1229  1.0633  0.2981
 8269SOL     OW36439   0.804   2.061  14.263 -0.2186 -0.1949  0.2369
 8269SOL    HW136440   0.893   2.066  14.299 -0.7845 -1.3217  1.7802
 8269SOL    HW236441   0.815   1.979  14.214 -0.3405 -0.6100  0.9032
 8270SOL     OW36442   1.015   1.483  13.793  0.0235  0.0258 -0.0650
 8270SOL    HW136443   1.029   1.395  13.756  1.3574  0.9563 -1.7819
 8270SOL    HW236444   0.919   1.482  13.789  0.0226  1.5337 -0.1158
 8271SOL     OW36445   1.992   0.919   7.087  0.5633 -0.1582 -0.2351
 8271SOL    HW136446   2.037   0.905   7.170 -1.4661  0.5587  0.9870
 8271SOL    HW236447   1.909   0.959   7.114  1.2887  1.4338 -0.3472
 8272SOL     OW36448   2.086   1.505   6.260 -0.1554  0.0874  0.4013
 8272SOL    HW136449   2.064   1.413   6.275 -1.9088  0.2198 -1.4198
 8272SOL    HW236450   2.016   1.551   6.306  1.2004  2.4494  0.0908
 8273SOL     OW36451   2.400   0.358   3.783  0.4738  0.5785  0.5100
 8273SOL    HW136452   2.444   0.274   3.771  1.7373  1.2760  0.3315
 8273SOL    HW236453   2.361   0.366   3.696  3.4044 -0.9580 -0.9473
 8274SOL     OW36454   4.644   3.974   4.347  0.1778  0.3803 -0.7390
 8274SOL    HW136455   4.638   3.908   4.416 -1.4212 -0.7854 -1.9947
 8274SOL    HW236456   4.683   4.048   4.394  0.8202 -0.6905  0.4514
 8275SOL     OW36457   0.817   1.063   8.934  0.2138  0.0961 -0.2687
 8275SOL    HW136458   0.834   0.970   8.946 -0.6116 -0.0362 -0.1913
 8275SOL    HW236459   0.901   1.089   8.972 -0.4138  0.7452  0.6693
 8276SOL     OW36460   2.887   4.228   8.839 -0.4353  0.1276  0.1136
 8276SOL    HW136461   2.904   4.300   8.779 -0.0841  0.8382  1.0674
 8276SOL    HW236462   2.978   4.199   8.845 -0.4198 -0.1210 -1.4228
 8277SOL     OW36463   3.069   0.249   5.166  0.2617  0.0932 -0.1213
 8277SOL    HW136464   3.141   0.307   5.141 -0.4062  0.8156 -0.3755
 8277SOL    HW236465   3.116   0.167   5.150  0.3844  0.0814  0.2964
 8278SOL     OW36466   1.598   4.427   4.028 -0.2053  0.7061 -0.1424
 8278SOL    HW136467   1.643   4.449   4.110  1.6251  0.6130 -1.1082
 8278SOL    HW236468   1.649   4.476   3.963  0.3891  1.8361  1.1841
 8279SOL     OW36469   0.217   2.492   8.772 -0.6601 -0.1489  0.1166
 8279SOL    HW136470   0.287   2.546   8.735 -0.1542 -0.5484  0.4929
 8279SOL    HW236471   0.229   2.413   8.718 -0.6787 -0.2263  0.2273
 8280SOL     OW36472   3.184   0.414   7.066 -0.0954 -0.2468  0.3148
 8280SOL    HW136473   3.103   0.366   7.083 -0.0888 -0.9813 -1.7158
 8280SOL    HW236474   3.153   0.497   7.104  0.9938  0.6947 -0.8858
 8281SOL     OW36475   2.347   1.184   3.716  0.3309 -0.5144  0.0682
 8281SOL    HW136476   2.384   1.126   3.650 -1.2587 -1.2335 -0.2092
 8281SOL    HW236477   2.271   1.217   3.667 -0.4065 -2.6574 -0.2378
 8282SOL     OW36478   3.012   1.395   2.032 -0.0530 -0.1778 -0.1694
 8282SOL    HW136479   3.015   1.350   1.947 -1.7780  1.1797 -0.9329
 8282SOL    HW236480   3.100   1.432   2.041  0.6885 -2.0921  0.6208
 8283SOL     OW36481   0.466   0.569   6.047  0.2449  0.0320  0.1185
 8283SOL    HW136482   0.384   0.614   6.065  1.3009  1.7307  0.6564
 8283SOL    HW236483   0.429   0.481   6.034  1.5985 -0.7251  1.3823
 8284SOL     OW36484   2.325   0.645   8.971  0.7099  0.0736 -0.2528
 8284SOL    HW136485   2.382   0.586   9.021 -0.6268  0.0514  1.2626
 8284SOL    HW236486   2.338   0.612   8.882  4.1079  0.2340  0.1797
 8285SOL     OW36487   0.916   1.383   2.293  0.0364 -0.6597  0.6026
 8285SOL    HW136488   0.949   1.303   2.332  1.2071 -0.0358  0.8909
 8285SOL    HW236489   0.892   1.356   2.204 -2.8826 -0.4671  1.3442
 8286SOL     OW36490   3.027   1.112   7.581  0.0685  0.2355 -0.3391
 8286SOL    HW136491   2.939   1.129   7.612  0.8453  1.9199  0.9355
 8286SOL    HW236492   3.081   1.172   7.632 -1.0554 -0.2189  1.3788
 8287SOL     OW36493   1.000   4.242   3.260  0.2071 -0.2937 -0.0737
 8287SOL    HW136494   0.911   4.250   3.227  0.1372  1.3826  0.5066
 8287SOL    HW236495   1.041   4.242   3.174 -1.0794 -0.8529 -0.6820
 8288SOL     OW36496   1.490   4.052   6.560  0.3469 -0.1666  0.1577
 8288SOL    HW136497   1.566   4.017   6.606  1.1712  0.3280 -0.8127
 8288SOL    HW236498   1.523   4.077   6.473  0.8444  3.3683  1.3564
 8289SOL     OW36499   4.673   2.268   2.057 -0.0041  0.3805  0.3556
 8289SOL    HW136500   4.735   2.198   2.074 -1.0520 -0.6130  0.0660
 8289SOL    HW236501   4.593   2.220   2.078 -0.4448  0.1696 -1.8420
 8290SOL     OW36502   4.162   3.713   7.257  0.1472 -0.2933  0.2234
 8290SOL    HW136503   4.166   3.777   7.327 -3.7688  0.7356 -0.5136
 8290SOL    HW236504   4.181   3.632   7.304  3.5382 -0.7104 -1.8204
 8291SOL     OW36505   4.271   1.326  11.752 -0.2565 -0.2261  0.7725
 8291SOL    HW136506   4.298   1.402  11.700 -0.1958 -0.8972 -0.1745
 8291SOL    HW236507   4.184   1.349  11.783 -0.2256  1.6644 -0.5685
 8292SOL     OW36508   0.616   3.712   4.563 -0.1211 -0.2693  0.0077
 8292SOL    HW136509   0.709   3.691   4.550  0.7811  3.4866  0.4441
 8292SOL    HW236510   0.633   3.778   4.630 -1.5601  1.2491 -1.1177
 8293SOL     OW36511   3.017   1.701   2.155  0.3998 -0.3936 -0.1032
 8293SOL    HW136512   3.023   1.699   2.060 -1.1923 -1.4308 -0.1698
 8293SOL    HW236513   2.968   1.783   2.165  1.8156  0.5137 -0.4499
 8294SOL     OW36514   0.200   1.482   4.100  0.3492 -0.2829 -0.7158
 8294SOL    HW136515   0.133   1.425   4.137 -0.4813  2.8282  2.6306
 8294SOL    HW236516   0.257   1.474   4.177 -1.1063  2.0706  0.6068
 8295SOL     OW36517   2.097   4.259   7.707  0.1704  0.1755  0.4221
 8295SOL    HW136518   2.017   4.262   7.654  0.6602 -0.7067 -0.3671
 8295SOL    HW236519   2.110   4.165   7.693  0.5165  0.1433  0.9614
 8296SOL     OW36520   0.376   3.925   9.145  0.2366 -0.5044 -0.1964
 8296SOL    HW136521   0.423   3.955   9.067 -1.7183 -2.4967 -2.1548
 8296SOL    HW236522   0.287   3.916   9.111  0.0234 -1.5467  0.6417
 8297SOL     OW36523   3.876   0.170   8.787 -0.1327 -0.4481 -0.3048
 8297SOL    HW136524   3.864   0.128   8.872 -0.7549 -0.6691 -0.5030
 8297SOL    HW236525   3.795   0.220   8.778 -0.0342 -0.1122  0.7501
 8298SOL     OW36526   1.698   0.343   9.271 -0.8473  0.1359  0.0807
 8298SOL    HW136527   1.791   0.363   9.271 -1.1814  1.7023 -0.4930
 8298SOL    HW236528   1.665   0.403   9.338 -0.1280 -0.2673  0.7902
 8299SOL     OW36529   1.355   0.614   8.724 -0.1396 -0.1109  0.0992
 8299SOL    HW136530   1.429   0.591   8.667  0.2130  1.8187 -0.2318
 8299SOL    HW236531   1.397   0.663   8.795 -1.3894  1.2235 -0.1031
 8300SOL     OW36532   0.139   2.212   3.339 -0.2282  0.3458  0.8540
 8300SOL    HW136533   0.217   2.256   3.303 -0.9777 -1.4875 -2.9643
 8300SOL    HW236534   0.095   2.289   3.375  2.1806  3.1554 -2.1496
 8301SOL     OW36535   3.093   2.991  13.517 -0.2132  0.8763 -0.0509
 8301SOL    HW136536   3.083   3.083  13.492  3.7722  1.3974  0.1790
 8301SOL    HW236537   3.178   2.993  13.563 -0.4795  0.8862  0.4416
 8302SOL     OW36538   2.860   0.086   0.766  0.2309  0.2028  0.1334
 8302SOL    HW136539   2.855   0.181   0.761  0.6355  0.1847 -0.5769
 8302SOL    HW236540   2.780   0.063   0.719  0.8679  0.6084 -1.1508
 8303SOL     OW36541   4.223   2.690  13.711  0.3220 -0.2197 -0.0908
 8303SOL    HW136542   4.198   2.600  13.728  0.9740 -0.0828  1.5586
 8303SOL    HW236543   4.292   2.704  13.775 -0.6179  0.8788  0.6724
 8304SOL     OW36544   0.347   1.982  14.936  0.1108  0.5046  0.3002
 8304SOL    HW136545   0.257   1.974  14.966  0.4268 -1.7690  0.6966
 8304SOL    HW236546   0.375   2.033  15.012  1.1907 -1.8444  1.4857
 8305SOL     OW36547   2.452   3.244   2.479 -0.0329 -0.1357 -0.4164
 8305SOL    HW136548   2.515   3.184   2.518  0.4750  0.7958  0.2010
 8305SOL    HW236549   2.434   3.205   2.394 -0.3226 -0.8466 -0.0343
 8306SOL     OW36550   0.084   3.040   4.075  0.5735  0.2081  0.1305
 8306SOL    HW136551   0.005   3.026   4.023 -0.6442 -0.1238  2.0643
 8306SOL    HW236552   0.054   3.106   4.137 -1.1309  0.2494 -0.7228
 8307SOL     OW36553   3.713   3.982   8.369  0.3032 -0.2236  0.2638
 8307SOL    HW136554   3.667   3.961   8.450 -0.9621  2.3020  0.2055
 8307SOL    HW236555   3.759   3.902   8.343  2.7859  1.6487 -1.1234
 8308SOL     OW36556   3.998   0.290  14.524 -0.4717  0.4605 -0.1530
 8308SOL    HW136557   4.020   0.240  14.445  2.2835  0.0661  0.8809
 8308SOL    HW236558   3.975   0.376  14.490  2.9438  2.1292  1.7427
 8309SOL     OW36559   1.844   2.488   8.096 -0.7017 -0.1695  0.1201
 8309SOL    HW136560   1.924   2.518   8.053 -0.1039  1.1255  2.1417
 8309SOL    HW236561   1.857   2.393   8.087  1.0973 -0.0290  1.0887
 8310SOL     OW36562   1.454   0.877  10.509 -0.3836  0.0932  0.5933
 8310SOL    HW136563   1.402   0.803  10.542 -0.6960 -0.4238 -1.0661
 8310SOL    HW236564   1.403   0.945  10.552  0.7126  0.7173  0.8773
 8311SOL     OW36565   0.195   4.129  12.909 -0.2184  0.1314 -0.2120
 8311SOL    HW136566   0.221   4.208  12.956  0.4788 -0.0579 -0.2818
 8311SOL    HW236567   0.211   4.161  12.820  2.8213  1.6752  0.9096
 8312SOL     OW36568   0.306   3.735   4.810  0.0556  0.6891 -0.0955
 8312SOL    HW136569   0.342   3.824   4.803  1.5321  0.2334  1.5415
 8312SOL    HW236570   0.386   3.683   4.819 -1.5353 -1.2222  3.1098
 8313SOL     OW36571   2.890   3.033   6.588 -0.0164  0.3701  0.8158
 8313SOL    HW136572   2.946   2.958   6.609  1.0650  0.4503 -1.8353
 8313SOL    HW236573   2.898   3.074   6.674  0.8578 -0.7421  1.2642
 8314SOL     OW36574   4.245   1.492   5.891 -0.2859 -0.6106  0.2511
 8314SOL    HW136575   4.250   1.400   5.867 -1.7028 -0.8073  0.7528
 8314SOL    HW236576   4.201   1.482   5.975 -1.1271  2.0274  0.1187
 8315SOL     OW36577   3.528   3.102   7.775  0.0705  0.3318  0.4315
 8315SOL    HW136578   3.575   3.026   7.811  0.0263 -0.3340 -0.9052
 8315SOL    HW236579   3.598   3.153   7.733  0.5323  2.2422  3.5556
 8316SOL     OW36580   0.048   2.113   1.770  0.0694 -0.0723  0.0357
 8316SOL    HW136581   0.076   2.047   1.706 -0.9288  0.6260 -1.1441
 8316SOL    HW236582   0.128   2.143   1.812  1.8719 -1.0440 -2.7226
 8317SOL     OW36583   1.384   2.583   0.410 -0.4144  0.1666 -0.2952
 8317SOL    HW136584   1.445   2.564   0.339 -1.2348 -0.7695 -0.7411
 8317SOL    HW236585   1.441   2.564   0.484  0.5688  2.1157 -0.5322
 8318SOL     OW36586   3.935   1.747   7.754 -0.0608 -0.1668  0.6556
 8318SOL    HW136587   3.855   1.782   7.714  0.8996 -0.9585 -1.9743
 8318SOL    HW236588   3.904   1.663   7.788  0.5200 -1.5927 -2.3034
 8319SOL     OW36589   1.133   3.728   9.963  0.0407  0.2884 -0.0486
 8319SOL    HW136590   1.156   3.769   9.880  0.7733 -1.7065 -0.8160
 8319SOL    HW236591   1.146   3.803  10.022  0.2644  0.4466 -0.3015
 8320SOL     OW36592   3.201   0.424   5.010  0.5233 -0.5042  0.5534
 8320SOL    HW136593   3.204   0.407   4.916  3.2569 -0.3334  0.6014
 8320SOL    HW236594   3.292   0.446   5.031  0.9524  0.0026 -1.8221
 8321SOL     OW36595   1.599   3.449   9.067  0.0157 -0.7410  0.2985
 8321SOL    HW136596   1.611   3.385   9.137 -0.3005 -1.3597 -0.2135
 8321SOL    HW236597   1.635   3.404   8.991  0.0396  0.8133 -0.6212
 8322SOL     OW36598   1.691   2.110  12.392  0.4034 -0.0280  0.2771
 8322SOL    HW136599   1.711   2.170  12.465 -2.0304 -0.7942  1.5779
 8322SOL    HW236600   1.712   2.027  12.436  1.9154 -0.7522 -1.8474
 8323SOL     OW36601   4.712   1.316   9.866  0.2309 -0.3796  0.0861
 8323SOL    HW136602   4.699   1.405   9.899 -0.6092 -0.2453 -0.6133
 8323SOL    HW236603   0.060   1.308   9.910 -0.0193  0.4406  0.7242
 8324SOL     OW36604   1.601   2.301   8.462  0.3062 -0.1089  0.1880
 8324SOL    HW136605   1.689   2.282   8.429  0.9607  1.7994  0.8206
 8324SOL    HW236606   1.622   2.321   8.553 -0.0982 -0.3313  0.3278
 8325SOL     OW36607   2.114   2.504   3.839 -0.1054  0.0996  0.3944
 8325SOL    HW136608   2.118   2.528   3.747 -0.2067 -2.9599 -0.4291
 8325SOL    HW236609   2.042   2.557   3.873 -0.8297 -1.5860  1.5478
 8326SOL     OW36610   2.878   0.227   2.572  0.3645  0.1475 -0.0954
 8326SOL    HW136611   2.887   0.169   2.496 -0.4877  1.5516 -1.2713
 8326SOL    HW236612   2.806   0.285   2.546 -0.2245  0.1751  1.6414
 8327SOL     OW36613   2.037   4.324   4.046  0.6387 -0.1492  0.7212
 8327SOL    HW136614   2.080   4.239   4.051 -0.5703 -0.7591  0.8195
 8327SOL    HW236615   1.975   4.305   3.975  1.0405  3.3456 -0.5876
 8328SOL     OW36616   2.592   0.199   8.885 -0.0920  0.2703 -0.1441
 8328SOL    HW136617   2.545   0.133   8.833  1.9612  0.5828 -2.3785
 8328SOL    HW236618   2.676   0.157   8.905 -0.6532 -2.0181 -2.4770
 8329SOL     OW36619   0.139   4.486   3.245 -0.0526 -0.1166  0.1000
 8329SOL    HW136620   0.215   4.488   3.304 -0.7862  1.8957  0.9767
 8329SOL    HW236621   0.067   4.516   3.300  0.5500  1.3117  0.1263
 8330SOL     OW36622   1.929   0.975  15.396  0.1196  0.1370  0.0950
 8330SOL    HW136623   2.001   1.037  15.386  0.1449 -0.3733 -2.7715
 8330SOL    HW236624   1.982   0.903  15.431 -1.0650 -0.7527  0.0839
 8331SOL     OW36625   0.962   0.078   8.489 -0.4734  0.1747 -0.2252
 8331SOL    HW136626   0.959   0.172   8.506  1.0228  0.1425  0.1812
 8331SOL    HW236627   1.037   0.072   8.430 -0.1703 -2.2202  0.3960
 8332SOL     OW36628   0.761   0.961   4.365 -0.6402  0.4366 -0.6253
 8332SOL    HW136629   0.799   0.916   4.439  1.1914 -1.8410 -2.9493
 8332SOL    HW236630   0.718   1.041   4.395  0.9038  1.0186 -0.0039
 8333SOL     OW36631   1.719   2.334   4.344  0.3346  0.3186 -0.0119
 8333SOL    HW136632   1.765   2.250   4.345 -2.5091 -1.2760 -3.8444
 8333SOL    HW236633   1.780   2.383   4.399 -1.1092  1.3427  0.6756
 8334SOL     OW36634   1.859   2.115  16.031  0.0283 -0.2528 -0.2518
 8334SOL    HW136635   1.931   2.104  15.969 -0.1632 -0.7768 -0.3830
 8334SOL    HW236636   1.875   2.206  16.053  1.8674 -0.4026 -0.9267
 8335SOL     OW36637   4.626   0.445   8.828  0.1490  0.0082 -0.7804
 8335SOL    HW136638   4.555   0.510   8.826 -1.5681 -1.9126 -1.6259
 8335SOL    HW236639   4.680   0.500   8.885 -1.6788 -0.3565  1.3133
 8336SOL     OW36640   1.456   2.577   9.388 -0.5373 -0.0995 -0.2824
 8336SOL    HW136641   1.385   2.564   9.451  2.1107  1.3308  2.9755
 8336SOL    HW236642   1.425   2.512   9.323  1.0554  1.1359 -2.2670
 8337SOL     OW36643   4.452   0.067   9.420  0.0281 -0.0930 -0.0794
 8337SOL    HW136644   4.382   0.066   9.486 -0.4279  1.4157 -0.5334
 8337SOL    HW236645   4.411   0.049   9.335  1.1376 -1.1781 -0.3894
 8338SOL     OW36646   2.737   0.711   8.822  0.2274 -0.0548 -0.2004
 8338SOL    HW136647   2.690   0.648   8.877  2.3774 -1.2791  0.2194
 8338SOL    HW236648   2.666   0.754   8.775  0.4943  1.3211  0.6449
 8339SOL     OW36649   1.736   0.525  12.740  0.6199  0.2693  0.3830
 8339SOL    HW136650   1.686   0.529  12.658  0.9930 -1.1391  0.0835
 8339SOL    HW236651   1.807   0.586  12.724 -0.6514  1.8788  0.8476
 8340SOL     OW36652   1.630   2.703   6.203 -0.2657  0.0416  0.7310
 8340SOL    HW136653   1.550   2.670   6.162  1.3438 -2.5082 -0.3373
 8340SOL    HW236654   1.703   2.650   6.171 -0.3330 -0.0913  0.8016
 8341SOL     OW36655   1.888   0.356   2.307  0.1629  0.3047  0.5696
 8341SOL    HW136656   1.942   0.430   2.335 -0.4950  0.8914  0.2790
 8341SOL    HW236657   1.864   0.330   2.397 -2.7810  2.5252  0.4104
 8342SOL     OW36658   0.077   2.004  12.433  0.3371  0.3834 -0.0590
 8342SOL    HW136659   0.129   1.930  12.402  0.0935  0.3579 -0.3943
 8342SOL    HW236660   4.722   1.976  12.439  0.3940 -0.0062 -1.1105
 8343SOL     OW36661   3.045   4.227   1.581  0.8348  0.2300 -0.6087
 8343SOL    HW136662   3.079   4.262   1.499  1.2786 -0.9023 -0.9016
 8343SOL    HW236663   3.085   4.140   1.584  0.3025  0.0602  1.5747
 8344SOL     OW36664   2.658   3.371   4.783  0.6926  0.0176  0.1405
 8344SOL    HW136665   2.686   3.293   4.736  0.3402  0.1491 -0.2887
 8344SOL    HW236666   2.740   3.400   4.824  0.6509 -2.0603  1.7209
 8345SOL     OW36667   2.720   1.643   3.993  0.1506  0.4401 -0.0610
 8345SOL    HW136668   2.729   1.649   4.088 -2.0813 -0.7011  0.2328
 8345SOL    HW236669   2.752   1.556   3.969  1.2836  0.6683  0.6377
 8346SOL     OW36670   2.986   3.966   8.765 -0.5919 -0.1437 -0.4945
 8346SOL    HW136671   2.979   3.875   8.736  0.5106  0.2064 -1.8619
 8346SOL    HW236672   2.908   3.965   8.820 -1.1931  2.3872 -1.3003
 8347SOL     OW36673   0.366   3.324  17.291  0.1685  0.4734 -0.1323
 8347SOL    HW136674   0.307   3.347  17.219 -1.4874  1.6415  1.5934
 8347SOL    HW236675   0.344   3.396  17.351 -3.0150  0.0924 -0.8580
 8348SOL     OW36676   1.479   2.892   9.394  0.3704  0.4490  0.1641
 8348SOL    HW136677   1.517   2.942   9.322  2.6815 -0.1541  0.9564
 8348SOL    HW236678   1.456   2.808   9.356 -1.5012  1.3405 -0.6833
 8349SOL     OW36679   3.037   1.535   6.845  0.0951 -0.4624  0.1556
 8349SOL    HW136680   3.033   1.630   6.855  0.3537 -0.3733 -0.6466
 8349SOL    HW236681   3.002   1.494   6.925 -0.6163 -0.1828 -0.0142
 8350SOL     OW36682   4.727   1.589   3.109 -0.0996  1.1549  0.0028
 8350SOL    HW136683   4.710   1.546   3.025  0.8179  0.3070  0.2527
 8350SOL    HW236684   4.639   1.608   3.142 -0.3762 -3.8446  2.1439
 8351SOL     OW36685   0.979   0.222  15.991  0.0322  0.2737 -0.0334
 8351SOL    HW136686   0.939   0.238  15.906  1.1984 -2.0710 -0.9919
 8351SOL    HW236687   0.982   0.127  15.991 -1.0073  0.2446 -2.9532
 8352SOL     OW36688   0.508   3.490   9.237  0.2751  0.5191 -0.3108
 8352SOL    HW136689   0.473   3.538   9.163 -0.6538 -0.1224 -0.2812
 8352SOL    HW236690   0.467   3.552   9.298 -0.4848 -1.8240  1.5522
 8353SOL     OW36691   4.163   2.610  13.351 -0.0656  0.5222 -0.3285
 8353SOL    HW136692   4.201   2.616  13.264 -0.0952 -1.5184 -0.4836
 8353SOL    HW236693   4.111   2.530  13.349 -0.9597  1.0112  2.6988
 8354SOL     OW36694   2.456   2.287   3.281 -0.2600 -0.1909 -0.4448
 8354SOL    HW136695   2.424   2.365   3.236  2.6908  1.7403  0.7992
 8354SOL    HW236696   2.550   2.292   3.263 -0.4112  2.8478 -0.3801
 8355SOL     OW36697   1.728   1.662   2.344 -0.1571 -0.0128  0.0399
 8355SOL    HW136698   1.758   1.623   2.426 -1.0464  1.0110  0.8662
 8355SOL    HW236699   1.740   1.757   2.354 -0.6268 -0.1491  1.9889
 8356SOL     OW36700   1.494   2.179   3.746 -0.2696 -0.3282  0.0218
 8356SOL    HW136701   1.519   2.256   3.695 -2.8082 -0.1790 -0.9962
 8356SOL    HW236702   1.529   2.187   3.835 -0.5441 -1.0086  0.1880
 8357SOL     OW36703   1.828   2.391   3.675  0.1674 -0.1463 -0.4027
 8357SOL    HW136704   1.774   2.330   3.626  1.2301 -0.7760 -0.7918
 8357SOL    HW236705   1.914   2.368   3.640  0.9245 -0.1596  1.4420
 8358SOL     OW36706   0.428   4.457   5.991  0.7849  0.1617 -0.5690
 8358SOL    HW136707   0.341   4.489   6.015 -0.5152 -3.2765 -0.7492
 8358SOL    HW236708   0.485   4.494   6.059  1.6436 -0.8312 -0.7520
 8359SOL     OW36709   1.463   0.698  15.358  0.2422 -0.0473 -0.2089
 8359SOL    HW136710   1.519   0.762  15.313  1.3411 -0.4425  0.5990
 8359SOL    HW236711   1.489   0.700  15.450  1.1890 -1.0182 -0.4629
 8360SOL     OW36712   4.680   2.291  10.857 -0.0345 -0.8074  0.1921
 8360SOL    HW136713   4.730   2.279  10.937  1.2720  1.9082 -0.2297
 8360SOL    HW236714   4.658   2.204  10.822  1.9186 -1.5920  0.9152
 8361SOL     OW36715   1.588   1.084   2.113  0.0681 -0.2209 -0.0655
 8361SOL    HW136716   1.526   1.040   2.055  0.6723  0.0284 -0.9149
 8361SOL    HW236717   1.571   1.176   2.092  2.9039  0.5249  0.8873
 8362SOL     OW36718   4.485   0.467   4.740  0.1612 -0.2267 -0.4615
 8362SOL    HW136719   4.561   0.448   4.795 -0.6185  0.6238  0.9310
 8362SOL    HW236720   4.522   0.536   4.685 -1.9186  1.3183  0.0380
 8363SOL     OW36721   4.688   3.230   3.133 -0.1140  0.1760  0.1543
 8363SOL    HW136722   4.621   3.281   3.178  0.0488  1.3752 -0.9629
 8363SOL    HW236723   4.672   3.260   3.043  0.9000  2.2490  0.6593
 8364SOL     OW36724   0.438   2.155  16.589 -0.2275  0.2342  0.0351
 8364SOL    HW136725   0.371   2.182  16.651 -1.8767 -1.1424 -1.1598
 8364SOL    HW236726   0.507   2.166  16.655 -0.1885  0.0213  0.0318
 8365SOL     OW36727   3.377   2.249   1.025  0.2217  0.2838  0.1418
 8365SOL    HW136728   3.318   2.316   1.059  2.1973  0.6832  2.7191
 8365SOL    HW236729   3.458   2.299   1.030  0.0138  0.5263  1.1223
 8366SOL     OW36730   4.699   1.826   8.391 -0.1383 -0.2643  0.1253
 8366SOL    HW136731   4.692   1.869   8.306  2.1854  1.4687  0.8093
 8366SOL    HW236732   4.649   1.746   8.377 -2.6551  1.1567  0.9104
 8367SOL     OW36733   4.185   0.306   8.008 -0.0775 -0.2685 -0.2845
 8367SOL    HW136734   4.173   0.271   7.919 -3.4950  0.2056 -0.0194
 8367SOL    HW236735   4.206   0.222   8.050  1.7130  0.5245  0.4101
 8368SOL     OW36736   1.898   1.231   3.654 -0.0658 -0.1858 -0.5205
 8368SOL    HW136737   1.982   1.272   3.636 -0.3003  1.3669  1.9527
 8368SOL    HW236738   1.857   1.238   3.568 -0.8516 -2.7661 -0.3799
 8369SOL     OW36739   1.529   4.451   1.659  0.3410  0.0959 -0.4017
 8369SOL    HW136740   1.557   4.361   1.644 -1.5551 -0.3092 -1.4336
 8369SOL    HW236741   1.605   4.504   1.684 -1.2393  2.3443 -0.4178
 8370SOL     OW36742   1.738   0.107   5.352 -1.0180  0.5184  0.4319
 8370SOL    HW136743   1.798   0.174   5.382 -0.1650 -0.0895  0.0756
 8370SOL    HW236744   1.725   0.051   5.429  0.1465  0.1981  0.3907
 8371SOL     OW36745   3.838   4.111   0.897 -0.1066 -0.5135 -0.1435
 8371SOL    HW136746   3.819   4.050   0.969  1.7126 -1.0332 -0.1014
 8371SOL    HW236747   3.796   4.187   0.938  1.4661 -0.1781  0.8261
 8372SOL     OW36748   2.513   3.628   8.586  0.2160 -0.5846  0.6592
 8372SOL    HW136749   2.536   3.676   8.666 -0.0132  1.8327 -0.7371
 8372SOL    HW236750   2.586   3.656   8.531 -0.4439  0.0600  0.1028
 8373SOL     OW36751   1.549   2.733   9.943  0.0841 -0.0449  0.3718
 8373SOL    HW136752   1.588   2.819   9.958 -1.5551  1.1506 -2.2292
 8373SOL    HW236753   1.603   2.663   9.981 -0.7271 -1.0103 -0.2562
 8374SOL     OW36754   3.641   4.504  10.608  0.0409 -0.1666  0.2954
 8374SOL    HW136755   3.698   4.533  10.680 -0.7345  0.6739  0.5700
 8374SOL    HW236756   3.708   4.471  10.547 -0.8485 -0.4247 -0.5387
 8375SOL     OW36757   3.159   2.860  15.686 -0.4179  0.2599  0.3949
 8375SOL    HW136758   3.176   2.784  15.630 -1.4223  1.4327 -1.5046
 8375SOL    HW236759   3.064   2.859  15.677 -0.2625 -2.3631 -1.0055
 8376SOL     OW36760   2.947   1.289   2.279  0.1285 -0.0552  0.3857
 8376SOL    HW136761   2.957   1.335   2.196  0.4603 -1.8868 -0.5841
 8376SOL    HW236762   3.007   1.215   2.270  0.3199  0.1922 -0.3801
 8377SOL     OW36763   0.077   0.669   2.867 -0.2297  0.0003 -0.6402
 8377SOL    HW136764   0.017   0.726   2.820 -1.2587 -0.9246 -0.4603
 8377SOL    HW236765   0.104   0.610   2.796 -1.1859 -1.3051  0.0727
 8378SOL     OW36766   2.969   1.717  11.157 -0.4289  0.5815  0.1116
 8378SOL    HW136767   2.942   1.628  11.137  0.1378  0.3401  0.4370
 8378SOL    HW236768   2.997   1.703  11.247 -0.8831  0.6371  0.2610
 8379SOL     OW36769   0.862   0.618   4.917  0.0692 -0.3358 -0.1714
 8379SOL    HW136770   0.825   0.688   4.863  2.4892  1.4268  0.4413
 8379SOL    HW236771   0.878   0.665   4.999 -1.4205 -1.7139  0.9106
 8380SOL     OW36772   0.799   4.109   4.198 -0.2807 -0.1927  0.5609
 8380SOL    HW136773   0.771   4.036   4.252 -1.2591  1.1285  1.8601
 8380SOL    HW236774   0.894   4.104   4.210 -0.1893  0.8252  0.3156
 8381SOL     OW36775   1.675   0.729   0.054  0.0552  0.0003  0.0103
 8381SOL    HW136776   1.749   0.670   0.058  1.3745  1.5738 -1.3216
 8381SOL    HW236777   1.721   0.809   0.079  2.6869 -2.0244  1.6202
 8382SOL     OW36778   1.311   4.662   1.225 -0.1987 -0.3793  0.5060
 8382SOL    HW136779   1.301   4.689   1.134  4.0521  1.3470  0.5209
 8382SOL    HW236780   1.294   0.010   1.267  0.3833  0.1191 -0.2617
 8383SOL     OW36781   3.400   3.306  16.842  0.1790  0.3217  0.4194
 8383SOL    HW136782   3.486   3.322  16.802 -0.1624 -2.1235 -1.2609
 8383SOL    HW236783   3.358   3.262  16.768  2.2004 -1.6006  0.4068
 8384SOL     OW36784   0.445   2.517   3.076 -0.9031  0.5092  0.5626
 8384SOL    HW136785   0.461   2.473   2.993 -0.8762  3.8129 -1.1888
 8384SOL    HW236786   0.350   2.519   3.076 -0.8825  1.5655 -2.5226
 8385SOL     OW36787   2.935   4.327   2.567  0.6757  0.1765  0.6684
 8385SOL    HW136788   2.979   4.347   2.484 -1.5757 -0.0330 -0.5840
 8385SOL    HW236789   2.880   4.405   2.577  0.5577  0.2810 -0.7843
 8386SOL     OW36790   1.928   2.575   3.069 -0.1686  1.5874  0.2441
 8386SOL    HW136791   2.006   2.570   3.014 -0.0614 -0.2371  0.5841
 8386SOL    HW236792   1.890   2.651   3.024 -2.5108  0.7186  0.7642
 8387SOL     OW36793   0.961   1.394  12.067  0.5809 -0.2166 -0.7462
 8387SOL    HW136794   0.940   1.403  12.159 -0.3311 -2.0718 -0.7795
 8387SOL    HW236795   1.033   1.330  12.065  1.9648  1.3197 -0.2034
 8388SOL     OW36796   1.100   1.562   6.634  0.0372 -0.2898 -0.0505
 8388SOL    HW136797   1.121   1.638   6.580 -1.0542  0.0788  0.0322
 8388SOL    HW236798   1.121   1.584   6.725  1.1434 -0.2583 -0.3109
 8389SOL     OW36799   3.003   1.714   3.983 -0.4855 -0.3733 -0.5647
 8389SOL    HW136800   2.964   1.664   4.055 -1.3875  0.7467 -0.2689
 8389SOL    HW236801   3.087   1.670   3.982  0.7486  1.9555 -0.6677
 8390SOL     OW36802   4.596   4.721   3.547 -0.6677  0.0607  0.6244
 8390SOL    HW136803   4.662   0.033   3.498 -1.7411  1.8626  0.9323
 8390SOL    HW236804   4.624   4.633   3.524  0.2426  0.2021  1.1792
 8391SOL     OW36805   0.082   2.709   0.062 -0.4876  0.5005 -0.6232
 8391SOL    HW136806   4.731   2.735   0.032 -0.2098 -0.3254 -2.1727
 8391SOL    HW236807   0.080   2.614   0.073 -3.6507  1.0020  3.1023
 8392SOL     OW36808   0.922   4.614  17.562  0.3747  0.1265  0.1420
 8392SOL    HW136809   0.871   4.622  17.481  0.6959  0.2069 -0.0497
 8392SOL    HW236810   1.005   4.653  17.536 -0.1969  0.6450 -0.8983
 8393SOL     OW36811   0.649   1.968  12.249 -0.6400  0.0699 -0.3130
 8393SOL    HW136812   0.729   1.972  12.197 -0.8863 -0.9248 -0.7516
 8393SOL    HW236813   0.582   1.932  12.191  0.3946  1.1685 -2.1710
 8394SOL     OW36814   1.293   4.441   7.398 -0.1877  0.2471  0.2650
 8394SOL    HW136815   1.312   4.529   7.432 -1.1400  0.1834  0.9620
 8394SOL    HW236816   1.383   4.410   7.393 -0.6791 -1.4359  1.9900
 8395SOL     OW36817   3.303   2.091   1.275  0.3839 -0.6100 -1.0629
 8395SOL    HW136818   3.325   2.156   1.207 -3.4265 -2.0096 -3.6738
 8395SOL    HW236819   3.219   2.058   1.243  0.5740 -1.7272 -0.3955
 8396SOL     OW36820   3.510   2.117  15.895 -0.1095  0.0459  0.1262
 8396SOL    HW136821   3.445   2.066  15.944  0.8981 -2.6205 -1.3036
 8396SOL    HW236822   3.518   2.074  15.810 -0.3480 -0.6044  0.4316
 8397SOL     OW36823   1.479   1.772   7.223  0.0322  0.3883  0.0808
 8397SOL    HW136824   1.427   1.730   7.154 -0.0959 -0.2408  0.5581
 8397SOL    HW236825   1.549   1.816   7.174 -1.5535  3.9272  1.0220
 8398SOL     OW36826   2.061   1.885   8.329 -0.5000 -0.0545  0.0066
 8398SOL    HW136827   2.055   1.839   8.245 -0.3948 -1.9564  1.0478
 8398SOL    HW236828   1.969   1.905   8.346  0.2042  2.5968  0.7493
 8399SOL     OW36829   2.393   1.838  17.184  0.3927  0.3131 -0.4926
 8399SOL    HW136830   2.392   1.748  17.217 -2.5828  0.9125  1.0555
 8399SOL    HW236831   2.486   1.857  17.178  0.0816  1.8353 -0.5318
 8400SOL     OW36832   4.112   0.484   9.790 -0.3465 -0.4825 -0.1626
 8400SOL    HW136833   4.107   0.532   9.873 -0.5136  1.5550 -1.3625
 8400SOL    HW236834   4.023   0.499   9.760 -0.3155 -1.2861 -0.6526
 8401SOL     OW36835   0.351   2.678  16.005  0.0246  0.5241 -0.5970
 8401SOL    HW136836   0.334   2.661  15.912 -0.1915  0.9353 -0.6334
 8401SOL    HW236837   0.272   2.728  16.022 -1.3983 -2.1730  0.7873
 8402SOL     OW36838   0.372   0.057   2.496 -0.2184 -0.1567  0.1391
 8402SOL    HW136839   0.452   0.088   2.453 -0.4954  0.9422  0.4165
 8402SOL    HW236840   0.414   0.018   2.573  1.1237  2.4080  0.7040
 8403SOL     OW36841   1.206   4.018   8.725 -0.0042 -0.7861  0.4949
 8403SOL    HW136842   1.152   3.943   8.699 -2.2039  0.8557  0.3069
 8403SOL    HW236843   1.152   4.096   8.712 -0.6603 -0.7902  3.2060
 8404SOL     OW36844   2.919   2.310   9.002  0.0080  0.8878 -0.2655
 8404SOL    HW136845   2.893   2.402   9.008  0.3740  0.7940  2.3913
 8404SOL    HW236846   3.009   2.314   8.968  0.0938 -3.0366 -0.4306
 8405SOL     OW36847   0.478   0.539  17.237 -0.0625  0.1721 -0.7956
 8405SOL    HW136848   0.415   0.603  17.270  0.3849  0.2730 -0.1406
 8405SOL    HW236849   0.419   0.465  17.223 -0.3478 -0.1510  2.2131
 8406SOL     OW36850   3.247   0.239  14.059  0.5280  0.5532  0.1809
 8406SOL    HW136851   3.257   0.238  14.154  0.1109 -4.9865  0.1366
 8406SOL    HW236852   3.169   0.295  14.065  0.1284 -0.1379  1.4263
 8407SOL     OW36853   3.816   1.174   1.813  0.3778 -0.0713  0.3931
 8407SOL    HW136854   3.722   1.156   1.823  0.1911  1.5388  1.4555
 8407SOL    HW236855   3.846   1.107   1.874 -1.1163  1.0797  2.3753
 8408SOL     OW36856   4.330   2.593  12.177 -0.2042  0.0204  0.3224
 8408SOL    HW136857   4.364   2.504  12.176  0.4860  0.2988 -0.4047
 8408SOL    HW236858   4.303   2.599  12.269  0.2923  0.8873  0.4043
 8409SOL     OW36859   1.904   3.917   6.378  0.0924 -0.1813  0.0312
 8409SOL    HW136860   1.824   3.870   6.356  1.4295 -2.2720 -0.4744
 8409SOL    HW236861   1.880   3.957   6.461 -1.6385 -1.1407 -0.0143
 8410SOL     OW36862   3.866   0.006   1.031  0.6343  0.6708  0.7484
 8410SOL    HW136863   3.840   0.014   0.939  2.9486  0.7791  0.1131
 8410SOL    HW236864   3.932   0.075   1.030 -1.7373  2.9234 -2.7517
 8411SOL     OW36865   4.346   2.120   4.761 -0.3405  0.4054  0.0240
 8411SOL    HW136866   4.279   2.135   4.694  2.3286  0.1438 -2.6855
 8411SOL    HW236867   4.287   2.091   4.831 -0.9628 -2.2148 -1.5791
 8412SOL     OW36868   1.792   3.453   7.558  0.3726 -0.1503  0.4944
 8412SOL    HW136869   1.792   3.543   7.591  1.5536 -0.1993  0.6208
 8412SOL    HW236870   1.723   3.467   7.493  0.7515 -0.6410 -0.0080
 8413SOL     OW36871   3.522   2.926   2.540  0.2046  0.2721  0.0827
 8413SOL    HW136872   3.591   2.860   2.552  1.4357  1.6813  0.6913
 8413SOL    HW236873   3.533   2.934   2.446 -1.5192  1.0402 -0.0504
 8414SOL     OW36874   1.675   0.958   9.754 -0.0470  0.1670  0.6668
 8414SOL    HW136875   1.649   0.898   9.824  0.9059  2.4982  3.0420
 8414SOL    HW236876   1.644   1.041   9.789 -0.7081  1.1697 -2.2846
 8415SOL     OW36877   2.980   3.501   5.219  0.1079  0.0885  0.3387
 8415SOL    HW136878   3.047   3.464   5.275 -0.8551 -1.7756  0.2570
 8415SOL    HW236879   2.936   3.556   5.285  0.0045  1.0503 -0.5230
 8416SOL     OW36880   2.649   4.014   7.368 -0.1779 -0.5104 -0.0264
 8416SOL    HW136881   2.739   4.046   7.362 -0.5204  0.2188 -1.3579
 8416SOL    HW236882   2.644   4.025   7.463 -2.2729  0.1901 -0.2196
 8417SOL     OW36883   1.297   0.241   5.079  0.3370  0.0227 -0.5479
 8417SOL    HW136884   1.369   0.180   5.062  0.7571  0.0425  1.2196
 8417SOL    HW236885   1.305   0.300   5.004  3.6914 -0.3848 -0.5156
 8418SOL     OW36886   3.315   0.562  15.450  0.1505  1.1094 -0.1512
 8418SOL    HW136887   3.223   0.536  15.449  0.7755 -1.2186  0.7515
 8418SOL    HW236888   3.343   0.515  15.529 -0.6685 -1.6458 -1.5012
 8419SOL     OW36889   1.861   2.445   4.081 -0.5293 -0.1394 -0.3952
 8419SOL    HW136890   1.908   2.404   4.153  0.4315  1.5788 -0.0514
 8419SOL    HW236891   1.841   2.365   4.032  0.0448 -0.4956 -0.0429
 8420SOL     OW36892   3.136   2.066  14.695  0.3810 -0.2028 -0.5143
 8420SOL    HW136893   3.174   1.984  14.662  1.6917  0.7865 -1.4642
 8420SOL    HW236894   3.081   2.090  14.620  0.2318  0.5190 -0.1673
 8421SOL     OW36895   2.710   2.401   1.982  0.4697 -0.2422 -0.0302
 8421SOL    HW136896   2.678   2.448   2.060 -0.7002 -1.3504  0.1523
 8421SOL    HW236897   2.805   2.413   1.985  0.3714  0.7870 -0.9475
 8422SOL     OW36898   3.682   1.557  16.369 -0.3951 -0.7314 -0.5396
 8422SOL    HW136899   3.712   1.648  16.373 -0.1177 -0.9640  2.7791
 8422SOL    HW236900   3.612   1.552  16.304 -0.3149 -0.4623 -0.6455
 8423SOL     OW36901   4.473   3.005   0.037 -0.3280  0.1136 -0.2803
 8423SOL    HW136902   4.416   2.962   0.101  1.6099 -0.2031  1.2475
 8423SOL    HW236903   4.437   2.975  17.697 -2.2640  0.3036  0.4987
 8424SOL     OW36904   1.633   0.037   2.213  0.1198  0.4949  0.1649
 8424SOL    HW136905   1.682   0.051   2.293  0.1550  0.8693  0.0812
 8424SOL    HW236906   1.603   4.688   2.245  0.0931  0.9637  1.3903
 8425SOL     OW36907   1.699   2.634   8.616 -0.2358  0.1210 -0.8597
 8425SOL    HW136908   1.703   2.702   8.549  2.0954  0.5003 -0.3653
 8425SOL    HW236909   1.671   2.560   8.562  0.7512 -1.1705  0.4004
 8426SOL     OW36910   1.028   4.406  17.215 -0.2410 -0.5251  0.3677
 8426SOL    HW136911   0.992   4.397  17.126 -1.7639 -1.1903  1.0607
 8426SOL    HW236912   1.096   4.473  17.215  0.7876 -1.5673  3.0969
 8427SOL     OW36913   2.054   3.648   2.754  0.0150  0.3545  0.0690
 8427SOL    HW136914   2.075   3.625   2.664 -0.3502  1.4529 -0.2954
 8427SOL    HW236915   1.959   3.645   2.761 -0.1746 -0.8527 -3.0920
 8428SOL     OW36916   3.609   2.257   5.585  0.1416  0.3191  0.2239
 8428SOL    HW136917   3.556   2.337   5.580  0.5589  0.5472 -0.5303
 8428SOL    HW236918   3.683   2.297   5.630  1.9517 -0.4541 -2.0262
 8429SOL     OW36919   2.128   3.217   8.525  0.1395 -0.0459  0.2021
 8429SOL    HW136920   2.048   3.216   8.472 -0.0159 -1.5237  0.4487
 8429SOL    HW236921   2.094   3.174   8.604  0.4065  2.0269  1.4292
 8430SOL     OW36922   0.817   3.066  16.827 -0.1141 -0.3913 -0.7157
 8430SOL    HW136923   0.885   3.116  16.872 -0.7544  0.1703 -0.3742
 8430SOL    HW236924   0.744   3.068  16.889  0.3052  3.4071 -0.3581
 8431SOL     OW36925   2.218   4.130  16.019  0.6258 -0.2106  0.4081
 8431SOL    HW136926   2.182   4.156  16.104  0.3544 -1.3054  0.6251
 8431SOL    HW236927   2.288   4.195  16.014  1.2625 -0.5527  4.9491
 8432SOL     OW36928   2.992   1.824   8.448  0.6402 -0.0263 -0.5447
 8432SOL    HW136929   2.941   1.901   8.473 -0.9597 -0.6492 -1.8787
 8432SOL    HW236930   2.919   1.781   8.404 -1.1302  0.6396  1.7003
 8433SOL     OW36931   3.771   3.136   1.091 -0.2532  0.0148 -0.5480
 8433SOL    HW136932   3.709   3.064   1.097 -1.3301  1.1303  1.7494
 8433SOL    HW236933   3.793   3.140   0.998 -0.0723 -0.7743 -0.5346
 8434SOL     OW36934   4.092   4.506   7.877 -0.5572  0.0609  0.2397
 8434SOL    HW136935   4.031   4.480   7.808  0.3402 -0.5981 -0.3059
 8434SOL    HW236936   4.161   4.443   7.858 -0.5058  1.2226 -3.5092
 8435SOL     OW36937   3.383   1.716   6.411 -0.2366  0.2359 -0.4242
 8435SOL    HW136938   3.330   1.733   6.489  1.1170 -2.2709  1.0447
 8435SOL    HW236939   3.459   1.772   6.422  0.8230 -1.4474  0.7540
 8436SOL     OW36940   3.912   4.679   9.922  0.3610  0.8685 -0.3700
 8436SOL    HW136941   3.997   4.722   9.915  1.6031 -1.3670  0.9634
 8436SOL    HW236942   3.938   4.588   9.906 -1.1298  0.0336  1.7989
 8437SOL     OW36943   3.033   1.012  16.329  0.4011 -0.0927 -0.6777
 8437SOL    HW136944   3.037   0.977  16.241  1.0606 -2.0726  0.1397
 8437SOL    HW236945   2.939   1.004  16.343  1.1168 -0.4467  4.0103
 8438SOL     OW36946   3.005   2.196   6.023  0.0355  0.3678  0.1322
 8438SOL    HW136947   2.916   2.164   6.012 -0.4352  2.1980 -1.3186
 8438SOL    HW236948   3.031   2.137   6.094 -0.5488 -0.9515 -0.7467
 8439SOL     OW36949   3.145   0.412   2.713  0.1450 -0.2859  0.4196
 8439SOL    HW136950   3.081   0.448   2.651 -0.2218  0.1407  1.0439
 8439SOL    HW236951   3.222   0.415   2.656 -0.7965 -1.3102 -0.9041
 8440SOL     OW36952   4.117   1.038   7.557 -0.5871  0.2061  0.5876
 8440SOL    HW136953   4.194   0.991   7.523 -1.0918  0.4831 -0.9656
 8440SOL    HW236954   4.157   1.111   7.604  3.6595 -1.6898 -0.0525
 8441SOL     OW36955   1.973   1.937   2.599  0.1901 -0.1965 -0.7976
 8441SOL    HW136956   2.010   1.861   2.644 -2.3406 -1.3394 -0.6443
 8441SOL    HW236957   1.892   1.948   2.648  0.8729  0.9316  0.0900
 8442SOL     OW36958   2.379   1.553  10.618  0.7824  0.0906 -0.2442
 8442SOL    HW136959   2.342   1.640  10.602 -1.0766 -0.8103 -0.8536
 8442SOL    HW236960   2.386   1.519  10.529 -1.2094 -2.2983  0.5146
 8443SOL     OW36961   4.414   0.131  14.861 -0.1722  0.1162  0.3067
 8443SOL    HW136962   4.506   0.132  14.890 -0.0736  1.1398 -0.0290
 8443SOL    HW236963   4.396   0.225  14.863  0.7824  0.3001  0.2532
 8444SOL     OW36964   1.163   1.810  13.371 -0.2406  0.1376 -0.3481
 8444SOL    HW136965   1.100   1.802  13.443  1.1956  0.5818  0.9490
 8444SOL    HW236966   1.127   1.745  13.311  0.1602 -0.2189 -0.2006
 8445SOL     OW36967   4.462   1.499   6.198  0.6574 -0.2409 -0.2169
 8445SOL    HW136968   4.442   1.540   6.114  0.1870  0.3308  0.1842
 8445SOL    HW236969   4.501   1.574   6.242  0.1114 -0.4134  0.5700
 8446SOL     OW36970   2.150   3.668   4.526  0.1140 -0.1821  0.1199
 8446SOL    HW136971   2.146   3.573   4.532 -0.9196 -0.2223 -1.4087
 8446SOL    HW236972   2.222   3.695   4.584 -1.9626 -1.2589  3.1608
 8447SOL     OW36973   0.098   2.457   4.865 -0.7668 -0.4827 -0.1637
 8447SOL    HW136974   0.183   2.435   4.828 -1.0841  0.1919 -1.3008
 8447SOL    HW236975   0.052   2.374   4.871 -0.7458 -0.3862  1.1846
 8448SOL     OW36976   4.176   0.777   8.067 -0.5463  0.9841  0.0416
 8448SOL    HW136977   4.202   0.694   8.027  0.6079 -0.4675  3.8203
 8448SOL    HW236978   4.159   0.824   7.985 -0.6231  0.1568 -0.4206
 8449SOL     OW36979   2.442   4.153   4.899  0.4379  0.1061 -0.3598
 8449SOL    HW136980   2.485   4.238   4.887  0.0317  0.3695  0.0019
 8449SOL    HW236981   2.497   4.097   4.845  2.4304  1.1828  0.5494
 8450SOL     OW36982   4.385   0.491   5.444 -0.0480  0.7186  0.4392
 8450SOL    HW136983   4.352   0.418   5.393  0.1891  0.4556  0.6599
 8450SOL    HW236984   4.415   0.548   5.373 -1.8075  1.4473  0.2912
 8451SOL     OW36985   0.961   1.710   4.803  0.1087  0.3625 -0.0817
 8451SOL    HW136986   0.979   1.618   4.786 -0.2022 -0.1231  2.1120
 8451SOL    HW236987   0.977   1.713   4.898  0.7577 -0.4678 -0.1724
 8452SOL     OW36988   0.031   3.726   8.320 -0.0480 -0.2187  0.6574
 8452SOL    HW136989   0.067   3.758   8.238  1.5456 -0.2667  1.3338
 8452SOL    HW236990   4.695   3.668   8.296  0.1199 -0.4475  0.7107
 8453SOL     OW36991   3.714   2.010   2.084 -0.8327 -0.3730 -0.1592
 8453SOL    HW136992   3.736   1.980   1.995 -0.2194 -0.7439  0.1174
 8453SOL    HW236993   3.756   2.095   2.092 -1.4924 -0.0808  0.2421
 8454SOL     OW36994   3.014   1.383  17.512 -0.5841  0.3047 -0.1650
 8454SOL    HW136995   2.947   1.328  17.552 -0.3489  0.2711  0.1766
 8454SOL    HW236996   3.029   1.442  17.586 -0.5141 -1.3742  1.1508
 8455SOL     OW36997   4.535   1.564   5.055 -0.1942 -0.3182  0.1606
 8455SOL    HW136998   4.611   1.526   5.010 -1.5442  0.4375 -2.8103
 8455SOL    HW236999   4.472   1.562   4.982  0.8047 -0.7014 -0.6925
 8456SOL     OW37000   3.132   2.955   4.084  0.1685 -0.1372 -0.1011
 8456SOL    HW137001   3.179   2.932   4.164 -1.8286  2.0349  1.6891
 8456SOL    HW237002   3.195   2.999   4.027 -1.2820  0.8455 -0.9313
 8457SOL     OW37003   2.441   2.054   3.405 -0.3669 -0.3220  0.3210
 8457SOL    HW137004   2.404   2.126   3.353  3.0627  1.9026  0.9593
 8457SOL    HW237005   2.529   2.049   3.366 -0.5414  2.0502 -0.4216
 8458SOL     OW37006   4.686   1.059   4.847  0.3025 -0.2266  0.5181
 8458SOL    HW137007   4.615   0.996   4.835  0.5273 -0.0515 -1.8098
 8458SOL    HW237008   0.001   1.030   4.923  1.4078 -1.3402 -0.6359
 8459SOL     OW37009   1.744   0.963  13.974 -0.4834 -0.3227  0.4863
 8459SOL    HW137010   1.726   0.872  13.999  0.5573 -0.6084  0.2188
 8459SOL    HW237011   1.822   0.945  13.922 -0.1161 -1.2952  1.3731
 8460SOL     OW37012   0.091   2.499  14.860  0.3114 -0.0732  0.4586
 8460SOL    HW137013   0.140   2.421  14.882 -0.4335 -0.6302  0.1541
 8460SOL    HW237014   0.085   2.481  14.766  0.6777 -0.1163  0.4443
 8461SOL     OW37015   4.623   0.815   5.457  0.0270  0.1444  0.2674
 8461SOL    HW137016   4.633   0.783   5.367 -0.8267  0.3252  0.1035
 8461SOL    HW237017   4.545   0.773   5.493  0.2753  0.1773  0.8437
 8462SOL     OW37018   4.322   1.011   1.631 -0.2794  0.2717 -0.2249
 8462SOL    HW137019   4.286   1.076   1.570 -0.9086  0.7849  0.6965
 8462SOL    HW237020   4.271   1.042   1.706  2.2329 -0.7562  1.8811
 8463SOL     OW37021   4.471   3.492   5.894 -0.5536 -0.1425  0.3157
 8463SOL    HW137022   4.559   3.462   5.920 -0.5648 -0.8550 -0.4887
 8463SOL    HW237023   4.458   3.566   5.953 -1.7833  0.3709 -0.6002
 8464SOL     OW37024   1.631   1.276   5.414 -0.6190  0.2096 -0.0564
 8464SOL    HW137025   1.676   1.278   5.330  1.4634 -2.3022  1.0094
 8464SOL    HW237026   1.546   1.244   5.385 -0.8330  0.2326  0.5429
 8465SOL     OW37027   4.530   1.362   3.691 -0.2700 -0.0007 -0.4107
 8465SOL    HW137028   4.464   1.342   3.624 -0.7159 -1.5573  0.5008
 8465SOL    HW237029   4.597   1.411   3.644 -0.3779 -0.9097 -1.5299
 8466SOL     OW37030   0.538   2.365   0.850 -0.1095 -0.6866  0.5395
 8466SOL    HW137031   0.546   2.289   0.793 -0.8052 -0.5703  0.2842
 8466SOL    HW237032   0.583   2.326   0.925 -0.8917 -0.4805  1.1164
 8467SOL     OW37033   1.650   4.187   6.834 -0.0305  0.1579 -0.2488
 8467SOL    HW137034   1.645   4.276   6.800 -1.0242 -0.3076 -1.3539
 8467SOL    HW237035   1.556   4.167   6.840  0.1176 -0.1998  0.9206
 8468SOL     OW37036   2.731   0.343   9.453 -0.4071 -0.0272  0.1667
 8468SOL    HW137037   2.809   0.399   9.450 -0.6403  0.3538  1.3547
 8468SOL    HW237038   2.713   0.339   9.547  1.5819  5.0766  0.7812
 8469SOL     OW37039   0.373   3.807   6.951  0.1637  0.4576  0.0824
 8469SOL    HW137040   0.299   3.756   6.917  0.0599 -0.2790  1.4185
 8469SOL    HW237041   0.416   3.736   6.999  0.9988  0.4982 -0.6083
 8470SOL     OW37042   3.462   2.297   3.789  0.2134 -0.1717  0.2823
 8470SOL    HW137043   3.519   2.347   3.731  0.8936 -2.1939 -0.7983
 8470SOL    HW237044   3.449   2.223   3.729 -0.8801  1.3887 -1.3892
 8471SOL     OW37045   3.422   2.813   1.461  0.0806 -0.9797 -0.0622
 8471SOL    HW137046   3.464   2.839   1.543 -2.1420  0.3629  0.6459
 8471SOL    HW237047   3.454   2.885   1.407 -0.7523 -1.2274 -0.8662
 8472SOL     OW37048   0.300   4.471   1.141 -0.2183 -0.0424 -0.2222
 8472SOL    HW137049   0.341   4.448   1.057  2.2052  1.1464  0.6206
 8472SOL    HW237050   0.364   4.434   1.202 -1.2560 -0.0756  0.8214
 8473SOL     OW37051   3.479   3.366  17.282  0.2975 -0.3587 -0.3398
 8473SOL    HW137052   3.433   3.430  17.336  2.8887  0.7931  0.4991
 8473SOL    HW237053   3.419   3.358  17.207  1.2378 -0.7610 -1.0548
 8474SOL     OW37054   2.686   0.294   1.941 -0.2615  0.4503 -0.5345
 8474SOL    HW137055   2.728   0.336   1.867 -0.8934 -1.7055 -2.1295
 8474SOL    HW237056   2.603   0.273   1.898 -2.1468 -0.0853  3.3941
 8475SOL     OW37057   4.432   3.834  16.170  0.0097 -0.3200 -0.1069
 8475SOL    HW137058   4.454   3.906  16.229 -2.3762 -3.1751  4.2844
 8475SOL    HW237059   4.441   3.758  16.227 -0.5595 -0.2052  0.1405
 8476SOL     OW37060   3.611   3.593   6.048 -0.5480  0.5004  0.2831
 8476SOL    HW137061   3.555   3.652   6.098 -0.8048  0.7869 -0.3376
 8476SOL    HW237062   3.574   3.506   6.060  0.3424  0.2851  1.4415
 8477SOL     OW37063   2.571   0.109   6.547  0.6561  0.0105 -0.1384
 8477SOL    HW137064   2.597   0.121   6.456  1.9674  0.4403  0.2875
 8477SOL    HW237065   2.658   0.091   6.585  0.7802  1.5747  0.3238
 8478SOL     OW37066   4.055   1.037   3.222  0.7339 -0.0560 -0.2445
 8478SOL    HW137067   4.036   0.948   3.194 -2.9887  0.2508  1.3777
 8478SOL    HW237068   3.965   1.070   3.219  0.7029 -0.1592 -0.4285
 8479SOL     OW37069   1.759   2.474  11.321  1.2486 -0.2438 -0.5321
 8479SOL    HW137070   1.669   2.490  11.292  1.7242 -0.5832 -2.2295
 8479SOL    HW237071   1.753   2.412  11.393  1.6518 -0.4949 -0.7168
 8480SOL     OW37072   2.011   1.200   3.188  0.0775  0.3357 -0.0617
 8480SOL    HW137073   2.079   1.132   3.188 -1.0728 -0.8026  2.1786
 8480SOL    HW237074   1.943   1.161   3.132  0.2903  0.2785 -0.2844
 8481SOL     OW37075   2.670   1.214   2.276 -0.5392  0.0472 -0.3925
 8481SOL    HW137076   2.752   1.264   2.278 -0.2376 -0.6093  3.2390
 8481SOL    HW237077   2.690   1.140   2.333  0.1039  0.0213 -0.6445
 8482SOL     OW37078   3.405   1.868   5.756 -0.2895 -0.0436 -0.2045
 8482SOL    HW137079   3.464   1.794   5.742  0.2540  0.0972  1.3031
 8482SOL    HW237080   3.364   1.880   5.670 -1.0433 -0.2775  0.1230
 8483SOL     OW37081   3.310   4.634   3.267  0.2896  0.0217  0.4792
 8483SOL    HW137082   3.218   4.631   3.292 -0.3468  0.2697 -1.8543
 8483SOL    HW237083   3.347   4.607   3.352 -0.3777  1.1982  1.1435
 8484SOL     OW37084   0.430   0.566   6.342  0.5161  0.1314  0.5005
 8484SOL    HW137085   0.442   0.659   6.322  0.7338  0.2387  1.1412
 8484SOL    HW237086   0.508   0.544   6.393 -0.4705  1.0692  2.4551
 8485SOL     OW37087   3.890   4.616   0.296 -0.3159 -0.0067 -0.3136
 8485SOL    HW137088   3.969   4.565   0.314  1.1107  2.4122  0.3747
 8485SOL    HW237089   3.832   4.548   0.261 -0.0371 -1.5416  2.2396
 8486SOL     OW37090   4.331   2.441   1.359  0.2677  0.1210  0.7515
 8486SOL    HW137091   4.422   2.431   1.389  0.6801  0.1361 -0.4905
 8486SOL    HW237092   4.309   2.352   1.331 -1.1993  0.6545  0.2513
 8487SOL     OW37093   3.981   3.001   9.905  0.3471  0.5027 -0.0011
 8487SOL    HW137094   3.931   2.968   9.831  0.0446  0.7372  0.0987
 8487SOL    HW237095   3.950   2.939   9.971 -1.6302  0.8272 -0.6509
 8488SOL     OW37096   0.008   3.596   5.649  0.1097  0.1845  0.4698
 8488SOL    HW137097   4.652   3.606   5.628  0.0730 -3.1190 -0.9756
 8488SOL    HW237098   0.027   3.515   5.602  0.3907 -0.0637  1.0200
 8489SOL     OW37099   3.649   1.714   7.279  0.9007 -0.5498  0.2474
 8489SOL    HW137100   3.702   1.781   7.236  0.3101 -0.4833 -0.3723
 8489SOL    HW237101   3.710   1.690   7.349  1.3885  0.3152  0.1213
 8490SOL     OW37102   0.436   1.238   7.485  0.0489 -0.0840 -0.4248
 8490SOL    HW137103   0.431   1.328   7.454  1.1843  0.4227  0.8539
 8490SOL    HW237104   0.423   1.250   7.579  1.2188 -1.0012 -0.1334
 8491SOL     OW37105   2.875   4.020   2.559  0.3921 -0.3444  0.3789
 8491SOL    HW137106   2.783   4.020   2.585  0.2383  0.7187 -0.2195
 8491SOL    HW237107   2.920   4.030   2.643 -0.0486  2.5043  0.2697
 8492SOL     OW37108   3.816   0.618   9.700  0.0860  0.3407 -0.2662
 8492SOL    HW137109   3.745   0.681   9.685 -0.3322 -0.5197 -1.8590
 8492SOL    HW237110   3.787   0.569   9.777  2.7037  0.7156  0.9793
 8493SOL     OW37111   4.707   2.614   8.831 -0.3559  0.0824  0.3521
 8493SOL    HW137112   0.044   2.554   8.841  0.0689  0.6612  0.7033
 8493SOL    HW237113   4.683   2.619   8.924  0.4060  2.8449  0.4156
 8494SOL     OW37114   2.585   1.559   4.933  0.0438  0.3723  0.1299
 8494SOL    HW137115   2.500   1.525   4.961 -0.1523  1.0121  0.3282
 8494SOL    HW237116   2.608   1.595   5.019  1.2476 -1.2345  0.4635
 8495SOL     OW37117   0.643   2.034   6.999 -0.2732  0.4864 -0.0401
 8495SOL    HW137118   0.712   1.968   6.990  0.1084  1.1024 -1.6845
 8495SOL    HW237119   0.602   2.013   6.915 -1.5563 -1.1862  0.9920
 8496SOL     OW37120   0.821   0.782   8.186 -0.3804  0.6736  0.6274
 8496SOL    HW137121   0.832   0.738   8.270  2.6353 -2.2323 -1.3199
 8496SOL    HW237122   0.725   0.791   8.186 -0.3531  1.0065 -0.1357
 8497SOL     OW37123   2.321   0.102   0.215  0.7331  0.2337 -0.3732
 8497SOL    HW137124   2.276   0.142   0.140 -0.8062 -0.5422  0.1302
 8497SOL    HW237125   2.252   0.052   0.258  0.0637 -1.3068 -3.2666
 8498SOL     OW37126   4.523   0.401   7.723 -0.2851 -0.8500  0.0572
 8498SOL    HW137127   4.515   0.427   7.632  2.9628 -1.0305 -0.2698
 8498SOL    HW237128   4.467   0.323   7.719 -1.0850 -0.4331  3.3285
 8499SOL     OW37129   0.865   0.704  12.984 -0.1977 -0.1245  0.6700
 8499SOL    HW137130   0.833   0.684  13.072 -3.0082  1.9928  0.1292
 8499SOL    HW237131   0.930   0.774  12.993  1.4184 -1.4138 -0.8610
 8500SOL     OW37132   3.036   1.763  10.648 -0.5283 -0.5438  0.2929
 8500SOL    HW137133   3.105   1.701  10.626 -0.2931 -0.1604 -0.0316
 8500SOL    HW237134   3.078   1.831  10.701  0.3696 -1.4438  0.7332
 8501SOL     OW37135   4.380   2.205   4.417  0.7354  0.7260  0.2590
 8501SOL    HW137136   4.354   2.268   4.350  0.9797 -0.5524 -1.0443
 8501SOL    HW237137   4.297   2.185   4.460  0.9595 -0.0081  0.3561
 8502SOL     OW37138   1.581   4.303   8.043 -0.4935  0.3907 -0.0144
 8502SOL    HW137139   1.521   4.355   8.097 -0.9909 -1.1076  0.8707
 8502SOL    HW237140   1.559   4.217   8.080  0.7685 -0.5686 -1.5075
 8503SOL     OW37141   4.304   1.256  14.837 -0.7577  0.2426  0.0055
 8503SOL    HW137142   4.382   1.303  14.807  0.8470 -3.3950 -1.5231
 8503SOL    HW237143   4.271   1.211  14.759 -1.0386  0.7198 -0.1469
 8504SOL     OW37144   2.038   4.459   3.708 -0.1711  0.0475 -0.3673
 8504SOL    HW137145   2.066   4.464   3.616  3.8111  2.2539  0.9749
 8504SOL    HW237146   2.062   4.370   3.734  2.6876  0.9432  0.0082
 8505SOL     OW37147   0.210   1.079  10.223  0.1201  0.1384 -0.4123
 8505SOL    HW137148   0.131   1.024  10.228  0.8442 -0.8365  0.3577
 8505SOL    HW237149   0.233   1.070  10.131  0.5125  0.9288 -0.3931
 8506SOL     OW37150   1.056   1.546   1.043  0.4212 -0.3412 -0.4634
 8506SOL    HW137151   0.981   1.606   1.040  1.2963  0.8046  0.3681
 8506SOL    HW237152   1.017   1.466   1.008  2.0955 -1.2623 -0.2248
 8507SOL     OW37153   1.099   1.611   4.472 -0.2718 -0.1472  0.0867
 8507SOL    HW137154   1.139   1.698   4.470  1.4429 -0.9055  0.8672
 8507SOL    HW237155   1.126   1.575   4.388  2.6148 -1.6568  1.6117
 8508SOL     OW37156   3.499   0.883  15.297  0.0472 -0.9786 -0.5829
 8508SOL    HW137157   3.529   0.834  15.374 -1.3406 -0.6609  0.1563
 8508SOL    HW237158   3.579   0.886  15.246  0.7982  1.8101  0.7749
 8509SOL     OW37159   4.657   0.993   2.808 -0.5589  0.2484  0.6003
 8509SOL    HW137160   4.700   1.078   2.806  0.8645 -0.5138 -1.2899
 8509SOL    HW237161   4.565   1.011   2.829 -0.6481  0.2868  0.1693
 8510SOL     OW37162   1.577   4.392   7.449 -0.0619 -0.4656  0.1578
 8510SOL    HW137163   1.617   4.319   7.402 -0.2982  0.5382 -1.6238
 8510SOL    HW237164   1.641   4.396   7.520 -0.2044  2.1300  0.1584
 8511SOL     OW37165   3.010   2.719  14.058  0.4039  0.3362  0.0778
 8511SOL    HW137166   3.039   2.743  13.970  2.7759 -2.1747  0.1898
 8511SOL    HW237167   2.928   2.768  14.052  0.2897  0.1034 -0.2391
 8512SOL     OW37168   1.037   4.609   0.698  0.4339 -0.1964 -0.7405
 8512SOL    HW137169   1.065   4.647   0.781 -3.5046 -1.1667  1.0719
 8512SOL    HW237170   1.081   4.660   0.631  0.7123  0.2844 -0.1840
 8513SOL     OW37171   2.063   3.022   2.679 -0.6618  0.3205  0.3132
 8513SOL    HW137172   2.120   3.078   2.733 -0.4729 -2.1110  2.6172
 8513SOL    HW237173   2.042   3.083   2.608  1.8530  1.1761  0.2971
 8514SOL     OW37174   0.869   2.416  12.499 -0.0673 -0.2041  0.3225
 8514SOL    HW137175   0.804   2.480  12.471  2.9073  1.6491 -2.3275
 8514SOL    HW237176   0.920   2.410  12.419 -0.2986  0.8278  0.1017
 8515SOL     OW37177   4.700   0.668   0.340  0.1709 -0.0672 -0.3252
 8515SOL    HW137178   4.716   0.575   0.358  1.4589  0.3420  0.7295
 8515SOL    HW237179   4.681   0.697   0.429  0.0036  0.1461 -0.4323
 8516SOL     OW37180   3.747   4.295   1.509 -0.5689  0.4336 -0.2549
 8516SOL    HW137181   3.749   4.375   1.561  2.0026  1.5506 -2.0669
 8516SOL    HW237182   3.713   4.231   1.572  1.0924  0.7701  0.9844
 8517SOL     OW37183   1.812   0.824   1.256 -0.5035 -0.0871  0.4437
 8517SOL    HW137184   1.862   0.898   1.221 -1.5051  0.4166  0.0838
 8517SOL    HW237185   1.774   0.797   1.172  0.3868  1.9317 -0.5962
 8518SOL     OW37186   1.944   2.216  15.653  0.7734  0.2511 -0.3973
 8518SOL    HW137187   1.963   2.126  15.679  2.1157  0.7000  0.2409
 8518SOL    HW237188   2.003   2.270  15.707 -0.4055  0.3272  0.7997
 8519SOL     OW37189   0.679   1.897   4.096  0.4719 -0.1021 -0.1454
 8519SOL    HW137190   0.691   1.823   4.037  0.9845 -0.6274  0.6170
 8519SOL    HW237191   0.585   1.888   4.113  0.8976  0.7572  2.7818
 8520SOL     OW37192   0.466   4.021   8.921 -0.8942  0.7317 -0.3652
 8520SOL    HW137193   0.438   4.087   8.858  1.4364  0.7477 -1.4033
 8520SOL    HW237194   0.501   3.969   8.848 -1.9623 -0.2579 -0.1715
 8521SOL     OW37195   2.275   0.468   6.528  0.5284 -0.1929  1.0183
 8521SOL    HW137196   2.200   0.452   6.472  0.0763  1.1046  1.2490
 8521SOL    HW237197   2.270   0.410   6.604 -1.1147 -0.7672  0.4646
 8522SOL     OW37198   1.921   4.710   9.163  0.5506 -0.1568 -0.0848
 8522SOL    HW137199   1.954   4.690   9.251  1.1350 -0.1091 -0.2950
 8522SOL    HW237200   1.829   4.724   9.186  0.2507 -0.7218 -0.9675
 8523SOL     OW37201   0.392   2.150   5.951  0.2725 -0.1670  0.2253
 8523SOL    HW137202   0.306   2.115   5.928  0.0980 -1.1509  2.2999
 8523SOL    HW237203   0.381   2.203   6.030 -1.5394 -2.0177  1.2126
 8524SOL     OW37204   3.929   1.311   5.650 -0.4747  0.5638 -0.1699
 8524SOL    HW137205   3.956   1.396   5.684 -1.1250  1.2618 -1.4129
 8524SOL    HW237206   3.837   1.305   5.673 -0.5197 -0.6247 -0.6341
 8525SOL     OW37207   1.724   0.048  12.447  0.6848 -0.3574 -0.6114
 8525SOL    HW137208   1.817   0.068  12.440  0.3468  0.8149 -1.7041
 8525SOL    HW237209   1.716   0.049  12.543  0.6278  4.9333 -0.6872
 8526SOL     OW37210   2.774   3.256   2.762  0.1028  0.3826 -0.1936
 8526SOL    HW137211   2.775   3.276   2.856 -0.4095  1.8298 -0.5018
 8526SOL    HW237212   2.717   3.324   2.726 -1.2935 -1.2309 -1.0008
 8527SOL     OW37213   3.093   4.498   8.936  0.3902 -0.4563  0.4232
 8527SOL    HW137214   3.186   4.509   8.952  0.2012  2.5811 -0.5549
 8527SOL    HW237215   3.087   4.559   8.862  1.7557  2.1598  2.4783
 8528SOL     OW37216   2.055   1.497   3.230 -0.8945  0.0118 -0.2911
 8528SOL    HW137217   2.125   1.495   3.295 -1.1138  0.9600 -0.0313
 8528SOL    HW237218   2.043   1.407   3.200 -1.0640  0.7962 -2.5767
 8529SOL     OW37219   3.217   2.283  13.828 -0.5140 -0.2042 -0.2280
 8529SOL    HW137220   3.204   2.208  13.770 -0.5286  0.1619 -0.6948
 8529SOL    HW237221   3.283   2.316  13.768 -1.9230 -0.3315 -1.8490
 8530SOL     OW37222   3.262   2.606   1.755 -0.4331  0.4321 -0.0405
 8530SOL    HW137223   3.252   2.626   1.662  0.3089  0.9402 -0.0118
 8530SOL    HW237224   3.300   2.518   1.754 -1.0419  0.1532  1.4297
 8531SOL     OW37225   4.436   2.784   1.178  0.2544 -0.3574  0.4395
 8531SOL    HW137226   4.499   2.826   1.238  1.0127 -2.9910  1.5093
 8531SOL    HW237227   4.428   2.858   1.118 -1.5109 -0.9450 -0.0335
 8532SOL     OW37228   1.726   4.418  17.243 -0.0955  0.1772  0.1054
 8532SOL    HW137229   1.673   4.338  17.242 -0.8089  0.6512 -0.0949
 8532SOL    HW237230   1.736   4.433  17.337  1.0254 -0.3567  0.0763
 8533SOL     OW37231   1.717   0.454  14.787 -0.2412  0.0930  0.0897
 8533SOL    HW137232   1.760   0.538  14.770 -2.0910  0.8422 -0.8637
 8533SOL    HW237233   1.761   0.438  14.870 -0.4037 -0.6372  0.0356
 8534SOL     OW37234   0.132   3.536   5.328 -0.5193 -0.7456  0.0630
 8534SOL    HW137235   0.162   3.555   5.239  1.0626  1.1261  0.9968
 8534SOL    HW237236   0.120   3.629   5.348  4.0257 -0.5399  1.8169
 8535SOL     OW37237   3.214   0.811   3.520 -0.3837  0.0908 -0.3677
 8535SOL    HW137238   3.163   0.756   3.580  2.2809 -1.2557  0.6404
 8535SOL    HW237239   3.143   0.864   3.482 -0.6260  0.5787  0.7768
 8536SOL     OW37240   3.921   1.414   8.245 -0.2229 -0.2733 -0.9868
 8536SOL    HW137241   3.930   1.326   8.282 -0.5234 -0.5438 -1.5607
 8536SOL    HW237242   3.993   1.457   8.291 -1.3045  0.6653 -0.1782
 8537SOL     OW37243   1.121   0.871   6.742 -0.4970  0.6925 -0.2268
 8537SOL    HW137244   1.153   0.783   6.765 -0.2950  0.7063 -0.4553
 8537SOL    HW237245   1.110   0.855   6.648  1.7355 -1.6810 -0.0737
 8538SOL     OW37246   4.256   1.046  10.387 -0.2419 -0.7223 -0.2108
 8538SOL    HW137247   4.167   1.053  10.421 -0.2120 -2.8406  0.3109
 8538SOL    HW237248   4.233   1.080  10.300 -0.6790  3.2564  1.4599
 8539SOL     OW37249   4.229   1.999   5.337 -0.3114  0.0277 -0.2871
 8539SOL    HW137250   4.265   2.063   5.398  0.8205 -1.6457  0.7850
 8539SOL    HW237251   4.256   1.919   5.381 -1.5781 -1.2952 -1.8826
 8540SOL     OW37252   0.029   1.181  15.675  1.0180  0.2435 -0.4042
 8540SOL    HW137253   4.723   1.233  15.743 -0.9359 -0.6337 -0.9631
 8540SOL    HW237254   4.690   1.135  15.640  1.1307  1.6647 -2.5451
 8541SOL     OW37255   0.487   3.231   8.711 -0.4413  0.5860  0.4677
 8541SOL    HW137256   0.518   3.282   8.636 -0.1504 -3.8463 -2.4393
 8541SOL    HW237257   0.480   3.289   8.787  1.2354  0.1017  0.9929
 8542SOL     OW37258   2.599   0.659   0.512  0.6424 -0.3624  0.0555
 8542SOL    HW137259   2.654   0.601   0.459  0.5197  0.9898 -1.5577
 8542SOL    HW237260   2.514   0.667   0.468  0.2062 -1.8161  0.6234
 8543SOL     OW37261   2.661   4.023   3.452  0.4883  0.0829 -0.6370
 8543SOL    HW137262   2.597   4.054   3.387 -0.1992 -0.6488 -0.3010
 8543SOL    HW237263   2.737   4.076   3.429  1.0098 -0.4755 -0.1981
 8544SOL     OW37264   2.185   0.861   1.497 -0.1225  0.6109 -0.2678
 8544SOL    HW137265   2.216   0.789   1.552  1.5613 -0.1067 -2.1349
 8544SOL    HW237266   2.116   0.903   1.547 -1.2686 -1.0076 -0.4936
 8545SOL     OW37267   4.318   2.991  15.542 -0.4338 -0.4137  0.1981
 8545SOL    HW137268   4.261   3.027  15.473  0.4970  1.4867  0.4296
 8545SOL    HW237269   4.275   2.907  15.555  0.6045 -1.0843 -0.7082
 8546SOL     OW37270   2.390   4.279   8.001  0.1200  0.0548  0.0487
 8546SOL    HW137271   2.454   4.265   7.931  2.8382 -1.0377  2.7697
 8546SOL    HW237272   2.444   4.278   8.080 -0.6635  0.7962  0.5840
 8547SOL     OW37273   1.146   2.482   6.537  0.5187  0.1846 -0.3037
 8547SOL    HW137274   1.104   2.467   6.622 -0.2861  0.4147 -0.6658
 8547SOL    HW237275   1.140   2.577   6.523  0.4658  0.1669 -0.3981
 8548SOL     OW37276   1.582   0.163  11.745 -0.2130 -0.5415 -0.7457
 8548SOL    HW137277   1.605   0.129  11.659 -2.9065 -2.4467 -0.7022
 8548SOL    HW237278   1.648   0.232  11.748 -1.0235  0.2456 -0.7223
 8549SOL     OW37279   3.390   4.070   6.346  0.0587  0.4347  0.1396
 8549SOL    HW137280   3.300   4.076   6.376 -0.0640 -2.4663  0.3695
 8549SOL    HW237281   3.384   4.108   6.259  0.0393 -1.9496 -0.9010
 8550SOL     OW37282   1.157   0.778   7.784 -0.2937 -0.3316  0.1611
 8550SOL    HW137283   1.173   0.728   7.864  1.9668 -0.2714 -0.2326
 8550SOL    HW237284   1.091   0.722   7.744  0.9115  0.0112 -2.3312
 8551SOL     OW37285   4.634   3.498   4.756 -0.9115 -0.6168  0.0409
 8551SOL    HW137286   4.602   3.431   4.816  0.6953 -1.6169 -0.2090
 8551SOL    HW237287   4.557   3.544   4.725 -0.5681  0.9760  1.5451
 8552SOL     OW37288   3.745   0.115  14.163  0.7799 -0.3340 -0.0966
 8552SOL    HW137289   3.761   0.120  14.068 -3.8036 -1.0572 -0.9148
 8552SOL    HW237290   3.833   0.135  14.196  0.6495  2.2167 -1.2601
 8553SOL     OW37291   1.211   0.963  13.372 -0.2665  0.4496  0.2923
 8553SOL    HW137292   1.248   0.992  13.289 -0.3377 -1.8977 -0.5399
 8553SOL    HW237293   1.295   0.959  13.419  0.4103  1.0540 -0.8651
 8554SOL     OW37294   1.606   3.559   6.239 -0.4648  0.4489  0.0198
 8554SOL    HW137295   1.641   3.522   6.321 -1.4784  1.9518  1.1209
 8554SOL    HW237296   1.564   3.482   6.200 -1.2879  0.9916 -0.1560
 8555SOL     OW37297   2.726   4.657   1.366  0.1218 -0.9681 -0.2324
 8555SOL    HW137298   2.712   4.625   1.276  1.1208  1.0940 -1.1361
 8555SOL    HW237299   2.669   4.595   1.411  0.9131 -0.6754  1.1471
 8556SOL     OW37300   1.624   0.746   2.910  0.0882  0.2725 -0.3436
 8556SOL    HW137301   1.660   0.835   2.917 -1.8558  0.9377  1.1261
 8556SOL    HW237302   1.623   0.715   3.001  1.2247  0.2125 -0.3429
 8557SOL     OW37303   3.830   3.072  10.190 -0.2079  0.5173  0.1633
 8557SOL    HW137304   3.873   3.007  10.246  2.0224  2.5118  0.7569
 8557SOL    HW237305   3.744   3.033  10.175  0.2865 -0.4183 -0.2261
 8558SOL     OW37306   2.805   2.008   6.811  0.2493  0.5126 -0.3345
 8558SOL    HW137307   2.744   1.975   6.746  1.7615  1.1410 -2.0554
 8558SOL    HW237308   2.777   1.977   6.898  0.4701  1.5909  0.1215
 8559SOL     OW37309   2.957   1.121   7.282 -0.4311 -0.1227  0.0172
 8559SOL    HW137310   2.869   1.120   7.244 -1.1437 -2.7545  1.7322
 8559SOL    HW237311   2.947   1.181   7.356  0.9706 -0.5344  0.5449
 8560SOL     OW37312   3.608   1.362   7.672  0.0355  0.3503 -0.3924
 8560SOL    HW137313   3.697   1.386   7.645  0.5561 -1.4522 -0.2804
 8560SOL    HW237314   3.604   1.266   7.677 -0.5931  0.5288  2.7877
 8561SOL     OW37315   2.817   4.262   1.264  0.2621  0.1410 -0.6627
 8561SOL    HW137316   2.734   4.216   1.276  0.2794  0.3664  0.3636
 8561SOL    HW237317   2.791   4.354   1.265  2.3914  0.7033  1.8297
 8562SOL     OW37318   1.647   1.145   8.235 -0.3733 -0.6815 -0.5553
 8562SOL    HW137319   1.633   1.171   8.144 -0.6497  0.4915 -0.1894
 8562SOL    HW237320   1.560   1.123   8.270  0.8651 -2.1064  1.5593
 8563SOL     OW37321   2.949   2.247   5.701  0.2874 -0.6703  0.1526
 8563SOL    HW137322   3.043   2.264   5.697  0.1297 -0.2635 -1.6694
 8563SOL    HW237323   2.942   2.227   5.794  0.3275  1.1004  0.5298
 8564SOL     OW37324   2.313   2.411  12.292  0.4259 -0.1792 -0.3933
 8564SOL    HW137325   2.276   2.324  12.306  2.0592 -0.9487 -0.7437
 8564SOL    HW237326   2.238   2.469  12.290  1.3837  1.0949  0.7223
 8565SOL     OW37327   3.310   0.870   1.171 -0.5266  0.1753  0.2284
 8565SOL    HW137328   3.292   0.786   1.214 -0.9824  1.1304  1.9020
 8565SOL    HW237329   3.222   0.891   1.141 -0.5128  1.7767  1.3098
 8566SOL     OW37330   1.748   3.230   5.396 -0.0843 -0.4133 -0.0122
 8566SOL    HW137331   1.760   3.251   5.303  1.2668 -1.8241 -0.1597
 8566SOL    HW237332   1.835   3.248   5.434 -0.1945 -1.0888  0.5709
 8567SOL     OW37333   3.703   3.974  15.328  0.3753  0.4759 -0.7237
 8567SOL    HW137334   3.618   4.011  15.352  0.7542  0.0961  1.1635
 8567SOL    HW237335   3.739   4.049  15.280  1.6904 -2.0948 -3.7592
 8568SOL     OW37336   1.501   3.570   7.667 -0.2022 -0.5827 -0.2656
 8568SOL    HW137337   1.463   3.641   7.615 -0.1009 -0.5435 -0.2856
 8568SOL    HW237338   1.594   3.583   7.649 -0.0965  0.0996  0.7932
 8569SOL     OW37339   4.184   0.388   7.236 -0.2067 -0.0037 -0.0717
 8569SOL    HW137340   4.249   0.319   7.249  0.2720  0.3764 -0.4266
 8569SOL    HW237341   4.123   0.341   7.179 -0.2612  0.0819 -0.0847
 8570SOL     OW37342   2.789   2.419   5.156  0.0855 -0.2343 -0.1197
 8570SOL    HW137343   2.706   2.420   5.110 -0.1062 -1.5123  0.2056
 8570SOL    HW237344   2.833   2.352   5.104 -2.0584 -3.0334  1.6500
 8571SOL     OW37345   3.995   3.336   3.245 -0.1421 -0.3060 -0.8529
 8571SOL    HW137346   3.982   3.347   3.150  0.1407 -2.1691 -1.1078
 8571SOL    HW237347   3.907   3.365   3.266  0.1193  0.1709 -0.4047
 8572SOL     OW37348   3.485   0.620   2.580 -0.2715  0.4423 -0.9493
 8572SOL    HW137349   3.516   0.627   2.490  3.3340  1.3888  0.3744
 8572SOL    HW237350   3.523   0.701   2.613  0.2673 -0.0733 -0.3051
 8573SOL     OW37351   4.427   1.569   9.899  0.0580  0.1876 -0.4210
 8573SOL    HW137352   4.494   1.519   9.945  0.8646  1.2247 -0.4631
 8573SOL    HW237353   4.400   1.509   9.830  0.4828  1.4283 -1.6610
 8574SOL     OW37354   3.124   2.200   6.343  0.4555 -0.0112  0.0673
 8574SOL    HW137355   3.121   2.123   6.286  1.4466 -1.6211  2.2071
 8574SOL    HW237356   3.030   2.198   6.360  0.8461 -0.3926  2.2265
 8575SOL     OW37357   2.292   0.899   8.664 -0.2653 -0.1126  0.1422
 8575SOL    HW137358   2.282   0.980   8.616 -0.8973 -0.6276 -0.5864
 8575SOL    HW237359   2.317   0.932   8.750  0.7470  0.1120 -0.2415
 8576SOL     OW37360   3.188   3.819   2.275 -0.4178 -0.4554 -0.7838
 8576SOL    HW137361   3.152   3.795   2.361  0.5642  1.6750  0.2188
 8576SOL    HW237362   3.125   3.774   2.218 -1.6374  0.8769 -0.4781
 8577SOL     OW37363   1.044   3.288   5.748 -0.0343 -0.1341  0.0633
 8577SOL    HW137364   1.113   3.283   5.682  0.7213  0.9183  0.7844
 8577SOL    HW237365   0.973   3.245   5.701  0.4936 -0.4974 -0.3962
 8578SOL     OW37366   0.084   0.426   4.168 -0.1079  0.3218 -0.5447
 8578SOL    HW137367   0.013   0.442   4.106  0.2915  1.6256 -0.6693
 8578SOL    HW237368   0.106   0.333   4.161  2.7579  1.0030 -0.6961
 8579SOL     OW37369   0.792   3.084   3.648 -0.6108  0.4675  0.2163
 8579SOL    HW137370   0.837   3.113   3.727  1.4764  1.7419 -1.4368
 8579SOL    HW237371   0.710   3.133   3.652 -0.5823  0.4881  0.5070
 8580SOL     OW37372   3.047   1.939   3.255  0.0133  0.1882 -0.1745
 8580SOL    HW137373   3.095   1.906   3.179  1.7889  0.1139  0.9857
 8580SOL    HW237374   3.019   2.025   3.222  0.3375  0.9359  1.5391
 8581SOL     OW37375   1.727   4.451   2.541  0.3903 -0.4984 -0.2411
 8581SOL    HW137376   1.718   4.399   2.461 -2.1293  0.7039 -0.7205
 8581SOL    HW237377   1.660   4.410   2.595 -1.7848  2.1449 -0.9643
 8582SOL     OW37378   3.051   0.637   7.291 -0.0289  0.4147  0.5795
 8582SOL    HW137379   3.131   0.689   7.282 -0.8487  2.0764  2.7184
 8582SOL    HW237380   3.073   0.551   7.326 -1.2010 -0.1693 -0.1392
 8583SOL     OW37381   1.232   0.535   9.281 -0.9441 -0.1099 -0.1110
 8583SOL    HW137382   1.198   0.622   9.300  0.5378  0.2448  0.9514
 8583SOL    HW237383   1.242   0.535   9.186  2.1705  0.5475  0.2158
 8584SOL     OW37384   4.369   1.064   2.877 -0.1388  0.4034 -0.2637
 8584SOL    HW137385   4.369   0.970   2.857 -0.4358  0.4642 -0.5599
 8584SOL    HW237386   4.319   1.064   2.959  0.9663  2.5407  0.4031
 8585SOL     OW37387   0.991   0.254   7.233  0.0183  0.0143 -0.1128
 8585SOL    HW137388   0.980   0.245   7.327  2.1222  2.1912  0.3184
 8585SOL    HW237389   0.996   0.162   7.206 -1.3669 -0.2311  0.4199
 8586SOL     OW37390   1.687   2.040   5.385 -0.3010 -0.0487  0.2803
 8586SOL    HW137391   1.724   1.979   5.322  0.1480  1.5009 -0.9635
 8586SOL    HW237392   1.654   2.118   5.340  0.4591  0.8819  1.3200
 8587SOL     OW37393   4.192   3.698   6.816  0.2204 -0.8755  0.2500
 8587SOL    HW137394   4.159   3.787   6.806  1.7723 -0.2931  0.3032
 8587SOL    HW237395   4.241   3.690   6.735 -0.0841 -0.7788  0.0581
 8588SOL     OW37396   0.020   4.399   3.769 -0.2323  0.0207 -0.0358
 8588SOL    HW137397   4.719   4.316   3.799  1.4511 -1.5589 -2.2739
 8588SOL    HW237398   0.113   4.377   3.773 -0.4544 -0.6987  1.2209
 8589SOL     OW37399   3.674   4.280   8.410 -0.4077  0.0438  0.9202
 8589SOL    HW137400   3.765   4.303   8.432 -0.0757 -0.2651 -0.1128
 8589SOL    HW237401   3.674   4.185   8.409 -1.9662  0.0499  0.8324
 8590SOL     OW37402   4.081   3.179  11.897 -0.1581 -0.2472  0.1606
 8590SOL    HW137403   3.997   3.189  11.943 -0.0173  0.6506  0.2222
 8590SOL    HW237404   4.125   3.258  11.929 -0.3696 -0.5745  1.2609
 8591SOL     OW37405   1.349   1.536  16.111  0.3239 -0.3203 -0.1026
 8591SOL    HW137406   1.401   1.613  16.134 -0.3521  0.4566 -1.1829
 8591SOL    HW237407   1.395   1.479  16.050  2.6240  2.5892 -1.0741
 8592SOL     OW37408   1.447   2.184  13.065 -0.1194 -0.2423 -0.2299
 8592SOL    HW137409   1.489   2.163  13.149  2.6384 -1.0962 -1.8274
 8592SOL    HW237410   1.357   2.163  13.091 -2.1650  2.5994 -5.0023
 8593SOL     OW37411   0.979   3.344   1.382  0.7474 -0.0276  0.3801
 8593SOL    HW137412   1.069   3.360   1.410 -0.3443  0.5489  3.5158
 8593SOL    HW237413   0.984   3.272   1.319 -0.2648 -0.2558  0.5588
 8594SOL     OW37414   0.761   1.406  12.790  0.3024  0.0353  0.1307
 8594SOL    HW137415   0.720   1.479  12.836 -1.5042 -1.8337  1.4745
 8594SOL    HW237416   0.849   1.444  12.785 -0.1054  0.9855  0.1511
 8595SOL     OW37417   1.316   2.893   6.747 -0.1119 -0.1492  0.1821
 8595SOL    HW137418   1.309   2.821   6.809 -0.7131 -0.4138 -0.1987
 8595SOL    HW237419   1.251   2.955   6.781  1.0059  1.3680 -0.4285
 8596SOL     OW37420   3.984   1.723   4.683 -0.5114 -0.4402  0.2823
 8596SOL    HW137421   3.911   1.662   4.687 -0.2806 -0.7209  0.2927
 8596SOL    HW237422   4.006   1.748   4.772  1.3571  1.8625 -0.8268
 8597SOL     OW37423   1.216   0.944  11.510  0.3122 -0.0711 -1.1545
 8597SOL    HW137424   1.193   1.001  11.436 -0.3338 -0.1013 -0.9817
 8597SOL    HW237425   1.139   0.940  11.566  0.9663  0.6675 -0.2168
 8598SOL     OW37426   2.239   3.315   6.291 -0.1439 -0.9385  0.1297
 8598SOL    HW137427   2.201   3.347   6.209 -1.1413 -1.3680  0.4320
 8598SOL    HW237428   2.332   3.322   6.267 -0.3169 -1.6952 -0.7372
 8599SOL     OW37429   1.968   2.691   2.409  0.0872  0.2510 -0.6883
 8599SOL    HW137430   1.921   2.727   2.334  0.2103  0.9726 -0.4123
 8599SOL    HW237431   1.898   2.692   2.474  1.8798  2.1249  1.1856
 8600SOL     OW37432   4.233   3.568   9.329  0.4668 -0.2164  0.0445
 8600SOL    HW137433   4.157   3.618   9.360 -0.4608 -0.6247 -1.5845
 8600SOL    HW237434   4.247   3.507   9.401  1.1204 -1.5015 -1.1726
 8601SOL     OW37435   2.502   3.524   7.199  0.2172 -0.5286 -0.2043
 8601SOL    HW137436   2.522   3.510   7.106 -0.1546  0.0944 -0.3798
 8601SOL    HW237437   2.487   3.433   7.224  1.8756 -0.3962  1.3285
 8602SOL     OW37438   3.470   4.673   7.590 -0.2338  0.3292 -0.2063
 8602SOL    HW137439   3.404   4.608   7.616 -1.8552  2.4890  1.1704
 8602SOL    HW237440   3.461   4.669   7.495  1.4859 -1.2738 -0.2911
 8603SOL     OW37441   0.647   2.485   7.426 -0.2804 -0.5850  0.4020
 8603SOL    HW137442   0.573   2.464   7.369 -0.1495  0.4429 -0.1355
 8603SOL    HW237443   0.609   2.555   7.479  2.1959 -0.0104  1.4527
 8604SOL     OW37444   1.453   3.824   3.826 -0.4149  0.1053  0.0657
 8604SOL    HW137445   1.525   3.886   3.816 -0.1958 -0.3403 -1.2343
 8604SOL    HW237446   1.468   3.783   3.740  0.0255 -1.2235  0.7800
 8605SOL     OW37447   1.867   2.251   1.456 -0.2119 -0.3826 -0.1926
 8605SOL    HW137448   1.824   2.332   1.480  0.4253  0.1305 -0.7766
 8605SOL    HW237449   1.798   2.186   1.446  0.3701 -0.6885 -2.2420
 8606SOL     OW37450   1.768   1.065   7.066 -0.4693  0.2017  0.0877
 8606SOL    HW137451   1.734   1.045   6.979 -0.4042 -4.6515  1.1816
 8606SOL    HW237452   1.713   1.139   7.091 -0.1887 -0.7181  3.4942
 8607SOL     OW37453   1.262   3.241   4.612  0.1891 -0.1500 -0.1320
 8607SOL    HW137454   1.347   3.197   4.615  0.5011  0.6615  3.0478
 8607SOL    HW237455   1.222   3.218   4.696  1.1529 -0.4992  0.2390
 8608SOL     OW37456   3.583   0.068   8.354 -0.2567 -0.4848  0.1637
 8608SOL    HW137457   3.585   0.045   8.261 -1.1073  1.5978 -0.3713
 8608SOL    HW237458   3.585   4.720   8.399  0.1636 -2.3685 -3.3404
 8609SOL     OW37459   3.921   1.041  16.756 -0.7944  0.0252 -0.6191
 8609SOL    HW137460   3.852   1.105  16.776  0.2742  1.0435 -0.1483
 8609SOL    HW237461   3.897   1.005  16.671 -0.6909  0.9486 -1.0472
 8610SOL     OW37462   0.247   2.202   7.350 -0.2815 -0.2243  0.0632
 8610SOL    HW137463   0.201   2.195   7.266 -0.3481 -0.5244  0.1275
 8610SOL    HW237464   0.327   2.152   7.335  0.8746  1.6034  0.1273
 8611SOL     OW37465   3.566   3.557   7.243 -0.1462 -0.1043  0.1146
 8611SOL    HW137466   3.654   3.580   7.212 -0.0285  0.7030  1.0841
 8611SOL    HW237467   3.532   3.644   7.262  0.0277  0.4760 -2.1238
 8612SOL     OW37468   4.193   1.904   6.659 -0.0060  0.1064  0.2712
 8612SOL    HW137469   4.165   1.986   6.700  1.7122  0.7095  0.2419
 8612SOL    HW237470   4.123   1.850   6.697 -0.2127  1.6131  2.0166
 8613SOL     OW37471   2.727   3.008   7.277  0.4832 -0.1239  0.2053
 8613SOL    HW137472   2.659   3.020   7.345  0.0440 -1.0270 -0.0718
 8613SOL    HW237473   2.684   3.056   7.206 -1.7725 -0.8071  1.0939
 8614SOL     OW37474   1.173   2.403  14.720 -0.4067 -0.2454 -0.1121
 8614SOL    HW137475   1.226   2.373  14.793  0.6609  0.7753 -0.4691
 8614SOL    HW237476   1.088   2.407  14.763  0.6208  0.3157  1.8575
 8615SOL     OW37477   3.236   3.387   6.788  0.4647  0.1850  0.5147
 8615SOL    HW137478   3.267   3.476   6.806  1.9661 -0.2031 -0.1365
 8615SOL    HW237479   3.201   3.370   6.875 -0.3763  1.8843  0.5145
 8616SOL     OW37480   3.364   2.906   8.315  0.1822  0.2469 -0.4796
 8616SOL    HW137481   3.375   2.878   8.224 -0.7697  2.3500 -1.2568
 8616SOL    HW237482   3.348   2.821   8.355 -2.6028  1.2716  0.6060
 8617SOL     OW37483   4.304   2.019   9.116 -0.5556  0.0946 -0.4147
 8617SOL    HW137484   4.225   2.001   9.064 -1.2046  1.1364  0.1941
 8617SOL    HW237485   4.303   2.115   9.123 -0.2184 -0.0293  1.3720
 8618SOL     OW37486   0.986   1.164   8.182  0.0406  0.0391  0.5946
 8618SOL    HW137487   0.971   1.070   8.176  0.2286 -0.0155  0.9736
 8618SOL    HW237488   1.047   1.172   8.255  0.4550  2.0097  0.0466
 8619SOL     OW37489   2.474   3.472   6.428  0.3935 -0.6493 -0.4921
 8619SOL    HW137490   2.392   3.509   6.459  1.8537  1.2401  1.0396
 8619SOL    HW237491   2.511   3.553   6.393  0.3605  0.8135  2.9463
 8620SOL     OW37492   3.910   2.236   8.393  0.1485 -0.0475  0.0381
 8620SOL    HW137493   3.917   2.141   8.389  1.3148  0.1657 -3.0301
 8620SOL    HW237494   3.816   2.251   8.405  0.1825 -0.6362  1.0655
 8621SOL     OW37495   3.465   1.860   8.972  0.1265  0.0570 -0.2432
 8621SOL    HW137496   3.463   1.783   9.028  0.4468  2.0883  2.5499
 8621SOL    HW237497   3.431   1.931   9.026 -2.1273 -1.5881  0.4566
 8622SOL     OW37498   2.960   1.408   7.089 -0.0735 -0.4481 -0.1584
 8622SOL    HW137499   2.947   1.314   7.100  3.5245 -0.7557  1.4599
 8622SOL    HW237500   2.897   1.443   7.151  1.0160 -0.1205  0.7708
 8623SOL     OW37501   3.023   4.267   7.130 -0.6294 -0.0041  0.2511
 8623SOL    HW137502   3.074   4.328   7.076  1.0872 -2.5710 -1.0549
 8623SOL    HW237503   3.085   4.195   7.128  0.6530  1.1116  0.0094
 8624SOL     OW37504   0.331   0.269   3.581 -0.6043 -0.3022 -0.2495
 8624SOL    HW137505   0.254   0.225   3.616  0.6379 -2.0191  0.3432
 8624SOL    HW237506   0.383   0.279   3.660 -1.2481  1.1781 -0.0248
 8625SOL     OW37507   0.597   3.449   5.952  0.1549 -0.4843 -0.0787
 8625SOL    HW137508   0.657   3.493   5.890 -2.1886  2.9064  0.0544
 8625SOL    HW237509   0.612   3.356   5.938  1.3114  0.0150 -2.2989
 8626SOL     OW37510   1.479   4.301   1.905  0.0268 -0.3218 -0.6164
 8626SOL    HW137511   1.467   4.209   1.879 -1.5768 -0.2574 -0.0979
 8626SOL    HW237512   1.423   4.339   1.837  0.7722 -3.4839 -3.0308
 8627SOL     OW37513   1.222   4.414   8.546 -1.1070  0.3088 -0.0403
 8627SOL    HW137514   1.183   4.434   8.461  0.5679  0.2453 -0.8258
 8627SOL    HW237515   1.160   4.354   8.588 -0.9594 -0.8832 -1.5175
 8628SOL     OW37516   3.492   1.802   6.724  0.6789 -0.5351 -0.7275
 8628SOL    HW137517   3.477   1.763   6.810  2.4842 -0.3878 -0.3414
 8628SOL    HW237518   3.563   1.753   6.683  0.5960 -0.2244 -1.2379
 8629SOL     OW37519   3.768   3.847   2.013 -0.7893  0.0769 -0.1593
 8629SOL    HW137520   3.809   3.762   2.023  2.2219  1.6097  0.6581
 8629SOL    HW237521   3.821   3.907   2.065 -2.0007  2.1487 -1.2923
 8630SOL     OW37522   2.222   1.886   2.210 -0.1919  0.2466  0.2823
 8630SOL    HW137523   2.170   1.808   2.231  1.9718 -1.5792 -1.2234
 8630SOL    HW237524   2.165   1.949   2.255  2.3199  2.6118  0.1591
 8631SOL     OW37525   0.233   0.619   3.111  0.4540  0.4630 -0.1029
 8631SOL    HW137526   0.186   0.589   3.033  0.7964 -0.7679  0.1490
 8631SOL    HW237527   0.206   0.543   3.163 -0.4746 -0.0861 -1.4103
 8632SOL     OW37528   3.085   3.322   3.552 -0.5635  0.3021  0.0928
 8632SOL    HW137529   3.145   3.287   3.485 -0.0811  1.4495 -0.0721
 8632SOL    HW237530   3.121   3.300   3.638 -0.5112  1.2811  0.3270
 8633SOL     OW37531   0.001   0.038  16.538 -0.3939 -0.4594 -0.5227
 8633SOL    HW137532   0.089   0.004  16.556 -0.1194  1.4020  1.7110
 8633SOL    HW237533   4.729   0.092  16.617  0.1199 -0.5385 -0.4119
 8634SOL     OW37534   3.535   3.333  14.916  0.3098 -0.1679 -0.2884
 8634SOL    HW137535   3.554   3.274  14.989 -0.6037 -0.3311 -0.1863
 8634SOL    HW237536   3.479   3.402  14.953  0.7109  0.0677 -0.1156
 8635SOL     OW37537   2.845   0.105   4.242  0.0703 -0.0904 -0.3461
 8635SOL    HW137538   2.885   0.022   4.269 -0.5835  0.2084  1.5417
 8635SOL    HW237539   2.818   0.146   4.324  0.3600  0.9344 -0.7738
 8636SOL     OW37540   1.674   2.420  17.138 -0.2696  0.2091  0.3531
 8636SOL    HW137541   1.625   2.485  17.188 -0.9413  0.8067 -1.0621
 8636SOL    HW237542   1.603   2.360  17.113  0.8493 -1.3873  0.9654
 8637SOL     OW37543   1.193   4.459   2.434 -0.1085  0.0722  0.2250
 8637SOL    HW137544   1.250   4.528   2.468 -0.7657  1.6016 -1.7758
 8637SOL    HW237545   1.253   4.406   2.381 -0.4357 -2.5315  2.4772
 8638SOL     OW37546   0.733   0.394  17.236  0.2087  0.3677  0.7843
 8638SOL    HW137547   0.806   0.433  17.284 -0.3197  3.0834 -0.6222
 8638SOL    HW237548   0.659   0.455  17.237 -0.1592 -0.0304 -1.2960
 8639SOL     OW37549   1.513   1.923   1.768  0.2846 -0.0330 -0.3001
 8639SOL    HW137550   1.493   1.871   1.690 -2.1631  1.0204 -0.3737
 8639SOL    HW237551   1.607   1.906   1.763  0.1036  0.0207 -3.5798
 8640SOL     OW37552   2.083   1.785  13.832  1.1907  0.3480 -0.4588
 8640SOL    HW137553   2.178   1.792  13.821  1.2366 -0.7592 -0.8392
 8640SOL    HW237554   2.057   1.800  13.741 -1.6549 -0.3983  0.2331
 8641SOL     OW37555   0.572   0.314   9.627  0.4464  0.8197  0.0181
 8641SOL    HW137556   0.591   0.377   9.696  1.9092 -1.1696  1.4336
 8641SOL    HW237557   0.632   0.336   9.556  0.1844 -1.2289 -0.8592
 8642SOL     OW37558   3.312   3.541   3.936 -0.1026  0.3386 -0.5138
 8642SOL    HW137559   3.315   3.528   3.841 -0.1996  1.9445 -0.7445
 8642SOL    HW237560   3.220   3.531   3.960  0.0055 -0.6586 -0.5330
 8643SOL     OW37561   1.674   0.047   8.813 -0.0457  0.2217  0.0681
 8643SOL    HW137562   1.729   0.101   8.869 -0.6087 -0.7936  1.6221
 8643SOL    HW237563   1.592   0.054   8.863 -0.3299  0.4645 -0.4290
 8644SOL     OW37564   1.012   2.377   1.435  0.5571 -0.1736 -0.5812
 8644SOL    HW137565   0.941   2.355   1.375  1.3630 -0.6797 -1.3690
 8644SOL    HW237566   0.963   2.426   1.500  0.5308 -0.3938 -0.4360
 8645SOL     OW37567   3.940   1.521  13.158  0.5835  0.5340 -0.0195
 8645SOL    HW137568   3.880   1.458  13.119  0.6265 -0.9145  2.2147
 8645SOL    HW237569   3.886   1.600  13.167 -0.0068  0.4157 -2.7310
 8646SOL     OW37570   2.781   1.020  12.247  0.0536  0.1566  0.1015
 8646SOL    HW137571   2.846   1.087  12.227 -1.9406  1.3793 -2.3510
 8646SOL    HW237572   2.810   0.999  12.336  0.5658  0.4427  0.0028
 8647SOL     OW37573   4.612   3.345   6.737  0.1891  0.8574  0.1856
 8647SOL    HW137574   4.681   3.345   6.804  0.7540 -2.5650 -0.4018
 8647SOL    HW237575   4.542   3.401   6.771 -0.8214 -1.4621  1.8478
 8648SOL     OW37576   1.453   1.353   5.850 -0.0508 -0.5746 -0.1238
 8648SOL    HW137577   1.513   1.314   5.786  0.9036 -0.5524  0.7684
 8648SOL    HW237578   1.370   1.356   5.802 -0.9192  1.3508  1.5108
 8649SOL     OW37579   3.438   0.386   7.188  0.3841  0.0512  0.8803
 8649SOL    HW137580   3.457   0.400   7.095 -1.2571  0.7462  0.6509
 8649SOL    HW237581   3.344   0.401   7.174 -0.0840  0.1795  4.1482
 8650SOL     OW37582   0.552   3.591   1.219 -0.9016  0.3531  0.2564
 8650SOL    HW137583   0.498   3.512   1.205  1.0238 -0.6093 -1.7382
 8650SOL    HW237584   0.625   3.549   1.264  0.0755  0.6911 -1.0273
 8651SOL     OW37585   4.455   4.330   7.978 -0.8825  0.0184 -0.5639
 8651SOL    HW137586   4.495   4.315   7.892  0.1744  1.4410 -0.3298
 8651SOL    HW237587   4.509   4.271   8.031 -1.7884  0.3209  0.6650
 8652SOL     OW37588   1.305   0.077   8.607 -0.5302  0.0752 -0.0625
 8652SOL    HW137589   1.292   0.005   8.669 -1.2615  2.2494  2.3196
 8652SOL    HW237590   1.376   0.041   8.555  2.5854  2.3699  2.5722
 8653SOL     OW37591   3.453   3.198   3.217 -0.5174  0.3972  0.4385
 8653SOL    HW137592   3.446   3.188   3.312 -0.1951 -2.5155  0.1732
 8653SOL    HW237593   3.491   3.110   3.209  1.7632  1.1365  2.9997
 8654SOL     OW37594   3.091   1.675  13.040 -0.7109 -0.0876  0.5918
 8654SOL    HW137595   3.142   1.715  13.110  1.6990 -0.4700 -0.9581
 8654SOL    HW237596   3.090   1.584  13.069 -0.1607 -0.0358  0.7721
 8655SOL     OW37597   1.572   1.937  10.493  0.2354 -0.5819  0.7002
 8655SOL    HW137598   1.506   1.913  10.558  0.6607  0.5075  1.5290
 8655SOL    HW237599   1.627   1.859  10.502 -1.5123 -1.9722 -0.4567
 8656SOL     OW37600   4.644   4.597   1.623  0.5859  0.1302 -0.2197
 8656SOL    HW137601   4.646   4.621   1.716  1.8553 -0.3116 -0.1329
 8656SOL    HW237602   4.586   4.663   1.586 -2.1105 -1.0900  1.8520
 8657SOL     OW37603   3.647   2.445   6.003 -0.5454 -0.6361 -0.2627
 8657SOL    HW137604   3.691   2.414   5.924 -0.7212  1.0153 -1.0029
 8657SOL    HW237605   3.640   2.539   5.985  0.3729 -0.2724  1.2552
 8658SOL     OW37606   1.473   1.908   8.514  0.3825 -0.2856 -0.1503
 8658SOL    HW137607   1.459   1.988   8.463 -0.2898 -1.4211 -1.7359
 8658SOL    HW237608   1.542   1.935   8.575 -0.2134 -1.3588  0.9739
 8659SOL     OW37609   3.001   3.340   6.148  0.3712  0.0829  0.1092
 8659SOL    HW137610   3.003   3.280   6.222  1.6364 -0.9778 -0.7846
 8659SOL    HW237611   2.984   3.278   6.077  1.6640  0.1964 -0.3033
 8660SOL     OW37612   4.722   2.384   5.596 -0.2134 -0.2843 -0.2133
 8660SOL    HW137613   4.716   2.310   5.535 -1.4248 -0.6061  0.2899
 8660SOL    HW237614   4.705   2.337   5.678  0.4113  1.8335  1.1163
 8661SOL     OW37615   4.263   0.569   2.706 -0.1567 -0.0839  0.3465
 8661SOL    HW137616   4.167   0.570   2.713 -0.2801 -1.6937 -1.1348
 8661SOL    HW237617   4.278   0.490   2.654  3.9385 -0.6379  2.3650
 8662SOL     OW37618   3.197   0.238  11.932 -0.1775 -0.7510  0.3252
 8662SOL    HW137619   3.257   0.252  12.006  1.4462 -2.6673 -0.6542
 8662SOL    HW237620   3.174   0.330  11.919  1.5394 -0.0646  2.0823
 8663SOL     OW37621   0.799   1.643   8.443 -0.1715  0.3887 -0.0954
 8663SOL    HW137622   0.876   1.662   8.497 -0.3940 -0.7552  0.6105
 8663SOL    HW237623   0.767   1.564   8.485 -2.4866  2.6814  2.4298
 8664SOL     OW37624   0.312   3.352   5.780 -0.0344  0.4244 -0.3234
 8664SOL    HW137625   0.293   3.429   5.834 -0.9973 -0.2653  0.3115
 8664SOL    HW237626   0.305   3.395   5.694 -0.7121  1.1759  0.1136
 8665SOL     OW37627   1.271   2.126   8.677  0.0834  0.2216 -0.1516
 8665SOL    HW137628   1.325   2.064   8.727 -1.1560 -1.8695 -1.4004
 8665SOL    HW237629   1.216   2.169   8.743  0.0523  0.5047 -0.3638
 8666SOL     OW37630   3.309   1.233   9.088  0.2521 -0.2789  1.2117
 8666SOL    HW137631   3.368   1.192   9.151  1.1163 -0.5912  0.1992
 8666SOL    HW237632   3.278   1.161   9.034  0.2166  1.4050 -0.9879
 8667SOL     OW37633   4.476   2.104  15.702 -0.0607 -0.5486  0.0113
 8667SOL    HW137634   4.407   2.062  15.649 -1.5912  1.8551  0.0865
 8667SOL    HW237635   4.443   2.094  15.791 -2.1054  1.3453 -0.5034
 8668SOL     OW37636   2.026   0.185   6.562  0.1397  0.1423 -0.2819
 8668SOL    HW137637   2.011   0.124   6.489 -1.9706 -0.8437  0.9700
 8668SOL    HW237638   2.025   0.268   6.514  0.6594  0.8636  0.9862
 8669SOL     OW37639   4.209   2.510   2.551  0.5188  0.0883  0.4213
 8669SOL    HW137640   4.210   2.510   2.647 -1.6233  0.1807  0.4316
 8669SOL    HW237641   4.206   2.604   2.532  1.6400  0.1118  0.3379
 8670SOL     OW37642   4.711   0.009   4.300  0.1914 -0.4015  0.3683
 8670SOL    HW137643   4.702   0.031   4.393  0.8984 -0.6115  0.4879
 8670SOL    HW237644   4.625   0.031   4.264  0.0593 -0.5109  0.6161
 8671SOL     OW37645   4.022   4.304   5.588  0.0178  0.1618  0.9431
 8671SOL    HW137646   3.936   4.303   5.544  1.2767 -1.8912 -1.4497
 8671SOL    HW237647   4.013   4.362   5.664  1.6200  1.0424  0.4542
 8672SOL     OW37648   0.931   3.186   6.752 -0.2722 -0.0893  0.9610
 8672SOL    HW137649   0.836   3.198   6.756 -0.2985  0.9360 -2.2708
 8672SOL    HW237650   0.952   3.211   6.662  0.4052 -1.1600  0.8198
 8673SOL     OW37651   2.852   2.194   2.142  0.2577  0.3648  0.6716
 8673SOL    HW137652   2.903   2.268   2.175 -0.1838  1.3033 -0.7867
 8673SOL    HW237653   2.886   2.189   2.053  1.6246 -1.3451  1.2841
 8674SOL     OW37654   3.740   1.750  11.414 -0.5082  0.0196  0.5299
 8674SOL    HW137655   3.671   1.799  11.458 -1.0030 -0.5077  0.3499
 8674SOL    HW237656   3.713   1.662  11.442  1.4705 -0.6174  0.4182
 8675SOL     OW37657   2.409   2.294   0.716 -0.0364  0.1134  0.0796
 8675SOL    HW137658   2.344   2.339   0.770 -0.4235  1.4767 -1.5246
 8675SOL    HW237659   2.449   2.360   0.659  0.7513 -0.6826 -0.2939
 8676SOL     OW37660   3.348   1.896   7.699 -0.8349  0.7917 -0.1780
 8676SOL    HW137661   3.323   1.805   7.714  3.9724 -0.7819 -1.7527
 8676SOL    HW237662   3.433   1.879   7.658 -1.1961 -1.6228  0.0971
 8677SOL     OW37663   1.071   1.479   4.710  0.2307 -0.4066  0.5719
 8677SOL    HW137664   1.005   1.412   4.693 -1.0385  0.9238  0.3196
 8677SOL    HW237665   1.089   1.519   4.625  0.7193  1.1765  1.4125
 8678SOL     OW37666   3.806   0.515   5.295  0.1977 -0.2258  0.4101
 8678SOL    HW137667   3.809   0.610   5.283  1.0637 -0.4218 -0.8249
 8678SOL    HW237668   3.888   0.509   5.344  0.3043  5.3186  1.0157
 8679SOL     OW37669   0.925   4.204  15.340 -0.5873 -0.5720  0.5959
 8679SOL    HW137670   1.001   4.145  15.339  0.0663  0.2810 -0.7653
 8679SOL    HW237671   0.973   4.284  15.363  0.0816 -0.7705 -0.1168
 8680SOL     OW37672   0.137   1.038  12.403  0.6835  0.1051  0.4190
 8680SOL    HW137673   0.201   1.037  12.474  1.3113 -1.5041 -0.1636
 8680SOL    HW237674   0.094   0.953  12.411  1.1357  0.1047  2.9709
 8681SOL     OW37675   2.841   4.610   8.107 -0.3134 -0.3071 -0.2150
 8681SOL    HW137676   2.819   4.688   8.056 -0.8100  0.1469  0.6887
 8681SOL    HW237677   2.848   4.654   8.192  3.2878 -1.5273  0.1320
 8682SOL     OW37678   0.140   0.388   8.355  0.2140 -0.4300 -0.3061
 8682SOL    HW137679   0.104   0.465   8.312 -0.3440 -0.8542 -0.5948
 8682SOL    HW237680   0.096   0.386   8.440  0.2418 -2.1316 -0.3332
 8683SOL     OW37681   0.296   3.425   6.758 -0.1711 -0.3658  0.0515
 8683SOL    HW137682   0.297   3.412   6.663 -2.0764  1.0963 -0.1630
 8683SOL    HW237683   0.388   3.424   6.781 -0.3859 -2.7425  0.9076
 8684SOL     OW37684   2.644   0.588   7.222 -0.1123 -0.1979  0.1682
 8684SOL    HW137685   2.557   0.579   7.260 -1.3944 -0.7009 -2.8326
 8684SOL    HW237686   2.614   0.617   7.135 -0.6522  0.6759  0.6419
 8685SOL     OW37687   3.046   0.725   2.901  0.2587 -0.2012 -0.5852
 8685SOL    HW137688   3.024   0.814   2.873 -2.0464 -1.0881 -1.5524
 8685SOL    HW237689   3.072   0.742   2.991  1.2342 -0.8020 -0.7502
 8686SOL     OW37690   1.628   2.084   6.625  0.1919  0.0810  0.0333
 8686SOL    HW137691   1.593   2.160   6.579  1.2605  0.8033  0.4098
 8686SOL    HW237692   1.713   2.117   6.655  0.6481 -1.1956  0.1457
 8687SOL     OW37693   3.358   4.032  14.054 -0.2244  0.0956  0.2985
 8687SOL    HW137694   3.286   4.040  13.991 -1.1141 -2.1642  0.9935
 8687SOL    HW237695   3.415   4.104  14.028 -0.4529 -0.3204 -1.3331
 8688SOL     OW37696   1.951   3.155   4.923 -0.2727 -0.4537 -0.1468
 8688SOL    HW137697   2.022   3.218   4.934 -0.3470 -0.8516  2.5370
 8688SOL    HW237698   1.977   3.112   4.841 -1.8204 -0.2587 -0.7454
 8689SOL     OW37699   3.030   3.620   1.846  0.5723 -0.3704 -0.4672
 8689SOL    HW137700   3.014   3.655   1.933 -0.9145 -0.8751 -0.5440
 8689SOL    HW237701   3.067   3.703   1.814  0.0985 -0.2004 -0.5789
 8690SOL     OW37702   1.283   1.841   4.433 -0.0226  0.3413  0.4521
 8690SOL    HW137703   1.259   1.933   4.447  0.2294  0.2930  1.1915
 8690SOL    HW237704   1.304   1.804   4.518 -1.5114 -1.2841  0.1142
 8691SOL     OW37705   2.041   4.579   9.501  0.3961 -0.3503 -0.2574
 8691SOL    HW137706   1.950   4.555   9.518  0.0491  1.8560  0.9779
 8691SOL    HW237707   2.051   4.536   9.417 -0.1955 -0.0105 -0.5049
 8692SOL     OW37708   3.591   0.932   2.175  0.6908  0.0331  0.6651
 8692SOL    HW137709   3.500   0.962   2.176  0.2076 -1.4110 -0.1432
 8692SOL    HW237710   3.605   0.916   2.268  0.4567  0.6421  0.8101
 8693SOL     OW37711   3.654   3.193   2.968  0.2204  0.1268 -0.1711
 8693SOL    HW137712   3.583   3.157   2.916  1.9271  2.0769 -3.8873
 8693SOL    HW237713   3.631   3.167   3.057  1.2015  0.3400  0.1474
 8694SOL     OW37714   4.029   4.015  14.557  0.0872 -0.8198 -0.4684
 8694SOL    HW137715   4.122   4.029  14.574 -0.1037 -0.9447  0.7353
 8694SOL    HW237716   4.013   4.092  14.503 -1.6114 -2.7682 -2.7312
 8695SOL     OW37717   1.683   2.031   8.660 -0.0161 -0.1568 -0.3297
 8695SOL    HW137718   1.672   2.126   8.666 -2.0502 -0.3609 -0.9069
 8695SOL    HW237719   1.732   2.014   8.741  1.7016 -1.4622 -1.6329
 8696SOL     OW37720   3.074   3.211   5.629 -0.1769  0.0062 -0.0507
 8696SOL    HW137721   3.148   3.216   5.689 -0.8132  3.0093  0.4619
 8696SOL    HW237722   3.008   3.233   5.695 -0.8742 -2.2702  0.0452
 8697SOL     OW37723   3.416   2.403  11.053 -0.5639  0.0030  0.2011
 8697SOL    HW137724   3.435   2.441  11.138 -0.2582 -1.1856  0.6585
 8697SOL    HW237725   3.322   2.395  11.065 -0.5632 -0.7672 -0.2530
 8698SOL     OW37726   2.601   0.718   0.812  0.1352 -0.0853  0.1257
 8698SOL    HW137727   2.595   0.702   0.718  3.1928  0.0222 -0.0867
 8698SOL    HW237728   2.548   0.649   0.850 -1.2864  1.1664  0.3956
 8699SOL     OW37729   4.283   2.783   9.073  0.3869  0.5528  0.4216
 8699SOL    HW137730   4.202   2.762   9.120 -1.0945  0.2895 -2.2982
 8699SOL    HW237731   4.344   2.767   9.145  1.0903 -4.2733 -1.2450
 8700SOL     OW37732   1.480   4.509   1.366  0.2669  0.0288 -0.3157
 8700SOL    HW137733   1.410   4.553   1.318 -2.1937 -0.4766  2.8037
 8700SOL    HW237734   1.506   4.574   1.432 -1.2053 -2.4190  2.6368
 8701SOL     OW37735   3.791   1.927  10.493 -0.1804  0.3535 -0.0735
 8701SOL    HW137736   3.727   1.949  10.425  0.1906  0.2921 -0.4425
 8701SOL    HW237737   3.829   2.014  10.508 -0.1294  0.6104 -1.7151
 8702SOL     OW37738   2.348   4.019   1.679  0.3327  0.0251 -0.4043
 8702SOL    HW137739   2.440   4.046   1.676  0.5358 -0.5277  1.0172
 8702SOL    HW237740   2.308   4.106   1.688 -0.1543 -0.0583 -1.7866
 8703SOL     OW37741   2.649   3.800   0.938 -0.0660 -0.3909  0.4014
 8703SOL    HW137742   2.730   3.797   0.990  0.0102 -1.9078  0.1896
 8703SOL    HW237743   2.593   3.733   0.976 -0.5932 -0.6990 -0.9290
 8704SOL     OW37744   3.985   4.541   4.400  0.1744 -0.2996  0.1393
 8704SOL    HW137745   3.939   4.475   4.453 -1.4988  1.2136  0.5704
 8704SOL    HW237746   3.958   4.615   4.455  1.7811  1.2321 -1.1437
 8705SOL     OW37747   1.855   2.660   6.047  1.0321  0.4710 -0.0023
 8705SOL    HW137748   1.833   2.743   6.004 -0.7280  0.3314  0.6001
 8705SOL    HW237749   1.951   2.665   6.049  1.0835  0.1277 -2.0194
 8706SOL     OW37750   0.732   3.480   4.706  0.1283 -0.1356  0.1810
 8706SOL    HW137751   0.745   3.467   4.612 -0.7159 -0.0707  0.0611
 8706SOL    HW237752   0.690   3.394   4.717 -0.6287  0.2102 -0.0152
 8707SOL     OW37753   0.483   1.984   6.773 -0.1052 -0.0485  0.3097
 8707SOL    HW137754   0.480   2.021   6.685  0.2932  0.5578  0.5520
 8707SOL    HW237755   0.404   2.028   6.802  0.0720  1.0357 -0.8133
 8708SOL     OW37756   4.621   1.632   2.399  0.1554 -0.0224  0.2512
 8708SOL    HW137757   4.586   1.567   2.338 -1.4666 -0.0756  1.2564
 8708SOL    HW237758   4.678   1.683   2.340  0.9327 -1.9178 -0.6374
 8709SOL     OW37759   0.672   2.584   1.204  0.3432 -0.5711  0.0268
 8709SOL    HW137760   0.675   2.572   1.109 -0.6857  0.3809 -0.1227
 8709SOL    HW237761   0.673   2.679   1.217  1.8524 -0.6203  0.2635
 8710SOL     OW37762   4.544   1.196   5.351 -0.1401 -0.0981  0.0045
 8710SOL    HW137763   4.512   1.285   5.340  1.2306  0.0955 -2.2376
 8710SOL    HW237764   4.558   1.187   5.446 -3.0298 -0.2730  0.4168
 8711SOL     OW37765   1.512   1.021  15.100  0.1639  0.1560  0.5363
 8711SOL    HW137766   1.482   1.071  15.024  2.1517  1.1935  0.4524
 8711SOL    HW237767   1.495   1.074  15.178 -1.1820 -1.0367  1.0551
 8712SOL     OW37768   3.421   0.649   4.881 -0.0317  0.4780  0.1323
 8712SOL    HW137769   3.467   0.624   4.961  0.3068  0.6535 -0.0055
 8712SOL    HW237770   3.487   0.707   4.841 -1.2824  0.9344 -1.2682
 8713SOL     OW37771   1.509   4.354  13.893  1.2253  0.3535  0.2707
 8713SOL    HW137772   1.553   4.307  13.964 -1.2821 -1.1226  0.8475
 8713SOL    HW237773   1.557   4.312  13.822 -0.4830 -1.9314  0.4693
 8714SOL     OW37774   4.201   4.571   5.201 -0.4031 -0.5028 -0.0173
 8714SOL    HW137775   4.213   4.479   5.225 -0.2826  0.0667  2.1450
 8714SOL    HW237776   4.244   4.603   5.280 -2.3230  0.2006  0.7197
 8715SOL     OW37777   3.117   0.432   7.767 -0.3218  0.1437  0.2601
 8715SOL    HW137778   3.066   0.353   7.785 -0.5922  0.5302  1.1939
 8715SOL    HW237779   3.126   0.436   7.672 -1.5259 -0.7747  0.1081
 8716SOL     OW37780   4.291   3.280   9.043 -0.1593  0.4951  0.6881
 8716SOL    HW137781   4.234   3.219   9.091  1.5653 -2.1174 -0.5463
 8716SOL    HW237782   4.325   3.220   8.976  1.8481 -0.2874  2.3949
 8717SOL     OW37783   2.724   2.763   2.777 -0.1024 -0.2749  0.1930
 8717SOL    HW137784   2.693   2.839   2.728  1.6935  0.1405 -0.3044
 8717SOL    HW237785   2.797   2.811   2.817  0.5898  0.6525 -2.1697
 8718SOL     OW37786   2.787   3.594   3.347 -0.7519  0.2109 -0.5156
 8718SOL    HW137787   2.705   3.644   3.350 -0.8145  0.1063 -0.4676
 8718SOL    HW237788   2.746   3.519   3.303  1.0791 -0.8745 -0.3777
 8719SOL     OW37789   4.058   3.414   8.844 -0.3841  0.1251  0.5760
 8719SOL    HW137790   4.073   3.434   8.936  1.5856  2.0111 -0.1336
 8719SOL    HW237791   4.099   3.495   8.811  0.8325 -0.3148  0.9913
 8720SOL     OW37792   4.057   2.562   9.024 -0.1225  0.2925 -0.5319
 8720SOL    HW137793   4.148   2.570   8.995  0.2538  0.9439  0.8055
 8720SOL    HW237794   4.016   2.594   8.944 -1.4989 -0.4644 -0.1335
 8721SOL     OW37795   0.273   2.834   0.995 -0.1066  0.4886  0.0305
 8721SOL    HW137796   0.303   2.898   1.060  2.4947 -1.2367  0.5195
 8721SOL    HW237797   0.204   2.801   1.053  0.5843 -0.0974  0.5364
 8722SOL     OW37798   0.352   2.349  15.728  0.2013  0.6054 -0.1346
 8722SOL    HW137799   0.340   2.325  15.637 -0.2924 -1.6306  0.5126
 8722SOL    HW237800   0.346   2.445  15.724  0.0514  0.6863  1.6449
 8723SOL     OW37801   0.101   1.288   3.506 -0.2456  0.3414 -0.5600
 8723SOL    HW137802   0.122   1.235   3.430  0.9546  3.8313 -2.6483
 8723SOL    HW237803   0.007   1.273   3.512  0.0187 -1.5714 -1.1016
 8724SOL     OW37804   3.430   0.294   3.442 -0.2352 -0.4954 -0.0590
 8724SOL    HW137805   3.338   0.312   3.461 -0.1367 -0.9138  0.7723
 8724SOL    HW237806   3.434   0.224   3.507 -1.2623 -0.5679 -0.0813
 8725SOL     OW37807   0.206   3.236   7.488 -0.4131 -0.2855  0.6410
 8725SOL    HW137808   0.239   3.323   7.465  1.2521 -0.8095  1.0336
 8725SOL    HW237809   0.195   3.195   7.402  0.8545 -0.4124  0.5419
 8726SOL     OW37810   4.163   1.793   3.616  0.2826  0.0509 -0.2677
 8726SOL    HW137811   4.136   1.883   3.594 -0.6103 -0.6166 -1.9342
 8726SOL    HW237812   4.196   1.816   3.703  0.5233 -0.1744 -0.2999
 8727SOL     OW37813   3.418   0.115   2.814 -0.8870 -0.1537  0.4194
 8727SOL    HW137814   3.364   0.038   2.796  2.1527 -2.0566 -0.5764
 8727SOL    HW237815   3.452   0.085   2.898  0.8002 -0.1923 -0.2900
 8728SOL     OW37816   4.052   4.130   6.569 -0.0143 -0.2236 -0.3926
 8728SOL    HW137817   4.085   4.220   6.559 -1.5584  0.3150 -0.6393
 8728SOL    HW237818   4.034   4.113   6.476 -1.2767 -1.0772  0.0160
 8729SOL     OW37819   3.793   1.383   4.422  0.4636  0.5261  0.0733
 8729SOL    HW137820   3.788   1.353   4.331 -0.9342  0.9040  0.0224
 8729SOL    HW237821   3.796   1.476   4.404  1.6308  0.0334 -2.2572
 8730SOL     OW37822   3.321   3.665   3.390 -0.0930 -0.0016 -0.1567
 8730SOL    HW137823   3.239   3.653   3.342  0.7083  0.8299 -1.7534
 8730SOL    HW237824   3.308   3.632   3.479  1.3621  1.2776  0.5402
 8731SOL     OW37825   0.018   3.935   9.355 -0.3620  0.3342  0.6913
 8731SOL    HW137826   4.680   3.958   9.299 -0.5175 -1.0121  0.3580
 8731SOL    HW237827   0.078   4.009   9.339 -1.1111  0.5767 -1.0304
 8732SOL     OW37828   3.983   4.326   7.232  0.1546 -0.3054 -0.5889
 8732SOL    HW137829   4.054   4.389   7.244 -0.8283  0.5400  0.6709
 8732SOL    HW237830   4.023   4.241   7.252 -0.5856 -0.6268 -0.4822
 8733SOL     OW37831   3.594   1.715   7.934 -0.0781  0.0907 -0.6400
 8733SOL    HW137832   3.640   1.641   7.893 -0.5101 -0.1717 -0.6440
 8733SOL    HW237833   3.639   1.701   8.017 -0.6453  2.3074  0.0392
 8734SOL     OW37834   1.353   1.446   2.588  0.3204  0.6803  0.4680
 8734SOL    HW137835   1.377   1.356   2.606  0.8695  0.5362 -0.9957
 8734SOL    HW237836   1.396   1.494   2.659  3.5236 -0.2841 -0.8284
 8735SOL     OW37837   0.106   3.256   5.360  0.4093 -0.4574 -0.6294
 8735SOL    HW137838   0.076   3.346   5.348  0.7390  0.0870  2.5750
 8735SOL    HW237839   0.117   3.260   5.455 -0.1412  0.5968 -0.6125
 8736SOL     OW37840   3.551   3.281   7.335  0.0682 -0.5276 -0.1910
 8736SOL    HW137841   3.623   3.241   7.287 -0.1906  0.0578 -1.0623
 8736SOL    HW237842   3.560   3.374   7.313  1.7136 -0.7632 -0.4998
 8737SOL     OW37843   3.888   2.179   3.248  0.0690 -0.0890  0.0677
 8737SOL    HW137844   3.926   2.091   3.254  1.0489  0.2191 -1.5665
 8737SOL    HW237845   3.964   2.219   3.205 -0.4992  2.7349  1.6813
 8738SOL     OW37846   1.968   4.495   4.513 -0.4255  0.4307  0.2910
 8738SOL    HW137847   1.994   4.455   4.596 -1.3998 -0.6498  0.0759
 8738SOL    HW237848   1.913   4.427   4.474  0.1074  0.7885 -1.0741
 8739SOL     OW37849   0.099   1.115   6.569 -0.4149  0.1999 -0.6272
 8739SOL    HW137850   0.128   1.126   6.660  1.5791 -1.2314 -1.1014
 8739SOL    HW237851   0.135   1.196   6.532 -1.4212  1.0807  0.3230
 8740SOL     OW37852   4.588   0.626  13.516  0.1560 -0.7796  0.3073
 8740SOL    HW137853   4.669   0.634  13.567  1.0407  0.2420 -1.2935
 8740SOL    HW237854   4.584   0.714  13.480 -1.3517 -0.8358  0.3569
 8741SOL     OW37855   2.914   0.377  11.582  0.1018 -0.3365 -0.5952
 8741SOL    HW137856   2.855   0.417  11.645  1.4040  1.2259 -0.3652
 8741SOL    HW237857   2.914   0.293  11.629 -2.7769  0.5143  0.8966
 8742SOL     OW37858   1.086   3.492   5.947 -0.1230 -0.2461  0.1443
 8742SOL    HW137859   1.066   3.412   5.899  1.7653  0.1993 -1.4089
 8742SOL    HW237860   1.067   3.556   5.878  0.8691 -0.1216 -0.0141
 8743SOL     OW37861   0.355   3.197  16.528  0.5177  0.2656  0.1237
 8743SOL    HW137862   0.376   3.179  16.620 -0.7469  1.2291  0.6002
 8743SOL    HW237863   0.382   3.288  16.542  1.4813 -0.0346  0.2254
 8744SOL     OW37864   1.579   2.508   2.171  0.2047 -0.2699  0.0366
 8744SOL    HW137865   1.489   2.529   2.145 -0.1005 -0.0444  1.2540
 8744SOL    HW237866   1.629   2.509   2.090  0.2680 -2.3159  0.0514
 8745SOL     OW37867   4.187   3.713   8.037  0.2909  0.4804  0.5642
 8745SOL    HW137868   4.150   3.792   7.999 -0.2779 -1.2921 -2.5909
 8745SOL    HW237869   4.131   3.639   8.015  3.3462 -1.2576 -1.3909
 8746SOL     OW37870   2.271   0.777   5.908  0.5512  0.0661  0.5435
 8746SOL    HW137871   2.273   0.834   5.832  0.6051 -0.3979  0.1987
 8746SOL    HW237872   2.238   0.835   5.976  1.2380  3.5355 -2.0981
 8747SOL     OW37873   2.010   0.530   5.007  0.1285 -0.0022  0.3719
 8747SOL    HW137874   1.973   0.562   5.089  1.0146 -0.5190  0.9789
 8747SOL    HW237875   1.930   0.528   4.955  0.2659  3.5026  0.0432
 8748SOL     OW37876   3.269   2.433  11.280  0.6052 -0.4674 -1.1065
 8748SOL    HW137877   3.206   2.505  11.275 -0.1922 -1.0949  0.1368
 8748SOL    HW237878   3.210   2.360  11.299  0.5817  0.0695  0.8333
 8749SOL     OW37879   1.192   0.387   3.806 -0.3842  0.0692  0.3382
 8749SOL    HW137880   1.181   0.453   3.737  0.9825 -0.6193 -0.5425
 8749SOL    HW237881   1.129   0.318   3.785 -0.4960  0.4569 -0.6273
 8750SOL     OW37882   3.220   0.682   0.242  0.6556  0.1021 -0.5693
 8750SOL    HW137883   3.201   0.610   0.181  1.1440  0.0670 -0.6770
 8750SOL    HW237884   3.160   0.652   0.310  2.0119 -0.5629  0.3092
 8751SOL     OW37885   2.133   2.237   3.880  0.3477 -0.4115 -0.3584
 8751SOL    HW137886   2.040   2.256   3.893  0.1104 -1.6165 -0.2466
 8751SOL    HW237887   2.157   2.324   3.848  2.8584 -0.7541  0.6188
 8752SOL     OW37888   1.506   4.074   4.913 -0.2017  0.4263  0.3081
 8752SOL    HW137889   1.488   4.081   4.819  0.5172 -1.1593  0.0435
 8752SOL    HW237890   1.434   4.017   4.939  0.0729 -0.6145 -1.2557
 8753SOL     OW37891   2.036   1.816   3.356 -0.7728  0.1412  0.0632
 8753SOL    HW137892   2.124   1.812   3.319 -2.2379  2.5145 -3.6471
 8753SOL    HW237893   1.983   1.758   3.301  0.6145 -1.1511  0.1075
 8754SOL     OW37894   4.587   2.268   9.020  0.3403 -0.9086  0.3740
 8754SOL    HW137895   4.661   2.279   9.080  1.3784 -1.2190 -0.8657
 8754SOL    HW237896   4.627   2.215   8.952 -2.2782 -2.4921  0.0721
 8755SOL     OW37897   4.092   2.661  16.291  0.0237  0.2351 -0.2236
 8755SOL    HW137898   4.032   2.707  16.233  0.8570 -0.4408 -1.6361
 8755SOL    HW237899   4.178   2.703  16.282  0.0821  0.1791  0.0632
 8756SOL     OW37900   0.798   3.930   8.644  0.7482  0.1553 -0.0414
 8756SOL    HW137901   0.884   3.929   8.602  0.2447 -1.7534 -0.9884
 8756SOL    HW237902   0.812   3.997   8.712 -0.5113 -0.2315  0.5950
 8757SOL     OW37903   0.998   2.553   0.952  0.2849  0.4225  0.2939
 8757SOL    HW137904   1.033   2.557   0.864 -0.5425 -0.9622 -0.1111
 8757SOL    HW237905   0.905   2.530   0.942 -0.1864  1.8342  1.4586
 8758SOL     OW37906   1.830   3.685   1.890 -0.0626 -0.4997  0.1125
 8758SOL    HW137907   1.899   3.620   1.902 -0.3506 -1.3102 -2.5203
 8758SOL    HW237908   1.802   3.669   1.800  1.4361 -4.4155  0.3545
 8759SOL     OW37909   4.675   3.324   2.511  0.5512  0.1336  0.6116
 8759SOL    HW137910   0.022   3.363   2.484  0.8166 -2.0319 -1.7476
 8759SOL    HW237911   4.674   3.339   2.605 -0.2287 -1.2382  0.8222
 8760SOL     OW37912   2.438   3.235   6.565  1.1418 -0.1297  0.4254
 8760SOL    HW137913   2.436   3.318   6.518 -0.0602 -0.0386  0.6514
 8760SOL    HW237914   2.445   3.176   6.490  0.3154  0.7727 -0.3510
 8761SOL     OW37915   3.893   0.833   2.367  0.4608  0.0802  0.4324
 8761SOL    HW137916   3.932   0.762   2.417  0.7252  1.1823  1.7714
 8761SOL    HW237917   3.813   0.856   2.414  0.0817 -0.2577 -0.0374
 8762SOL     OW37918   3.923   2.545   6.985  0.1872  0.0091  0.6381
 8762SOL    HW137919   3.993   2.596   7.027  0.0633  0.4656  0.2880
 8762SOL    HW237920   3.900   2.606   6.914 -0.3447 -2.2963 -1.1541
 8763SOL     OW37921   1.845   4.658   3.721 -0.2541  0.7151  0.4434
 8763SOL    HW137922   1.902   4.715   3.669  0.2969  2.1150  2.5856
 8763SOL    HW237923   1.901   4.585   3.749  0.3717  0.6309 -1.0551
 8764SOL     OW37924   1.257   0.857   5.108  0.3870 -0.3582  0.4602
 8764SOL    HW137925   1.240   0.780   5.161 -2.6040  1.4898  2.1693
 8764SOL    HW237926   1.252   0.819   5.020 -1.8873  1.0784 -0.0269
 8765SOL     OW37927   3.266   4.601  17.245 -0.3723  0.2883 -0.0015
 8765SOL    HW137928   3.320   4.659  17.191 -0.1839 -0.0275 -0.1547
 8765SOL    HW237929   3.195   4.573  17.188 -1.5819  0.5428  1.3706
 8766SOL     OW37930   0.565   4.372   3.198 -0.0357 -0.0451 -0.3867
 8766SOL    HW137931   0.523   4.453   3.226  0.5143 -0.6872  2.3033
 8766SOL    HW237932   0.487   4.327   3.168 -0.3730  1.3751 -1.6700
 8767SOL     OW37933   4.089   3.168   9.250 -0.3800 -0.3051  0.2053
 8767SOL    HW137934   4.023   3.231   9.277 -0.5552 -0.5983  0.4669
 8767SOL    HW237935   4.117   3.139   9.337  3.5542  1.3845 -0.5238
 8768SOL     OW37936   3.994   3.195   6.079  0.4520  0.4211  0.4907
 8768SOL    HW137937   3.984   3.289   6.096  2.8363  0.4871  1.5330
 8768SOL    HW237938   4.089   3.185   6.090  0.6412 -0.1628 -1.8034
 8769SOL     OW37939   3.806   1.460   4.764 -0.6995  0.1610  0.0714
 8769SOL    HW137940   3.730   1.479   4.708  0.1902  0.5984 -0.9925
 8769SOL    HW237941   3.768   1.481   4.849 -2.1185 -0.5704 -0.3730
 8770SOL     OW37942   0.950   3.514   3.508  0.1083  0.0037  0.1584
 8770SOL    HW137943   0.947   3.457   3.585  0.4890  0.3431  0.4234
 8770SOL    HW237944   0.935   3.457   3.432  2.2086  1.9092 -1.7014
 8771SOL     OW37945   1.091   2.289   4.276 -0.6655 -0.8005 -0.1024
 8771SOL    HW137946   1.007   2.272   4.233 -2.1125  0.2415  2.2787
 8771SOL    HW237947   1.088   2.234   4.354 -0.1766  0.6709  0.9450
 8772SOL     OW37948   0.323   4.470   8.003 -0.2459 -0.0048 -1.0083
 8772SOL    HW137949   0.269   4.413   8.057 -0.3174  0.5600 -0.4837
 8772SOL    HW237950   0.297   4.560   8.025 -0.1641 -0.1661 -0.2534
 8773SOL     OW37951   2.683   0.865   7.671  0.5124  0.0350 -0.6768
 8773SOL    HW137952   2.683   0.827   7.583 -1.3743  2.1379 -1.5728
 8773SOL    HW237953   2.732   0.800   7.722 -0.8418  0.0561  0.6611
 8774SOL     OW37954   4.508   2.797  12.162 -0.1745  0.3994 -0.1096
 8774SOL    HW137955   4.499   2.761  12.251  1.1988  0.8519  0.2153
 8774SOL    HW237956   4.426   2.763  12.127 -0.6024  1.2731  0.0569
 8775SOL     OW37957   1.081   4.058   8.297 -0.8468 -0.5360 -0.1632
 8775SOL    HW137958   1.011   4.050   8.232 -1.5202  2.0017  0.2340
 8775SOL    HW237959   1.159   4.048   8.241 -1.7782  0.1414 -1.6058
 8776SOL     OW37960   0.230   3.204   5.138 -0.1094 -0.3714  0.2068
 8776SOL    HW137961   0.188   3.239   5.217 -0.2142  0.6307 -0.2840
 8776SOL    HW237962   0.167   3.139   5.107  0.7113 -0.8920 -0.3701
 8777SOL     OW37963   0.297   2.311  14.995  0.6245 -0.1284  0.1672
 8777SOL    HW137964   0.343   2.245  15.047 -1.1151 -1.2022  0.3478
 8777SOL    HW237965   0.227   2.338  15.055  2.5434  2.9240  1.0604
 8778SOL     OW37966   1.891   4.711   5.096  0.2732 -0.0272 -0.8907
 8778SOL    HW137967   1.885   4.619   5.071  0.8566 -0.6436  1.2542
 8778SOL    HW237968   1.854   4.701   5.184 -0.7833 -0.4609 -1.3874
 8779SOL     OW37969   1.241   0.218   4.646  0.5805 -0.6079  0.0600
 8779SOL    HW137970   1.267   0.130   4.671  0.2136 -1.1373 -1.4009
 8779SOL    HW237971   1.269   0.263   4.725 -1.5622 -3.5678  2.4845
 8780SOL     OW37972   4.601   3.623   0.000  0.0676  0.4543 -0.2263
 8780SOL    HW137973   4.516   3.643  17.706  0.9272  2.1891 -1.2224
 8780SOL    HW237974   4.618   3.704   0.048  0.4597 -1.0079  2.1198
 8781SOL     OW37975   0.157   3.130   0.828 -0.2254 -0.2233 -0.1322
 8781SOL    HW137976   0.131   3.055   0.881  1.4624 -0.3626  0.4949
 8781SOL    HW237977   0.159   3.201   0.893 -0.6503  0.6995 -1.1338
 8782SOL     OW37978   4.632   2.606   1.324  0.1437  0.3965  0.0842
 8782SOL    HW137979   4.548   2.651   1.312  0.5033  1.5622  1.8371
 8782SOL    HW237980   4.631   2.551   1.246 -2.6859 -1.1713  1.2209
 8783SOL     OW37981   2.215   0.769  11.014 -0.0813 -0.0199 -0.0991
 8783SOL    HW137982   2.276   0.830  11.056  2.3619 -2.4628 -0.1249
 8783SOL    HW237983   2.258   0.761  10.929  0.6377  2.5803  0.0155
 8784SOL     OW37984   4.735   0.801   4.669  0.4931 -0.0177 -0.0611
 8784SOL    HW137985   4.705   0.857   4.597  2.4487  0.0274 -0.8358
 8784SOL    HW237986   4.733   0.868   4.738 -1.4664  0.5476 -0.6836
 8785SOL     OW37987   0.367   2.970   7.845 -0.5738 -0.4477  0.1425
 8785SOL    HW137988   0.297   2.953   7.908 -0.2312  1.8830  1.1264
 8785SOL    HW237989   0.359   2.892   7.790  1.1287 -0.5149  0.0075
 8786SOL     OW37990   0.025   3.504   5.016  0.2518 -0.2500 -0.7345
 8786SOL    HW137991   0.037   3.412   4.990  0.7687 -0.4241  0.1154
 8786SOL    HW237992   4.696   3.500   5.087  1.4938 -0.4781  0.3956
 8787SOL     OW37993   3.782   3.126   8.592  0.0512 -0.0312 -0.0481
 8787SOL    HW137994   3.725   3.141   8.667 -1.2086 -1.4532 -0.7236
 8787SOL    HW237995   3.869   3.141   8.627 -0.3024  1.3056  0.2799
 8788SOL     OW37996   2.632   4.155   7.625  0.6338 -0.0091 -0.2060
 8788SOL    HW137997   2.561   4.220   7.631  0.4870 -0.3858  2.0596
 8788SOL    HW237998   2.609   4.096   7.696 -0.7700  0.4781 -0.2422
 8789SOL     OW37999   0.646   3.875  14.015  0.0744 -0.3282 -0.5447
 8789SOL    HW138000   0.615   3.868  14.106  0.8729 -1.3418 -0.3416
 8789SOL    HW238001   0.562   3.865  13.971 -0.0106 -1.0859 -0.2262
 8790SOL     OW38002   3.297   2.388   7.400 -0.1378  0.0814 -0.3751
 8790SOL    HW138003   3.244   2.415   7.325 -1.5079 -2.3363 -0.2696
 8790SOL    HW238004   3.277   2.464   7.455  1.6600 -0.0111  0.4223
 8791SOL     OW38005   3.703   4.509  17.554  0.6083 -0.2236 -0.1385
 8791SOL    HW138006   3.657   4.525  17.472  0.1551  0.5697  0.2700
 8791SOL    HW238007   3.691   4.595  17.595 -1.6428  0.7543 -2.8882
 8792SOL     OW38008   2.896   2.121   2.501  0.3108 -0.3278 -0.5037
 8792SOL    HW138009   2.823   2.113   2.562 -1.0225 -2.3967 -2.3351
 8792SOL    HW238010   2.844   2.112   2.421 -0.2325  1.6812 -0.3759
 8793SOL     OW38011   2.527   3.411   6.883 -0.3737  0.0968 -0.0437
 8793SOL    HW138012   2.440   3.445   6.864 -0.4223  0.4021  0.7190
 8793SOL    HW238013   2.495   3.331   6.923 -0.6191  0.0916 -0.2513
 8794SOL     OW38014   0.766   1.798   0.017  0.3007  0.5940 -0.0445
 8794SOL    HW138015   0.797   1.736   0.083  0.9673  1.3026  0.3045
 8794SOL    HW238016   0.672   1.793   0.035  0.2258  0.2865 -0.5306
 8795SOL     OW38017   1.490   2.548   2.534  0.3140  0.0199 -0.3081
 8795SOL    HW138018   1.417   2.487   2.532  0.1736  0.1699  0.4586
 8795SOL    HW238019   1.507   2.573   2.443  2.0269 -1.2131 -0.3249
 8796SOL     OW38020   2.563   4.356  12.380 -0.2611  0.2949  0.5610
 8796SOL    HW138021   2.609   4.273  12.397 -1.4293 -0.0117  2.2489
 8796SOL    HW238022   2.633   4.417  12.357 -0.8495  1.3757  1.6492
 8797SOL     OW38023   3.541   1.976   3.159 -0.4083 -0.0726  0.2039
 8797SOL    HW138024   3.620   1.955   3.110 -0.8202  0.2170 -0.5867
 8797SOL    HW238025   3.472   1.987   3.093  0.3269  1.2067 -0.3536
 8798SOL     OW38026   2.007   2.536   3.328 -0.3345  0.1268  0.7701
 8798SOL    HW138027   2.102   2.534   3.329 -0.2628  1.5490 -1.0528
 8798SOL    HW238028   1.973   2.557   3.240 -0.6830  1.5606  1.2376
 8799SOL     OW38029   0.924   3.199   4.163 -0.6013 -0.0548  0.4661
 8799SOL    HW138030   0.832   3.197   4.188 -0.7358  0.1412 -0.0094
 8799SOL    HW238031   0.946   3.279   4.210  1.5969 -0.6769  0.4797
 8800SOL     OW38032   2.528   0.773   3.034  0.4257  0.2552  0.0799
 8800SOL    HW138033   2.595   0.707   3.050  0.6463  0.2772 -0.7659
 8800SOL    HW238034   2.575   0.855   3.051  1.8986 -0.8475  1.3571
 8801SOL     OW38035   0.261   0.768   3.354 -0.3665 -0.0038 -0.0720
 8801SOL    HW138036   0.290   0.695   3.409  1.4420  0.6953 -0.0906
 8801SOL    HW238037   0.228   0.727   3.274 -0.1547 -2.3550  1.0733
 8802SOL     OW38038   3.578   2.811  12.096  0.1957  0.0924  0.4781
 8802SOL    HW138039   3.667   2.784  12.073 -0.0343  1.5656 -2.1157
 8802SOL    HW238040   3.601   2.901  12.121 -3.8394  1.3897 -0.4314
 8803SOL     OW38041   2.226   4.098   0.872 -0.6678 -0.3016  0.4939
 8803SOL    HW138042   2.143   4.064   0.839 -1.6560 -0.2302  2.9394
 8803SOL    HW238043   2.247   4.037   0.942 -0.3138  1.1736  1.6660
 8804SOL     OW38044   4.051   2.840   3.099 -0.6285  0.0112 -0.0757
 8804SOL    HW138045   4.116   2.811   3.163  0.0831 -0.9726 -1.2502
 8804SOL    HW238046   3.988   2.883   3.156  1.3932  0.1337  2.0906
 8805SOL     OW38047   2.260   2.309   7.473  0.4023  0.2392  0.1852
 8805SOL    HW138048   2.180   2.293   7.524  0.1279 -0.6440 -0.5324
 8805SOL    HW238049   2.241   2.293   7.381 -0.4042  0.9488  0.2243
 8806SOL     OW38050   3.291   1.262   3.953 -0.3376 -0.0654 -0.2982
 8806SOL    HW138051   3.259   1.351   3.969 -1.4566 -0.6871  0.8619
 8806SOL    HW238052   3.229   1.207   4.000  1.2240 -3.3509 -2.0550
 8807SOL     OW38053   3.224   1.940   0.925 -0.2307  0.5644  0.3125
 8807SOL    HW138054   3.292   1.872   0.923 -1.3990 -0.6548  2.0077
 8807SOL    HW238055   3.270   2.007   0.875  1.9388 -1.7684 -0.8739
 8808SOL     OW38056   1.566   4.306   9.026  0.2265 -0.5589  0.2373
 8808SOL    HW138057   1.539   4.377   8.968 -0.4851 -0.5804  0.5379
 8808SOL    HW238058   1.519   4.235   8.984 -1.8450  1.0927 -0.2624
 8809SOL     OW38059   1.134   1.301   1.892 -0.0281  0.2835 -0.2975
 8809SOL    HW138060   1.041   1.294   1.911  0.6288  0.4651  3.0294
 8809SOL    HW238061   1.163   1.241   1.960 -0.7040 -0.0315 -0.2929
 8810SOL     OW38062   0.298   3.913   9.528  0.0322 -0.0323 -0.1809
 8810SOL    HW138063   0.214   3.875   9.557 -1.3908  1.8266 -1.9535
 8810SOL    HW238064   0.271   4.004   9.528  0.2515  0.0370  1.0707
 8811SOL     OW38065   0.974   4.042   6.213  0.3479 -0.7218 -0.0203
 8811SOL    HW138066   1.051   4.060   6.268 -0.2895  2.0333  0.0054
 8811SOL    HW238067   0.984   3.948   6.201 -0.2742 -0.8155  0.2018
 8812SOL     OW38068   4.425   4.259   5.452 -0.2108 -0.0878  0.5760
 8812SOL    HW138069   4.378   4.310   5.386 -0.3828 -0.0787  0.7052
 8812SOL    HW238070   4.367   4.184   5.466 -0.4103 -0.3414 -1.6146
 8813SOL     OW38071   3.968   2.081   5.284 -0.1795 -0.2757  0.4292
 8813SOL    HW138072   4.061   2.074   5.305 -0.3141 -0.1386  1.0592
 8813SOL    HW238073   3.942   2.113   5.371 -1.3068 -2.3154  0.8319
 8814SOL     OW38074   0.803   2.346   0.606  0.0368  0.4869 -0.4481
 8814SOL    HW138075   0.816   2.262   0.649 -0.2633  1.6813  1.9682
 8814SOL    HW238076   0.847   2.324   0.523 -0.7813  0.7067 -0.9397
 8815SOL     OW38077   0.337   1.032   6.245 -0.2625  0.1879  0.2401
 8815SOL    HW138078   0.421   1.044   6.288 -0.5406  0.4516  0.7016
 8815SOL    HW238079   0.285   1.031   6.326 -0.4970  0.6223  0.0929
 8816SOL     OW38080   4.325   2.391   2.348 -0.0759  0.2522  0.7541
 8816SOL    HW138081   4.293   2.416   2.435 -0.0590  1.3134  0.4568
 8816SOL    HW238082   4.277   2.455   2.297  0.9465  0.6446  0.2876
 8817SOL     OW38083   1.231   0.396   1.115  0.4708 -0.5237  0.3662
 8817SOL    HW138084   1.271   0.480   1.095  0.3567 -0.9057 -1.4718
 8817SOL    HW238085   1.286   0.337   1.063  1.5883 -0.0290  0.9783
 8818SOL     OW38086   3.308   0.358   6.332  0.5112 -0.3075  0.0110
 8818SOL    HW138087   3.274   0.448   6.340 -2.0263 -1.3048  0.4045
 8818SOL    HW238088   3.277   0.337   6.244  1.3295  0.6381 -0.5119
 8819SOL     OW38089   1.844   3.272  17.618 -0.0214 -0.0362 -0.5001
 8819SOL    HW138090   1.918   3.228  17.658  1.3923  0.6892 -2.2946
 8819SOL    HW238091   1.878   3.277  17.528 -1.8049  1.6667 -1.0851
 8820SOL     OW38092   3.593   0.487  17.444  0.2898  0.2251 -0.0409
 8820SOL    HW138093   3.567   0.406  17.487 -0.6058  0.7710  0.4412
 8820SOL    HW238094   3.580   0.454  17.355  0.7534  0.1431 -0.0762
 8821SOL     OW38095   4.410   3.214   5.777  0.0874  1.0995  0.2080
 8821SOL    HW138096   4.460   3.194   5.698  1.9835  1.1936  1.4071
 8821SOL    HW238097   4.441   3.295   5.817  1.0192 -0.7032  3.1609
 8822SOL     OW38098   3.116   3.349   2.234 -0.5212  0.9068 -0.0847
 8822SOL    HW138099   3.094   3.336   2.326  0.8167  1.8963  0.3753
 8822SOL    HW238100   3.031   3.357   2.190 -0.6603 -0.0769 -0.0118
 8823SOL     OW38101   2.134   2.178  15.978 -0.5519 -0.4777 -0.1989
 8823SOL    HW138102   2.201   2.187  16.046 -0.7948 -0.3111  0.0139
 8823SOL    HW238103   2.180   2.107  15.932 -0.2255 -0.4313  0.0579
 8824SOL     OW38104   2.150   0.994   2.087  0.3529 -0.1642  0.1377
 8824SOL    HW138105   2.163   1.088   2.099  1.4968 -0.1661 -1.0940
 8824SOL    HW238106   2.236   0.954   2.099  0.8853  1.0788  0.4128
 8825SOL     OW38107   2.919   3.213   5.852 -0.4210 -0.0352 -0.6896
 8825SOL    HW138108   2.877   3.135   5.888 -0.4091  0.3026  0.0538
 8825SOL    HW238109   2.839   3.254   5.818  0.2405  1.7454 -0.1362
 8826SOL     OW38110   2.807   4.162  16.527  0.2191  0.1474 -0.0050
 8826SOL    HW138111   2.834   4.096  16.591  0.1297  0.8538  0.7610
 8826SOL    HW238112   2.765   4.223  16.588 -0.6225  0.2885 -0.7228
 8827SOL     OW38113   3.900   2.583   5.260  0.2991 -0.4424  0.1710
 8827SOL    HW138114   3.979   2.532   5.274  1.1027  0.6768 -0.2465
 8827SOL    HW238115   3.846   2.505   5.250 -1.7355  0.7187  2.1349
 8828SOL     OW38116   2.910   3.187   3.305 -0.1466 -0.2556  0.2691
 8828SOL    HW138117   2.916   3.096   3.276  0.1646 -0.2618  0.3539
 8828SOL    HW238118   2.993   3.223   3.272 -0.7899  0.7869 -0.2170
 8829SOL     OW38119   1.334   2.411   6.030 -0.2217  0.4590  0.0676
 8829SOL    HW138120   1.375   2.495   6.054  1.3723  0.0575 -1.2688
 8829SOL    HW238121   1.241   2.435   6.028 -0.1308  0.4416 -3.8865
 8830SOL     OW38122   0.858   1.141   9.407  0.1648  0.6552  0.0536
 8830SOL    HW138123   0.848   1.056   9.363 -0.9803  0.3127  0.9479
 8830SOL    HW238124   0.838   1.204   9.337  2.8460  2.1352  0.6418
 8831SOL     OW38125   1.463   3.110   6.912  0.1692  0.1703  0.5650
 8831SOL    HW138126   1.444   3.043   6.846 -1.5030  0.6533  0.5387
 8831SOL    HW238127   1.408   3.074   6.982 -0.3804 -0.0231  0.0380
 8832SOL     OW38128   1.213   1.367   3.988 -0.6584 -0.3199 -0.0635
 8832SOL    HW138129   1.170   1.433   3.934  0.3788  1.1923  0.9748
 8832SOL    HW238130   1.140   1.305   3.982  1.5427 -2.8660 -0.1403
 8833SOL     OW38131   1.108   3.589  14.162 -0.5269  0.0640  0.0863
 8833SOL    HW138132   1.168   3.626  14.098  0.0186 -0.2210  0.4334
 8833SOL    HW238133   1.026   3.614  14.119  0.1845 -2.4084 -2.6999
 8834SOL     OW38134   2.914   0.019   2.372  0.0666 -0.8833 -0.0514
 8834SOL    HW138135   2.985   0.068   2.330  1.0967 -0.4133  2.2127
 8834SOL    HW238136   2.839   0.051   2.323  1.1368 -0.4972 -1.4263
 8835SOL     OW38137   1.789   3.326   5.153  0.5412 -0.2442  0.5655
 8835SOL    HW138138   1.739   3.407   5.162 -0.3737 -0.6687 -0.6544
 8835SOL    HW238139   1.769   3.288   5.068  0.1670  0.7516  0.2044
 8836SOL     OW38140   1.503   3.393   5.900 -0.2277  0.4364  0.0341
 8836SOL    HW138141   1.476   3.470   5.950 -1.3339 -0.1069  0.2640
 8836SOL    HW238142   1.570   3.436   5.847 -0.0642 -0.4931 -0.5234
 8837SOL     OW38143   3.862   4.650   6.025 -1.0122  0.3069 -0.6208
 8837SOL    HW138144   3.862   0.005   6.055 -1.2517  0.1886 -0.2564
 8837SOL    HW238145   3.828   4.602   6.101 -3.0975 -0.0347 -1.7861
 8838SOL     OW38146   4.241   0.148   6.343  0.1740 -0.4486 -0.8256
 8838SOL    HW138147   4.257   0.242   6.334 -0.2133 -0.1822  1.3866
 8838SOL    HW238148   4.325   0.104   6.352  0.5416  0.3213 -0.5436
 8839SOL     OW38149   0.061   4.033   2.386 -0.4587  0.3618 -0.0378
 8839SOL    HW138150   0.025   4.089   2.318 -0.4193  0.9663  0.4350
 8839SOL    HW238151   4.715   4.016   2.432 -0.1770  0.0376  0.3516
 8840SOL     OW38152   1.682   3.022   5.518 -0.0167  0.5473  0.4081
 8840SOL    HW138153   1.691   3.107   5.476  4.6626 -0.9294 -1.6111
 8840SOL    HW238154   1.615   3.033   5.585 -1.0678  0.7146 -0.6698
 8841SOL     OW38155   1.395   3.271   2.774  0.4348 -0.0811  0.1843
 8841SOL    HW138156   1.402   3.219   2.694  0.3643  0.0719  0.0778
 8841SOL    HW238157   1.368   3.198   2.828  1.8217 -1.7086 -1.3299
 8842SOL     OW38158   2.409   0.422   6.990  0.0673  0.2131  0.0566
 8842SOL    HW138159   2.469   0.497   6.991 -0.7035  0.8190  1.2346
 8842SOL    HW238160   2.446   0.376   6.915  0.4067  0.7137 -0.0869
 8843SOL     OW38161   4.506   2.498  10.819 -0.0260  0.5111 -0.2762
 8843SOL    HW138162   4.575   2.432  10.827 -0.3597 -0.1993 -3.2261
 8843SOL    HW238163   4.544   2.569  10.871  0.6854  0.0196 -0.1143
 8844SOL     OW38164   3.580   4.567  12.540 -0.1953 -0.4701  0.0382
 8844SOL    HW138165   3.548   4.479  12.560 -0.9858 -0.2236 -0.1553
 8844SOL    HW238166   3.579   4.615  12.623  0.7347  0.5535 -0.5438
 8845SOL     OW38167   4.492   1.162   6.448 -0.3148  0.1911  0.1863
 8845SOL    HW138168   4.474   1.215   6.525  0.7775 -0.8558  1.1668
 8845SOL    HW238169   4.586   1.164   6.426 -0.6338  1.6000 -1.0354
 8846SOL     OW38170   1.156   2.860   3.097 -0.2936  0.7379  0.7445
 8846SOL    HW138171   1.126   2.884   3.185 -1.8250  0.5987  0.2573
 8846SOL    HW238172   1.092   2.794   3.072 -0.5921  1.4821 -0.4501
 8847SOL     OW38173   3.210   2.675   2.970 -0.4747  0.5755 -0.4174
 8847SOL    HW138174   3.289   2.638   3.009 -0.1793  1.3716 -0.2663
 8847SOL    HW238175   3.164   2.691   3.052 -0.1687 -1.1766  0.0949
 8848SOL     OW38176   2.440   2.330   4.285  0.3758 -0.0349  0.4247
 8848SOL    HW138177   2.498   2.291   4.221  0.0626 -1.4598  1.0092
 8848SOL    HW238178   2.415   2.416   4.252  2.2856 -0.4839 -2.0972
 8849SOL     OW38179   0.454   2.880   5.593  0.4881  0.4561  0.2601
 8849SOL    HW138180   0.477   2.955   5.537  0.1236 -0.5824 -1.2812
 8849SOL    HW238181   0.359   2.888   5.585  0.6550  1.0525 -1.2601
 8850SOL     OW38182   2.462   4.178  11.527  0.1387  0.3613 -0.2452
 8850SOL    HW138183   2.407   4.226  11.466 -1.6574 -2.3311 -0.7549
 8850SOL    HW238184   2.545   4.186  11.479 -0.0528  3.0882 -0.1221
 8851SOL     OW38185   3.062   1.092   3.432  0.0492  0.4583  0.2157
 8851SOL    HW138186   3.038   1.044   3.353  1.7473  0.4396 -0.2893
 8851SOL    HW238187   3.036   1.183   3.413 -1.5916  0.1901  1.1357
 8852SOL     OW38188   1.459   0.932  13.424  0.0281  0.6579  0.4014
 8852SOL    HW138189   1.546   0.960  13.395  1.1466 -0.4513  2.6541
 8852SOL    HW238190   1.465   0.838  13.406  1.7364  1.0857 -1.2223
 8853SOL     OW38191   3.366   1.091   2.272  0.4327  0.0867  0.2689
 8853SOL    HW138192   3.415   1.120   2.195  1.3497 -2.9895 -0.3115
 8853SOL    HW238193   3.328   1.171   2.307 -0.4817  0.4347 -1.4956
 8854SOL     OW38194   3.132   4.339  13.429 -0.1391 -0.2949  0.3587
 8854SOL    HW138195   3.041   4.328  13.457 -0.4075  0.8605 -0.0564
 8854SOL    HW238196   3.133   4.279  13.355  3.0061  0.3180 -0.0983
 8855SOL     OW38197   3.787   4.592   4.638 -0.1803 -0.0906  0.1029
 8855SOL    HW138198   3.749   4.505   4.631 -1.4543  0.3402  1.6943
 8855SOL    HW238199   3.737   4.653   4.584  0.3004  0.8123  0.6710
 8856SOL     OW38200   2.554   3.162  15.542 -0.6182 -0.4580  0.5842
 8856SOL    HW138201   2.466   3.146  15.575 -0.8448 -1.3649 -0.4825
 8856SOL    HW238202   2.563   3.077  15.500  1.0530  0.6176 -1.2458
 8857SOL     OW38203   1.882   0.329  12.835 -0.0038 -0.2052 -0.7051
 8857SOL    HW138204   1.818   0.396  12.814 -1.2784 -0.8636  1.0483
 8857SOL    HW238205   1.861   0.266  12.767 -0.6989 -0.6752 -0.0576
 8858SOL     OW38206   2.180   0.352   4.897  0.1583 -0.0664  0.0590
 8858SOL    HW138207   2.120   0.281   4.921 -2.2382  1.9260  0.0537
 8858SOL    HW238208   2.139   0.425   4.943  0.6801 -0.0867  0.5379
 8859SOL     OW38209   3.091   2.439  11.597 -0.7242 -0.4632  0.3913
 8859SOL    HW138210   3.104   2.455  11.691 -0.3967 -3.4705  0.8605
 8859SOL    HW238211   3.181   2.436  11.564 -1.3556  1.3278 -1.4415
 8860SOL     OW38212   0.769   1.704   9.031  0.0766 -0.2847 -0.4057
 8860SOL    HW138213   0.753   1.647   8.955 -1.2286 -0.5941  0.0932
 8860SOL    HW238214   0.836   1.758   8.989  2.7905 -0.4368  3.6908
 8861SOL     OW38215   4.587   3.285  13.117 -0.3368 -0.0808 -0.0920
 8861SOL    HW138216   4.656   3.229  13.153  1.9952  3.3482  0.8063
 8861SOL    HW238217   4.605   3.278  13.023  0.1446 -0.0253 -0.0077
 8862SOL     OW38218   3.843   0.139   0.227 -0.4662  0.3187  0.1123
 8862SOL    HW138219   3.930   0.177   0.243 -0.2391 -1.0523  2.0695
 8862SOL    HW238220   3.863   0.050   0.258 -4.1577 -1.1875 -1.8249
 8863SOL     OW38221   0.565   4.583   6.273  0.1348 -0.2765  0.2408
 8863SOL    HW138222   0.570   4.651   6.341 -0.0569  0.8591 -0.8896
 8863SOL    HW238223   0.491   4.533   6.310  0.6441  0.0121  1.6736
 8864SOL     OW38224   3.587   4.336  15.431  0.1675  0.2086 -0.2999
 8864SOL    HW138225   3.517   4.376  15.379  1.1483 -0.7206 -2.3562
 8864SOL    HW238226   3.558   4.245  15.418 -0.8376  1.0258 -3.8642
 8865SOL     OW38227   3.368   3.218  11.931 -0.0363  0.3686  0.0291
 8865SOL    HW138228   3.357   3.299  11.981  0.5610  0.6904 -0.3550
 8865SOL    HW238229   3.430   3.166  11.983 -0.1503 -0.2367 -0.4485
 8866SOL     OW38230   4.029   4.562   9.068 -0.1790  0.3936 -0.4890
 8866SOL    HW138231   4.054   4.630   9.130  1.5587  0.1490 -0.9257
 8866SOL    HW238232   3.951   4.608   9.037 -0.1560  1.2883  0.8031
 8867SOL     OW38233   1.843   3.281   1.958  0.9919  0.6525  0.0361
 8867SOL    HW138234   1.777   3.213   1.967  0.6163  0.9802 -0.2259
 8867SOL    HW238235   1.839   3.328   2.041  0.7893 -0.2979  0.5577
 8868SOL     OW38236   2.474   3.756  10.404 -0.1047  0.3594  0.5590
 8868SOL    HW138237   2.496   3.664  10.392 -2.7205 -0.2971  0.8298
 8868SOL    HW238238   2.379   3.753  10.397  0.0710 -1.3770 -0.7587
 8869SOL     OW38239   2.238   2.706   4.086  0.1557 -0.3590 -0.0341
 8869SOL    HW138240   2.326   2.696   4.121  0.1600 -0.5236 -0.0941
 8869SOL    HW238241   2.197   2.722   4.171 -1.8697  1.1801 -1.2822
 8870SOL     OW38242   4.223   3.447   5.689  0.5907  0.3241  0.1862
 8870SOL    HW138243   4.287   3.376   5.681  0.0070 -0.1688 -0.1670
 8870SOL    HW238244   4.147   3.407   5.645 -0.3267  0.6897  1.4476
 8871SOL     OW38245   1.518   1.098   7.998 -0.5636  0.4886  0.1953
 8871SOL    HW138246   1.426   1.113   7.978 -0.5976 -2.4886 -1.8375
 8871SOL    HW238247   1.544   1.185   7.969 -3.8875  1.8410  1.3133
 8872SOL     OW38248   2.843   4.502   9.028 -0.1437 -0.0905  0.0122
 8872SOL    HW138249   2.935   4.506   9.004  0.2217 -0.8042  1.3354
 8872SOL    HW238250   2.807   4.489   8.940 -1.9021 -2.0321  1.0265
 8873SOL     OW38251   0.528   1.637   5.691  0.1386  0.2037  0.0812
 8873SOL    HW138252   0.492   1.711   5.642 -1.1715 -0.6069 -0.1912
 8873SOL    HW238253   0.553   1.577   5.621 -1.1099 -1.8896  1.4314
 8874SOL     OW38254   3.988   3.475   4.544  0.4151  0.2269 -0.3197
 8874SOL    HW138255   4.079   3.465   4.516  0.4717 -0.4993  0.1032
 8874SOL    HW238256   3.984   3.568   4.567  0.2272  0.1264  0.0632
 8875SOL     OW38257   1.291   4.419  17.510 -0.4315 -0.2869 -0.7098
 8875SOL    HW138258   1.218   4.368  17.475  2.0110 -3.2480 -1.4801
 8875SOL    HW238259   1.364   4.356  17.507 -1.3877 -1.5716  2.0970
 8876SOL     OW38260   1.323   1.397   3.033 -0.3794  0.2981 -0.4693
 8876SOL    HW138261   1.246   1.399   2.976 -1.3440  2.2843  0.9387
 8876SOL    HW238262   1.276   1.397   3.116  1.4394  0.8805  0.5717
 8877SOL     OW38263   4.480   2.738  10.042  0.4229  0.0792 -0.2118
 8877SOL    HW138264   4.514   2.649  10.037  0.7759  0.0911  1.8112
 8877SOL    HW238265   4.542   2.777   9.980  1.2800  1.4394  1.4922
 8878SOL     OW38266   0.894   1.905  12.121  0.0884 -0.3418  0.4678
 8878SOL    HW138267   0.902   1.819  12.079  3.3877 -0.3716  1.1568
 8878SOL    HW238268   0.987   1.924  12.131  0.5561 -2.4100  0.0618
 8879SOL     OW38269   0.221   3.076  10.624 -0.9272 -0.1152 -0.2584
 8879SOL    HW138270   0.220   3.158  10.576 -0.2792 -0.8363 -1.5133
 8879SOL    HW238271   0.274   3.092  10.702 -1.0212  1.1568 -0.4535
 8880SOL     OW38272   2.101   1.075   6.543 -0.3856 -0.5715  0.4570
 8880SOL    HW138273   2.186   1.118   6.544 -0.9872  0.6630 -1.5694
 8880SOL    HW238274   2.107   1.026   6.625  2.2524 -0.8538  0.0623
 8881SOL     OW38275   0.883   4.421   3.919  0.3537 -0.0329  0.9363
 8881SOL    HW138276   0.961   4.467   3.950  0.2977 -0.9027  2.3598
 8881SOL    HW238277   0.814   4.487   3.929  1.9746  2.0194 -1.2027
 8882SOL     OW38278   3.053   0.179   3.137  0.6158 -0.5364  0.4815
 8882SOL    HW138279   3.128   0.225   3.099 -0.2106  2.0101  1.8968
 8882SOL    HW238280   2.999   0.258   3.144  0.5686 -0.4712 -0.6891
 8883SOL     OW38281   0.674   4.577   8.328  0.3552  0.2714 -0.2967
 8883SOL    HW138282   0.720   4.618   8.255 -1.0283  1.6362 -0.3840
 8883SOL    HW238283   0.737   4.543   8.392 -0.2811  1.5629  1.0227
 8884SOL     OW38284   0.674   0.546   5.885 -0.0723  0.0861  0.0693
 8884SOL    HW138285   0.591   0.563   5.931 -0.0760  1.2759 -0.3881
 8884SOL    HW238286   0.730   0.517   5.957  1.1253  1.3318 -0.3649
 8885SOL     OW38287   0.264   4.396   4.726  0.0659 -0.1785  0.5677
 8885SOL    HW138288   0.315   4.409   4.807  1.1286  0.9532 -0.2805
 8885SOL    HW238289   0.210   4.320   4.750 -1.2602  1.0016  1.2977
 8886SOL     OW38290   1.997   0.997   1.616 -0.3716 -0.0170  0.6027
 8886SOL    HW138291   1.921   0.950   1.581 -0.5017  1.2311 -0.8033
 8886SOL    HW238292   1.982   0.999   1.710  0.3296 -1.2626  0.7490
 8887SOL     OW38293   0.947   2.834   3.689 -0.3828  0.6253  0.1642
 8887SOL    HW138294   1.034   2.846   3.649 -1.0191 -0.1122 -1.4707
 8887SOL    HW238295   0.910   2.921   3.700 -3.3725 -0.5084 -0.7936
 8888SOL     OW38296   4.433   4.471   9.467  0.2593 -0.3527  0.0065
 8888SOL    HW138297   4.350   4.431   9.492 -0.6368  1.4827 -0.0096
 8888SOL    HW238298   4.413   4.510   9.382  0.1383  0.4578  0.3998
 8889SOL     OW38299   2.702   0.569   3.094  0.4953 -0.8810 -0.1496
 8889SOL    HW138300   2.638   0.536   3.157 -1.1666 -0.1612 -1.4515
 8889SOL    HW238301   2.777   0.537   3.143  3.5496  5.2331 -0.9043
 8890SOL     OW38302   4.424   4.453   8.948  0.4427 -0.5692 -0.0587
 8890SOL    HW138303   4.480   4.527   8.923 -1.5503  0.5774 -1.1988
 8890SOL    HW238304   4.366   4.438   8.873 -0.5841  0.3299  0.5440
 8891SOL     OW38305   1.390   4.056   1.870 -0.3214  0.1385  0.2113
 8891SOL    HW138306   1.444   3.984   1.838 -3.7378 -2.1999 -0.3217
 8891SOL    HW238307   1.337   4.016   1.939  0.5134  0.6014  1.1191
 8892SOL     OW38308   2.428   1.984   7.866  0.3365 -0.5752 -0.2581
 8892SOL    HW138309   2.484   1.947   7.934  0.6013 -0.2445 -0.2944
 8892SOL    HW238310   2.416   2.069   7.908  0.6280  0.2219 -1.7652
 8893SOL     OW38311   0.250   1.200  10.709  0.3117 -0.0366  0.0796
 8893SOL    HW138312   0.220   1.112  10.689 -1.9589  0.7346  0.1205
 8893SOL    HW238313   0.194   1.237  10.777  0.0197 -2.0788  0.9433
 8894SOL     OW38314   1.394   2.028  16.144 -0.1449  0.4334  0.1430
 8894SOL    HW138315   1.482   2.014  16.111 -0.7326  2.4302 -2.3402
 8894SOL    HW238316   1.340   2.064  16.073  1.3703 -0.2728 -1.3523
 8895SOL     OW38317   0.470   4.544  16.175  0.2996 -0.5027  0.1264
 8895SOL    HW138318   0.522   4.521  16.098 -0.6089 -0.9031 -0.3632
 8895SOL    HW238319   0.459   4.637  16.157  0.7596 -0.2912  0.9476
 8896SOL     OW38320   2.231   0.912   1.216 -0.1192 -0.0776 -0.4070
 8896SOL    HW138321   2.227   0.890   1.309  1.6526  1.1881 -0.0235
 8896SOL    HW238322   2.163   0.979   1.214 -0.3448 -0.2535  1.1705
 8897SOL     OW38323   4.418   2.082   5.888  0.0318  0.3419 -0.2793
 8897SOL    HW138324   4.454   2.014   5.945  0.2225  0.7298  0.0595
 8897SOL    HW238325   4.338   2.104   5.936 -0.5637  0.0646 -1.1454
 8898SOL     OW38326   2.369   4.092   4.162  0.2763  0.0041 -0.1329
 8898SOL    HW138327   2.393   4.131   4.078  1.0697 -2.9356 -1.2841
 8898SOL    HW238328   2.276   4.112   4.156  0.4869  1.2183  0.7208
 8899SOL     OW38329   0.975   1.661  14.750  0.0035 -0.5150  0.5524
 8899SOL    HW138330   0.962   1.656  14.655 -0.2441  0.6768  0.5171
 8899SOL    HW238331   0.884   1.671  14.777 -0.0399  2.0401 -0.5615
 8900SOL     OW38332   0.764   2.586  17.396 -0.6852  0.0106  0.0033
 8900SOL    HW138333   0.678   2.557  17.365  0.5320 -1.7018 -1.7121
 8900SOL    HW238334   0.744   2.588  17.490 -0.8522 -0.9650 -0.0172
 8901SOL     OW38335   3.933   2.007   4.638 -0.3123 -0.0338  0.3270
 8901SOL    HW138336   3.967   1.919   4.628  0.6226  0.1863  1.5589
 8901SOL    HW238337   3.869   1.992   4.708 -0.3544 -1.0228  0.0762
 8902SOL     OW38338   3.625   1.951   3.681 -0.1397  0.0941 -0.0133
 8902SOL    HW138339   3.661   1.919   3.598  1.2824 -2.2226  1.4594
 8902SOL    HW238340   3.606   2.041   3.656 -0.8786  0.0187  0.2829
 8903SOL     OW38341   4.483   2.637   7.751  0.1139 -0.0595 -0.0138
 8903SOL    HW138342   4.560   2.666   7.801 -0.4411 -0.5975  1.1686
 8903SOL    HW238343   4.426   2.587   7.810 -1.6145  1.2759 -0.5692
 8904SOL     OW38344   0.534   0.113  15.418 -0.0231  0.1248  0.5150
 8904SOL    HW138345   0.624   0.141  15.439 -0.4756  1.8847  0.1292
 8904SOL    HW238346   0.483   0.179  15.465 -1.5493 -0.8736  0.2264
 8905SOL     OW38347   0.320   3.755   7.453  0.0401 -0.6456  0.5403
 8905SOL    HW138348   0.336   3.802   7.535  1.1173 -2.3873  1.3398
 8905SOL    HW238349   0.297   3.829   7.397 -2.5640 -0.3637  1.9918
 8906SOL     OW38350   3.971   3.227  10.725 -0.4059  0.0225 -0.0767
 8906SOL    HW138351   3.928   3.255  10.644  2.0402 -2.9023 -2.3957
 8906SOL    HW238352   4.065   3.228  10.703 -0.2810 -3.7356  0.2280
 8907SOL     OW38353   3.145   0.507   5.325 -0.1303 -0.6057 -0.8823
 8907SOL    HW138354   3.146   0.417   5.292  1.2526 -1.1972  0.7676
 8907SOL    HW238355   3.206   0.550   5.264  0.8518 -0.7503 -0.0053
 8908SOL     OW38356   4.370   0.181   7.296  0.4073 -0.3739  0.4591
 8908SOL    HW138357   4.368   0.116   7.226  2.1139  2.2982 -2.0627
 8908SOL    HW238358   4.285   0.173   7.340 -0.4013  0.2415 -0.9976
 8909SOL     OW38359   0.521   3.470   8.888  0.1877  0.0272  0.3153
 8909SOL    HW138360   0.435   3.510   8.900 -0.0224 -0.6947  1.2237
 8909SOL    HW238361   0.565   3.538   8.938 -3.1411  1.5966  1.1018
 8910SOL     OW38362   4.495   2.193   3.794 -0.1928  0.5432  0.2582
 8910SOL    HW138363   4.414   2.243   3.786  0.1471  0.8560 -1.1588
 8910SOL    HW238364   4.552   2.225   3.724 -0.6130  0.0030 -0.3373
 8911SOL     OW38365   0.586   1.689   7.320 -0.4108 -0.2110 -0.0720
 8911SOL    HW138366   0.631   1.737   7.389  0.5259 -0.2823 -0.6430
 8911SOL    HW238367   0.658   1.636   7.285 -0.1518 -0.8336  1.4146
 8912SOL     OW38368   1.076   4.141   2.462  0.5973 -0.1638  0.1991
 8912SOL    HW138369   1.156   4.161   2.414  1.2539 -1.8772  0.5915
 8912SOL    HW238370   1.104   4.128   2.552  0.2210  0.7563  0.4491
 8913SOL     OW38371   3.060   4.709   9.170  0.3272  0.3746  0.5354
 8913SOL    HW138372   3.096   4.682   9.085 -1.2670  2.8812 -0.9472
 8913SOL    HW238373   3.138   4.735   9.218 -1.0112 -0.4719  3.1734
 8914SOL     OW38374   0.212   4.159   2.054  0.4860  0.1948  0.6129
 8914SOL    HW138375   0.286   4.182   1.999  0.2137 -0.1107  0.1238
 8914SOL    HW238376   0.194   4.070   2.023  0.7681  0.3067  0.1348
 8915SOL     OW38377   2.280   0.042   4.630 -0.7532 -0.0507  0.8543
 8915SOL    HW138378   2.304   0.012   4.717  0.1482  0.5135  0.8026
 8915SOL    HW238379   2.366   0.081   4.613 -1.9739  1.7758 -1.3590
 8916SOL     OW38380   3.289   1.632  16.442 -0.7145  0.5084  0.2331
 8916SOL    HW138381   3.354   1.623  16.372 -0.7444  0.6591  0.1848
 8916SOL    HW238382   3.210   1.656  16.395 -0.8759 -0.4910  0.0004
 8917SOL     OW38383   1.300   3.324   2.358 -0.5362  0.2297  0.1659
 8917SOL    HW138384   1.225   3.383   2.361 -1.5564 -1.0729  0.3640
 8917SOL    HW238385   1.347   3.364   2.431 -0.9589 -0.9795  1.0915
 8918SOL     OW38386   3.711   0.260   1.982  0.0135  0.5780 -0.0923
 8918SOL    HW138387   3.682   0.169   1.991  2.9991 -0.5910 -2.0909
 8918SOL    HW238388   3.635   0.314   2.001  0.1986  1.3326 -1.4525
 8919SOL     OW38389   2.509   1.550   4.540 -0.0837  0.0129 -0.3128
 8919SOL    HW138390   2.457   1.541   4.460 -0.3474  0.7579 -0.2262
 8919SOL    HW238391   2.447   1.604   4.588 -0.6872 -0.5403 -0.4557
 8920SOL     OW38392   2.386   0.863   7.195 -0.1159 -0.3551 -0.3077
 8920SOL    HW138393   2.348   0.946   7.166 -0.5728 -0.7935 -0.9762
 8920SOL    HW238394   2.456   0.899   7.249  1.0910  0.1768 -2.2420
 8921SOL     OW38395   2.817   1.146  12.788 -0.1172 -0.3964  0.2761
 8921SOL    HW138396   2.723   1.130  12.776 -0.2386  0.2033  0.4479
 8921SOL    HW238397   2.849   1.062  12.821  1.1984 -0.0178 -0.0308
 8922SOL     OW38398   4.198   2.613   2.241  0.3854 -0.9072  0.3191
 8922SOL    HW138399   4.257   2.626   2.168 -0.6502 -2.3028 -0.7520
 8922SOL    HW238400   4.223   2.687   2.296  0.9318 -0.5767 -0.3830
 8923SOL     OW38401   3.262   0.883   9.116 -0.2291  0.0299  0.3205
 8923SOL    HW138402   3.176   0.857   9.149  0.1075 -1.8483 -0.2621
 8923SOL    HW238403   3.288   0.799   9.078  0.5578  0.9562 -1.1810
 8924SOL     OW38404   0.943   1.265   8.448  0.0003  0.4842 -0.2611
 8924SOL    HW138405   0.866   1.320   8.467 -1.6082 -1.5160 -0.9846
 8924SOL    HW238406   0.894   1.186   8.425 -1.6756  1.4856 -0.1648
 8925SOL     OW38407   0.172   2.577   4.534  0.1568 -0.5104  0.8018
 8925SOL    HW138408   0.221   2.659   4.524  1.9840 -1.5645  1.2793
 8925SOL    HW238409   0.182   2.543   4.445  0.2132  2.4841 -0.3298
 8926SOL     OW38410   1.238   2.591   7.901 -0.0847 -0.2136 -0.3839
 8926SOL    HW138411   1.266   2.661   7.959 -0.2929  0.7136 -1.3950
 8926SOL    HW238412   1.313   2.532   7.889  1.4241  1.7759 -0.6349
 8927SOL     OW38413   2.858   3.513  15.459  0.1642  0.0404  0.2217
 8927SOL    HW138414   2.789   3.528  15.395  0.0025  2.3323  0.9238
 8927SOL    HW238415   2.828   3.435  15.505  1.1419 -1.3762 -1.5382
 8928SOL     OW38416   1.581   0.997  17.202  0.1026 -0.2575 -0.1701
 8928SOL    HW138417   1.605   1.045  17.282 -0.6363 -0.7657  0.3557
 8928SOL    HW238418   1.642   0.923  17.209 -3.5753 -3.2765 -0.0262
 8929SOL     OW38419   1.728   3.905   8.264 -0.1150 -0.6647  0.0599
 8929SOL    HW138420   1.749   3.898   8.358  1.5538  0.0404 -0.2559
 8929SOL    HW238421   1.710   3.813   8.245 -0.8063 -0.8363  1.4833
 8930SOL     OW38422   3.307   1.522   9.049  0.4267 -0.5937 -0.4798
 8930SOL    HW138423   3.264   1.551   8.968  0.0586 -2.1080 -0.8202
 8930SOL    HW238424   3.292   1.428   9.053 -0.6170 -0.3812  0.6959
 8931SOL     OW38425   4.664   4.079   5.227 -0.5456 -0.0613  0.1067
 8931SOL    HW138426   4.726   4.078   5.300  0.2194 -0.3192 -0.5396
 8931SOL    HW238427   4.710   4.015   5.173 -1.5930 -1.4426  0.8575
 8932SOL     OW38428   3.495   3.979   7.719  0.3504  0.1522  0.2411
 8932SOL    HW138429   3.523   4.053   7.773 -2.6931  2.3192 -1.1820
 8932SOL    HW238430   3.526   4.009   7.633 -0.6458  0.4201 -0.0193
 8933SOL     OW38431   2.787   1.162  11.212 -0.0970 -0.2224 -0.1460
 8933SOL    HW138432   2.731   1.210  11.150  0.2481  0.4477  0.0716
 8933SOL    HW238433   2.758   1.205  11.292  0.2412 -0.0194 -0.1368
 8934SOL     OW38434   4.505   1.197   3.128 -0.1898 -0.2660  0.4501
 8934SOL    HW138435   4.444   1.125   3.146 -0.8930  0.2658  0.1984
 8934SOL    HW238436   4.575   1.154   3.080 -1.2040  1.0535 -2.2327
 8935SOL     OW38437   0.613   1.062   9.228  0.0151  0.2735  0.3163
 8935SOL    HW138438   0.649   1.147   9.205  1.2974  0.1175  1.7488
 8935SOL    HW238439   0.690   1.009   9.210 -1.4954 -0.5656 -3.7000
 8936SOL     OW38440   0.242   4.674   3.711 -0.4291 -0.3033  0.1596
 8936SOL    HW138441   0.199   4.723   3.641 -0.6778  0.6270  0.9472
 8936SOL    HW238442   0.257   4.594   3.661 -2.3904 -1.7603  1.8975
 8937SOL     OW38443   4.350   2.115   8.453  0.1414 -0.3125 -0.0597
 8937SOL    HW138444   4.425   2.149   8.503  0.5475 -0.4612 -0.5683
 8937SOL    HW238445   4.314   2.053   8.517 -0.8382  0.2277 -0.0923
 8938SOL     OW38446   3.524   2.975  10.909  0.7253  0.1076 -0.3766
 8938SOL    HW138447   3.581   2.937  10.976 -1.0585  0.7032  1.5018
 8938SOL    HW238448   3.437   2.958  10.946  1.7396 -0.1701  1.9162
 8939SOL     OW38449   2.853   1.931   7.636 -0.7101  0.3705  0.4978
 8939SOL    HW138450   2.758   1.936   7.643 -0.9096 -1.2950 -0.8411
 8939SOL    HW238451   2.873   2.011   7.588  0.6275  1.8888  3.6213
 8940SOL     OW38452   2.110   2.863  10.445  0.1697  0.2365  0.5401
 8940SOL    HW138453   2.195   2.905  10.431  1.1070 -1.2963  1.5789
 8940SOL    HW238454   2.075   2.912  10.519 -0.1244  0.6198  0.1475
 8941SOL     OW38455   3.443   0.679   0.368  0.4935 -0.3510 -0.2514
 8941SOL    HW138456   3.511   0.648   0.309  1.1412  1.1635 -0.2847
 8941SOL    HW238457   3.370   0.671   0.306  2.1264  0.0065 -2.2062
 8942SOL     OW38458   3.191   2.765   5.603  0.2508 -0.1596  0.6645
 8942SOL    HW138459   3.120   2.757   5.667 -1.7138 -1.6134 -1.7017
 8942SOL    HW238460   3.169   2.851   5.566  0.6231 -0.2809  0.1640
 8943SOL     OW38461   3.297   3.076  15.048 -0.2010 -0.0208 -0.0333
 8943SOL    HW138462   3.260   3.053  15.133  1.1628  2.2727  1.1753
 8943SOL    HW238463   3.223   3.061  14.990  0.5622  0.5003 -1.1433
 8944SOL     OW38464   2.081   1.311   6.751  0.1241 -0.5549  0.1579
 8944SOL    HW138465   2.110   1.230   6.793  2.1935 -0.8687 -1.9014
 8944SOL    HW238466   2.086   1.368   6.828  0.4755 -2.1887  1.3570
 8945SOL     OW38467   1.363   4.161   6.892  0.3864 -0.5036  0.0272
 8945SOL    HW138468   1.294   4.226   6.882  2.2850  1.6360  0.9548
 8945SOL    HW238469   1.394   4.196   6.976  2.1885 -1.2659 -0.3133
 8946SOL     OW38470   1.945   0.843   4.959  0.2674 -0.2370 -0.2517
 8946SOL    HW138471   1.864   0.798   4.935 -0.9055  0.4052  2.5029
 8946SOL    HW238472   1.903   0.888   5.032  0.1069 -0.9223  0.0807
 8947SOL     OW38473   3.538   0.686   8.658  0.6222  0.4041 -0.5071
 8947SOL    HW138474   3.574   0.613   8.607  0.6071  0.5281 -0.6974
 8947SOL    HW238475   3.557   0.666   8.749  1.6825 -0.1648 -0.8509
 8948SOL     OW38476   3.837   0.436   1.158  0.1151 -0.0035  0.1469
 8948SOL    HW138477   3.860   0.481   1.239  0.7605  1.2754 -0.7364
 8948SOL    HW238478   3.745   0.418   1.177 -1.0090  3.2792 -2.0185
 8949SOL     OW38479   0.752   4.330   4.842  0.9582  0.4385 -0.0938
 8949SOL    HW138480   0.709   4.415   4.828  0.1716 -0.0927 -0.9120
 8949SOL    HW238481   0.789   4.311   4.756  1.5660 -0.0853  0.2857
 8950SOL     OW38482   3.402   0.015   6.863 -0.3075 -0.2683 -0.4915
 8950SOL    HW138483   3.479   0.020   6.919 -0.8457  2.3977 -0.0072
 8950SOL    HW238484   3.328   0.011   6.924  1.4157  1.8249  1.7018
 8951SOL     OW38485   2.795   3.022   3.115 -0.6253  0.2961 -0.2827
 8951SOL    HW138486   2.737   3.086   3.074 -0.1026  1.2106  0.3932
 8951SOL    HW238487   2.740   2.974   3.177 -0.6308  1.4379  0.5982
 8952SOL     OW38488   3.714   1.806   3.987  0.5879 -0.3753 -0.4450
 8952SOL    HW138489   3.684   1.727   3.944 -1.6712  0.2390  0.0110
 8952SOL    HW238490   3.654   1.875   3.959  3.0492  1.9686  0.0597
 8953SOL     OW38491   1.837   0.170   1.063 -0.0226  0.3303 -0.4009
 8953SOL    HW138492   1.787   0.184   0.983 -2.3194 -4.4965  0.1468
 8953SOL    HW238493   1.870   0.082   1.045  0.0961  0.8028 -2.4233
 8954SOL     OW38494   4.391   2.351   6.153 -0.1568 -0.3990  0.5139
 8954SOL    HW138495   4.414   2.437   6.119 -0.4161 -0.7020 -0.4352
 8954SOL    HW238496   4.335   2.372   6.227  1.3239 -2.1895  2.1369
 8955SOL     OW38497   3.891   4.208   8.186  0.4101  0.1790 -0.2794
 8955SOL    HW138498   3.847   4.128   8.217  0.9609  0.7497  2.0216
 8955SOL    HW238499   3.900   4.250   8.271  0.0943 -0.4486  0.0697
 8956SOL     OW38500   2.463   0.813  15.062 -0.1611  0.2914  0.0432
 8956SOL    HW138501   2.556   0.829  15.079 -0.2056  1.9721 -1.2628
 8956SOL    HW238502   2.454   0.729  15.108  1.6138 -0.4526 -0.9389
 8957SOL     OW38503   4.654   4.000  16.033  0.2580 -0.3818 -0.3553
 8957SOL    HW138504   4.682   3.975  16.121 -2.7884  1.3625  1.0810
 8957SOL    HW238505   4.731   4.042  15.994 -0.2425 -0.8279 -1.8103
 8958SOL     OW38506   4.563   1.919  12.463  0.0125 -0.2957 -0.2453
 8958SOL    HW138507   4.507   1.974  12.517  0.5828  0.3155 -0.2724
 8958SOL    HW238508   4.564   1.842  12.520 -0.5515  0.5458  0.9200
 8959SOL     OW38509   4.051   2.261   9.713  0.0262 -0.3707 -0.0448
 8959SOL    HW138510   4.123   2.266   9.650 -0.2994  2.7053 -0.1935
 8959SOL    HW238511   4.097   2.216   9.783 -1.8287 -1.2999  0.5723
 8960SOL     OW38512   0.442   3.659   8.284  0.0444 -0.2827  0.5188
 8960SOL    HW138513   0.433   3.740   8.234 -2.2710 -0.1431  1.1763
 8960SOL    HW238514   0.364   3.663   8.338  0.0282  3.1052  0.2299
 8961SOL     OW38515   1.536   3.731   3.310  0.1586 -0.2616  0.3910
 8961SOL    HW138516   1.613   3.776   3.276  1.5307 -1.5746  1.7670
 8961SOL    HW238517   1.466   3.797   3.312  1.3413  0.9474  2.3873
 8962SOL     OW38518   1.375   4.401   5.895  0.4445  0.6306 -0.0528
 8962SOL    HW138519   1.357   4.487   5.933 -0.0331  0.8507 -0.7789
 8962SOL    HW238520   1.369   4.424   5.802  0.9733 -1.7716 -0.6811
 8963SOL     OW38521   4.414   2.725  13.899  0.4920  0.4293 -0.1341
 8963SOL    HW138522   4.463   2.664  13.953  1.1921  0.7830 -0.3734
 8963SOL    HW238523   4.468   2.804  13.894 -0.3223  0.8978 -1.5584
 8964SOL     OW38524   0.350   2.353   7.967  0.1155  0.0130  0.6574
 8964SOL    HW138525   0.271   2.307   7.995  0.2836  0.6229  2.1213
 8964SOL    HW238526   0.372   2.384   8.055  0.3080  1.7305  0.0021
 8965SOL     OW38527   4.518   1.154   0.833 -0.2608 -0.6595 -0.1731
 8965SOL    HW138528   4.512   1.059   0.844  0.2610 -0.9048 -1.9690
 8965SOL    HW238529   4.442   1.174   0.778 -0.8608  0.9909  1.2567
 8966SOL     OW38530   1.484   0.853   7.850  0.1296  0.2942  0.7305
 8966SOL    HW138531   1.426   0.807   7.909  2.5882 -1.0183  2.1126
 8966SOL    HW238532   1.509   0.922   7.911  1.8065  1.1118 -0.8616
 8967SOL     OW38533   1.271   2.036   7.566  0.1803 -0.3202 -0.4909
 8967SOL    HW138534   1.252   1.944   7.548 -2.3937  0.0290  0.4405
 8967SOL    HW238535   1.194   2.054   7.620  0.8741 -0.2775  0.4735
 8968SOL     OW38536   1.719   1.873   7.620 -0.2545 -0.1515 -0.5175
 8968SOL    HW138537   1.658   1.833   7.559 -2.6034 -0.7531  2.2268
 8968SOL    HW238538   1.673   1.946   7.662  2.0636  1.5460 -0.9148
 8969SOL     OW38539   3.707   1.001  17.445 -0.3613 -0.3246 -0.1084
 8969SOL    HW138540   3.796   1.007  17.410  0.4404  0.8150  2.1119
 8969SOL    HW238541   3.711   0.936  17.515 -1.4422 -2.5808 -2.1593
 8970SOL     OW38542   2.102   2.089   8.755 -0.4118  1.3096 -0.5180
 8970SOL    HW138543   2.183   2.131   8.784 -1.2727  2.2675  0.4950
 8970SOL    HW238544   2.074   2.047   8.837  1.3273  1.4873  0.1776
 8971SOL     OW38545   0.805   3.340   2.735  0.3050  0.0561 -0.3322
 8971SOL    HW138546   0.787   3.254   2.697 -0.1073 -0.2851  0.6441
 8971SOL    HW238547   0.898   3.322   2.749  1.0836  2.0362 -2.8715
 8972SOL     OW38548   1.629   4.184  14.068 -0.1546  0.9683 -0.0532
 8972SOL    HW138549   1.567   4.145  14.130 -1.5815 -0.6888 -2.5321
 8972SOL    HW238550   1.681   4.244  14.122  1.2570 -1.5640  1.3867
 8973SOL     OW38551   2.487   0.197   4.476  0.0768 -0.3355 -0.2873
 8973SOL    HW138552   2.457   0.277   4.519  0.0482  0.6776 -2.2158
 8973SOL    HW238553   2.542   0.154   4.543  2.4828  0.7511 -1.5795
 8974SOL     OW38554   1.980   0.829  11.667  0.2554 -0.2490 -0.0894
 8974SOL    HW138555   1.992   0.735  11.676  0.1139 -0.1828  0.8070
 8974SOL    HW238556   1.932   0.844  11.749  0.2968 -3.1357  0.4614
 8975SOL     OW38557   4.460   3.937   5.763 -0.1051 -0.4667  0.1827
 8975SOL    HW138558   4.426   3.994   5.831 -2.0336 -0.5979 -0.6805
 8975SOL    HW238559   4.413   3.855   5.778  1.6918 -1.1885  1.8083
 8976SOL     OW38560   3.576   0.694   7.121 -0.0162  0.5584  0.9903
 8976SOL    HW138561   3.646   0.748   7.085 -0.3976 -0.2842 -1.0301
 8976SOL    HW238562   3.552   0.636   7.048 -2.0060 -0.7051  2.6351
 8977SOL     OW38563   0.078   2.354   8.482  0.3690  1.1031  0.1391
 8977SOL    HW138564   0.076   2.448   8.501  0.9975  1.3484 -0.9888
 8977SOL    HW238565   0.151   2.324   8.536 -1.0038 -0.3328  1.1971
 8978SOL     OW38566   2.912   0.454   8.459 -0.6151 -0.1615  0.8274
 8978SOL    HW138567   2.818   0.475   8.453  0.4299  3.6239 -2.0823
 8978SOL    HW238568   2.952   0.540   8.459  0.6147 -0.7371 -2.7154
 8979SOL     OW38569   0.945   4.353   7.184  0.3183 -0.0083 -0.2665
 8979SOL    HW138570   0.954   4.280   7.122 -0.6983 -1.2327  1.0235
 8979SOL    HW238571   0.858   4.384   7.161  0.7057  0.5891 -0.9212
 8980SOL     OW38572   1.451   4.323   2.989 -0.4084 -0.2338 -0.1429
 8980SOL    HW138573   1.394   4.388   3.030 -1.4136 -1.2009 -0.0332
 8980SOL    HW238574   1.391   4.250   2.976 -1.1991  0.4235 -0.2224
 8981SOL     OW38575   1.521   0.838   7.257 -0.1087 -0.0682  0.2668
 8981SOL    HW138576   1.429   0.825   7.279  0.4836 -6.7388 -1.3757
 8981SOL    HW238577   1.570   0.838   7.339  1.6821 -0.3716 -0.7971
 8982SOL     OW38578   2.588   4.107   1.658 -0.4213 -0.2332 -0.4623
 8982SOL    HW138579   2.627   4.194   1.652 -0.5931 -0.1172  0.0656
 8982SOL    HW238580   2.668   4.068   1.694  1.0104  1.7352 -1.5501
 8983SOL     OW38581   3.484   2.715   4.295  0.0798  0.4281  0.2564
 8983SOL    HW138582   3.423   2.783   4.267  0.0002  0.4739  0.5506
 8983SOL    HW238583   3.564   2.767   4.301  0.0812  0.6120 -1.3097
 8984SOL     OW38584   0.800   3.018   7.337  0.1808 -0.1254  0.0936
 8984SOL    HW138585   0.750   2.937   7.323  1.3058 -1.1688  2.0591
 8984SOL    HW238586   0.860   2.986   7.404  0.3295 -0.5665 -0.2432
 8985SOL     OW38587   3.552   0.203   2.548 -0.1372  0.4900  0.2723
 8985SOL    HW138588   3.633   0.175   2.505  0.3935 -1.9766  2.8368
 8985SOL    HW238589   3.556   0.149   2.627  2.2171 -0.4293 -0.4663
 8986SOL     OW38590   2.318   4.023   3.472  0.1229 -0.4333  0.3632
 8986SOL    HW138591   2.335   4.090   3.538  1.6498 -1.0790  0.6280
 8986SOL    HW238592   2.355   4.067   3.395  0.3174 -1.3081 -0.0463
 8987SOL     OW38593   1.005   3.684   3.859 -0.3365 -0.0205 -0.3450
 8987SOL    HW138594   1.058   3.763   3.868 -1.5269  0.7260  0.1962
 8987SOL    HW238595   0.954   3.674   3.939 -0.2153  0.3737 -0.2195
 8988SOL     OW38596   2.432   1.792   6.070  0.2078 -0.0963 -0.4251
 8988SOL    HW138597   2.364   1.795   6.003 -1.5347 -0.4597  1.3195
 8988SOL    HW238598   2.500   1.747   6.019  1.5812  2.1397 -0.5665
 8989SOL     OW38599   4.450   2.538  16.355 -0.0285 -0.0266  0.3794
 8989SOL    HW138600   4.462   2.444  16.360 -0.8871 -0.2129 -1.1022
 8989SOL    HW238601   4.541   2.568  16.351  0.0387 -0.2319  0.3871
 8990SOL     OW38602   3.674   4.722  17.735  0.1518 -0.0332 -0.0666
 8990SOL    HW138603   3.718   4.672   0.060 -0.1775 -1.3286 -0.7990
 8990SOL    HW238604   3.716   0.068   0.017 -0.8146 -0.0022  1.4339
 8991SOL     OW38605   2.924   0.594   6.941 -0.5646 -0.0402 -0.0230
 8991SOL    HW138606   2.865   0.647   6.886 -0.9936  0.1445  0.6147
 8991SOL    HW238607   2.861   0.527   6.965  2.8653 -3.0948  0.4647
 8992SOL     OW38608   0.673   1.265   5.068  0.4433 -0.0435  0.9173
 8992SOL    HW138609   0.710   1.275   5.156 -0.4591 -0.9547  1.4070
 8992SOL    HW238610   0.592   1.214   5.075  0.1659  0.3596  0.6096
 8993SOL     OW38611   3.493   3.930   5.264 -0.8372 -0.1128 -0.7951
 8993SOL    HW138612   3.461   3.880   5.189 -0.1786  0.0621 -1.1939
 8993SOL    HW238613   3.410   3.929   5.312  1.2436 -0.4061  2.7966
 8994SOL     OW38614   3.492   1.799  13.867 -0.5009 -0.1956  0.3591
 8994SOL    HW138615   3.557   1.730  13.855  0.0146  0.3965 -0.3097
 8994SOL    HW238616   3.477   1.836  13.780 -0.7410 -2.3136 -0.4800
 8995SOL     OW38617   1.982   0.520   1.655  0.2255 -0.5307 -0.4049
 8995SOL    HW138618   2.046   0.553   1.718 -0.8488 -1.3421  1.1062
 8995SOL    HW238619   2.040   0.448   1.630 -0.2641 -0.8831 -0.4973
 8996SOL     OW38620   0.616   4.534  11.707  0.3947 -0.1727 -0.5616
 8996SOL    HW138621   0.581   4.603  11.763 -1.7488 -0.8043 -1.1039
 8996SOL    HW238622   0.673   4.575  11.642 -1.8153  1.8043 -1.2552
 8997SOL     OW38623   4.316   2.873  17.271 -0.1190 -0.2230 -0.2187
 8997SOL    HW138624   4.288   2.861  17.361 -0.1838  2.4430  0.1036
 8997SOL    HW238625   4.243   2.928  17.242  1.0508  1.7720  0.6607
 8998SOL     OW38626   1.517   3.616   2.348  0.0385  0.4937 -0.3429
 8998SOL    HW138627   1.520   3.525   2.379 -0.4040  0.7197  0.3705
 8998SOL    HW238628   1.603   3.639   2.384 -0.8609  0.0053  2.1429
 8999SOL     OW38629   3.292   2.684   6.303 -0.3032 -0.2117 -0.7364
 8999SOL    HW138630   3.235   2.608   6.296 -1.0557  0.3734 -0.9780
 8999SOL    HW238631   3.233   2.755   6.279 -2.0912 -1.1325  0.9547
 9000SOL     OW38632   2.464   1.251   2.560 -0.2309  0.1672 -0.7082
 9000SOL    HW138633   2.489   1.324   2.504  1.8025  0.7845  0.9765
 9000SOL    HW238634   2.424   1.193   2.496 -1.0495 -0.1513  0.0927
 9001SOL     OW38635   1.064   1.015   7.816 -0.1863  0.0926 -0.5776
 9001SOL    HW138636   0.982   0.988   7.856 -0.3198  2.0969  0.5194
 9001SOL    HW238637   1.105   0.929   7.803  0.1439 -0.2666  2.9001
 9002SOL     OW38638   0.826   2.359   1.224  0.3777  0.2216  0.3470
 9002SOL    HW138639   0.783   2.299   1.164 -0.3534  1.2462 -0.1635
 9002SOL    HW238640   0.767   2.435   1.222 -0.8349 -0.7421 -0.4998
 9003SOL     OW38641   0.524   1.937  11.452  0.2897 -0.7162  0.0136
 9003SOL    HW138642   0.581   1.863  11.431  0.6326 -0.0712 -1.3455
 9003SOL    HW238643   0.551   1.944  11.544  0.0700  1.6069 -0.0940
 9004SOL     OW38644   2.693   4.157   2.143  0.3838  0.4695 -0.0994
 9004SOL    HW138645   2.605   4.127   2.121  1.3240 -0.5114 -2.5270
 9004SOL    HW238646   2.678   4.189   2.232 -0.0952 -2.5348  0.9241
 9005SOL     OW38647   4.413   0.813   1.837  0.4984 -0.2792  0.2422
 9005SOL    HW138648   4.386   0.905   1.836 -0.9463 -0.6979  0.1384
 9005SOL    HW238649   4.345   0.777   1.895 -0.0436 -0.3969 -0.4581
 9006SOL     OW38650   1.774   3.505   5.705 -0.5126  0.1640  0.3496
 9006SOL    HW138651   1.841   3.564   5.740 -0.0458 -0.2096  0.0865
 9006SOL    HW238652   1.801   3.426   5.752 -2.2359 -0.1693  0.7510
 9007SOL     OW38653   1.354   0.206   6.267  0.3398  0.3176  0.3723
 9007SOL    HW138654   1.410   0.190   6.343 -0.7089  3.4356  1.8210
 9007SOL    HW238655   1.383   0.135   6.210  1.4623 -0.0039  1.3494
 9008SOL     OW38656   2.767   1.003   2.440  0.2384 -0.2569 -0.4496
 9008SOL    HW138657   2.773   1.057   2.519  0.6319 -0.6668 -0.1971
 9008SOL    HW238658   2.706   0.934   2.465 -0.1493  0.2959  0.1157
 9009SOL     OW38659   0.883   3.419   4.303 -0.1614 -0.0987  0.2006
 9009SOL    HW138660   0.949   3.435   4.371  0.1186  1.0488 -0.3454
 9009SOL    HW238661   0.810   3.409   4.364 -0.7639 -2.2297 -0.8670
 9010SOL     OW38662   2.650   0.297   2.200  0.5100 -0.3531  0.2989
 9010SOL    HW138663   2.565   0.253   2.193  0.6797 -0.3070 -2.0760
 9010SOL    HW238664   2.677   0.300   2.109  0.5521  0.6423  0.3418
 9011SOL     OW38665   4.206   4.149   8.113  0.2988 -0.0439 -0.1530
 9011SOL    HW138666   4.261   4.194   8.049  0.0232  2.1486  1.1548
 9011SOL    HW238667   4.121   4.148   8.070 -0.5525  1.1590  1.5494
 9012SOL     OW38668   4.181   0.809  10.202 -0.2217 -0.3281  0.1253
 9012SOL    HW138669   4.135   0.838  10.281 -2.0702  0.5060 -1.2648
 9012SOL    HW238670   4.222   0.726  10.227 -0.0784 -0.3517 -0.1853
 9013SOL     OW38671   2.965   3.009   3.848 -0.3751 -0.2289 -0.0637
 9013SOL    HW138672   2.936   2.980   3.762  0.2261 -0.4908 -0.1773
 9013SOL    HW238673   3.033   2.951   3.882 -0.5563 -0.6513 -0.4287
 9014SOL     OW38674   3.994   3.343   1.402 -0.2105 -0.0756 -0.3534
 9014SOL    HW138675   4.012   3.254   1.373  1.6029  0.0850  0.2492
 9014SOL    HW238676   4.013   3.399   1.326 -0.9719  1.5804  0.6684
 9015SOL     OW38677   0.525   4.415   1.307 -0.1515 -0.5192  0.6766
 9015SOL    HW138678   0.617   4.423   1.331 -0.1465 -0.0988  0.5199
 9015SOL    HW238679   0.477   4.412   1.389 -1.5940 -0.6061 -0.1695
 9016SOL     OW38680   0.716   3.695   3.145  0.2646 -0.3812 -0.4115
 9016SOL    HW138681   0.635   3.691   3.094 -0.9146 -1.5570  1.5936
 9016SOL    HW238682   0.765   3.630   3.093 -1.1885 -0.3116 -1.8519
 9017SOL     OW38683   2.967   1.147   6.118 -0.3559 -0.0740 -0.1407
 9017SOL    HW138684   3.006   1.129   6.203  0.7033  1.5277 -0.2676
 9017SOL    HW238685   3.034   1.207   6.084  0.5061 -1.3120 -0.6093
 9018SOL     OW38686   3.017   1.063   8.979  0.0916 -0.2579  0.6541
 9018SOL    HW138687   2.989   1.007   8.907  3.4463 -0.8556 -0.2286
 9018SOL    HW238688   3.010   1.004   9.055  1.7078 -0.0232  0.9880
 9019SOL     OW38689   4.366   1.935   3.099  0.1655  0.0799 -0.2846
 9019SOL    HW138690   4.446   1.988   3.101  1.3884 -1.7567 -0.5353
 9019SOL    HW238691   4.404   1.875   3.035 -0.8093  0.3501 -1.1164
 9020SOL     OW38692   1.883   1.093   4.273  0.1842  0.1223 -0.9026
 9020SOL    HW138693   1.838   1.057   4.197  0.5361  0.8004 -1.4377
 9020SOL    HW238694   1.977   1.092   4.254  0.5943  1.5932  1.0167
 9021SOL     OW38695   3.789   2.711   8.796  0.1838 -0.0354 -0.0617
 9021SOL    HW138696   3.774   2.624   8.834 -2.2292  0.2382 -0.4158
 9021SOL    HW238697   3.874   2.694   8.757  0.2302 -0.5675  0.2612
 9022SOL     OW38698   0.567   1.246   2.687 -0.0935 -0.0154 -0.4614
 9022SOL    HW138699   0.490   1.212   2.641  1.2209 -2.6960 -0.7098
 9022SOL    HW238700   0.620   1.276   2.613  0.4883 -1.5065 -0.6605
 9023SOL     OW38701   0.299   0.533   4.629  0.1481 -0.4013 -0.6891
 9023SOL    HW138702   0.248   0.461   4.668  1.3866 -0.8173  0.1483
 9023SOL    HW238703   0.376   0.494   4.588  0.4849 -0.7318  0.2654
 9024SOL     OW38704   1.989   0.755   2.131 -0.1984 -0.4604  0.3137
 9024SOL    HW138705   1.898   0.765   2.101 -0.1379  2.1252  0.9450
 9024SOL    HW238706   2.026   0.843   2.119 -1.2887  0.0410  0.5977
 9025SOL     OW38707   2.756   2.499   3.399 -0.1550 -0.5104 -0.0219
 9025SOL    HW138708   2.811   2.421   3.389  1.1398  0.2820  0.9152
 9025SOL    HW238709   2.747   2.538   3.312 -0.2821 -1.1138 -0.2815
 9026SOL     OW38710   4.418   1.995   8.213 -0.5467 -0.5227 -0.1245
 9026SOL    HW138711   4.396   2.051   8.287 -0.5979 -0.6331 -0.0551
 9026SOL    HW238712   4.364   2.040   8.148 -0.5116 -0.0727  0.1572
 9027SOL     OW38713   1.337   2.486  14.483  0.5508 -0.2823  0.1108
 9027SOL    HW138714   1.279   2.450  14.416 -0.7135  3.0579 -0.6118
 9027SOL    HW238715   1.283   2.461  14.558 -1.5272 -0.4825 -1.4521
 9028SOL     OW38716   2.359   0.445  12.944  0.3847  0.2116  0.1693
 9028SOL    HW138717   2.367   0.356  12.977 -1.0712  0.2425  0.6026
 9028SOL    HW238718   2.273   0.441  12.904  0.2853 -2.1517  0.6055
 9029SOL     OW38719   1.860   2.656  10.628  0.0333 -0.1247 -0.1592
 9029SOL    HW138720   1.895   2.623  10.711  0.6721  0.8616 -0.0351
 9029SOL    HW238721   1.888   2.585  10.571  0.6233 -0.8396  0.9980
 9030SOL     OW38722   4.472   0.090   2.655 -0.0597  0.2369 -0.1438
 9030SOL    HW138723   4.537   0.069   2.722 -1.8994 -0.3962  1.4335
 9030SOL    HW238724   4.514   0.076   2.570  0.2541 -0.9373  0.2077
 9031SOL     OW38725   1.654   1.550   6.754  0.5457  0.6012 -0.8666
 9031SOL    HW138726   1.564   1.546   6.720  0.7270 -0.8358 -1.1788
 9031SOL    HW238727   1.682   1.461   6.731  0.1154  0.4540 -0.8264
 9032SOL     OW38728   1.860   2.701   4.024  0.4605  0.4540  0.3823
 9032SOL    HW138729   1.853   2.682   3.931  0.5373 -0.8812  0.6490
 9032SOL    HW238730   1.874   2.613   4.060 -1.0147  0.4260  0.8828
 9033SOL     OW38731   2.161   0.052   0.460  0.3773  0.4424  0.7981
 9033SOL    HW138732   2.207   0.009   0.532 -2.4672 -0.2514  2.1738
 9033SOL    HW238733   2.131   0.127   0.512 -0.6693 -0.2232  1.1427
 9034SOL     OW38734   2.254   1.823  10.592  0.3572 -0.6774 -0.8926
 9034SOL    HW138735   2.220   1.866  10.513 -1.7318  0.4783  0.6453
 9034SOL    HW238736   2.176   1.795  10.640  1.4836  0.7802  1.7548
 9035SOL     OW38737   4.659   3.945   8.859  0.3673 -0.0143  0.0964
 9035SOL    HW138738   4.596   4.014   8.839 -1.4539 -1.7698 -0.3198
 9035SOL    HW238739   4.604   3.868   8.840 -0.3642  0.5641 -0.1336
 9036SOL     OW38740   4.113   1.557   1.781 -0.3601  0.4103  0.5443
 9036SOL    HW138741   4.021   1.530   1.774 -0.2288 -0.0043  0.4413
 9036SOL    HW238742   4.147   1.504   1.709 -0.1569  0.3376  0.6944
 9037SOL     OW38743   4.513   0.316   1.071 -0.0630  0.7362  0.4637
 9037SOL    HW138744   4.421   0.326   1.047  0.4892  1.9624 -1.1498
 9037SOL    HW238745   4.512   0.226   1.105  2.0304 -0.2790 -2.1591
 9038SOL     OW38746   1.040   4.264  14.992 -0.0112 -0.5894  0.5641
 9038SOL    HW138747   1.081   4.299  15.071  1.9626 -0.0921 -0.6776
 9038SOL    HW238748   1.050   4.172  15.018 -1.1009 -0.3696  1.7980
 9039SOL     OW38749   0.650   3.651  13.401  0.1151 -0.4737  0.0982
 9039SOL    HW138750   0.674   3.690  13.485  2.3853 -0.1846 -0.7104
 9039SOL    HW238751   0.586   3.718  13.378  2.0112  1.4220  0.4427
 9040SOL     OW38752   4.015   2.755   6.049  0.0095 -0.1858 -0.2496
 9040SOL    HW138753   4.057   2.813   6.112 -0.7382  1.0272 -0.8606
 9040SOL    HW238754   3.933   2.731   6.092  0.9616  2.3047  2.9173
 9041SOL     OW38755   4.055   1.749   1.228 -0.1133  0.6069  0.6907
 9041SOL    HW138756   3.992   1.708   1.288 -1.0279  3.4811  1.7491
 9041SOL    HW238757   4.101   1.673   1.195  0.7047  0.7857  1.4216
 9042SOL     OW38758   3.249   1.556   9.326 -0.1737 -0.3083  0.0726
 9042SOL    HW138759   3.221   1.625   9.387  0.8452 -0.5370  0.8072
 9042SOL    HW238760   3.245   1.592   9.237  1.2414 -1.2452 -0.3609
 9043SOL     OW38761   1.540   0.218  12.246  0.1384  0.0210  0.1547
 9043SOL    HW138762   1.452   0.237  12.277 -0.0275  0.4020 -0.5639
 9043SOL    HW238763   1.537   0.231  12.152 -0.1680  1.5636  0.3830
 9044SOL     OW38764   1.037   1.452   7.142 -0.4157  0.0928  0.0049
 9044SOL    HW138765   1.114   1.458   7.199 -0.5637 -0.4285  0.2619
 9044SOL    HW238766   1.030   1.358   7.124 -0.3417 -0.2121  1.5799
 9045SOL     OW38767   1.358   2.752  14.392 -0.0623  0.1166 -0.3631
 9045SOL    HW138768   1.322   2.766  14.304 -0.5558  0.8962 -0.0349
 9045SOL    HW238769   1.339   2.659  14.409 -3.9342  1.3996  2.2459
 9046SOL     OW38770   2.211   1.946   9.417  0.5899  0.5782 -0.3588
 9046SOL    HW138771   2.242   1.926   9.505 -1.2519  0.0423  0.1731
 9046SOL    HW238772   2.160   2.026   9.430 -0.7591 -0.6415  1.8243
 9047SOL     OW38773   3.066   1.893   7.392 -0.1804  0.0289  0.0671
 9047SOL    HW138774   3.083   1.965   7.453 -1.2377 -0.6712  1.2011
 9047SOL    HW238775   3.153   1.864   7.366 -0.2551 -1.4475  1.4549
 9048SOL     OW38776   4.326   1.614   4.871  0.3257  0.9028  0.1782
 9048SOL    HW138777   4.352   1.668   4.796 -0.6840  0.4312 -0.5248
 9048SOL    HW238778   4.315   1.526   4.836  0.6952  0.3872  1.3758
 9049SOL     OW38779   0.845   3.657  14.386  0.4304 -0.7387 -0.0984
 9049SOL    HW138780   0.819   3.722  14.452 -0.1142  1.2558 -2.2999
 9049SOL    HW238781   0.907   3.715  14.342 -0.6926  0.2680 -0.3521
 9050SOL     OW38782   4.408   2.554  14.944 -0.0306  0.5514 -0.0218
 9050SOL    HW138783   4.338   2.575  14.881 -1.2910 -1.9035  0.5912
 9050SOL    HW238784   4.476   2.614  14.911  1.5186  0.3935  2.8612
 9051SOL     OW38785   1.945   2.374   8.731 -0.1793 -0.5257 -0.2912
 9051SOL    HW138786   2.038   2.372   8.709 -0.2112  0.5172 -0.5418
 9051SOL    HW238787   1.945   2.405   8.822 -0.7095  1.3432 -0.9287
 9052SOL     OW38788   4.359   4.342  17.257 -0.5720 -0.0679 -0.1782
 9052SOL    HW138789   4.279   4.368  17.211 -0.2761  1.0316 -0.0769
 9052SOL    HW238790   4.418   4.406  17.216  1.1207 -1.1828  0.5105
 9053SOL     OW38791   1.147   2.194  10.520  0.1920 -0.3579 -0.1778
 9053SOL    HW138792   1.054   2.218  10.515  0.5407  1.2049  0.6768
 9053SOL    HW238793   1.186   2.262  10.466 -0.4474 -0.5530 -0.8867
 9054SOL     OW38794   2.176   4.487   4.725  0.1119  0.3255 -0.6461
 9054SOL    HW138795   2.241   4.426   4.690 -0.5594  0.1961 -1.6850
 9054SOL    HW238796   2.209   4.571   4.691 -1.5407  1.3222  0.1984
 9055SOL     OW38797   1.534   2.734   7.757  0.3915 -0.3341 -0.0016
 9055SOL    HW138798   1.557   2.749   7.848 -0.9777  0.5899  0.2009
 9055SOL    HW238799   1.478   2.657   7.762 -0.1041 -0.0253 -0.6761
 9056SOL     OW38800   3.332   1.578   3.825  0.1685  0.3982  0.9144
 9056SOL    HW138801   3.299   1.653   3.775 -1.1322 -0.6893  0.1517
 9056SOL    HW238802   3.299   1.604   3.911 -1.0345 -1.3138  0.9695
 9057SOL     OW38803   4.533   1.938  17.282 -0.1232 -0.2529  0.1104
 9057SOL    HW138804   4.471   1.883  17.234 -0.6877 -0.3670  0.9532
 9057SOL    HW238805   4.619   1.905  17.257  0.9323  1.2647  1.6730
 9058SOL     OW38806   0.935   4.631  11.408  0.1297  0.5691  0.2027
 9058SOL    HW138807   0.989   4.680  11.346  1.2614  1.5544  1.9679
 9058SOL    HW238808   1.003   4.599  11.467  1.2596  1.1431 -0.8118
 9059SOL     OW38809   0.109   2.975   8.012 -1.0946  0.2458 -0.1738
 9059SOL    HW138810   0.028   2.929   7.991 -1.3491  1.4587 -1.8662
 9059SOL    HW238811   0.077   3.043   8.071  0.7520 -1.0941  2.3649
 9060SOL     OW38812   4.665   2.541   2.133  0.1194 -0.2571 -0.2059
 9060SOL    HW138813   4.671   2.446   2.133  1.9357 -0.1566  0.5045
 9060SOL    HW238814   0.014   2.567   2.167  0.4350 -0.4645 -0.8392
 9061SOL     OW38815   0.016   3.833   0.058 -0.1811  0.0427  0.0764
 9061SOL    HW138816   4.735   3.905   0.118 -0.8050 -1.0801  1.2330
 9061SOL    HW238817   0.096   3.790   0.088 -0.8366 -3.1338 -2.7148
 9062SOL     OW38818   3.324   0.418   2.508 -0.5808  0.0154 -0.0871
 9062SOL    HW138819   3.387   0.347   2.516  0.1014  0.5430 -0.7051
 9062SOL    HW238820   3.370   0.495   2.543  0.2511 -1.1624  1.3849
 9063SOL     OW38821   3.403   4.092   4.204 -1.0660  0.0871  0.0008
 9063SOL    HW138822   3.444   4.179   4.198 -2.2392  0.7656  1.6015
 9063SOL    HW238823   3.424   4.078   4.297  0.0094 -2.3983 -0.6297
 9064SOL     OW38824   4.734   4.724   3.936  0.1981 -0.0144 -0.5483
 9064SOL    HW138825   4.644   4.690   3.939  1.4280 -3.1012  1.2557
 9064SOL    HW238826   0.037   4.651   3.888 -0.5466  0.7768 -2.3530
 9065SOL     OW38827   0.559   0.344   8.526 -0.1620 -0.3933  0.5330
 9065SOL    HW138828   0.625   0.394   8.574 -0.6816 -1.0083  1.8763
 9065SOL    HW238829   0.607   0.261   8.514 -1.2408 -1.0917  1.1145
 9066SOL     OW38830   2.119   3.614   3.498 -0.2718  0.6805  0.3298
 9066SOL    HW138831   2.145   3.523   3.481 -1.8506 -0.2735  2.9733
 9066SOL    HW238832   2.044   3.595   3.555  0.0280 -2.0138 -0.1737
 9067SOL     OW38833   3.063   1.942   7.821  0.2065 -0.0619  0.3309
 9067SOL    HW138834   3.122   1.875   7.785  2.5459  0.9859  2.1906
 9067SOL    HW238835   3.004   1.949   7.747 -3.0466  2.1766  3.1808
 9068SOL     OW38836   1.992   4.051   5.560 -0.3203 -0.1081  0.2576
 9068SOL    HW138837   2.045   3.997   5.502 -1.6420 -0.1455 -0.9154
 9068SOL    HW238838   1.989   4.002   5.642 -0.3749  0.3707  0.5421
 9069SOL     OW38839   4.637   4.426   5.328  0.3982 -0.1574  0.1221
 9069SOL    HW138840   4.582   4.348   5.335  0.7395 -0.5379 -1.6675
 9069SOL    HW238841   4.707   4.379   5.373  1.1945  0.0300 -0.9349
 9070SOL     OW38842   1.155   3.107   2.508 -0.1634  0.3451  0.3612
 9070SOL    HW138843   1.115   3.142   2.428  0.9422  1.9064  0.4936
 9070SOL    HW238844   1.249   3.123   2.500 -0.3044  1.2353  0.5934
 9071SOL     OW38845   1.737   0.216  10.456 -0.2971  0.2842 -0.1106
 9071SOL    HW138846   1.794   0.283  10.491 -1.0607  0.4608  0.8025
 9071SOL    HW238847   1.656   0.235  10.503  0.0726  2.8754 -0.5627
 9072SOL     OW38848   0.864   2.038   4.574 -0.1028 -0.6379 -0.6247
 9072SOL    HW138849   0.878   2.029   4.480 -0.6310 -1.3097 -0.6419
 9072SOL    HW238850   0.918   2.115   4.589 -1.1682  0.7608 -4.1368
 9073SOL     OW38851   0.728   4.724   7.719  0.1190  0.1709 -0.3871
 9073SOL    HW138852   0.726   4.673   7.638 -0.2551 -2.3147  1.1955
 9073SOL    HW238853   0.817   0.022   7.708  0.8627 -1.3063  1.0735
 9074SOL     OW38854   3.294   2.609   1.290  0.1885  0.1324 -0.0239
 9074SOL    HW138855   3.346   2.665   1.347  0.0343 -0.1302  0.3821
 9074SOL    HW238856   3.341   2.613   1.207 -0.0381  0.6238 -0.1273
 9075SOL     OW38857   2.381   2.647   6.593 -0.2362 -0.3202 -0.4094
 9075SOL    HW138858   2.391   2.558   6.629 -0.0183 -0.5504 -1.0421
 9075SOL    HW238859   2.448   2.683   6.652 -2.3543  0.0040  1.8056
 9076SOL     OW38860   2.063   3.052  11.801 -0.3907 -0.6617  0.3098
 9076SOL    HW138861   2.040   3.042  11.893 -0.6879 -0.8618  0.2136
 9076SOL    HW238862   2.101   3.139  11.812 -1.5814 -0.3414  1.9162
 9077SOL     OW38863   2.289   0.172   1.248  0.2156  0.1957  0.2647
 9077SOL    HW138864   2.250   0.254   1.277 -1.2718 -0.1525 -0.7326
 9077SOL    HW238865   2.353   0.178   1.319  1.0163 -2.6189 -0.2218
 9078SOL     OW38866   2.789   4.364   5.881 -0.2379 -0.1671 -0.3933
 9078SOL    HW138867   2.786   4.309   5.803 -1.3186 -0.6517 -0.0139
 9078SOL    HW238868   2.695   4.386   5.879 -0.2325 -0.0329  0.8448
 9079SOL     OW38869   0.988   1.212   4.621 -0.3988 -0.1461  0.1306
 9079SOL    HW138870   0.901   1.236   4.652  0.3931  3.3863 -0.4068
 9079SOL    HW238871   1.009   1.128   4.663 -1.5076 -0.7429 -0.5179
 9080SOL     OW38872   2.763   2.930   6.337 -0.1199 -0.4727 -0.0488
 9080SOL    HW138873   2.778   2.930   6.431  1.4809 -0.1976 -0.3049
 9080SOL    HW238874   2.781   2.837   6.324 -2.4011 -0.8862 -0.3567
 9081SOL     OW38875   4.351   0.984   3.454  0.0263  0.1257 -0.1929
 9081SOL    HW138876   4.432   0.982   3.506  1.1648  1.4576 -1.9159
 9081SOL    HW238877   4.293   0.923   3.499  1.7254 -1.9854 -0.8837
 9082SOL     OW38878   4.461   3.223   6.208 -0.4199  0.9919  0.0628
 9082SOL    HW138879   4.542   3.176   6.192 -0.9669  0.2841 -0.6425
 9082SOL    HW238880   4.465   3.219   6.304 -0.2054 -0.0892  0.0111
 9083SOL     OW38881   0.875   3.855  11.685 -0.1666  0.4641 -0.3573
 9083SOL    HW138882   0.873   3.786  11.618 -0.4653 -0.6451  0.8071
 9083SOL    HW238883   0.850   3.927  11.626 -0.6110 -0.9354 -1.8803
 9084SOL     OW38884   2.144   4.225  16.271  0.2419 -0.4987 -0.2898
 9084SOL    HW138885   2.079   4.159  16.292 -1.4742  1.7265  1.3652
 9084SOL    HW238886   2.147   4.248  16.363 -2.8696  2.1761 -0.8598
 9085SOL     OW38887   3.836   3.427   8.364 -0.1709  0.0124  0.6823
 9085SOL    HW138888   3.782   3.348   8.366  0.4698 -0.4242  0.7335
 9085SOL    HW238889   3.893   3.416   8.287 -1.1871 -0.8729  0.0532
 9086SOL     OW38890   4.693   0.706  17.574 -0.2583  0.3554  0.1623
 9086SOL    HW138891   4.605   0.673  17.592 -0.1806  1.0341  1.7424
 9086SOL    HW238892   4.684   0.785  17.627 -1.4055  1.7196 -2.0744
 9087SOL     OW38893   0.877   1.055   5.144  0.3051  0.4808  0.3223
 9087SOL    HW138894   0.857   1.091   5.231 -1.2032  1.1145 -0.2883
 9087SOL    HW238895   0.916   1.136   5.110 -0.7373  1.1490  0.7096
 9088SOL     OW38896   1.997   0.208   7.137 -0.0371 -0.5595 -0.2063
 9088SOL    HW138897   2.057   0.264   7.185  0.2164  0.6756 -1.9477
 9088SOL    HW238898   2.026   0.233   7.049 -1.0157 -1.3645 -0.7679
 9089SOL     OW38899   1.040   3.600   1.609  0.7869  0.0362  0.5747
 9089SOL    HW138900   1.045   3.668   1.542  0.9771  0.9772  1.5496
 9089SOL    HW238901   1.100   3.535   1.572  1.6377  1.9081 -1.3408
 9090SOL     OW38902   4.614   1.979  10.513  0.0280  0.1744 -0.7839
 9090SOL    HW138903   4.602   1.885  10.498  0.1673 -0.0541  0.5439
 9090SOL    HW238904   4.606   1.992  10.607 -2.4684  3.0316 -1.4058
 9091SOL     OW38905   1.488   1.958   4.630 -0.1656 -0.3548 -0.6337
 9091SOL    HW138906   1.452   1.894   4.691  0.9042 -0.2909  0.0744
 9091SOL    HW238907   1.415   2.020   4.625 -0.1151 -0.2950 -0.6388
 9092SOL     OW38908   1.134   1.911  14.878 -0.5112 -0.0214 -0.1613
 9092SOL    HW138909   1.223   1.887  14.904 -0.0683  0.9497 -0.7911
 9092SOL    HW238910   1.074   1.837  14.875 -1.5313  0.6987  2.1102
 9093SOL     OW38911   0.189   0.705   8.124  0.6418 -0.1719  0.5592
 9093SOL    HW138912   0.156   0.704   8.214  0.6639  1.6993  0.5987
 9093SOL    HW238913   0.210   0.799   8.121  2.6801 -0.6634 -0.4657
 9094SOL     OW38914   1.287   4.686   9.367  0.4528 -0.3900  0.1333
 9094SOL    HW138915   1.310   0.015   9.301  1.4031 -1.2273 -0.3742
 9094SOL    HW238916   1.254   4.611   9.317  1.8188  0.2574 -1.7695
 9095SOL     OW38917   0.579   1.037   6.398  0.0447  0.8309  0.2340
 9095SOL    HW138918   0.554   0.951   6.432  1.6110  0.3823  0.2709
 9095SOL    HW238919   0.646   1.050   6.466  0.4280  0.6358 -0.1118
 9096SOL     OW38920   4.608   1.665  10.414  0.4216 -0.1173 -0.2823
 9096SOL    HW138921   4.626   1.580  10.454  0.1515 -0.2739 -0.4971
 9096SOL    HW238922   4.516   1.669  10.387  0.9173  0.7824 -1.8505
 9097SOL     OW38923   2.556   2.400   7.331  0.4371 -0.6011  0.3056
 9097SOL    HW138924   2.505   2.459   7.275  1.4919 -0.6712 -0.7288
 9097SOL    HW238925   2.642   2.434   7.305  0.6573 -1.8605 -0.5994
 9098SOL     OW38926   1.223   2.600   4.647 -0.1275 -0.6284 -0.0431
 9098SOL    HW138927   1.278   2.664   4.601 -0.3837 -0.6800 -0.4224
 9098SOL    HW238928   1.245   2.515   4.608  2.4395 -0.2123  0.5165
 9099SOL     OW38929   0.106   4.522   4.203 -0.5091  0.2111 -0.6731
 9099SOL    HW138930   0.071   4.598   4.250 -0.4223  0.0814 -0.3999
 9099SOL    HW238931   0.200   4.544   4.209 -0.3234 -0.3511 -1.6615
 9100SOL     OW38932   3.067   0.667  15.190  0.5050 -0.1473 -0.2153
 9100SOL    HW138933   3.057   0.593  15.250  0.5404 -0.6005 -0.7788
 9100SOL    HW238934   3.115   0.724  15.250 -1.9297  0.9568  0.6984
 9101SOL     OW38935   4.219   1.513   8.082 -0.1525  0.3121 -0.3502
 9101SOL    HW138936   4.246   1.603   8.066 -0.1476  0.2331 -0.7741
 9101SOL    HW238937   4.179   1.524   8.169  1.4877 -2.4323  0.7733
 9102SOL     OW38938   3.021   4.158   2.769  0.5803 -0.0403 -0.2074
 9102SOL    HW138939   2.966   4.206   2.708 -1.6697 -0.1858  1.7236
 9102SOL    HW238940   3.080   4.229   2.792  1.8069 -1.4185  0.8963
 9103SOL     OW38941   3.886   2.702  15.702 -0.3211  0.0462 -0.6280
 9103SOL    HW138942   3.914   2.695  15.793  0.9863  3.1544 -0.8013
 9103SOL    HW238943   3.794   2.731  15.707 -0.9749 -2.3263  0.9854
 9104SOL     OW38944   1.533   3.308   1.730  0.8099 -0.1510 -0.2293
 9104SOL    HW138945   1.442   3.318   1.702  0.7086 -0.1999  0.0811
 9104SOL    HW238946   1.523   3.220   1.767 -0.9064 -0.5922 -1.7570
 9105SOL     OW38947   0.944   2.206   2.841  0.3510  0.0499 -0.0064
 9105SOL    HW138948   0.886   2.161   2.780  1.1757 -2.1611  0.8555
 9105SOL    HW238949   0.877   2.256   2.888 -0.8337 -2.1690  0.6921
 9106SOL     OW38950   4.561   2.818   5.548 -0.8159 -0.0752 -0.0398
 9106SOL    HW138951   4.613   2.750   5.506 -0.1267  0.4458 -0.0337
 9106SOL    HW238952   4.515   2.868   5.480  0.4759 -0.0138 -0.8796
 9107SOL     OW38953   2.078   3.923  14.559  0.4023  0.4268 -0.0195
 9107SOL    HW138954   2.061   3.868  14.482 -1.1786 -1.0261  1.3587
 9107SOL    HW238955   2.024   3.867  14.616 -1.3868  3.0332  0.8582
 9108SOL     OW38956   4.155   2.151   4.558 -0.1544  0.3521  0.1006
 9108SOL    HW138957   4.084   2.091   4.580 -1.0079  1.0616 -0.7388
 9108SOL    HW238958   4.104   2.219   4.514 -0.7614  0.6500  1.2596
 9109SOL     OW38959   3.025   4.650  16.844 -0.0200 -0.2956  0.4628
 9109SOL    HW138960   2.969   4.724  16.868 -1.6937 -2.5958  3.7036
 9109SOL    HW238961   2.981   4.612  16.768 -0.3807  2.0098 -0.4997
 9110SOL     OW38962   4.166   2.444   7.483  0.2251  0.0438  0.4469
 9110SOL    HW138963   4.189   2.392   7.560  0.8351 -1.8300 -0.9962
 9110SOL    HW238964   4.239   2.505   7.470 -0.6984  0.8995 -0.6924
 9111SOL     OW38965   3.899   1.171   7.496 -0.6072 -0.5978  0.1942
 9111SOL    HW138966   3.836   1.108   7.533  1.0190 -2.8718 -0.9091
 9111SOL    HW238967   3.982   1.123   7.500  0.2702  1.0420  1.7040
 9112SOL     OW38968   0.586   0.135   3.408 -0.1826  0.6830 -0.0529
 9112SOL    HW138969   0.500   0.167   3.380 -0.6198 -0.1606  0.3304
 9112SOL    HW238970   0.567   0.138   3.502 -0.9908  1.1731 -0.2311
 9113SOL     OW38971   1.735   1.314  10.859  0.0888 -0.5776  0.1535
 9113SOL    HW138972   1.774   1.283  10.777 -0.5391 -0.3114 -0.2454
 9113SOL    HW238973   1.651   1.268  10.864 -0.9517  1.0957 -1.6469
 9114SOL     OW38974   0.313   0.115   0.253  0.5175  0.0567  0.1840
 9114SOL    HW138975   0.260   0.071   0.187  0.3931  1.4849 -0.6740
 9114SOL    HW238976   0.258   0.102   0.331  0.3785  0.0886  0.0898
 9115SOL     OW38977   2.690   3.743   7.335  0.3249  0.2522  0.8810
 9115SOL    HW138978   2.623   3.693   7.289 -0.3874  3.1949 -1.3770
 9115SOL    HW238979   2.658   3.834   7.333 -0.6933 -0.1114  0.6906
 9116SOL     OW38980   2.634   4.054   0.853 -0.4042  0.0217 -0.7750
 9116SOL    HW138981   2.658   3.970   0.892 -1.0284  1.1078  1.9142
 9116SOL    HW238982   2.639   4.021   0.763  0.5726 -1.7970 -0.0541
 9117SOL     OW38983   1.914   0.684   7.880 -0.3283 -0.3887 -0.0775
 9117SOL    HW138984   1.968   0.628   7.824 -0.4061  0.1038 -0.6491
 9117SOL    HW238985   1.935   0.766   7.836 -2.8027  1.3331  1.9952
 9118SOL     OW38986   3.271   4.732   1.142 -0.2989  0.1138  0.0554
 9118SOL    HW138987   3.183   0.034   1.137 -0.0635  0.9633  2.4390
 9118SOL    HW238988   3.314   0.028   1.063  0.0196 -0.2884  0.0582
 9119SOL     OW38989   0.165   3.715   3.684 -0.0789 -0.0549  0.5616
 9119SOL    HW138990   0.139   3.793   3.635 -0.4187 -0.6812 -0.2372
 9119SOL    HW238991   0.258   3.736   3.675 -0.7144  2.0111 -1.1978
 9120SOL     OW38992   0.767   0.378  10.209 -0.5147  0.1572  0.2136
 9120SOL    HW138993   0.793   0.286  10.215  0.6332  0.3745 -1.3272
 9120SOL    HW238994   0.674   0.365  10.228 -0.4218  1.0915  1.3352
 9121SOL     OW38995   4.020   1.784   8.904 -0.2224 -0.0802  0.1836
 9121SOL    HW138996   3.986   1.787   8.994 -0.8956 -1.8977 -0.0029
 9121SOL    HW238997   3.953   1.739   8.853 -0.7880 -0.2390  1.0710
 9122SOL     OW38998   2.738   4.175  14.571  0.3405  0.0248 -0.3460
 9122SOL    HW138999   2.722   4.100  14.629 -0.5604 -0.3834 -1.1370
 9122SOL    HW239000   2.833   4.165  14.562  0.5251  0.6368  0.7803
 9123SOL     OW39001   3.146   0.863   6.172  0.3014 -0.0909  0.0220
 9123SOL    HW139002   3.192   0.823   6.245 -0.6984 -1.3525 -0.0361
 9123SOL    HW239003   3.137   0.950   6.210 -1.2687 -0.7218  1.1116
 9124SOL     OW39004   4.648   1.784  15.056  0.4090 -0.2413  0.3955
 9124SOL    HW139005   4.627   1.811  14.967  2.9684  0.8844  0.1300
 9124SOL    HW239006   4.572   1.727  15.067  0.0992 -0.2275 -1.6566
 9125SOL     OW39007   2.237   1.897   5.039 -0.0582 -0.5483 -0.4540
 9125SOL    HW139008   2.264   1.895   5.130 -1.7019 -1.2783  0.0233
 9125SOL    HW239009   2.142   1.887   5.050 -0.1136  1.8189  1.0021
 9126SOL     OW39010   2.051   3.071  14.620 -0.3930 -0.6766  0.0688
 9126SOL    HW139011   1.956   3.077  14.613 -0.4660 -0.3818  1.2011
 9126SOL    HW239012   2.040   2.984  14.659 -1.6912 -0.4206  0.2849
 9127SOL     OW39013   2.555   2.930   1.195  0.2321 -0.1705 -0.1477
 9127SOL    HW139014   2.498   2.896   1.127  1.1673 -3.5169  0.7187
 9127SOL    HW239015   2.564   3.021   1.168  1.2794 -0.1833  0.1191
 9128SOL     OW39016   0.580   2.078   0.078  0.2553  0.0186 -0.4597
 9128SOL    HW139017   0.550   2.009   0.137 -1.4683  2.8787  1.9909
 9128SOL    HW239018   0.509   2.083   0.015  0.4936  0.6280 -0.6770
 9129SOL     OW39019   2.033   1.431   0.997  0.3797  0.2305  0.2179
 9129SOL    HW139020   2.119   1.393   1.012 -0.2546 -1.2074  0.2459
 9129SOL    HW239021   2.057   1.482   0.920  0.8123 -1.9081 -1.0514
 9130SOL     OW39022   2.692   4.398   7.369  0.3237 -0.0355  0.2608
 9130SOL    HW139023   2.761   4.350   7.415  0.1098 -0.3066  0.3006
 9130SOL    HW239024   2.630   4.399   7.443  0.9524 -0.5470  0.7984
 9131SOL     OW39025   2.549   1.302   3.436  0.0930  0.8824 -0.1177
 9131SOL    HW139026   2.562   1.375   3.497  1.9396  0.7063 -0.3121
 9131SOL    HW239027   2.521   1.229   3.491  0.3562 -1.5021 -3.2028
 9132SOL     OW39028   1.357   0.452  15.325  0.3868 -0.0002  0.0826
 9132SOL    HW139029   1.386   0.543  15.327 -1.2136  0.5239  0.0428
 9132SOL    HW239030   1.279   0.449  15.381 -0.7085 -0.0074 -1.4328
 9133SOL     OW39031   2.149   0.465   6.126 -0.6725  0.0038  0.3020
 9133SOL    HW139032   2.158   0.547   6.175  0.3639 -0.1347  0.3445
 9133SOL    HW239033   2.176   0.490   6.038 -2.1661  0.8501  0.0927
 9134SOL     OW39034   2.100   3.475  17.359  0.2995  0.6281  0.3415
 9134SOL    HW139035   2.170   3.452  17.420  0.0976  0.7943  0.6370
 9134SOL    HW239036   2.035   3.406  17.372  1.6116 -0.6046  0.3915
 9135SOL     OW39037   4.585   0.154   3.330 -0.2792 -0.3782  0.0821
 9135SOL    HW139038   4.518   0.203   3.283 -0.4577 -0.0410  0.6827
 9135SOL    HW239039   4.533   0.080   3.362 -0.7974 -0.5092 -1.0658
 9136SOL     OW39040   3.492   2.199   2.402 -0.2023  0.0823 -0.0680
 9136SOL    HW139041   3.505   2.161   2.489 -1.1572 -0.9369 -0.3726
 9136SOL    HW239042   3.582   2.226   2.383  0.1379  0.1476  1.5951
 9137SOL     OW39043   0.424   4.187   5.782 -0.2445  0.3726 -0.0395
 9137SOL    HW139044   0.504   4.169   5.831 -0.2208  1.7262  0.4101
 9137SOL    HW239045   0.364   4.115   5.801 -0.6902  0.2697 -1.8375
 9138SOL     OW39046   2.557   1.627   5.223 -0.2709 -0.4713 -0.5742
 9138SOL    HW139047   2.476   1.590   5.188 -0.1337 -0.1966 -1.1807
 9138SOL    HW239048   2.586   1.688   5.155  0.2267 -0.1160 -0.0457
 9139SOL     OW39049   0.713   1.172  15.399  0.0204  0.3497 -0.3667
 9139SOL    HW139050   0.779   1.172  15.468  0.8831  1.7437 -1.1822
 9139SOL    HW239051   0.765   1.202  15.325  1.5123 -0.5015  0.3376
 9140SOL     OW39052   3.063   3.009   3.080  0.2102 -0.2612  0.1930
 9140SOL    HW139053   3.072   2.915   3.099  0.0128 -0.3248 -0.0249
 9140SOL    HW239054   2.969   3.021   3.094  0.0937 -0.2717 -0.5715
 9141SOL     OW39055   2.572   3.093   7.082 -0.0001 -0.0741 -0.6870
 9141SOL    HW139056   2.597   3.048   7.001 -2.0764 -1.1240 -0.7748
 9141SOL    HW239057   2.483   3.125   7.063  0.0921  1.2421  1.1411
 9142SOL     OW39058   2.007   1.503  13.859  0.3289 -0.6236 -0.2275
 9142SOL    HW139059   1.914   1.507  13.882  0.3699  3.4864 -0.8919
 9142SOL    HW239060   2.047   1.586  13.885  0.5857 -0.4297 -1.2585
 9143SOL     OW39061   3.487   2.169   4.800  0.1236 -0.7900  0.2687
 9143SOL    HW139062   3.498   2.235   4.732 -1.3532 -1.2402 -0.4074
 9143SOL    HW239063   3.396   2.173   4.831  0.0774  2.0438 -0.2781
 9144SOL     OW39064   1.985   2.535  10.863  0.0479  0.1587 -0.3174
 9144SOL    HW139065   2.031   2.453  10.845 -0.8223 -0.3595 -0.2031
 9144SOL    HW239066   1.953   2.502  10.948 -2.4691 -1.9349 -2.0656
 9145SOL     OW39067   1.580   4.579   5.912  0.1360 -0.2620  0.2349
 9145SOL    HW139068   1.665   4.562   5.953 -1.2076 -0.6510  2.8764
 9145SOL    HW239069   1.542   4.495   5.886 -0.1301 -0.4156  1.1337
 9146SOL     OW39070   1.493   2.487   3.419 -0.1796  0.2247  0.2561
 9146SOL    HW139071   1.511   2.522   3.331  1.0552 -0.3345  0.2772
 9146SOL    HW239072   1.399   2.489   3.434  0.1142  1.9901  1.8095
 9147SOL     OW39073   0.501   2.059   6.203 -0.4602 -0.0088 -0.1132
 9147SOL    HW139074   0.493   2.147   6.168  0.9179  0.5227  0.8979
 9147SOL    HW239075   0.555   2.076   6.280 -1.4795 -0.7220  0.7748
 9148SOL     OW39076   0.447   4.704   2.748 -0.7000  0.2020  0.0037
 9148SOL    HW139077   0.419   0.005   2.832  0.9479  2.5384 -0.4800
 9148SOL    HW239078   0.519   4.643   2.765 -0.6760  0.3578  0.4748
 9149SOL     OW39079   0.987   0.876  10.503  0.7680  0.0479 -0.7877
 9149SOL    HW139080   0.993   0.780  10.503  2.6586  0.1580  0.7520
 9149SOL    HW239081   0.907   0.885  10.556  0.7806  1.2877 -0.9818
 9150SOL     OW39082   4.316   3.262   1.392  0.1088 -0.1698  0.5050
 9150SOL    HW139083   4.284   3.183   1.349  0.4360 -0.2556  0.4214
 9150SOL    HW239084   4.356   3.218   1.466  2.5899 -1.5704 -1.6663
 9151SOL     OW39085   0.121   2.341   2.705  0.1403 -0.1765  0.3104
 9151SOL    HW139086   0.084   2.422   2.739  1.6266  1.7910 -2.8436
 9151SOL    HW239087   0.174   2.312   2.779  1.1626 -0.6003 -0.6021
 9152SOL     OW39088   1.944   4.500  12.267 -0.3221 -0.5979 -0.1978
 9152SOL    HW139089   2.004   4.573  12.285 -1.2535  0.6892 -2.3461
 9152SOL    HW239090   2.003   4.428  12.244  0.6092  0.2587 -0.5221
 9153SOL     OW39091   2.584   0.799   2.514 -0.3493  0.0129 -0.0073
 9153SOL    HW139092   2.536   0.816   2.595 -1.3372 -1.2348 -0.3316
 9153SOL    HW239093   2.513   0.771   2.457  0.7116 -0.0653 -1.2835
 9154SOL     OW39094   1.000   2.923   9.800  0.2578 -0.0292  0.2341
 9154SOL    HW139095   0.970   2.953   9.885  1.3537 -0.8591  0.9107
 9154SOL    HW239096   0.959   2.838   9.788 -0.1292  0.3862 -1.4932
 9155SOL     OW39097   0.472   3.088   6.383 -0.4230  0.2053 -0.3158
 9155SOL    HW139098   0.492   3.090   6.289  0.1579 -3.4414 -0.2583
 9155SOL    HW239099   0.389   3.040   6.374 -0.0660 -0.6343  0.9135
 9156SOL     OW39100   2.879   4.035  10.989  0.4379  0.2502 -0.0172
 9156SOL    HW139101   2.893   4.127  11.009 -0.0207  0.4210 -0.4640
 9156SOL    HW239102   2.783   4.025  10.989  0.6601 -1.9478 -0.3042
 9157SOL     OW39103   1.500   0.734   3.577  0.4752  0.2536  0.3332
 9157SOL    HW139104   1.428   0.750   3.517  0.6040 -1.7311 -0.3627
 9157SOL    HW239105   1.526   0.824   3.595 -0.8156  0.6061  0.4112
 9158SOL     OW39106   0.410   2.917   6.722 -0.4677  0.3129 -0.0226
 9158SOL    HW139107   0.456   2.876   6.648  2.0978  1.0758  1.1584
 9158SOL    HW239108   0.434   2.864   6.797  1.2542  2.6062  1.0597
 9159SOL     OW39109   3.903   4.403   2.099 -0.6142 -0.3011 -0.2883
 9159SOL    HW139110   3.963   4.477   2.111  1.7475 -2.3087  0.2326
 9159SOL    HW239111   3.970   4.335   2.099 -0.4691 -0.1647 -1.5703
 9160SOL     OW39112   3.012   4.143  14.597  0.0574  0.3469  0.6127
 9160SOL    HW139113   3.096   4.120  14.637  0.0649 -0.5231  0.1042
 9160SOL    HW239114   3.017   4.080  14.525 -0.8612  3.2702 -2.0102
 9161SOL     OW39115   0.509   2.989  13.789  0.6315  0.3699  0.0897
 9161SOL    HW139116   0.457   3.039  13.851  0.1018  2.9290 -2.4168
 9161SOL    HW239117   0.580   2.962  13.848  0.2612  2.4754  1.4851
 9162SOL     OW39118   3.163   4.047   2.145 -0.2873 -0.1093  0.7391
 9162SOL    HW139119   3.122   4.095   2.217 -0.1436  0.2310  0.5948
 9162SOL    HW239120   3.188   3.960   2.177  2.3915  0.0958 -0.8170
 9163SOL     OW39121   1.970   3.893   3.518 -0.1586  0.2068 -0.4244
 9163SOL    HW139122   2.054   3.854   3.494  0.4278 -0.7521  3.1785
 9163SOL    HW239123   1.950   3.957   3.449 -1.5758  1.2426  0.9399
 9164SOL     OW39124   0.147   0.989   7.604 -0.0719  0.0885  0.3246
 9164SOL    HW139125   0.237   0.985   7.635  0.3919  0.6080 -0.9595
 9164SOL    HW239126   0.108   0.932   7.670 -0.2281  0.9502  0.9843
 9165SOL     OW39127   1.812   1.380   7.120 -0.5875 -0.0202  0.5520
 9165SOL    HW139128   1.870   1.310   7.151 -0.6729  0.1345  1.0576
 9165SOL    HW239129   1.873   1.435   7.072 -1.0379  1.3159  1.5012
 9166SOL     OW39130   1.300   4.138   4.428 -0.5701 -0.2326  0.1428
 9166SOL    HW139131   1.208   4.110   4.432 -1.2573  2.2118  1.4622
 9166SOL    HW239132   1.340   4.076   4.367 -0.8151 -1.9428  1.7129
 9167SOL     OW39133   0.134   1.261   3.146 -0.0799  0.0676 -0.1712
 9167SOL    HW139134   0.092   1.176   3.132  0.5734 -0.2240 -0.3872
 9167SOL    HW239135   0.194   1.231   3.214 -0.2125 -1.9285 -0.9412
 9168SOL     OW39136   3.155   3.252  14.290 -0.1228  0.0148  0.2366
 9168SOL    HW139137   3.155   3.168  14.244  0.8091  0.6402 -0.8811
 9168SOL    HW239138   3.246   3.279  14.292  0.3604 -1.4983 -1.7107
 9169SOL     OW39139   0.928   2.561  10.843 -0.1265 -0.0638  0.2446
 9169SOL    HW139140   0.833   2.547  10.841 -0.3052  1.3584 -1.3324
 9169SOL    HW239141   0.944   2.521  10.929  1.6052 -0.0523 -0.0676
 9170SOL     OW39142   2.059   0.043  12.832  0.1853 -0.7306 -0.5723
 9170SOL    HW139143   1.973   0.056  12.790  0.4754 -0.6821 -1.1448
 9170SOL    HW239144   2.031   0.029  12.923 -2.1358  0.3699 -1.1166
 9171SOL     OW39145   1.415   4.025   3.179  0.1056  0.3388  0.2556
 9171SOL    HW139146   1.342   3.983   3.135 -0.4328  0.0483  1.4072
 9171SOL    HW239147   1.463   4.042   3.098 -0.9142  0.6891 -0.2669
 9172SOL     OW39148   0.218   2.011   5.062  0.4651 -0.0460  0.2415
 9172SOL    HW139149   0.245   2.094   5.102 -0.8381 -0.5358  2.1257
 9172SOL    HW239150   0.277   1.992   4.989  0.6530  1.4800 -0.0012
 9173SOL     OW39151   2.024   0.560   5.334  0.0769 -0.2416 -0.4192
 9173SOL    HW139152   2.006   0.601   5.418  2.0685  0.4249 -0.3098
 9173SOL    HW239153   2.119   0.573   5.336  0.5251 -3.1993 -2.0291
 9174SOL     OW39154   1.549   3.555   1.835  0.3113 -0.5618  0.3106
 9174SOL    HW139155   1.544   3.525   1.926  0.7073  1.6845  1.0873
 9174SOL    HW239156   1.554   3.469   1.795  1.4731 -1.3125  2.0737
 9175SOL     OW39157   2.183   2.981   7.385  0.3829  0.0716 -0.0078
 9175SOL    HW139158   2.098   2.970   7.429 -0.2317 -0.6474 -1.4008
 9175SOL    HW239159   2.170   2.925   7.309 -0.9399 -1.1795  1.1261
 9176SOL     OW39160   1.315   0.083   5.444  0.0744 -0.1378 -0.9481
 9176SOL    HW139161   1.223   0.058   5.445 -0.3497  1.5020  0.7361
 9176SOL    HW239162   1.309   0.171   5.407  1.1732  0.7310  0.9548
 9177SOL     OW39163   2.221   4.468   0.926 -0.0301  0.4518 -0.2350
 9177SOL    HW139164   2.152   4.412   0.964  0.1219 -0.8028 -1.8176
 9177SOL    HW239165   2.290   4.478   0.991  0.4162  0.0894 -0.6567
 9178SOL     OW39166   4.400   1.162   6.722 -0.8355 -0.3450 -0.2343
 9178SOL    HW139167   4.430   1.204   6.803  1.0020 -1.1106 -0.5174
 9178SOL    HW239168   4.304   1.165   6.730 -1.1709 -0.5647 -4.2930
 9179SOL     OW39169   1.244   2.680   0.822 -0.2025 -0.0042 -0.2647
 9179SOL    HW139170   1.212   2.608   0.768 -0.1906 -1.6819  1.9611
 9179SOL    HW239171   1.207   2.761   0.787  0.7638 -0.1875 -1.6924
 9180SOL     OW39172   3.371   0.063   2.394 -0.3988  0.0314 -0.1966
 9180SOL    HW139173   3.385   0.059   2.299 -1.7379 -2.1967 -0.3194
 9180SOL    HW239174   3.448   0.114   2.419 -1.6803  0.6198  2.5330
 9181SOL     OW39175   4.609   1.524   1.221  0.1967 -0.1467  0.6415
 9181SOL    HW139176   4.572   1.582   1.154 -0.6068 -1.4957 -0.0896
 9181SOL    HW239177   4.531   1.485   1.260  0.5525 -1.0520  0.4459
 9182SOL     OW39178   4.683   4.010  16.326 -0.8007 -0.3892 -0.5794
 9182SOL    HW139179   0.016   3.950  16.355 -1.5057 -0.3866  1.1207
 9182SOL    HW239180   4.614   3.974  16.381 -0.5891  2.5647  1.6193
 9183SOL     OW39181   0.083   0.704  10.307  0.0770 -0.7228 -0.0361
 9183SOL    HW139182   4.729   0.670  10.311 -0.1674 -0.3367 -1.9687
 9183SOL    HW239183   0.067   0.798  10.307  4.7507  0.0275  2.4397
 9184SOL     OW39184   2.087   2.257   1.646 -0.2269  0.0155 -0.6396
 9184SOL    HW139185   2.118   2.288   1.561  2.0786 -3.5693 -1.1423
 9184SOL    HW239186   2.083   2.161   1.640 -0.4006 -0.0481  0.6113
 9185SOL     OW39187   1.113   1.736   5.951 -0.2605 -0.4119 -0.0042
 9185SOL    HW139188   1.023   1.731   5.983  0.2091 -1.8737  1.0503
 9185SOL    HW239189   1.152   1.652   5.975 -2.5839 -1.0573  1.4416
 9186SOL     OW39190   4.223   0.161   5.674 -0.2832 -1.2740 -0.0137
 9186SOL    HW139191   4.150   0.169   5.735  0.3023  0.2182  0.5042
 9186SOL    HW239192   4.170   0.190   5.599 -0.7607  0.4710  0.9861
 9187SOL     OW39193   4.054   0.733   7.605  0.2245  0.2485  0.0524
 9187SOL    HW139194   4.130   0.675   7.598 -0.9297 -1.0436 -1.8254
 9187SOL    HW239195   3.988   0.664   7.604 -1.8517  2.2318 -0.2966
 9188SOL     OW39196   1.713   0.529  16.036 -0.2637 -0.1647 -0.3806
 9188SOL    HW139197   1.724   0.437  16.013  3.0743  0.1962 -0.2318
 9188SOL    HW239198   1.780   0.532  16.104 -0.6784 -2.4907  0.1401
 9189SOL     OW39199   4.680   4.154   2.141 -0.0590 -0.0036 -0.4485
 9189SOL    HW139200   0.038   4.161   2.125 -0.5040  3.0958 -1.7089
 9189SOL    HW239201   4.647   4.149   2.051 -1.1832  5.3681 -0.3616
 9190SOL     OW39202   2.696   0.818   8.396 -0.1365  0.1788 -0.3302
 9190SOL    HW139203   2.609   0.854   8.377 -0.2869  0.3515  0.6938
 9190SOL    HW239204   2.742   0.902   8.400  1.5011 -0.7256 -0.0965
 9191SOL     OW39205   0.042   2.801  12.205 -0.1531 -0.4370  0.5419
 9191SOL    HW139206   0.026   2.859  12.279  1.2723 -0.9963  1.2942
 9191SOL    HW239207   4.693   2.788  12.166  0.0827 -0.6531  0.1017
 9192SOL     OW39208   2.657   2.684   5.942  0.7795 -0.0863 -0.1424
 9192SOL    HW139209   2.718   2.613   5.964 -0.1946 -0.1604  2.3509
 9192SOL    HW239210   2.705   2.747   5.889 -2.6454  0.9899 -1.9767
 9193SOL     OW39211   0.293   4.011  16.570  0.2519  0.3697  0.0656
 9193SOL    HW139212   0.262   4.002  16.660  1.2380  4.6190  0.8079
 9193SOL    HW239213   0.232   4.083  16.552  0.2134  0.2013 -0.4841
 9194SOL     OW39214   2.233   2.678   9.428  0.9231  0.6857  0.0785
 9194SOL    HW139215   2.328   2.688   9.437  0.8996  0.1165  0.9158
 9194SOL    HW239216   2.224   2.585   9.448  0.8943  0.4893 -0.8658
 9195SOL     OW39217   3.729   4.334   2.534 -0.1356 -0.7325 -1.0065
 9195SOL    HW139218   3.758   4.273   2.602  0.5971  2.0135  1.1199
 9195SOL    HW239219   3.656   4.376   2.580  0.2672 -0.1762 -0.8703
 9196SOL     OW39220   1.507   3.673   0.828 -0.1750  0.1734 -0.3616
 9196SOL    HW139221   1.507   3.768   0.816  2.4996  0.1126 -0.8631
 9196SOL    HW239222   1.568   3.676   0.902 -0.6219  0.7202 -0.0234
 9197SOL     OW39223   2.365   0.116  10.028  0.1081  0.0874  0.2138
 9197SOL    HW139224   2.279   0.152  10.049  0.5088  0.2373  1.5538
 9197SOL    HW239225   2.403   0.186   9.975 -3.1410  2.5818  1.1561
 9198SOL     OW39226   0.081   0.857  13.079 -0.0822 -0.2454 -0.0847
 9198SOL    HW139227   0.163   0.809  13.079 -0.7047 -1.2912 -1.7045
 9198SOL    HW239228   0.010   0.792  13.082 -0.0542 -0.0356  5.2917
 9199SOL     OW39229   1.850   2.814   9.089  0.2429  0.4502  0.1874
 9199SOL    HW139230   1.906   2.881   9.050  2.5065 -1.5820 -0.0473
 9199SOL    HW239231   1.908   2.792   9.162 -0.3531  0.1192  0.5672
 9200SOL     OW39232   3.830   2.826   2.251  0.1834 -0.4184 -0.3466
 9200SOL    HW139233   3.779   2.875   2.186  1.6684  2.5435  0.7229
 9200SOL    HW239234   3.857   2.906   2.296 -0.0472 -0.7665  0.3972
 9201SOL     OW39235   4.306   0.925  16.502 -0.5478 -0.1605 -0.6468
 9201SOL    HW139236   4.377   0.957  16.447 -0.2890  1.3612  0.5867
 9201SOL    HW239237   4.318   0.988  16.572  1.5926 -0.8971 -0.3571
 9202SOL     OW39238   2.221   2.414   4.115 -0.1672 -0.5143 -0.3076
 9202SOL    HW139239   2.233   2.473   4.041  0.6479  0.3011  0.4674
 9202SOL    HW239240   2.224   2.328   4.074  0.0947  0.5284 -2.4847
 9203SOL     OW39241   2.059   3.603   9.575 -0.0902  0.1846  0.4002
 9203SOL    HW139242   2.083   3.544   9.504  0.7852 -0.7472  1.4698
 9203SOL    HW239243   2.050   3.693   9.543 -2.6686 -0.2495 -0.1299
 9204SOL     OW39244   3.690   2.336   4.260  0.1307  0.2093  0.2181
 9204SOL    HW139245   3.762   2.281   4.227 -0.6641 -0.6565 -0.0648
 9204SOL    HW239246   3.616   2.302   4.209 -0.7373  0.1115  1.5534
 9205SOL     OW39247   2.708   4.569   8.795  0.1490  0.4177  0.2103
 9205SOL    HW139248   2.639   4.511   8.826  0.6856 -1.2879 -1.7595
 9205SOL    HW239249   2.656   4.642   8.761 -0.3976  0.5911  1.4276
 9206SOL     OW39250   2.972   3.963   1.321  0.0012  0.4522  0.4346
 9206SOL    HW139251   3.047   3.928   1.273 -0.2307  1.2561 -0.4952
 9206SOL    HW239252   3.013   4.037   1.364 -0.2753  0.8935 -0.0650
 9207SOL     OW39253   1.931   3.713   4.200  0.1299  0.5855 -0.3370
 9207SOL    HW139254   2.017   3.752   4.217  1.2555 -2.9095  1.9825
 9207SOL    HW239255   1.948   3.620   4.189  0.7176  0.4888  1.4357
 9208SOL     OW39256   3.372   1.795   4.221 -0.2851  0.3579  0.3180
 9208SOL    HW139257   3.396   1.795   4.128  0.2739 -4.9174  0.4254
 9208SOL    HW239258   3.332   1.880   4.237  0.8566  0.8943  0.3233
 9209SOL     OW39259   4.297   0.681   5.864 -0.1830  0.8892 -0.8491
 9209SOL    HW139260   4.241   0.758   5.861 -2.1713 -0.4388  2.2726
 9209SOL    HW239261   4.233   0.615   5.893 -1.1197  0.5445 -3.7398
 9210SOL     OW39262   3.127   2.020   3.546  0.1570 -0.4524 -0.7256
 9210SOL    HW139263   3.051   2.039   3.600  0.5944 -0.2489 -0.1827
 9210SOL    HW239264   3.093   2.009   3.457  0.8765 -1.2822 -0.8992
 9211SOL     OW39265   2.028   3.088   0.641 -0.1670  0.7718 -0.0596
 9211SOL    HW139266   2.075   3.171   0.648 -0.3028  0.8241  0.2327
 9211SOL    HW239267   1.950   3.107   0.693  0.7681 -0.3194  1.7617
 9212SOL     OW39268   0.717   0.055  12.110 -0.3347 -0.9386  0.3807
 9212SOL    HW139269   0.789   0.025  12.056 -0.3811  2.4099 -1.5719
 9212SOL    HW239270   0.733   0.149  12.096  1.6249 -1.6082 -1.8858
 9213SOL     OW39271   3.379   4.217   9.842  0.5111  0.2282  0.4927
 9213SOL    HW139272   3.397   4.278   9.913 -0.8916  0.1496  0.9263
 9213SOL    HW239273   3.428   4.247   9.766  0.2020  1.5230  0.8037
 9214SOL     OW39274   2.644   4.337   2.979  0.1637  0.4241 -0.0652
 9214SOL    HW139275   2.632   4.250   2.939 -2.5782  0.8222 -0.0917
 9214SOL    HW239276   2.694   4.377   2.908  1.2821 -1.2133 -0.1993
 9215SOL     OW39277   4.698   0.483   4.406  0.0652 -0.1107  0.3018
 9215SOL    HW139278   4.723   0.483   4.313 -2.9048 -1.1776 -0.4886
 9215SOL    HW239279   4.697   0.576   4.430  1.4308  0.5134 -2.0258
 9216SOL     OW39280   3.460   0.166  13.861 -0.0634 -0.1608  0.0180
 9216SOL    HW139281   3.490   0.256  13.843 -0.7481 -0.0220 -0.4294
 9216SOL    HW239282   3.371   0.188  13.888  0.0069 -2.6988  2.2751
 9217SOL     OW39283   3.445   3.895   6.847  0.4582 -0.3726  0.3174
 9217SOL    HW139284   3.465   3.920   6.757 -0.3657 -1.1790 -0.0933
 9217SOL    HW239285   3.522   3.848   6.880 -0.2649 -1.6073  0.2410
 9218SOL     OW39286   0.548   1.876   0.648  0.6891  0.2121  0.4254
 9218SOL    HW139287   0.477   1.869   0.584  1.5714 -0.6933 -0.4514
 9218SOL    HW239288   0.586   1.789   0.664  1.5256  0.5985  0.5302
 9219SOL     OW39289   0.657   3.671   3.524  0.7801 -0.0222 -0.1766
 9219SOL    HW139290   0.711   3.670   3.445 -0.6963 -0.1722 -1.1876
 9219SOL    HW239291   0.716   3.646   3.595 -0.1170  0.0813  0.5977
 9220SOL     OW39292   1.312   0.646  10.207 -0.0033 -0.0114 -0.1437
 9220SOL    HW139293   1.259   0.718  10.174 -0.0486  1.6290  3.4421
 9220SOL    HW239294   1.354   0.681  10.286 -0.3070  0.5569 -0.2383
 9221SOL     OW39295   1.749   4.327   5.829  0.1256 -0.3727 -0.2961
 9221SOL    HW139296   1.799   4.392   5.780  0.5529  1.2512  2.2809
 9221SOL    HW239297   1.774   4.368   5.912 -2.6410 -0.9343  0.8058
 9222SOL     OW39298   3.758   3.076   1.785 -0.3928  0.2299 -0.5349
 9222SOL    HW139299   3.792   3.165   1.771 -3.0032  1.4193  0.6072
 9222SOL    HW239300   3.824   3.028   1.736 -1.3523  0.5008 -2.1113
 9223SOL     OW39301   3.252   2.532  17.469  0.0629 -0.7679 -0.5543
 9223SOL    HW139302   3.296   2.447  17.458  2.1608  0.4065 -1.3194
 9223SOL    HW239303   3.268   2.579  17.387 -0.7034  1.6881  0.7142
 9224SOL     OW39304   4.296   2.473  13.551 -0.3960 -0.4907  0.1543
 9224SOL    HW139305   4.227   2.510  13.496  1.2626  1.2700 -0.7500
 9224SOL    HW239306   4.356   2.545  13.569  0.1312 -0.4755 -1.6556
 9225SOL     OW39307   3.517   1.435   2.800  0.0590  0.3218 -0.3481
 9225SOL    HW139308   3.556   1.467   2.718  0.4223 -0.8276 -0.6244
 9225SOL    HW239309   3.594   1.450   2.855 -0.0312 -0.3139 -0.0519
 9226SOL     OW39310   0.736   1.296   7.316  0.0412 -0.1045 -0.0500
 9226SOL    HW139311   0.815   1.277   7.264  0.7277  0.1771  0.8862
 9226SOL    HW239312   0.682   1.344   7.253  1.2971  1.1967 -0.1467
 9227SOL     OW39313   2.265   2.216   2.500  0.7224 -0.1937 -0.6653
 9227SOL    HW139314   2.341   2.260   2.536  0.0155  0.0035  0.5598
 9227SOL    HW239315   2.215   2.295   2.482  1.4257  0.8308  2.0146
 9228SOL     OW39316   4.292   0.625  10.366  0.3669 -0.6998  0.4686
 9228SOL    HW139317   4.289   0.547  10.421 -3.0572  0.6116  2.1376
 9228SOL    HW239318   4.330   0.688  10.427  2.3956 -0.2423 -1.2709
 9229SOL     OW39319   0.505   2.728   0.637  0.6323  0.0011  0.5884
 9229SOL    HW139320   0.525   2.768   0.721  0.9356  0.4671  0.2940
 9229SOL    HW239321   0.574   2.664   0.614  0.9866  0.9482 -0.9757
 9230SOL     OW39322   4.487   4.619   5.508  0.2117  0.4226 -0.7400
 9230SOL    HW139323   4.536   4.597   5.429  1.1266  1.6105 -0.5125
 9230SOL    HW239324   4.550   4.607   5.580 -0.8632 -2.4336 -0.2669
 9231SOL     OW39325   2.053   2.469   4.738 -0.5085 -0.0836 -0.5045
 9231SOL    HW139326   2.127   2.521   4.705  0.1815 -2.2040 -2.2738
 9231SOL    HW239327   2.063   2.458   4.832 -0.8479 -0.9637 -0.5703
 9232SOL     OW39328   2.092   0.013   2.811  0.5858 -0.4818 -0.3300
 9232SOL    HW139329   2.015   4.735   2.755 -0.7898 -2.4368  2.0427
 9232SOL    HW239330   2.073   4.698   2.890 -0.5092  3.3421  1.8982
 9233SOL     OW39331   1.466   2.383  11.306  0.0635 -0.5641  0.6497
 9233SOL    HW139332   1.396   2.375  11.242  1.3558  1.5791 -1.0300
 9233SOL    HW239333   1.498   2.293  11.311 -3.4162 -1.9549 -1.9349
 9234SOL     OW39334   1.471   0.623  12.891  0.0644 -0.2126 -0.0810
 9234SOL    HW139335   1.535   0.694  12.890 -1.4254  1.1175 -1.2883
 9234SOL    HW239336   1.506   0.566  12.822  0.5018  1.2034 -1.0219
 9235SOL     OW39337   2.362   1.601   6.274  0.3870 -0.2440 -0.4690
 9235SOL    HW139338   2.292   1.549   6.234 -0.6983  1.1010 -0.3211
 9235SOL    HW239339   2.376   1.672   6.211  1.9703  0.0716  0.2458
 9236SOL     OW39340   1.616   2.453   9.000  0.0627  0.2348 -0.3462
 9236SOL    HW139341   1.533   2.419   8.967  0.3887 -0.7503 -0.1528
 9236SOL    HW239342   1.621   2.427   9.092  0.9517 -0.8239 -0.6908
 9237SOL     OW39343   3.194   0.675   3.171  0.4135  0.6994 -0.4245
 9237SOL    HW139344   3.278   0.667   3.127  0.0975  1.7001 -1.2089
 9237SOL    HW239345   3.194   0.765   3.203 -1.4328  0.3921  0.4751
 9238SOL     OW39346   4.434   1.642   3.006 -0.4902  0.2436 -0.3354
 9238SOL    HW139347   4.428   1.673   2.916 -2.0888 -2.1672 -1.0347
 9238SOL    HW239348   4.449   1.549   2.991 -0.8155 -0.3387  2.8526
 9239SOL     OW39349   1.698   0.509  10.315 -0.2312 -0.3679  0.5071
 9239SOL    HW139350   1.617   0.476  10.354 -0.7810  0.0253 -0.3015
 9239SOL    HW239351   1.696   0.600  10.345 -2.9704 -0.5115  0.7868
 9240SOL     OW39352   3.296   0.602   9.279  0.0974  0.3277 -0.0772
 9240SOL    HW139353   3.230   0.651   9.229 -0.7715  0.7778  1.5088
 9240SOL    HW239354   3.296   0.659   9.356 -0.1859  1.6584 -1.0511
 9241SOL     OW39355   3.081   3.284   7.443  0.3288  0.2051  0.1887
 9241SOL    HW139356   3.153   3.310   7.385  0.3941 -0.7892 -0.1731
 9241SOL    HW239357   3.089   3.189   7.453 -1.3328  0.1599  1.0005
 9242SOL     OW39358   0.877   3.795   2.637 -0.0044 -0.7453 -0.1707
 9242SOL    HW139359   0.813   3.732   2.669  1.9297 -1.9341  1.3762
 9242SOL    HW239360   0.954   3.738   2.630 -0.1732 -1.1004  0.8725
 9243SOL     OW39361   1.487   1.808   7.971  0.1127 -0.3355 -0.0640
 9243SOL    HW139362   1.444   1.799   8.056 -3.0311  1.4844 -1.4674
 9243SOL    HW239363   1.440   1.881   7.931  3.5189  0.5192 -2.4830
 9244SOL     OW39364   0.143   1.219   3.869 -0.1027 -0.2813  0.2537
 9244SOL    HW139365   0.120   1.305   3.834 -0.0155  0.1446  1.2594
 9244SOL    HW239366   0.227   1.237   3.911  0.4303  0.5562 -1.1504
 9245SOL     OW39367   3.687   3.822   4.957  0.1002 -0.1896  0.0231
 9245SOL    HW139368   3.592   3.827   4.944 -0.2499  2.3881  3.7239
 9245SOL    HW239369   3.701   3.888   5.024  1.4929 -3.0718  2.5636
 9246SOL     OW39370   2.967   2.939  10.948 -0.7712  0.0194 -0.5152
 9246SOL    HW139371   3.009   2.877  10.888  1.2335  0.0980  0.8091
 9246SOL    HW239372   2.951   3.012  10.888  1.3831  0.6999 -0.2756
 9247SOL     OW39373   1.066   2.946   5.765 -0.6009 -0.3477  0.2911
 9247SOL    HW139374   1.114   3.013   5.814 -3.1503  2.1382 -0.6137
 9247SOL    HW239375   1.141   2.894   5.738 -0.2588  0.4545 -0.2788
 9248SOL     OW39376   2.913   4.297   3.187  0.1900 -0.5381  0.3980
 9248SOL    HW139377   2.988   4.339   3.144 -0.6460 -1.1010 -1.5845
 9248SOL    HW239378   2.950   4.264   3.269 -0.1603 -0.6765  0.4988
 9249SOL     OW39379   3.694   1.854   6.126 -0.4879 -0.4358 -0.4399
 9249SOL    HW139380   3.692   1.758   6.127  1.7123 -0.4670  1.3005
 9249SOL    HW239381   3.671   1.882   6.214  0.4593 -0.4906 -0.1791
 9250SOL     OW39382   2.451   0.439   4.617  0.0401 -0.3658 -0.1976
 9250SOL    HW139383   2.478   0.486   4.538 -1.4128 -0.3613 -0.6834
 9250SOL    HW239384   2.356   0.452   4.614  0.1422  0.7316  1.6675
 9251SOL     OW39385   1.941   0.582  14.475  0.0841  0.6109 -0.3396
 9251SOL    HW139386   1.957   0.662  14.426  0.8646  0.0684 -0.9628
 9251SOL    HW239387   1.851   0.560  14.452  0.4866 -0.4625 -0.8895
 9252SOL     OW39388   0.200   2.272   6.112 -0.9899 -0.0899 -0.5353
 9252SOL    HW139389   0.106   2.262   6.130  0.1494 -3.4489  3.3780
 9252SOL    HW239390   0.244   2.249   6.193 -0.2983  0.9810 -0.5992
 9253SOL     OW39391   1.436   1.523   1.339  0.2539  0.0691 -0.0576
 9253SOL    HW139392   1.495   1.450   1.353 -0.4368 -0.5077 -0.1682
 9253SOL    HW239393   1.415   1.523   1.246 -1.5329  1.2438  0.3380
 9254SOL     OW39394   1.340   3.483  14.981  0.1582 -0.0024  0.7055
 9254SOL    HW139395   1.311   3.574  14.980  1.4347  0.3995  1.4941
 9254SOL    HW239396   1.409   3.484  15.047  0.4953 -2.9363  0.4068
 9255SOL     OW39397   2.157   1.352   4.414  0.4041  0.3390 -0.1523
 9255SOL    HW139398   2.096   1.390   4.477 -0.8785  0.1443 -1.2775
 9255SOL    HW239399   2.094   1.302   4.363  1.8799 -1.1862 -0.4689
 9256SOL     OW39400   1.893   4.717   4.246 -0.0176  0.6545  0.4004
 9256SOL    HW139401   1.866   0.063   4.287 -2.9197 -1.6524  3.1180
 9256SOL    HW239402   1.826   4.656   4.278 -1.2802  0.7489 -2.0290
 9257SOL     OW39403   2.225   0.746   2.368 -0.7425 -0.8317 -0.6098
 9257SOL    HW139404   2.156   0.812   2.376 -0.2164 -0.4866  1.1428
 9257SOL    HW239405   2.286   0.795   2.313 -2.8214  1.5140 -0.8154
 9258SOL     OW39406   4.081   1.786   2.086  0.6019  0.1392  0.3194
 9258SOL    HW139407   4.002   1.732   2.082  1.4299 -1.0439  0.0270
 9258SOL    HW239408   4.127   1.783   2.003 -3.6122  0.0570 -2.0198
 9259SOL     OW39409   3.884   3.068   6.885  0.4172  0.1577  0.0477
 9259SOL    HW139410   3.888   3.112   6.800 -2.2103  1.2973  0.4986
 9259SOL    HW239411   3.796   3.032   6.872  0.1430 -0.0359  2.4050
 9260SOL     OW39412   3.714   0.924   7.007 -0.0900 -0.1893  0.0702
 9260SOL    HW139413   3.691   0.972   7.087  2.0824 -0.1539  0.6926
 9260SOL    HW239414   3.795   0.973   6.990 -0.0713  0.5469  2.2237
 9261SOL     OW39415   1.048   3.705   7.757  0.0859 -0.1948  0.7595
 9261SOL    HW139416   1.129   3.705   7.706  0.1125  2.0080  0.8106
 9261SOL    HW239417   1.054   3.784   7.811  2.7211  0.6751 -0.8092
 9262SOL     OW39418   1.070   2.470   5.990  0.4524  0.1124 -0.0060
 9262SOL    HW139419   1.019   2.471   5.909 -0.0604 -0.0789  0.3159
 9262SOL    HW239420   1.021   2.399   6.031 -1.4316  1.0565 -0.6295
 9263SOL     OW39421   3.213   2.077  11.561 -0.0916 -0.1151 -0.2199
 9263SOL    HW139422   3.218   2.089  11.466  1.7865 -1.1452 -0.2487
 9263SOL    HW239423   3.170   1.992  11.566 -0.9233  0.1577 -2.7130
 9264SOL     OW39424   3.351   3.275  12.999  0.0622  0.4605  0.0857
 9264SOL    HW139425   3.256   3.269  13.013 -0.2656  0.1382 -2.2732
 9264SOL    HW239426   3.357   3.312  12.911  1.1246 -1.2870 -0.5632
 9265SOL     OW39427   3.443   4.400  12.697 -0.2524 -0.3078  0.0777
 9265SOL    HW139428   3.348   4.404  12.698 -0.2002  0.9031 -0.0466
 9265SOL    HW239429   3.461   4.451  12.776 -1.9436  1.1444 -0.4861
 9266SOL     OW39430   1.315   0.213   4.379  0.0269  0.5762  0.0626
 9266SOL    HW139431   1.282   0.183   4.464 -1.9322 -0.2030 -0.9659
 9266SOL    HW239432   1.271   0.298   4.375 -0.5875  0.3023  1.0725
 9267SOL     OW39433   0.867   2.090   5.713 -0.6905 -0.5257 -0.4556
 9267SOL    HW139434   0.934   2.074   5.646  0.0354 -2.1519  0.6671
 9267SOL    HW239435   0.797   2.051   5.661 -1.1784 -1.7305  1.1301
 9268SOL     OW39436   2.285   0.333   3.551 -0.1860 -0.2594 -0.0609
 9268SOL    HW139437   2.233   0.408   3.523 -0.2584  0.1711  1.2556
 9268SOL    HW239438   2.289   0.287   3.467 -1.1428  2.5021 -1.6235
 9269SOL     OW39439   2.882   4.158   3.432  0.2967 -0.3272 -0.2940
 9269SOL    HW139440   2.955   4.103   3.461  0.9279 -0.8235 -2.8738
 9269SOL    HW239441   2.878   4.226   3.499  1.1383  0.4417 -1.0262
 9270SOL     OW39442   4.038   3.657   5.837  0.1051  0.5640 -0.6903
 9270SOL    HW139443   4.073   3.712   5.908  0.5482  0.2352 -0.6625
 9270SOL    HW239444   4.112   3.604   5.808 -0.1455 -0.9829  1.4912
 9271SOL     OW39445   2.864   3.231   8.259 -0.5740  0.0855 -0.1138
 9271SOL    HW139446   2.810   3.168   8.307  2.0963  1.0167  4.0744
 9271SOL    HW239447   2.852   3.189   8.174  1.3048 -2.6245  0.9607
 9272SOL     OW39448   0.190   0.981   5.298  0.7124  0.8609 -0.1400
 9272SOL    HW139449   0.135   0.995   5.375 -1.5883 -1.0738 -1.4068
 9272SOL    HW239450   0.277   0.999   5.331 -0.4277  1.7386  2.3577
 9273SOL     OW39451   3.625   0.091   6.975 -0.0037  0.1857  0.1609
 9273SOL    HW139452   3.647   0.160   6.913  0.0103  1.0533  1.1316
 9273SOL    HW239453   3.703   0.089   7.031  0.7058  1.5479 -0.7721
 9274SOL     OW39454   0.365   2.791   2.227  0.2486  0.0961 -0.0708
 9274SOL    HW139455   0.423   2.805   2.301 -0.2970 -0.1834  0.4182
 9274SOL    HW239456   0.359   2.872   2.176  0.9292  0.3687  0.2843
 9275SOL     OW39457   4.123   3.678   2.520 -0.4853 -0.2107 -0.0869
 9275SOL    HW139458   4.055   3.631   2.472  0.5480 -1.4697 -0.3000
 9275SOL    HW239459   4.133   3.618   2.594 -0.3217  1.7023  1.4454
 9276SOL     OW39460   0.227   2.558  10.642 -0.4295 -0.2135  0.0299
 9276SOL    HW139461   0.265   2.555  10.554  1.5910 -2.0342  0.9647
 9276SOL    HW239462   0.183   2.643  10.644 -0.8769 -0.4472  0.0248
 9277SOL     OW39463   0.140   3.962   6.781  0.1766  0.6018 -0.0893
 9277SOL    HW139464   0.132   3.873   6.748 -0.8331  1.3485 -1.8854
 9277SOL    HW239465   0.114   3.942   6.871  0.4483  0.2166 -0.0968
 9278SOL     OW39466   0.710   0.697  17.229 -0.0979  0.3444  0.0514
 9278SOL    HW139467   0.678   0.762  17.292  0.5457  0.6301  0.0835
 9278SOL    HW239468   0.637   0.635  17.229 -1.2487  1.7381 -1.9824
 9279SOL     OW39469   1.016   2.272   7.003 -0.1283 -0.0462  0.0320
 9279SOL    HW139470   1.071   2.203   7.038  0.5155  0.2780 -0.3405
 9279SOL    HW239471   0.931   2.250   7.041 -0.4815 -0.8170 -1.1947
 9280SOL     OW39472   0.439   3.002   5.041 -0.3294  0.1498  0.0334
 9280SOL    HW139473   0.381   3.060   5.089 -0.5599  1.3227 -1.6422
 9280SOL    HW239474   0.404   2.989   4.952  3.2847 -0.6105 -1.2933
 9281SOL     OW39475   0.334   4.530   6.363  0.1110 -0.4417  0.1084
 9281SOL    HW139476   0.305   4.560   6.449  1.1619 -0.9980  0.6495
 9281SOL    HW239477   0.298   4.599   6.307 -0.9220 -0.7830  0.3492
 9282SOL     OW39478   1.007   2.978   8.747 -0.2400  0.1399  0.4500
 9282SOL    HW139479   0.990   2.913   8.678  1.0362 -0.2799  0.5336
 9282SOL    HW239480   1.014   2.909   8.813 -3.8575  0.4425  1.1818
 9283SOL     OW39481   2.538   3.936  17.625  0.0816  0.0583  0.1738
 9283SOL    HW139482   2.604   3.997  17.656  0.0378 -0.3212  1.0235
 9283SOL    HW239483   2.554   3.853  17.670  1.5560 -0.7201 -1.8104
 9284SOL     OW39484   4.229   1.994   2.800  1.1048  0.4668  0.0109
 9284SOL    HW139485   4.248   1.918   2.744  0.8804  0.1753  0.3229
 9284SOL    HW239486   4.236   1.956   2.888 -2.2080  1.5931  0.7622
 9285SOL     OW39487   2.357   3.769   3.556 -0.0775 -0.5464 -0.2891
 9285SOL    HW139488   2.349   3.858   3.523  1.0548  0.1308  1.3103
 9285SOL    HW239489   2.284   3.721   3.515 -2.5672  2.0285  1.1253
 9286SOL     OW39490   1.224   2.356   9.145  0.3183  0.6112  0.9230
 9286SOL    HW139491   1.232   2.263   9.127  0.5227  0.6448  0.8328
 9286SOL    HW239492   1.233   2.366   9.240  2.0069 -1.5540  0.9891
 9287SOL     OW39493   2.242   4.702  14.625  0.1428  0.3357 -0.5256
 9287SOL    HW139494   2.263   4.727  14.535  0.9467  2.7089  0.3234
 9287SOL    HW239495   2.174   0.032  14.638  0.1950  0.2978 -0.0492
 9288SOL     OW39496   1.513   0.260  15.350 -0.1923  0.1265 -0.1608
 9288SOL    HW139497   1.468   0.344  15.338 -3.0445 -1.3874 -0.0034
 9288SOL    HW239498   1.606   0.276  15.361 -0.0038  2.7785 -5.2815
 9289SOL     OW39499   3.295   2.136   6.961 -0.1724  0.0403  0.6050
 9289SOL    HW139500   3.218   2.179   6.925  2.1594  2.4842 -1.4724
 9289SOL    HW239501   3.320   2.212   7.014 -1.6563  0.1029  1.2129
 9290SOL     OW39502   2.709   3.975  14.766  0.1553  0.4398  0.3465
 9290SOL    HW139503   2.758   3.951  14.845  0.9555  0.6006 -0.1034
 9290SOL    HW239504   2.667   3.896  14.731 -0.1876  0.7095  0.1496
 9291SOL     OW39505   4.646   2.557   4.396  0.2738 -0.8801 -0.0329
 9291SOL    HW139506   4.707   2.508   4.452 -0.2082 -1.3453  0.0762
 9291SOL    HW239507   4.564   2.560   4.445 -1.4588  0.0748 -2.9916
 9292SOL     OW39508   0.406   1.174  16.686  0.4548  0.2793  0.2308
 9292SOL    HW139509   0.330   1.184  16.628 -0.3917  1.7176  1.5925
 9292SOL    HW239510   0.414   1.080  16.698  0.7969  0.4316  1.2029
 9293SOL     OW39511   3.931   3.386  16.759  0.0313 -0.2343  0.1567
 9293SOL    HW139512   3.939   3.479  16.780 -2.0674  0.0158 -0.1435
 9293SOL    HW239513   4.000   3.346  16.812  1.6249  0.8565 -1.0895
 9294SOL     OW39514   3.280   0.223   1.853  0.1065 -0.3551 -0.0366
 9294SOL    HW139515   3.302   0.263   1.769  0.7215  1.4771  0.9991
 9294SOL    HW239516   3.338   0.148   1.843 -0.5309 -0.6929 -1.2456
 9295SOL     OW39517   1.389   4.657   7.121 -0.0697  0.3203 -0.0664
 9295SOL    HW139518   1.321   4.596   7.092  0.2100 -0.1218  0.2023
 9295SOL    HW239519   1.389   4.636   7.214 -1.1693  0.1964 -0.0940
 9296SOL     OW39520   2.699   3.598   9.178  0.0290  0.1265  0.3908
 9296SOL    HW139521   2.729   3.508   9.195  0.5384 -0.0284 -1.2748
 9296SOL    HW239522   2.720   3.636   9.263 -0.9564 -1.4867  1.3653
 9297SOL     OW39523   1.643   3.819   2.971 -0.1782 -0.0865  0.3679
 9297SOL    HW139524   1.605   3.906   2.959 -1.4202 -0.7831 -0.7875
 9297SOL    HW239525   1.686   3.838   3.054  1.3217 -0.2420 -0.3917
 9298SOL     OW39526   1.473   0.356  14.518  0.1515 -0.3884 -0.1361
 9298SOL    HW139527   1.443   0.445  14.496 -0.0295 -0.1463  1.0865
 9298SOL    HW239528   1.411   0.334  14.587 -1.6586 -1.4051 -2.0933
 9299SOL     OW39529   4.505   2.727   3.972  0.1627  0.1481 -0.1333
 9299SOL    HW139530   4.575   2.727   4.037  0.4860 -0.6451 -0.4773
 9299SOL    HW239531   4.520   2.639   3.936 -2.5092 -0.0329 -0.8023
 9300SOL     OW39532   3.599   3.504   1.657  0.0524 -0.1388 -0.9610
 9300SOL    HW139533   3.596   3.419   1.701  0.1026 -0.1805 -1.0392
 9300SOL    HW239534   3.509   3.528   1.633  0.0463 -0.2491 -1.0472
 9301SOL     OW39535   0.745   3.125   7.738  0.2909  0.0454 -0.2905
 9301SOL    HW139536   0.774   3.210   7.771  0.3739 -0.1516  0.1415
 9301SOL    HW239537   0.656   3.142   7.709  0.5349  0.5374 -0.7494
 9302SOL     OW39538   2.897   1.396   4.012  0.0696 -0.0862 -0.0571
 9302SOL    HW139539   2.821   1.368   4.063 -0.1584  1.9749  0.7603
 9302SOL    HW239540   2.897   1.343   3.933 -1.6263 -0.1930  0.0147
 9303SOL     OW39541   3.788   4.196   8.713  0.1701 -0.2104 -0.3818
 9303SOL    HW139542   3.793   4.100   8.718 -0.1393 -0.1686  0.8169
 9303SOL    HW239543   3.700   4.211   8.679  0.2681  2.1355  0.4072
 9304SOL     OW39544   4.137   1.776   4.398  0.0104 -0.0122 -0.4772
 9304SOL    HW139545   4.125   1.691   4.356  1.8032 -0.0346 -0.9292
 9304SOL    HW239546   4.097   1.835   4.334  0.5382  0.7367 -0.1140
 9305SOL     OW39547   2.752   1.669   6.459 -0.6489  0.1397 -0.0565
 9305SOL    HW139548   2.815   1.602   6.484 -0.9061 -0.8138 -1.9930
 9305SOL    HW239549   2.672   1.628   6.493 -0.5313  0.7219  0.9386
 9306SOL     OW39550   2.477   1.015   0.475 -0.3166  0.2013 -0.0136
 9306SOL    HW139551   2.561   1.056   0.492 -0.3419  0.2051  0.1020
 9306SOL    HW239552   2.508   0.956   0.406 -0.7116 -0.5754  0.4699
 9307SOL     OW39553   3.021   2.173   3.085  0.6509  0.1328 -0.0017
 9307SOL    HW139554   3.056   2.262   3.092 -0.5695  0.7363 -1.5093
 9307SOL    HW239555   3.068   2.130   3.014  0.4563  1.4939 -0.9470
 9308SOL     OW39556   3.105   1.682   4.746  0.1331 -0.3772  0.1681
 9308SOL    HW139557   3.168   1.611   4.754  0.1325 -0.4950 -0.8244
 9308SOL    HW239558   3.050   1.663   4.670 -0.7203  1.5004  0.3230
 9309SOL     OW39559   0.121   0.488   2.166 -0.8031  0.1095 -0.0979
 9309SOL    HW139560   0.082   0.400   2.166 -0.7866  0.1118  2.4662
 9309SOL    HW239561   0.176   0.494   2.244 -1.3926 -0.1259  0.3351
 9310SOL     OW39562   0.416   1.827   7.147  0.4093  0.8456 -0.3723
 9310SOL    HW139563   0.469   1.848   7.070  0.6267  0.6339 -0.2825
 9310SOL    HW239564   0.466   1.754   7.184 -1.3687 -0.7006 -1.0210
 9311SOL     OW39565   2.130   3.727   4.831 -0.2783  0.0734  0.1428
 9311SOL    HW139566   2.062   3.724   4.764 -1.3081  1.8225  1.1159
 9311SOL    HW239567   2.089   3.671   4.898 -0.8382  0.0286 -0.2407
 9312SOL     OW39568   2.738   1.120  10.816  0.7801 -0.3365  0.1274
 9312SOL    HW139569   2.831   1.125  10.839  1.2833 -0.3695 -1.9290
 9312SOL    HW239570   2.733   1.027  10.840 -3.9412 -0.0553  0.2462
 9313SOL     OW39571   4.173   4.111   8.371  0.2497  0.4370  0.2483
 9313SOL    HW139572   4.163   4.201   8.403  0.5613 -0.0282  1.6606
 9313SOL    HW239573   4.182   4.128   8.278  1.6050  1.9844  0.6716
 9314SOL     OW39574   2.768   2.447   3.709  0.1463 -0.1978 -1.2363
 9314SOL    HW139575   2.826   2.420   3.780  1.0415  1.5655 -1.2818
 9314SOL    HW239576   2.797   2.538   3.712  2.0148 -0.8680  0.8961
 9315SOL     OW39577   3.708   3.225   0.846 -0.0039  0.1624 -0.0854
 9315SOL    HW139578   3.636   3.235   0.909 -1.5569  1.8001 -2.1188
 9315SOL    HW239579   3.662   3.199   0.766 -1.7432  0.3922  0.8260
 9316SOL     OW39580   1.546   0.767   6.151  0.5037  0.4569  0.2890
 9316SOL    HW139581   1.475   0.718   6.192  0.3722  0.2009 -0.2391
 9316SOL    HW239582   1.629   0.734   6.185 -0.4262 -1.6267  0.5388
 9317SOL     OW39583   4.468   0.863  10.400 -0.1349  0.0335 -0.6236
 9317SOL    HW139584   4.380   0.898  10.392 -0.2687 -0.0449  0.4668
 9317SOL    HW239585   4.458   0.810  10.479  0.9188 -1.2380 -1.3455
 9318SOL     OW39586   3.704   1.549   2.999 -0.1734  0.3916 -0.1202
 9318SOL    HW139587   3.755   1.480   3.042 -0.3503  0.7895  0.7287
 9318SOL    HW239588   3.773   1.569   2.935  0.4025 -1.0338  0.0445
 9319SOL     OW39589   2.460   0.952   8.306 -0.0815 -0.1547 -0.8091
 9319SOL    HW139590   2.402   1.028   8.313 -0.3974 -0.4130 -0.5959
 9319SOL    HW239591   2.408   0.907   8.239  0.4324 -2.4162  0.3140
 9320SOL     OW39592   3.345   2.712   3.531  0.1089  0.2516 -0.3823
 9320SOL    HW139593   3.420   2.766   3.557  0.7144 -0.1467 -1.3245
 9320SOL    HW239594   3.354   2.623   3.564  1.1613  0.1351 -1.0022
 9321SOL     OW39595   0.553   2.743   8.923  0.1667  0.2239 -0.2404
 9321SOL    HW139596   0.617   2.763   8.991  0.5572  0.0235 -0.5531
 9321SOL    HW239597   0.550   2.823   8.870 -2.5330 -1.1924 -2.1913
 9322SOL     OW39598   3.578   3.651  15.519 -0.2824  0.1241 -0.0686
 9322SOL    HW139599   3.519   3.675  15.590 -2.1293  1.3367 -2.0377
 9322SOL    HW239600   3.514   3.661  15.449  1.1660 -2.1703 -1.7278
 9323SOL     OW39601   4.508   1.100   2.010  0.0302  0.1854  0.5843
 9323SOL    HW139602   4.565   1.034   1.971  1.2106  3.0459 -2.6127
 9323SOL    HW239603   4.474   1.050   2.084 -3.2618 -0.0522 -1.0672
 9324SOL     OW39604   1.516   0.764   5.411 -0.1556 -0.2220  0.1135
 9324SOL    HW139605   1.600   0.805   5.392 -1.3730  2.4407  0.4297
 9324SOL    HW239606   1.541   0.721   5.492  1.4854  2.0078  0.8048
 9325SOL     OW39607   3.724   2.746  11.273  0.6478  0.6341  0.0445
 9325SOL    HW139608   3.688   2.712  11.191 -1.1188  0.5601  0.8572
 9325SOL    HW239609   3.671   2.822  11.298 -2.5874 -2.4046  2.3946
 9326SOL     OW39610   2.890   0.040  15.632  0.3542  0.2397 -0.0065
 9326SOL    HW139611   2.818   0.090  15.670 -0.6312 -1.7723  0.7940
 9326SOL    HW239612   2.950   0.057  15.704  0.6861  2.3446 -0.8081
 9327SOL     OW39613   2.049   2.798  14.727 -0.1216  0.7435 -0.2066
 9327SOL    HW139614   2.082   2.738  14.661  0.5034 -0.5016  1.2265
 9327SOL    HW239615   1.972   2.753  14.763 -0.6861  0.9916 -1.1104
 9328SOL     OW39616   1.244   4.280   5.214 -0.2933  0.1136 -0.0114
 9328SOL    HW139617   1.219   4.193   5.181 -0.2606 -0.1658  0.7053
 9328SOL    HW239618   1.171   4.336   5.188  0.4655  0.1206 -2.1397
 9329SOL     OW39619   1.919   1.738   8.906 -0.5065 -0.2909  0.1739
 9329SOL    HW139620   1.955   1.714   8.821  0.3748 -0.1526  0.5061
 9329SOL    HW239621   1.981   1.700   8.969  0.2736  1.1359  0.2533
 9330SOL     OW39622   4.403   0.495   6.219  0.3886  0.5002  0.1897
 9330SOL    HW139623   4.399   0.578   6.173 -0.8501  0.9182  1.0421
 9330SOL    HW239624   4.351   0.435   6.166 -0.3739  0.0746  1.4011
 9331SOL     OW39625   2.799   4.124   4.010  0.1891 -0.7792 -0.4017
 9331SOL    HW139626   2.718   4.149   4.052 -0.3443 -2.9948 -0.1071
 9331SOL    HW239627   2.774   4.103   3.920 -2.4615 -2.7332  0.8081
 9332SOL     OW39628   3.406   1.088   9.460  0.6994  0.0031  0.5396
 9332SOL    HW139629   3.388   1.182   9.457 -0.0947 -0.1997 -1.0311
 9332SOL    HW239630   3.353   1.060   9.534 -1.0464 -0.6101 -0.9429
 9333SOL     OW39631   2.944   4.539   7.862  0.9894 -0.3121 -0.3163
 9333SOL    HW139632   2.943   4.443   7.871  1.4381  0.0189  3.2575
 9333SOL    HW239633   2.910   4.571   7.946  0.3226  1.8863 -1.4322
 9334SOL     OW39634   4.121   0.159  13.610  0.3644  0.4479  0.3180
 9334SOL    HW139635   4.108   0.072  13.647 -1.0977  0.4542 -0.1864
 9334SOL    HW239636   4.096   0.214  13.684  0.4475 -2.9017  2.8338
 9335SOL     OW39637   4.009   2.985   2.577 -0.2721  0.0962 -0.0350
 9335SOL    HW139638   3.971   2.976   2.664  0.5083  0.3413  0.3308
 9335SOL    HW239639   3.931   2.979   2.522  0.5416 -0.1295 -1.1731
 9336SOL     OW39640   0.259   0.172  16.632 -0.2733 -0.2413  0.0869
 9336SOL    HW139641   0.244   0.091  16.681  0.6532  0.3711  1.3880
 9336SOL    HW239642   0.294   0.136  16.551  2.0686  1.8307  0.1624
 9337SOL     OW39643   4.406   4.042   7.827 -0.0324  0.1956 -0.0141
 9337SOL    HW139644   4.477   4.032   7.891  0.1190  0.9883 -0.0569
 9337SOL    HW239645   4.440   4.119   7.781 -1.3260  1.1777  0.6639
 9338SOL     OW39646   0.999   2.087   9.144 -0.2768 -0.3202 -0.9342
 9338SOL    HW139647   0.917   2.059   9.184 -0.6655  0.9086 -0.8663
 9338SOL    HW239648   1.058   2.014   9.159  0.4451  0.1979 -1.2842
 9339SOL     OW39649   0.937   2.566   5.603  0.1618  0.1414  0.2531
 9339SOL    HW139650   0.916   2.548   5.512  0.7562  1.1343 -0.0810
 9339SOL    HW239651   1.031   2.547   5.606  0.2893  0.9203  1.4138
 9340SOL     OW39652   1.218   0.732  12.903  0.1893 -0.2509  0.3984
 9340SOL    HW139653   1.221   0.762  12.812 -0.4567  1.7367  1.0239
 9340SOL    HW239654   1.288   0.667  12.900  0.9999  0.7155 -1.2084
 9341SOL     OW39655   4.044   0.021   9.280 -0.7226  0.0048 -0.6389
 9341SOL    HW139656   3.979   0.085   9.250  0.7156  1.7026 -0.1596
 9341SOL    HW239657   4.000   4.724   9.357  1.7329 -0.4357  0.5870
 9342SOL     OW39658   3.059   4.502   2.383 -0.0535 -0.7282 -0.8115
 9342SOL    HW139659   3.132   4.556   2.414 -1.3995  2.4566 -3.1677
 9342SOL    HW239660   3.000   4.575   2.363  0.1070 -1.1466 -2.8255
 9343SOL     OW39661   1.404   2.788  13.596  0.2550 -0.5647 -0.2437
 9343SOL    HW139662   1.393   2.883  13.606  0.2171 -0.6675  0.6594
 9343SOL    HW239663   1.419   2.768  13.503 -0.6598 -0.8299 -0.3356
 9344SOL     OW39664   2.822   0.131   7.999  0.2611  0.1735 -0.0286
 9344SOL    HW139665   2.743   0.148   7.947  0.5409  0.1909 -0.4459
 9344SOL    HW239666   2.852   0.221   8.007 -0.1919  0.4209 -1.1367
 9345SOL     OW39667   0.191   0.126  16.128  0.3405  0.0674  0.3499
 9345SOL    HW139668   0.277   0.144  16.091  0.0236 -4.2679 -2.4988
 9345SOL    HW239669   0.135   0.130  16.050  0.8517  2.9747  0.1370
 9346SOL     OW39670   2.556   4.331   9.870  0.0173  0.7298  0.4695
 9346SOL    HW139671   2.533   4.323   9.777  1.5175  1.3610  0.0378
 9346SOL    HW239672   2.557   4.240   9.900  0.9563  0.1866 -1.1579
 9347SOL     OW39673   3.605   2.786  15.673  0.3137  0.1324 -0.2095
 9347SOL    HW139674   3.564   2.745  15.750  1.6555  0.9332  0.9360
 9347SOL    HW239675   3.562   2.746  15.598 -0.7175  0.3729  0.2557
 9348SOL     OW39676   1.883   2.405   1.087 -0.4995 -0.1765  0.1659
 9348SOL    HW139677   1.944   2.449   1.146  0.2901  0.3502 -1.0419
 9348SOL    HW239678   1.872   2.316   1.121 -1.7080 -0.5122 -1.1314
 9349SOL     OW39679   3.474   2.637   2.721  0.6597  0.0576  0.0641
 9349SOL    HW139680   3.397   2.615   2.668  1.0065 -0.3009 -0.2923
 9349SOL    HW239681   3.505   2.547   2.714  0.8402 -0.1276  3.0378
 9350SOL     OW39682   1.987   0.207   8.513  0.0116 -0.0735 -0.8542
 9350SOL    HW139683   2.062   0.177   8.462  0.7268  0.3183 -0.0216
 9350SOL    HW239684   1.950   0.123   8.541 -1.0831  1.1888  1.5183
 9351SOL     OW39685   2.276   3.642   9.127  0.0201 -0.1766  0.0600
 9351SOL    HW139686   2.281   3.547   9.127  0.9583 -0.1345  0.4305
 9351SOL    HW239687   2.327   3.667   9.204  0.5236  1.2003 -0.7156
 9352SOL     OW39688   1.299   0.686  10.651  0.1986  0.2363  0.3601
 9352SOL    HW139689   1.310   0.605  10.701 -1.4965  0.2520  0.7575
 9352SOL    HW239690   1.269   0.741  10.723 -0.8172  0.3802 -0.1808
 9353SOL     OW39691   4.309   2.234   9.581  0.0081  0.0992 -0.0913
 9353SOL    HW139692   4.383   2.274   9.627  1.1972 -0.2332 -1.7400
 9353SOL    HW239693   4.344   2.189   9.504  2.9215 -2.3829  2.6951
 9354SOL     OW39694   4.336   1.420   4.317  0.0796 -0.6125  0.5362
 9354SOL    HW139695   4.288   1.488   4.270  0.1479  0.3200  1.8081
 9354SOL    HW239696   4.283   1.343   4.295  0.2386 -0.3735 -0.7041
 9355SOL     OW39697   1.414   1.258  11.724 -0.0067  0.3299 -0.0193
 9355SOL    HW139698   1.469   1.181  11.710 -1.1259 -0.4926  0.1700
 9355SOL    HW239699   1.393   1.259  11.818  1.4831 -1.4455  0.3475
 9356SOL     OW39700   1.508   4.157  11.954 -0.1466  0.2309 -0.0827
 9356SOL    HW139701   1.520   4.087  12.018 -0.1883 -0.5916 -0.9748
 9356SOL    HW239702   1.587   4.206  11.976  0.1045  0.1351 -0.7823
 9357SOL     OW39703   1.420   0.741  12.488 -0.2630  0.0885 -0.1836
 9357SOL    HW139704   1.487   0.675  12.505  0.2804  0.2054 -1.9062
 9357SOL    HW239705   1.479   0.814  12.472 -0.7594  0.3739 -0.7006
 9358SOL     OW39706   3.504   1.190   3.195 -0.1673  0.3991 -0.0728
 9358SOL    HW139707   3.474   1.122   3.255 -0.1041  0.0368 -0.4514
 9358SOL    HW239708   3.564   1.230   3.258  1.5681  0.6959 -1.9128
 9359SOL     OW39709   3.532   1.432   7.120  0.1050  0.0452  0.1589
 9359SOL    HW139710   3.513   1.515   7.076  0.0727  0.5421  1.1240
 9359SOL    HW239711   3.442   1.400   7.128 -0.1347  0.8812  0.8390
 9360SOL     OW39712   2.325   1.935   8.937  0.4210  0.2623  0.2668
 9360SOL    HW139713   2.277   1.866   8.891  0.9725  0.6697 -0.9097
 9360SOL    HW239714   2.255   1.963   8.995 -1.2333  0.4416 -1.8254
 9361SOL     OW39715   2.153   0.561   3.449  0.4022 -0.4045 -0.4261
 9361SOL    HW139716   2.072   0.600   3.483  0.6726 -0.8768  0.7727
 9361SOL    HW239717   2.120   0.533   3.364 -1.2281  0.2378 -0.0074
 9362SOL     OW39718   3.215   0.689   8.672 -0.0376  0.0753 -0.6921
 9362SOL    HW139719   3.205   0.782   8.655 -0.5033  0.2650  0.6368
 9362SOL    HW239720   3.285   0.659   8.613 -0.6011 -2.0938 -0.2635
 9363SOL     OW39721   1.477   1.458  12.613 -0.3951 -0.7096 -0.7923
 9363SOL    HW139722   1.546   1.392  12.616  2.2095  2.0643 -0.0020
 9363SOL    HW239723   1.465   1.471  12.519 -1.9797  2.1526 -0.2101
 9364SOL     OW39724   2.821   4.417  17.622 -0.3624 -0.0278  0.0210
 9364SOL    HW139725   2.908   4.376  17.615 -0.3609  0.3605 -2.3268
 9364SOL    HW239726   2.827   4.472  17.700 -2.1820  0.2413 -0.0231
 9365SOL     OW39727   3.723   1.242   5.146 -0.1095  0.1297 -0.0106
 9365SOL    HW139728   3.770   1.324   5.135 -1.1612  0.9582  1.5545
 9365SOL    HW239729   3.739   1.201   5.061 -2.2011 -0.9127  0.0953
 9366SOL     OW39730   4.234   2.833   1.982 -0.2472  0.5313  0.0333
 9366SOL    HW139731   4.166   2.899   1.994  0.9614  1.6605  0.6469
 9366SOL    HW239732   4.316   2.879   2.001  1.3077 -1.2723 -2.2611
 9367SOL     OW39733   2.618   3.107   0.837 -0.1265  0.4333 -0.3598
 9367SOL    HW139734   2.617   3.203   0.833  0.7519  0.5018  1.4001
 9367SOL    HW239735   2.536   3.084   0.881 -0.8580  0.4047 -1.7366
 9368SOL     OW39736   0.669   4.125   2.594  0.2333  0.2862  0.6017
 9368SOL    HW139737   0.759   4.109   2.625  0.5216 -0.9880 -0.9032
 9368SOL    HW239738   0.626   4.125   2.680 -2.1785  1.9414 -0.6147
 9369SOL     OW39739   3.412   3.078   1.359 -0.0320 -0.5565  0.1659
 9369SOL    HW139740   3.427   3.141   1.289 -2.9008  0.9968  0.9820
 9369SOL    HW239741   3.453   3.123   1.433 -1.5489  2.6830 -1.0240
 9370SOL     OW39742   4.528   4.683   6.202 -0.3383  0.1852  0.1916
 9370SOL    HW139743   4.435   4.671   6.181 -0.2441 -0.1695 -0.0137
 9370SOL    HW239744   4.548   0.005   6.128 -1.7522 -0.1278 -0.4377
 9371SOL     OW39745   2.994   2.409   2.259  0.1509 -0.0804 -0.6245
 9371SOL    HW139746   2.968   2.495   2.293  0.5262 -0.5261  0.7871
 9371SOL    HW239747   3.083   2.401   2.295  0.1003 -2.6725 -1.1016
 9372SOL     OW39748   1.297   0.818   9.686  0.4838 -0.9543 -0.1018
 9372SOL    HW139749   1.322   0.892   9.742 -0.3737 -0.2617 -0.6342
 9372SOL    HW239750   1.212   0.853   9.660 -0.1460 -0.6542  2.3225
 9373SOL     OW39751   1.122   1.190   5.499 -0.2353 -0.0727  0.0952
 9373SOL    HW139752   1.120   1.100   5.467  3.1202 -0.1871  0.2512
 9373SOL    HW239753   1.047   1.201   5.557  1.1098  0.0716  1.8209
 9374SOL     OW39754   2.324   4.052  14.505 -0.5296 -0.1128 -0.0328
 9374SOL    HW139755   2.239   4.015  14.528  0.3949 -2.4112 -0.2376
 9374SOL    HW239756   2.361   4.090  14.584  0.5202  0.0979 -0.6261
 9375SOL     OW39757   1.369   1.699   4.045 -0.0009  0.2414  0.3291
 9375SOL    HW139758   1.299   1.765   4.049  0.9971  1.2036  2.3473
 9375SOL    HW239759   1.369   1.657   3.959  1.7793 -0.2132  0.5565
 9376SOL     OW39760   3.647   0.367   5.181 -0.1953  0.3963 -0.4065
 9376SOL    HW139761   3.700   0.428   5.231 -1.0426  0.1204  0.8224
 9376SOL    HW239762   3.717   0.313   5.145  0.7616  1.7715 -0.5684
 9377SOL     OW39763   0.138   3.450   3.392  0.3627  0.3394 -0.0877
 9377SOL    HW139764   0.141   3.469   3.299 -2.8472 -1.3653 -0.5295
 9377SOL    HW239765   0.221   3.479   3.431  0.2660 -0.5313  0.7699
 9378SOL     OW39766   0.728   0.921  10.621  0.0750  0.0591 -0.1956
 9378SOL    HW139767   0.638   0.941  10.648  1.3925 -0.2225  4.3393
 9378SOL    HW239768   0.749   0.853  10.685  1.3282  1.9393  1.3604
 9379SOL     OW39769   0.753   1.262   3.479  0.3249  0.2482  0.1813
 9379SOL    HW139770   0.731   1.349   3.446 -0.8614 -0.3995 -0.7439
 9379SOL    HW239771   0.667   1.235   3.511  1.1138 -2.9982 -0.4277
 9380SOL     OW39772   1.975   3.384   1.502 -0.2456 -0.0370  0.0473
 9380SOL    HW139773   1.899   3.356   1.553  0.2031 -2.2793 -0.5167
 9380SOL    HW239774   2.017   3.451   1.555  2.1005 -2.7772  1.6598
 9381SOL     OW39775   4.538   2.258  10.142 -0.4193 -0.2367  0.4387
 9381SOL    HW139776   4.467   2.194  10.144  0.9830 -1.8157 -0.4743
 9381SOL    HW239777   4.558   2.255  10.235  0.9014  0.5005  0.1740
 9382SOL     OW39778   3.119   0.407   8.928 -0.3549 -0.4731 -0.0570
 9382SOL    HW139779   3.084   0.491   8.897  0.0199 -0.9760 -1.8801
 9382SOL    HW239780   3.113   0.346   8.855 -3.0521 -2.2729  1.6657
 9383SOL     OW39781   0.639   1.537   6.242  0.4276 -0.0696 -0.4576
 9383SOL    HW139782   0.636   1.619   6.193 -0.0902  0.8078  1.0282
 9383SOL    HW239783   0.590   1.480   6.182  0.6998  1.3134 -2.0001
 9384SOL     OW39784   2.588   4.315   8.521  0.3092  0.4503 -0.1021
 9384SOL    HW139785   2.667   4.266   8.545 -0.7142 -0.7279  0.8644
 9384SOL    HW239786   2.547   4.318   8.608 -0.5615 -0.0895 -0.5005
 9385SOL     OW39787   2.622   0.801  11.818 -0.5570  0.5084  0.4958
 9385SOL    HW139788   2.648   0.818  11.727 -0.5637 -2.9298 -0.1657
 9385SOL    HW239789   2.554   0.867  11.832 -0.3974  0.7145  0.3013
 9386SOL     OW39790   0.484   2.529   2.351  0.2869  0.0722 -0.0332
 9386SOL    HW139791   0.521   2.614   2.325 -2.0999  1.4213  0.9543
 9386SOL    HW239792   0.451   2.550   2.438 -0.5394  0.5084 -0.4480
 9387SOL     OW39793   3.807   0.156  13.898  0.4363  0.4098 -0.2969
 9387SOL    HW139794   3.870   0.222  13.869 -0.3460  1.7702  1.1089
 9387SOL    HW239795   3.801   0.102  13.819  0.8551 -0.1157  0.0388
 9388SOL     OW39796   3.066   1.682  16.292 -0.3095 -0.2274  0.3696
 9388SOL    HW139797   3.016   1.734  16.353  0.5044  0.4727  0.4384
 9388SOL    HW239798   2.995   1.628  16.256 -0.2645 -1.0978  1.5727
 9389SOL     OW39799   1.792   0.641   6.184  0.3241  0.3740  0.4625
 9389SOL    HW139800   1.861   0.670   6.124 -0.4944 -0.1261 -0.7152
 9389SOL    HW239801   1.769   0.559   6.140  0.9540 -0.0654  0.9424
 9390SOL     OW39802   2.909   3.707   7.697  0.0521 -0.1562  0.1159
 9390SOL    HW139803   2.936   3.635   7.754 -0.2087  0.4408  0.9855
 9390SOL    HW239804   2.916   3.672   7.608 -1.6537  0.9599 -0.4483
 9391SOL     OW39805   3.655   4.387   3.205  0.2465 -0.8039 -0.7091
 9391SOL    HW139806   3.642   4.338   3.286 -0.0755 -1.4912 -1.1742
 9391SOL    HW239807   3.562   4.385   3.182  0.2034  0.3310 -0.6328
 9392SOL     OW39808   2.744   3.517   1.431 -0.7306 -0.4853  0.2925
 9392SOL    HW139809   2.716   3.609   1.424  0.5711 -0.0832  0.2969
 9392SOL    HW239810   2.758   3.513   1.526  1.2601  0.0829  0.0157
 9393SOL     OW39811   1.221   4.600  10.474  0.4424  0.2492 -0.7007
 9393SOL    HW139812   1.285   4.649  10.422  1.8008  0.3531  1.0792
 9393SOL    HW239813   1.179   4.559  10.398 -2.7013 -1.0666  1.7805
 9394SOL     OW39814   4.426   2.997   2.098  0.3609  0.5736 -0.4216
 9394SOL    HW139815   4.462   3.075   2.056  2.1613  1.4510  2.7820
 9394SOL    HW239816   4.499   2.935   2.096  1.1069  1.4034  2.3023
 9395SOL     OW39817   4.651   3.137  10.484  0.2969  0.2966 -0.0386
 9395SOL    HW139818   4.724   3.131  10.545 -1.0333 -2.9326  1.2634
 9395SOL    HW239819   4.585   3.085  10.530  1.4003 -1.3690 -0.3260
 9396SOL     OW39820   0.909   2.984   7.586  0.0208  0.0456 -0.2498
 9396SOL    HW139821   0.990   3.016   7.625  0.1163 -0.9546  0.3709
 9396SOL    HW239822   0.840   3.034   7.631 -0.0654  0.0421 -0.3795
 9397SOL     OW39823   4.357   3.844   4.029  0.2752  0.4726 -0.4982
 9397SOL    HW139824   4.411   3.777   3.987  0.2807 -0.0039  0.2766
 9397SOL    HW239825   4.295   3.869   3.961 -1.4509 -1.4248  0.3816
 9398SOL     OW39826   3.624   3.388  12.084  0.3069  0.5154  0.2325
 9398SOL    HW139827   3.564   3.461  12.069  0.9200  1.0306  0.2840
 9398SOL    HW239828   3.563   3.328  12.128 -1.5807  2.5220  0.3696
 9399SOL     OW39829   4.280   3.322   2.014 -0.0791 -0.3244 -0.6149
 9399SOL    HW139830   4.374   3.302   2.010  0.3812  1.5946  0.6122
 9399SOL    HW239831   4.259   3.323   2.108  3.8124  0.2221  0.2485
 9400SOL     OW39832   0.680   3.020  16.587  0.3346  0.0590 -0.2151
 9400SOL    HW139833   0.732   3.030  16.667  2.7909 -2.9184 -1.4314
 9400SOL    HW239834   0.671   3.113  16.564  0.6316 -0.2972 -1.7432
 9401SOL     OW39835   3.748   3.959  12.510  0.3360  0.3787 -0.0592
 9401SOL    HW139836   3.736   4.052  12.493 -1.8107 -0.0423 -0.8307
 9401SOL    HW239837   3.810   3.967  12.583  1.4596 -0.9108 -0.8785
 9402SOL     OW39838   1.561   0.395   1.207 -0.2270  0.2774  0.6495
 9402SOL    HW139839   1.546   0.316   1.259  2.2835 -1.0201 -0.6264
 9402SOL    HW239840   1.656   0.398   1.218 -0.2925 -1.0237  1.5424
 9403SOL     OW39841   3.182   0.007   7.005 -0.6723 -0.1659 -0.0137
 9403SOL    HW139842   3.103   4.724   6.954 -0.8587  0.6425 -0.0345
 9403SOL    HW239843   3.137   0.046   7.080 -2.1294 -1.0249 -0.4374
 9404SOL     OW39844   4.019   2.986  15.585 -0.3465 -0.3515 -0.0366
 9404SOL    HW139845   3.924   2.975  15.583 -0.1497 -2.1394  0.1162
 9404SOL    HW239846   4.050   2.899  15.609 -0.6023 -0.1695  0.9327
 9405SOL     OW39847   2.306   4.560   3.685 -0.4599 -0.2689  0.0301
 9405SOL    HW139848   2.215   4.538   3.707 -0.8505 -0.8397 -2.0685
 9405SOL    HW239849   2.298   4.655   3.689 -2.0290 -0.3461 -1.0747
 9406SOL     OW39850   4.496   3.209  11.883  0.7656 -0.1328 -0.3721
 9406SOL    HW139851   4.547   3.282  11.847 -1.0411  1.5339  0.4526
 9406SOL    HW239852   4.497   3.157  11.803 -1.0370 -1.3187  0.3809
 9407SOL     OW39853   0.135   2.659   8.511  0.8672 -0.2301  0.0859
 9407SOL    HW139854   0.161   2.658   8.603  0.4689  1.1831  0.2104
 9407SOL    HW239855   0.196   2.724   8.477  0.6052  0.2741  0.5895
 9408SOL     OW39856   0.686   2.280  14.182  0.3386 -0.0590 -0.4151
 9408SOL    HW139857   0.699   2.257  14.090 -0.0742  0.7182 -0.6683
 9408SOL    HW239858   0.729   2.202  14.216  1.3007  0.4848 -0.3824
 9409SOL     OW39859   0.809   4.168  15.998 -0.0964 -0.0537  0.1699
 9409SOL    HW139860   0.723   4.144  15.963 -0.5914  1.7866  0.1317
 9409SOL    HW239861   0.788   4.156  16.091 -1.0190 -1.0368 -0.1593
 9410SOL     OW39862   1.283   3.930   5.018 -0.4288 -0.2748  0.0593
 9410SOL    HW139863   1.207   3.918   5.075  0.1749 -1.6333  0.5718
 9410SOL    HW239864   1.344   3.866   5.054  0.1529 -0.7248 -1.7668
 9411SOL     OW39865   1.193   4.350   6.825  0.1249  0.0997 -1.0572
 9411SOL    HW139866   1.193   4.398   6.908 -1.5163  0.2080 -1.1056
 9411SOL    HW239867   1.099   4.343   6.809 -0.6016  0.3766  3.1776
 9412SOL     OW39868   1.741   1.069   5.604 -0.6109 -0.1232 -0.3219
 9412SOL    HW139869   1.717   0.985   5.642  0.5606 -0.5758 -0.5928
 9412SOL    HW239870   1.737   1.058   5.509 -0.8764 -0.2860 -0.2924
 9413SOL     OW39871   1.858   3.594  10.230 -0.3167  0.0793  0.5525
 9413SOL    HW139872   1.922   3.650  10.188 -1.0528 -0.8373 -1.8138
 9413SOL    HW239873   1.817   3.563  10.149 -1.3635 -0.6517  1.3619
 9414SOL     OW39874   3.593   1.171  12.366 -0.5163 -0.7103  1.0274
 9414SOL    HW139875   3.662   1.120  12.322 -1.9247  0.5895 -2.6857
 9414SOL    HW239876   3.605   1.254  12.320 -0.6809 -1.2966 -0.0756
 9415SOL     OW39877   1.820   3.137   4.570 -0.2650  0.2490  0.2054
 9415SOL    HW139878   1.782   3.087   4.498  0.0737 -1.1926  1.0102
 9415SOL    HW239879   1.904   3.093   4.584 -0.9969 -0.3534  2.8718
 9416SOL     OW39880   3.152   1.481   4.067 -0.5330 -0.1150 -0.1852
 9416SOL    HW139881   3.062   1.459   4.043 -1.4433  2.2003  1.0888
 9416SOL    HW239882   3.155   1.464   4.161 -0.3310  0.0151 -0.1683
 9417SOL     OW39883   4.650   2.596   5.441 -1.0743  0.4874 -0.2244
 9417SOL    HW139884   4.730   2.566   5.398 -1.7050 -0.8070 -0.4929
 9417SOL    HW239885   4.674   2.552   5.522 -0.2719  0.8101 -0.2883
 9418SOL     OW39886   4.367   0.665   6.436 -0.3113 -0.2259 -0.2644
 9418SOL    HW139887   4.451   0.625   6.412  0.7356  0.5913  1.9416
 9418SOL    HW239888   4.312   0.593   6.409  1.2422 -0.5837 -2.4923
 9419SOL     OW39889   3.907   2.599  16.900 -0.1383 -0.1869  0.1202
 9419SOL    HW139890   3.951   2.524  16.939 -1.2442  0.2382  2.1982
 9419SOL    HW239891   3.969   2.639  16.839 -0.2043 -0.8899 -0.3976
 9420SOL     OW39892   0.968   1.112  16.009 -0.1346 -0.1109 -0.5183
 9420SOL    HW139893   0.998   1.074  15.926 -0.4831 -0.4499 -0.4888
 9420SOL    HW239894   1.032   1.183  16.015 -0.6046  0.3263 -0.7449
 9421SOL     OW39895   3.072   2.807  10.727 -0.1633 -0.1920  0.1178
 9421SOL    HW139896   3.108   2.792  10.640  2.6883 -1.0566  1.4267
 9421SOL    HW239897   3.062   2.712  10.739 -0.1407 -0.1790  0.2370
 9422SOL     OW39898   1.543   1.712  15.340  0.6629 -0.0612 -0.3881
 9422SOL    HW139899   1.609   1.656  15.299  0.1617 -0.7334 -0.2799
 9422SOL    HW239900   1.581   1.800  15.332 -1.0132  0.5337 -1.6677
 9423SOL     OW39901   0.779   2.786   5.704 -0.8515  0.2926  0.4869
 9423SOL    HW139902   0.806   2.846   5.635  0.2640 -2.2077 -1.2481
 9423SOL    HW239903   0.814   2.702   5.675  0.0786  1.3894 -1.5389
 9424SOL     OW39904   1.036   4.369   2.651  0.4583  0.0718 -0.0240
 9424SOL    HW139905   1.093   4.400   2.581  1.3174 -1.0151  0.1861
 9424SOL    HW239906   1.025   4.279   2.621 -1.3599 -0.5736  2.5655
 9425SOL     OW39907   2.640   4.720   7.015  0.6596  0.0462 -1.4634
 9425SOL    HW139908   2.548   4.695   7.001  1.1735 -2.2302 -0.7156
 9425SOL    HW239909   2.662   4.697   7.105  0.1009 -0.2327 -1.3991
 9426SOL     OW39910   0.044   1.243   6.061  0.2913  0.1620 -0.3521
 9426SOL    HW139911   0.012   1.264   6.149  0.3359  1.3298 -0.6192
 9426SOL    HW239912   0.004   1.157   6.046 -1.5764  0.9031  0.3434
 9427SOL     OW39913   4.107   2.871   3.487 -0.2108  0.2893 -0.5738
 9427SOL    HW139914   4.166   2.942   3.511  1.2335 -1.2088  0.3003
 9427SOL    HW239915   4.117   2.865   3.392  2.4611 -1.8660 -0.1713
 9428SOL     OW39916   3.796   0.556  11.223 -0.2516 -0.1533 -0.5214
 9428SOL    HW139917   3.734   0.527  11.156  1.4422 -0.1776 -2.0864
 9428SOL    HW239918   3.797   0.651  11.206 -0.7873 -0.3561 -1.7233
 9429SOL     OW39919   0.071   4.239  16.240  0.0513  0.1335 -0.0337
 9429SOL    HW139920   0.094   4.230  16.148  0.8874  0.5761  0.1296
 9429SOL    HW239921   0.013   4.165  16.258  1.2469 -0.8552 -0.2920
 9430SOL     OW39922   3.635   4.723   8.096  0.2874 -0.5675  0.5003
 9430SOL    HW139923   3.728   4.704   8.078  0.7179  0.9297  1.1508
 9430SOL    HW239924   3.623   0.075   8.060  1.1450 -0.3354  0.7866
 9431SOL     OW39925   3.178   4.254   6.461  0.0130  0.3156 -0.2790
 9431SOL    HW139926   3.227   4.336   6.467  1.6161 -0.7004  0.3331
 9431SOL    HW239927   3.119   4.284   6.391  0.9236  0.1909 -1.0915
 9432SOL     OW39928   0.088   2.323   4.552 -0.3119  0.3558 -0.3257
 9432SOL    HW139929   0.031   2.336   4.628  0.8667 -0.5609  0.7044
 9432SOL    HW239930   0.167   2.368   4.580 -0.7584 -0.1927  1.8441
 9433SOL     OW39931   3.492   4.018   1.425  0.8833  0.2866  0.2993
 9433SOL    HW139932   3.587   4.010   1.430  0.7446 -0.9890  1.1343
 9433SOL    HW239933   3.474   4.091   1.484  0.4345  0.7174 -0.3732
 9434SOL     OW39934   4.236   2.548  12.837 -0.0751 -0.1793  0.3360
 9434SOL    HW139935   4.153   2.505  12.855  0.2552 -0.4405  1.2564
 9434SOL    HW239936   4.201   2.633  12.809  0.4157  0.4001  1.4811
 9435SOL     OW39937   2.092   3.015   6.564  0.3726  0.2891 -0.2419
 9435SOL    HW139938   2.105   3.033   6.471 -1.9149 -0.4508 -0.7038
 9435SOL    HW239939   2.013   2.961   6.565 -0.2264  1.1405 -1.8929
 9436SOL     OW39940   4.437   4.046  14.932  0.0603  0.2956  0.3496
 9436SOL    HW139941   4.429   4.120  14.871 -1.4269 -0.0960  0.0712
 9436SOL    HW239942   4.355   3.998  14.926  0.2594  0.1846 -1.6531
 9437SOL     OW39943   2.359   1.878  15.301  0.2070 -0.2329 -0.4693
 9437SOL    HW139944   2.350   1.958  15.250  0.3815 -0.5072 -0.9328
 9437SOL    HW239945   2.358   1.803  15.241  1.8433 -0.7640  0.1514
 9438SOL     OW39946   0.187   2.474   9.053 -0.6384  0.0514  0.6600
 9438SOL    HW139947   0.201   2.454   8.960  1.5346 -1.4995  1.3231
 9438SOL    HW239948   0.232   2.559   9.060 -2.7605  1.1587  0.9517
 9439SOL     OW39949   2.812   1.256   5.550 -0.0732  0.3236  0.4906
 9439SOL    HW139950   2.824   1.232   5.458 -2.7070 -0.6709  0.4114
 9439SOL    HW239951   2.900   1.253   5.587  1.1441  1.3567 -2.2845
 9440SOL     OW39952   2.568   2.752  11.563 -0.0826 -0.5048  0.5479
 9440SOL    HW139953   2.610   2.831  11.596 -1.5574  0.6996 -0.4922
 9440SOL    HW239954   2.564   2.773  11.470 -1.0135 -0.3487  0.6301
 9441SOL     OW39955   3.091   0.920   0.827 -0.0405 -0.2157  0.1686
 9441SOL    HW139956   3.024   0.855   0.847 -0.6972  1.0878  2.1777
 9441SOL    HW239957   3.083   0.979   0.902  0.1560 -0.6556  0.5380
 9442SOL     OW39958   1.780   0.886   8.397  0.4176  0.3732 -0.0348
 9442SOL    HW139959   1.834   0.808   8.407  0.3406  0.3551  0.2444
 9442SOL    HW239960   1.728   0.866   8.319 -0.0360 -1.1750  0.6618
 9443SOL     OW39961   1.830   2.813   6.992 -0.0099  0.3777  0.1674
 9443SOL    HW139962   1.774   2.802   6.915  0.6516  1.6434 -0.4941
 9443SOL    HW239963   1.901   2.750   6.981 -2.7475 -2.7874  0.4513
 9444SOL     OW39964   0.410   3.455  16.559  0.1422 -0.5758 -0.0621
 9444SOL    HW139965   0.452   3.512  16.495 -1.4283 -0.5071 -1.0289
 9444SOL    HW239966   0.356   3.525  16.596 -3.1179 -2.1081 -1.9488
 9445SOL     OW39967   2.872   4.490   6.826 -0.4904  0.3540  0.3785
 9445SOL    HW139968   2.882   4.403   6.864 -2.9416  1.1644  2.8348
 9445SOL    HW239969   2.960   4.501   6.789 -0.6503  0.8322  0.1411
 9446SOL     OW39970   2.454   0.256   1.794 -0.2724 -0.0680  0.3210
 9446SOL    HW139971   2.378   0.285   1.845 -1.4829 -2.9783  0.1465
 9446SOL    HW239972   2.489   0.338   1.760 -0.1801 -0.0019  0.5719
 9447SOL     OW39973   3.869   4.386   9.677  0.2985 -0.6378 -0.8266
 9447SOL    HW139974   3.842   4.478   9.675  0.3670 -0.5288  2.1029
 9447SOL    HW239975   3.918   4.382   9.759 -1.0962 -1.6712 -0.0442
 9448SOL     OW39976   3.155   2.429   6.614 -0.2675  0.3485 -0.2045
 9448SOL    HW139977   3.074   2.476   6.634  0.1811 -0.0376  2.5190
 9448SOL    HW239978   3.147   2.335   6.622  0.2530  0.2988 -0.2354
 9449SOL     OW39979   4.685   3.651   2.941 -0.3306  0.5098 -0.3318
 9449SOL    HW139980   4.617   3.694   2.891 -0.9261 -0.2007 -0.1399
 9449SOL    HW239981   0.009   3.722   2.962  1.6577 -1.0965 -0.5095
 9450SOL     OW39982   2.355   2.699   5.277  0.2168 -0.7429  0.4825
 9450SOL    HW139983   2.306   2.751   5.341 -0.2602 -1.7860  0.9777
 9450SOL    HW239984   2.313   2.614   5.292  1.8705 -1.4726  1.0684
 9451SOL     OW39985   3.410   4.470  16.407  0.4713 -0.0884  0.4048
 9451SOL    HW139986   3.401   4.563  16.427  2.2525  0.0760  0.4881
 9451SOL    HW239987   3.506   4.465  16.406  0.5607  2.3635 -1.7757
 9452SOL     OW39988   2.960   2.488  12.106 -0.0843 -0.0618 -0.3688
 9452SOL    HW139989   2.896   2.549  12.142 -0.1615 -0.2157 -0.2505
 9452SOL    HW239990   2.911   2.412  12.077 -0.1353 -0.1411 -0.0717
 9453SOL     OW39991   4.230   4.492  15.461  0.2952 -0.6501  0.0329
 9453SOL    HW139992   4.208   4.429  15.530 -1.3212 -1.4946 -1.2687
 9453SOL    HW239993   4.166   4.482  15.391 -0.1381 -2.0788  0.6399
 9454SOL     OW39994   2.207   2.777   4.679 -0.1932  0.1612 -0.3493
 9454SOL    HW139995   2.237   2.714   4.744 -0.9239  2.2501  1.9926
 9454SOL    HW239996   2.245   2.735   4.602  1.5828 -0.2866  0.7614
 9455SOL     OW39997   0.537   4.665   9.071  0.0596 -0.8438 -0.2220
 9455SOL    HW139998   0.456   4.670   9.121 -0.3000  0.4724 -0.9499
 9455SOL    HW239999   0.547   4.570   9.061 -0.3189 -0.5334 -3.6256
 9456SOL     OW40000   4.576   4.105  13.580  0.7455  0.2886 -0.4640
 9456SOL    HW140001   4.608   4.021  13.614 -1.2753 -0.1386  0.4072
 9456SOL    HW240002   4.549   4.149  13.661 -0.9923 -1.8335  0.1105
 9457SOL     OW40003   4.530   2.131   5.066 -0.7034 -0.2473  0.5032
 9457SOL    HW140004   4.452   2.079   5.048  0.9662 -2.2521 -0.9822
 9457SOL    HW240005   4.513   2.187   5.142  0.8176  0.5676  0.2602
 9458SOL     OW40006   0.125   2.734  17.018  0.6403 -0.2959  0.3332
 9458SOL    HW140007   0.169   2.794  17.078 -0.2196 -0.6836  1.3583
 9458SOL    HW240008   0.145   2.657  17.072  2.7269  0.3244  0.4387
 9459SOL     OW40009   2.116   2.614   7.412 -0.0439 -0.2358 -0.2545
 9459SOL    HW140010   2.048   2.563   7.369  0.4041 -1.2633  0.2521
 9459SOL    HW240011   2.131   2.669   7.335  1.2284 -1.5210 -0.9300
 9460SOL     OW40012   1.933   4.259   7.463 -0.4231  0.7914  0.3735
 9460SOL    HW140013   1.850   4.215   7.445  1.2898 -2.6778  1.0561
 9460SOL    HW240014   1.987   4.186   7.434  0.4089  1.8199 -0.6469
 9461SOL     OW40015   0.312   1.793   4.818  0.2597  0.6805 -0.5795
 9461SOL    HW140016   0.350   1.753   4.740 -1.9337 -0.6936 -0.9267
 9461SOL    HW240017   0.376   1.773   4.887 -2.3569 -0.4454  1.5086
 9462SOL     OW40018   1.484   0.798   1.607 -0.1707 -0.4137  0.5033
 9462SOL    HW140019   1.551   0.731   1.595  1.3595  1.1313  0.4128
 9462SOL    HW240020   1.529   0.858   1.549  0.2214 -2.2926 -1.1316
 9463SOL     OW40021   2.166   4.675   4.391 -0.7332 -0.2665  0.4431
 9463SOL    HW140022   2.192   4.685   4.483 -0.3794  1.8075  0.1319
 9463SOL    HW240023   2.117   4.594   4.401  0.8911 -1.1128  1.5447
 9464SOL     OW40024   1.516   2.120   7.652 -0.1956  0.2519  0.2347
 9464SOL    HW140025   1.458   2.108   7.727 -0.8101  0.5236 -0.1959
 9464SOL    HW240026   1.475   2.063   7.587  2.3987 -1.2147 -0.1199
 9465SOL     OW40027   2.474   4.062   6.888  0.3214  0.2666  0.6488
 9465SOL    HW140028   2.429   3.984   6.857  1.2911  0.5715 -1.6119
 9465SOL    HW240029   2.445   4.063   6.979 -0.9941 -0.9900  0.2439
 9466SOL     OW40030   0.860   0.631   6.694 -0.0540  0.3215 -0.1496
 9466SOL    HW140031   0.903   0.603   6.775  1.5697  0.3482 -1.0136
 9466SOL    HW240032   0.933   0.656   6.639  0.8644  0.0114  0.9191
 9467SOL     OW40033   3.821   2.942   8.962  0.3126  0.5986  0.4218
 9467SOL    HW140034   3.901   2.920   8.916  0.4833 -0.1575  1.0787
 9467SOL    HW240035   3.762   2.899   8.900 -0.4121  3.3496 -0.8131
 9468SOL     OW40036   2.941   2.363   8.125 -0.2469  0.3288 -0.1210
 9468SOL    HW140037   2.910   2.452   8.113  2.0681  0.8850 -1.8171
 9468SOL    HW240038   2.932   2.350   8.220 -0.3690 -0.4520 -0.2359
 9469SOL     OW40039   4.673   2.263   8.250 -0.0308  0.6767 -0.2381
 9469SOL    HW140040   4.603   2.203   8.276 -0.6704  0.2144 -3.0969
 9469SOL    HW240041   4.702   2.289   8.338  0.4486 -2.5554  0.5681
 9470SOL     OW40042   2.385   2.655   5.876 -0.3817  0.3190 -0.1896
 9470SOL    HW140043   2.479   2.673   5.883 -0.1633  0.3864 -3.6317
 9470SOL    HW240044   2.378   2.564   5.905  0.5123 -0.2051 -1.6514
 9471SOL     OW40045   3.576   3.232   0.600  0.3936  0.1021  0.0703
 9471SOL    HW140046   3.484   3.250   0.584  0.0665 -1.8735 -0.2634
 9471SOL    HW240047   3.607   3.315   0.565 -1.3837  1.6580  2.2412
 9472SOL     OW40048   2.249   4.211   2.702 -0.2508  0.4639 -0.1012
 9472SOL    HW140049   2.168   4.219   2.652  0.8351  2.0668 -1.6077
 9472SOL    HW240050   2.265   4.301   2.731 -1.3370  0.4046  0.6794
 9473SOL     OW40051   1.882   0.185   5.611 -0.2653  0.0581  0.2354
 9473SOL    HW140052   1.943   0.114   5.634 -0.9423 -0.6218 -0.0689
 9473SOL    HW240053   1.811   0.156   5.668 -1.6684  2.3198 -0.3838
 9474SOL     OW40054   1.907   2.357  16.142 -0.4074 -0.0063  0.4499
 9474SOL    HW140055   1.867   2.444  16.150 -1.5702 -0.5851  0.9295
 9474SOL    HW240056   2.000   2.376  16.133 -0.5094 -0.2511 -1.2001
 9475SOL     OW40057   4.009   0.415   4.628  0.2015 -0.2019  0.7481
 9475SOL    HW140058   4.019   0.456   4.542 -0.6105 -1.0676  0.2368
 9475SOL    HW240059   4.010   0.323   4.600  1.8355  0.1291 -0.2369
 9476SOL     OW40060   4.529   1.723   9.371  0.4913  0.0355 -0.6978
 9476SOL    HW140061   4.482   1.806   9.363  0.8972  0.0809 -2.8125
 9476SOL    HW240062   4.520   1.715   9.466 -1.1755 -0.7229 -0.9167
 9477SOL     OW40063   0.755   3.215   8.112 -0.1207  0.0217 -0.3538
 9477SOL    HW140064   0.753   3.166   8.194  1.5176  0.2824 -0.1670
 9477SOL    HW240065   0.665   3.215   8.079 -0.2821 -2.3596  0.0956
 9478SOL     OW40066   0.313   0.158   5.169  0.1072 -0.2914 -0.3511
 9478SOL    HW140067   0.294   0.140   5.261  0.4355 -0.1823 -0.2625
 9478SOL    HW240068   0.322   0.252   5.184 -2.0929 -0.0724 -0.3969
 9479SOL     OW40069   3.047   0.816   5.952  0.4940 -0.4682  0.4526
 9479SOL    HW140070   3.078   0.818   6.042 -0.3908 -1.6345  0.7787
 9479SOL    HW240071   2.983   0.887   5.959  0.3787 -0.4683 -0.5030
 9480SOL     OW40072   3.044   1.580   7.347  0.1215 -0.2514  0.1881
 9480SOL    HW140073   2.965   1.554   7.299  0.8587 -0.4819 -0.9000
 9480SOL    HW240074   3.049   1.675   7.336  0.3325 -0.5141 -1.9909
 9481SOL     OW40075   3.836   0.086   5.338 -0.3734  0.0717  0.0254
 9481SOL    HW140076   3.876   0.010   5.380 -1.3060 -0.2721  0.2847
 9481SOL    HW240077   3.841   0.060   5.246  0.0325  0.7882 -0.1563
 9482SOL     OW40078   3.569   2.814  12.905 -0.8384 -0.2112  0.5348
 9482SOL    HW140079   3.500   2.749  12.917 -2.7302  1.4734 -1.2151
 9482SOL    HW240080   3.537   2.891  12.953 -2.0825 -1.9791  2.5555
 9483SOL     OW40081   4.420   1.519   8.943 -0.1728  0.2843 -0.5985
 9483SOL    HW140082   4.498   1.574   8.939  0.2570 -0.1562  1.6650
 9483SOL    HW240083   4.439   1.472   9.025  1.3185  1.8321 -0.0453
 9484SOL     OW40084   0.174   2.521  17.163  0.4520 -0.8873  0.8682
 9484SOL    HW140085   0.262   2.548  17.187  0.4867 -1.2084  1.1020
 9484SOL    HW240086   0.133   2.536  17.249 -1.9204 -1.1160 -0.2128
 9485SOL     OW40087   4.408   1.387   7.148 -0.2090  0.2046  0.0011
 9485SOL    HW140088   4.497   1.353   7.149  0.9936  3.3231  0.2094
 9485SOL    HW240089   4.398   1.399   7.242  1.3359 -0.0136  0.1806
 9486SOL     OW40090   3.282   4.275   3.740  0.6909  0.2926 -0.6090
 9486SOL    HW140091   3.211   4.287   3.676 -0.3687 -0.6372  0.4023
 9486SOL    HW240092   3.241   4.299   3.823  1.9999  1.6723 -0.3785
 9487SOL     OW40093   3.423   4.572  15.391 -0.0178  0.0967  0.1003
 9487SOL    HW140094   3.387   4.634  15.327  0.9525  0.4978 -0.0454
 9487SOL    HW240095   3.348   4.518  15.419  1.1968 -0.5909  1.9881
 9488SOL     OW40096   1.119   2.786  13.039 -0.2902 -0.0159  0.1558
 9488SOL    HW140097   1.207   2.815  13.063  0.0204  0.5547 -1.7298
 9488SOL    HW240098   1.097   2.842  12.965  0.9777 -1.9378 -1.6646
 9489SOL     OW40099   3.317   4.423   0.656 -0.5546 -0.4108 -0.3300
 9489SOL    HW140100   3.288   4.490   0.593  0.5809 -0.3942 -0.8494
 9489SOL    HW240101   3.293   4.346   0.605 -0.0993 -1.4364  1.0302
 9490SOL     OW40102   0.997   2.547   1.996 -0.7345  0.4236 -0.2217
 9490SOL    HW140103   1.004   2.452   1.985  0.9316  0.3505  1.4564
 9490SOL    HW240104   0.914   2.554   1.950 -0.4798 -0.0873 -0.7604
 9491SOL     OW40105   3.921   4.670   3.462  0.5656  0.7058 -0.0766
 9491SOL    HW140106   3.928   4.644   3.554  0.5397 -0.1930 -0.3282
 9491SOL    HW240107   3.942   0.026   3.476  0.1208  0.7370  0.4012
 9492SOL     OW40108   0.971   1.835   2.587 -0.1352  0.1324  0.1761
 9492SOL    HW140109   1.009   1.751   2.562 -2.2041 -1.0966  1.2259
 9492SOL    HW240110   1.040   1.891   2.623 -0.0715  0.8093 -0.9856
 9493SOL     OW40111   3.402   0.520   5.204 -0.5480 -0.1565  0.2503
 9493SOL    HW140112   3.444   0.600   5.174 -0.0969 -0.3532  0.3596
 9493SOL    HW240113   3.481   0.469   5.220  1.2326  2.1698 -1.1306
 9494SOL     OW40114   4.229   1.565   1.529 -0.1463  0.4946  0.1335
 9494SOL    HW140115   4.275   1.560   1.446  1.7543  1.2854  1.1364
 9494SOL    HW240116   4.264   1.648   1.562 -0.5543  0.7618 -0.1020
 9495SOL     OW40117   4.322   3.786   1.485 -0.5371  0.1718  0.5865
 9495SOL    HW140118   4.391   3.744   1.434 -0.7129  1.0774 -0.4088
 9495SOL    HW240119   4.280   3.852   1.430 -2.2926 -1.7342 -0.3527
 9496SOL     OW40120   1.003   4.067   7.578  0.1595  0.2725 -0.4454
 9496SOL    HW140121   1.022   4.105   7.492  4.3929 -0.6137  0.0974
 9496SOL    HW240122   0.975   4.140   7.634  1.0522  0.3257 -0.0578
 9497SOL     OW40123   1.248   2.111   4.510 -0.0776 -0.5386  0.8626
 9497SOL    HW140124   1.298   2.155   4.442  0.7093  0.4596  2.0802
 9497SOL    HW240125   1.208   2.178   4.566  3.2729  2.4868 -0.3293
 9498SOL     OW40126   3.504   3.010   6.164  0.5995 -0.2842  0.3581
 9498SOL    HW140127   3.582   3.060   6.140 -0.2237  0.7464 -0.1442
 9498SOL    HW240128   3.472   2.990   6.076  2.4655  0.9843 -0.6167
 9499SOL     OW40129   4.271   2.551   4.022  0.1764  0.3876  1.0100
 9499SOL    HW140130   4.322   2.631   4.032  0.1588  0.6684 -1.1920
 9499SOL    HW240131   4.188   2.584   4.058 -0.8241 -0.4799 -0.5237
 9500SOL     OW40132   1.850   2.837   5.644  0.1504 -0.2926  0.1208
 9500SOL    HW140133   1.920   2.799   5.591 -0.7490 -0.3824 -1.0109
 9500SOL    HW240134   1.799   2.891   5.583  0.7452  2.1777  1.7961
 9501SOL     OW40135   1.668   0.658   9.366 -0.2977  0.6099  0.2015
 9501SOL    HW140136   1.707   0.732   9.412  0.0144  0.9412 -0.5817
 9501SOL    HW240137   1.587   0.649   9.416 -1.1036 -0.0061 -1.2233
 9502SOL     OW40138   3.111   1.467  13.495 -0.2760 -0.2733 -0.0240
 9502SOL    HW140139   3.088   1.400  13.430  1.1279  0.2397 -1.0659
 9502SOL    HW240140   3.025   1.484  13.532 -0.7356  1.3657 -1.8319
 9503SOL     OW40141   3.233   0.709   1.532 -0.5165 -0.3316 -0.2100
 9503SOL    HW140142   3.287   0.645   1.485  0.5533  0.0765  0.4716
 9503SOL    HW240143   3.289   0.786   1.528  0.2094 -0.8385  0.2007
 9504SOL     OW40144   2.246   2.254   8.945 -0.0263 -0.2558 -0.1016
 9504SOL    HW140145   2.330   2.257   8.991  0.1812  0.7032 -0.5585
 9504SOL    HW240146   2.234   2.346   8.923  1.9935  0.4341  1.6050
 9505SOL     OW40147   2.520   3.092   2.035 -0.1698 -0.0915  0.3621
 9505SOL    HW140148   2.501   3.142   1.955 -1.6905 -2.1730 -0.5818
 9505SOL    HW240149   2.473   3.009   2.026  1.1259 -0.8273  0.4843
 9506SOL     OW40150   1.973   0.343   9.217  0.0542 -0.0031 -0.2670
 9506SOL    HW140151   2.034   0.326   9.145 -1.1763 -0.6036 -1.1523
 9506SOL    HW240152   1.991   0.277   9.284  0.6822  0.3296 -0.1078
 9507SOL     OW40153   4.596   4.206   8.363 -0.4370  0.4441  0.1223
 9507SOL    HW140154   4.628   4.293   8.336  0.9398 -0.0591  0.1328
 9507SOL    HW240155   4.678   4.160   8.379 -0.0148  1.6423  1.3898
 9508SOL     OW40156   3.733   4.699   2.138  0.2335 -0.2787 -0.1156
 9508SOL    HW140157   3.714   4.665   2.051 -2.3037  0.5011  0.1461
 9508SOL    HW240158   3.828   4.686   2.140  0.1845 -0.6148  0.1219
 9509SOL     OW40159   4.327   1.611   3.500  0.5079 -0.1168 -0.4429
 9509SOL    HW140160   4.245   1.654   3.524  1.0508  0.1029  1.0142
 9509SOL    HW240161   4.381   1.630   3.577  0.2268  1.5840 -0.6702
 9510SOL     OW40162   1.495   1.080  11.382  0.5174  0.8288 -0.5704
 9510SOL    HW140163   1.563   1.027  11.341  0.0114 -0.8889  0.8221
 9510SOL    HW240164   1.559   1.136  11.426 -0.7894  1.0199  1.0966
 9511SOL     OW40165   1.302   2.745   6.348  0.1184 -0.3852  0.3124
 9511SOL    HW140166   1.227   2.742   6.288  0.6665  0.8862 -0.4395
 9511SOL    HW240167   1.359   2.810   6.307  0.2899 -0.2787  0.7262
 9512SOL     OW40168   2.462   4.450  12.113  0.7068  0.1502 -0.4849
 9512SOL    HW140169   2.468   4.409  12.200 -2.0362 -0.5510 -0.6448
 9512SOL    HW240170   2.517   4.528  12.124  1.2062  0.1219 -2.8774
 9513SOL     OW40171   3.519   3.899   4.029 -0.0131 -0.1636 -0.4510
 9513SOL    HW140172   3.511   3.975   4.087  2.4948  0.0245 -0.3219
 9513SOL    HW240173   3.590   3.925   3.970 -1.5266 -0.0839 -2.2274
 9514SOL     OW40174   3.026   3.027   6.896 -0.2545  0.0480 -0.0579
 9514SOL    HW140175   2.990   3.110   6.926  1.0576 -0.1369  2.0673
 9514SOL    HW240176   3.056   2.991   6.979 -0.4729 -0.4678 -0.1962
 9515SOL     OW40177   0.278   3.469   5.529 -0.4822 -0.2702 -0.2871
 9515SOL    HW140178   0.337   3.542   5.545 -1.1713  0.8155 -2.7329
 9515SOL    HW240179   0.226   3.501   5.456 -1.2463  1.1115  0.8749
 9516SOL     OW40180   4.597   2.326   7.693 -0.4106 -0.1837 -0.3392
 9516SOL    HW140181   4.597   2.409   7.740 -1.4046  0.3862 -1.3448
 9516SOL    HW240182   4.624   2.270   7.766 -0.5522 -0.2253 -0.3190
 9517SOL     OW40183   3.248   4.619  10.528 -0.1094 -0.5935  0.3167
 9517SOL    HW140184   3.300   4.599  10.606  0.5391 -0.2157 -0.0234
 9517SOL    HW240185   3.317   4.622  10.463  0.4849  1.2867  1.0206
 9518SOL     OW40186   2.830   2.006   5.446  0.2743  0.1788  0.0379
 9518SOL    HW140187   2.845   1.964   5.531  1.7950  0.8133  0.0859
 9518SOL    HW240188   2.905   2.066   5.447  1.0995 -0.8477  0.2896
 9519SOL     OW40189   3.342   3.086   3.953  0.2333  0.2040 -0.6341
 9519SOL    HW140190   3.381   3.009   3.911  1.5947  0.7194 -0.3282
 9519SOL    HW240191   3.423   3.138   3.949  0.8254 -0.7081 -0.5219
 9520SOL     OW40192   4.285   0.842   5.072  0.5165  0.0212  0.1495
 9520SOL    HW140193   4.200   0.882   5.055 -0.0379 -0.6032  1.4272
 9520SOL    HW240194   4.305   0.889   5.153 -1.2730 -1.4213  1.4242
 9521SOL     OW40195   3.553   1.925   4.901  0.5217 -0.0247  0.3502
 9521SOL    HW140196   3.550   2.004   4.847 -0.9673  0.0890  0.6016
 9521SOL    HW240197   3.546   1.961   4.990 -1.7943 -1.3735  0.7111
 9522SOL     OW40198   1.470   0.350   3.778 -0.1331 -0.1672  0.3473
 9522SOL    HW140199   1.464   0.445   3.768 -0.8144 -0.1280  1.1569
 9522SOL    HW240200   1.386   0.320   3.811  0.1560 -0.1699  1.0846
 9523SOL     OW40201   0.408   2.510  14.819  0.3223  0.1855  0.5193
 9523SOL    HW140202   0.503   2.510  14.831  0.2788 -0.8948  0.8751
 9523SOL    HW240203   0.378   2.448  14.887  0.4687 -1.0377 -0.5354
 9524SOL     OW40204   3.352   0.166  15.435  0.8344  0.1850  0.2781
 9524SOL    HW140205   3.411   0.180  15.361  1.4334  1.2151  0.9542
 9524SOL    HW240206   3.341   0.072  15.448  1.6477  0.1162  0.4936
 9525SOL     OW40207   0.814   2.902   5.457 -0.1857 -0.3183  0.3640
 9525SOL    HW140208   0.747   2.928   5.394  0.6221  1.7377  0.3576
 9525SOL    HW240209   0.893   2.865   5.417 -0.1770 -0.0334  0.1195
 9526SOL     OW40210   2.129   4.461  16.154  0.0984  0.0261 -0.5593
 9526SOL    HW140211   2.185   4.468  16.077  1.3762 -0.1221  0.3414
 9526SOL    HW240212   2.165   4.383  16.197 -1.3871 -0.9893 -1.1498
 9527SOL     OW40213   3.563   3.112   8.794  0.2972  0.4906  0.4201
 9527SOL    HW140214   3.605   3.132   8.878  1.6659  0.3989 -0.2374
 9527SOL    HW240215   3.508   3.035   8.805 -0.6952  0.9374 -1.4095
 9528SOL     OW40216   2.380   0.093   0.827 -0.6038 -0.1207 -0.2927
 9528SOL    HW140217   2.449   0.032   0.853 -0.3664 -0.8068 -2.5206
 9528SOL    HW240218   2.366   0.052   0.742 -1.4120  0.4162 -0.4151
 9529SOL     OW40219   3.967   0.058   8.192 -0.2594  0.2723  0.1823
 9529SOL    HW140220   3.950   0.097   8.278  1.7822  1.5320  0.0001
 9529SOL    HW240221   3.954   4.700   8.204  1.8475  0.2073  1.9410
 9530SOL     OW40222   2.944   0.937   2.263 -0.4412  0.2884 -0.9330
 9530SOL    HW140223   2.860   0.954   2.305  0.0364  2.8729 -1.0504
 9530SOL    HW240224   2.983   0.874   2.325  0.9171  3.2270  1.1820
 9531SOL     OW40225   2.197   1.141   0.219  0.0127 -0.0151  0.5657
 9531SOL    HW140226   2.170   1.152   0.128  1.6228 -3.2817 -0.3082
 9531SOL    HW240227   2.267   1.205   0.231 -0.2436  0.7612 -2.1083
 9532SOL     OW40228   0.275   3.553   1.484  0.4596 -0.5000 -0.1373
 9532SOL    HW140229   0.222   3.626   1.452 -1.6464 -0.9482  2.3239
 9532SOL    HW240230   0.281   3.505   1.402 -1.1702  0.2918 -0.7000
 9533SOL     OW40231   0.475   0.730   3.814  0.3295 -0.1235 -0.5663
 9533SOL    HW140232   0.402   0.789   3.796 -0.9973 -1.6750 -0.2949
 9533SOL    HW240233   0.458   0.686   3.897 -1.8902 -1.3541 -1.6738
 9534SOL     OW40234   0.352   3.142  12.474 -0.1946 -0.1008  0.1982
 9534SOL    HW140235   0.363   3.176  12.386 -0.4512  0.2614  0.3077
 9534SOL    HW240236   0.282   3.079  12.459  0.0410  0.1375 -1.8701
 9535SOL     OW40237   3.806   1.879   4.235 -0.4624 -1.0958 -0.1269
 9535SOL    HW140238   3.899   1.902   4.223 -0.7625  0.4299  0.5086
 9535SOL    HW240239   3.770   1.863   4.148 -2.6715  1.3628  0.3308
 9536SOL     OW40240   0.925   0.012  11.905 -0.3760 -0.4747  0.2694
 9536SOL    HW140241   0.869   0.051  11.838 -1.7681  0.3574  1.9270
 9536SOL    HW240242   0.900   4.656  11.905 -0.7843 -0.3624  0.3572
 9537SOL     OW40243   1.170   3.450   5.135 -0.1259 -0.2832 -0.3685
 9537SOL    HW140244   1.262   3.429   5.152 -0.1883 -0.8725 -0.7354
 9537SOL    HW240245   1.138   3.360   5.120 -0.7265  0.2221 -2.1609
 9538SOL     OW40246   4.707   2.959   3.748 -0.3607 -0.2649 -0.1779
 9538SOL    HW140247   4.647   2.950   3.822  1.6058 -1.5067  1.2689
 9538SOL    HW240248   0.003   3.048   3.763  1.9061 -0.8230 -1.7144
 9539SOL     OW40249   3.620   4.076  15.845 -0.3599  0.2685  0.0299
 9539SOL    HW140250   3.693   4.019  15.822 -1.5285 -1.4241  0.5368
 9539SOL    HW240251   3.659   4.133  15.912  0.0441  0.7400 -0.6053
 9540SOL     OW40252   1.117   3.597   9.588 -0.0662 -0.2741 -0.2827
 9540SOL    HW140253   1.099   3.604   9.495 -1.0710 -0.5312 -0.1128
 9540SOL    HW240254   1.180   3.528   9.606 -2.4298 -1.6472  2.7917
 9541SOL     OW40255   4.688   2.137   2.784 -0.5355  0.0741 -0.3422
 9541SOL    HW140256   4.720   2.211   2.733  1.4724 -0.8447 -0.4288
 9541SOL    HW240257   4.724   2.059   2.740  0.8476 -0.0159  0.9295
 9542SOL     OW40258   1.339   1.505   1.083  0.2091 -0.2264  0.0023
 9542SOL    HW140259   1.248   1.529   1.065 -0.1399 -0.9696  0.8154
 9542SOL    HW240260   1.329   1.412   1.063 -1.6089 -0.2690  1.1334
 9543SOL     OW40261   0.074   3.179   3.462  0.0211  0.9067  0.0127
 9543SOL    HW140262   0.070   3.271   3.436  2.3329  0.7535 -0.8393
 9543SOL    HW240263   0.160   3.175   3.503  0.8317  2.3512 -1.5484
 9544SOL     OW40264   4.673   4.717   4.582  0.6052  0.2231  0.3207
 9544SOL    HW140265   4.643   4.641   4.531 -2.8043  0.6152  1.7235
 9544SOL    HW240266   0.030   4.697   4.589  0.5264  0.7680  3.0181
 9545SOL     OW40267   3.638   4.129   1.776  0.3334  0.1407  0.4969
 9545SOL    HW140268   3.676   4.185   1.844 -0.4203  0.0428  0.9953
 9545SOL    HW240269   3.545   4.151   1.778  0.0950 -0.6727 -1.6569
 9546SOL     OW40270   3.006   0.428  12.872 -0.3492  0.6382  0.4454
 9546SOL    HW140271   2.940   0.359  12.868 -0.4879  0.6121  2.7335
 9546SOL    HW240272   3.046   0.411  12.957  0.6243  1.5228  0.1621
 9547SOL     OW40273   2.622   3.742   3.538  0.1757 -0.0971  0.1261
 9547SOL    HW140274   2.631   3.835   3.514  1.8887 -0.6400 -1.3125
 9547SOL    HW240275   2.526   3.742   3.538  0.1777  0.6780  0.3796
 9548SOL     OW40276   4.697   3.439  11.907 -0.1523  0.3698 -0.5225
 9548SOL    HW140277   0.048   3.402  11.921 -1.0768 -0.8095  2.1707
 9548SOL    HW240278   4.668   3.451  11.998 -1.4511  2.6863 -1.2336
 9549SOL     OW40279   2.535   0.014   5.999  0.5193  0.0615 -0.0147
 9549SOL    HW140280   2.471   0.029   5.930 -1.7186 -2.2096  1.5960
 9549SOL    HW240281   2.616   0.024   5.948 -0.5451 -1.1580 -1.9372
 9550SOL     OW40282   1.809   3.720   7.192 -0.1126 -0.5781 -0.2259
 9550SOL    HW140283   1.902   3.727   7.214 -0.1783  0.2064 -0.1987
 9550SOL    HW240284   1.826   3.664   7.115  1.8802 -0.4126  0.0850
 9551SOL     OW40285   1.663   3.813   6.325 -0.5276 -0.5174  0.8693
 9551SOL    HW140286   1.624   3.729   6.301 -0.2456 -0.5858  0.6526
 9551SOL    HW240287   1.604   3.880   6.291  2.0709  1.2342 -0.1761
 9552SOL     OW40288   3.189   0.883   7.046 -0.1715 -0.3535  0.2402
 9552SOL    HW140289   3.264   0.943   7.041  0.3362 -1.2074 -2.4367
 9552SOL    HW240290   3.129   0.957   7.054  0.8300  0.4956 -0.0916
 9553SOL     OW40291   2.851   0.360   3.678  0.2046  0.4506  0.5799
 9553SOL    HW140292   2.872   0.271   3.649 -1.5292  0.0276  0.5924
 9553SOL    HW240293   2.853   0.393   3.588 -0.3318 -0.9920  0.0342
 9554SOL     OW40294   2.402   0.988   4.695 -0.0065  0.4994 -0.4523
 9554SOL    HW140295   2.488   1.000   4.654 -0.7926  2.6779 -1.5061
 9554SOL    HW240296   2.354   1.000   4.613 -2.0504 -0.8412  0.5520
 9555SOL     OW40297   4.215   4.051   3.600  0.5536 -0.4438  0.0502
 9555SOL    HW140298   4.242   4.125   3.545 -1.3018  1.3140  1.4625
 9555SOL    HW240299   4.203   4.084   3.690 -2.8530  0.8584 -0.8812
 9556SOL     OW40300   1.125   4.278   4.685 -0.4475 -0.0591  0.0677
 9556SOL    HW140301   1.177   4.323   4.751  2.4921 -1.6429 -1.1568
 9556SOL    HW240302   1.162   4.189   4.682 -0.9680 -0.2842  0.3930
 9557SOL     OW40303   3.002   2.061   1.909 -0.4574 -0.2739  0.1520
 9557SOL    HW140304   3.013   2.112   1.829  0.4251  0.4660  0.7452
 9557SOL    HW240305   2.938   1.992   1.892 -1.0745  0.3313 -0.0124
 9558SOL     OW40306   4.260   1.304   2.365  0.7252 -0.4337  0.4625
 9558SOL    HW140307   4.209   1.384   2.353 -1.8964 -2.5388 -2.4502
 9558SOL    HW240308   4.226   1.268   2.447 -2.6535 -0.6063 -1.0289
 9559SOL     OW40309   3.845   2.958  10.729  0.4050 -0.3956  0.0132
 9559SOL    HW140310   3.867   3.047  10.756 -0.7889 -0.7986  2.2518
 9559SOL    HW240311   3.931   2.924  10.703 -0.6834 -0.9500 -2.9123
 9560SOL     OW40312   3.371   3.428  13.247 -0.4893 -0.0844 -0.7430
 9560SOL    HW140313   3.317   3.353  13.276  1.5972 -1.2750  0.0468
 9560SOL    HW240314   3.411   3.394  13.167 -1.5065 -2.0035 -0.4610
 9561SOL     OW40315   2.000   3.273   6.407 -1.1961  0.6260  0.1172
 9561SOL    HW140316   2.083   3.287   6.362  0.3634 -1.7526  2.2549
 9561SOL    HW240317   1.983   3.186   6.370  0.8552  1.1077 -1.9150
 9562SOL     OW40318   2.954   2.109  13.022  0.1067  0.0217  0.0271
 9562SOL    HW140319   2.924   2.196  12.994  2.1626  0.6332 -0.2620
 9562SOL    HW240320   3.043   2.140  13.037 -0.0871  0.9527 -0.7508
 9563SOL     OW40321   4.273   3.575   3.585  0.3273  0.1675  0.6291
 9563SOL    HW140322   4.248   3.667   3.577 -1.3100 -0.3408 -0.0165
 9563SOL    HW240323   4.366   3.572   3.561  0.1319 -0.9261 -0.0006
 9564SOL     OW40324   0.986   3.053   0.538 -0.4247  0.7466  0.0067
 9564SOL    HW140325   0.902   3.008   0.530  0.1611 -0.2817 -0.2532
 9564SOL    HW240326   0.961   3.141   0.508 -2.5593  0.1756  0.1271
 9565SOL     OW40327   1.765   0.943   4.451 -0.6628  0.0433 -0.1685
 9565SOL    HW140328   1.695   0.997   4.488 -1.4728 -1.1655  0.1076
 9565SOL    HW240329   1.798   1.002   4.384  1.7368 -1.0740  0.0185
 9566SOL     OW40330   1.472   4.462   6.465  0.4963 -0.1267  0.2060
 9566SOL    HW140331   1.521   4.520   6.523 -1.5324  1.1299  0.6550
 9566SOL    HW240332   1.415   4.403   6.515 -0.9629  0.3207 -0.9399
 9567SOL     OW40333   4.347   2.375   6.666  0.3601 -0.3589  0.2962
 9567SOL    HW140334   4.440   2.354   6.668  0.0149 -2.2109 -4.0297
 9567SOL    HW240335   4.344   2.427   6.747 -0.4215 -1.3789  0.9256
 9568SOL     OW40336   3.654   0.696   6.352  0.0340  0.1675 -0.1989
 9568SOL    HW140337   3.611   0.615   6.326 -0.7692  1.0395 -1.6211
 9568SOL    HW240338   3.747   0.675   6.355 -0.0723  0.2082  2.9986
 9569SOL     OW40339   0.261   3.328   7.011 -0.2602  0.2575 -0.1918
 9569SOL    HW140340   0.332   3.378   7.051  1.5919 -1.8832 -0.7866
 9569SOL    HW240341   0.272   3.360   6.921  0.5057  2.3759  0.6358
 9570SOL     OW40342   1.891   3.945   4.824  0.2208  0.2419 -0.3078
 9570SOL    HW140343   1.880   3.855   4.792  1.5716 -0.7977  2.1609
 9570SOL    HW240344   1.816   3.961   4.881  0.8419 -0.2406  0.6321
 9571SOL     OW40345   2.668   3.990   8.326 -0.3153 -0.0320 -0.5032
 9571SOL    HW140346   2.579   4.022   8.338 -0.5277 -0.0978 -1.9602
 9571SOL    HW240347   2.716   4.048   8.385  1.0369 -1.3065 -0.3317
   4.73625   4.73625  17.74356
