Membrane in water
40347
    1TMC1    C1    1   3.314   0.811  11.567  0.4535 -0.2392 -0.1427
    1TMC1    C2    2   3.313   0.902  11.669  0.1432 -0.3225  0.2737
    1TMC1    C3    3   3.391   1.020  11.659 -0.9901 -0.1413  0.0594
    1TMC1    C4    4   3.377   0.838  11.448  0.7521 -0.3795  0.0476
    1TMC1    C5    5   3.447   0.951  11.437  0.0260  0.5798  0.4265
    1TMC1    C6    6   3.461   1.048  11.542  0.7857 -0.6281 -0.0124
    1TMC1     C    7   3.247   0.687  11.571 -0.1365 -0.2024  0.1619
    1TMC1     O    8   3.223   0.631  11.466  0.0736 -0.6612 -0.2961
    1TMC1     H    9   3.241   0.888  11.749 -1.0201  2.1480 -0.3296
    1TMC1    H1   10   3.383   0.774  11.361 -0.2985  1.2000 -1.1802
    1TMC1    H2   11   3.533   1.128  11.527 -0.8797  0.9387  0.3340
    1TMC1    C7   12   3.551   0.954  11.337  0.3730 -0.5256 -0.1942
    1TMC1    C8   13   3.371   1.121  11.759 -0.2036 -0.4531 -0.3046
    1TMC1    O1   14   3.601   0.856  11.289  0.3725 -0.3914  0.2591
    1TMC1    O2   15   3.293   1.106  11.853 -0.6788 -0.7318  0.1784
    1TMC1    O3   16   3.512   1.060  11.270 -0.2167  0.2477 -0.4969
    1TMC1    H3   17   3.443   1.102  11.326 -0.6590 -1.2542  0.0802
    1TMC1    O5   18   3.411   1.233  11.695  0.1673  0.5750  0.1720
    1TMC1    H5   19   3.413   1.312  11.754 -0.5647  1.4952 -1.0478
    2MPD2     C   20   3.133   0.237  11.798 -0.5997 -0.0741 -0.1365
    2MPD2    C1   21   3.131   0.341  11.899  0.6777 -0.0589 -0.7780
    2MPD2    C2   22   3.159   0.466  11.857  0.4498 -0.1166 -0.5575
    2MPD2    C3   23   3.202   0.496  11.726  0.5688 -0.0528 -0.0108
    2MPD2    C4   24   3.192   0.400  11.631 -0.6227  0.0492  0.4432
    2MPD2    C5   25   3.171   0.273  11.671 -0.0422  0.2954 -0.1669
    2MPD2     H   26   3.170   0.539  11.936 -0.4963  0.4415 -0.9441
    2MPD2    H1   27   3.240   0.411  11.535  2.5341 -1.9775  1.7812
    2MPD2    H2   28   3.103   0.133  11.802  0.9881 -0.5288  0.0413
    2MPD2    H3   29   3.158   0.185  11.609  0.9025 -0.3691  0.5861
    2MPD2     N   30   3.252   0.629  11.697  0.0790  0.6330 -0.4195
    2MPD2    H5   31   3.266   0.687  11.779  2.0109 -0.0421 -0.2827
    2MPD2    N1   32   3.095   0.319  12.032 -0.1393 -0.6546 -0.1661
    2MPD2    H7   33   3.067   0.402  12.083 -1.4698 -2.1665  1.5687
    3TMC1    C1   34   2.137   1.250  10.584  0.6053  0.1839  1.5201
    3TMC1    C2   35   2.248   1.173  10.597  0.2620  0.4868  0.2787
    3TMC1    C3   36   2.339   1.171  10.494  0.0080 -0.3473 -0.4354
    3TMC1    C4   37   2.111   1.320  10.471 -0.1819 -0.4128  0.1106
    3TMC1    C5   38   2.196   1.310  10.368 -0.7779  0.0972  0.1649
    3TMC1    C6   39   2.313   1.243  10.378  1.0242  0.6380  0.3307
    3TMC1     C   40   2.045   1.254  10.692  0.1517  0.1773 -0.6940
    3TMC1     O   41   2.018   1.143  10.740  0.1584 -0.1385  0.2500
    3TMC1     H   42   2.274   1.129  10.693 -2.2005  1.8994  1.5931
    3TMC1    H1   43   2.031   1.394  10.471  0.8392  0.7110  3.4618
    3TMC1    H2   44   2.387   1.236  10.300 -1.2034 -1.5016 -1.5852
    3TMC1    C7   45   2.141   1.356  10.239 -0.0649  0.1917  0.6928
    3TMC1    C8   46   2.462   1.101  10.512 -0.5292 -1.0969 -0.2311
    3TMC1    O1   47   2.019   1.360  10.226 -1.0431  0.6653 -0.3077
    3TMC1    O2   48   2.564   1.122  10.444 -0.2717  0.2204 -0.5604
    3TMC1    O3   49   2.235   1.384  10.150 -0.3175  0.2227 -0.2764
    3TMC1    H3   50   2.331   1.388  10.169 -0.7666  2.6150  1.3712
    3TMC1    O5   51   2.427   0.984  10.557  0.2605  0.2096 -0.7485
    3TMC1    H5   52   2.331   0.968  10.554  0.6267 -2.2250  0.6828
    4MPD2     C   53   1.744   1.478  11.042 -0.2384  0.1472 -0.3025
    4MPD2    C1   54   1.791   1.573  10.951 -0.4499  0.0278  0.1769
    4MPD2    C2   55   1.870   1.537  10.843 -0.1643  0.1033 -0.0968
    4MPD2    C3   56   1.919   1.411  10.831  0.0775  0.8595 -0.1263
    4MPD2    C4   57   1.846   1.317  10.900  0.3722 -0.5867  0.2508
    4MPD2    C5   58   1.761   1.349  11.003 -0.2497  0.0450  0.5212
    4MPD2     H   59   1.912   1.621  10.788  0.9836 -1.0394 -0.9488
    4MPD2    H1   60   1.870   1.211  10.896 -0.7567 -0.8313  0.0119
    4MPD2    H2   61   1.690   1.503  11.132  0.8077 -2.0912  0.9522
    4MPD2    H3   62   1.721   1.275  11.071  0.6552 -1.7322 -0.9114
    4MPD2     N   63   2.006   1.381  10.724  0.1645 -0.1002  0.0715
    4MPD2    H5   64   2.046   1.460  10.675 -0.8850 -0.3363 -1.1784
    4MPD2    N1   65   1.764   1.711  10.966  0.1414  0.1107  0.1451
    4MPD2    H7   66   1.806   1.761  10.888  2.2753  1.0333  1.9116
    5TCq1    O1   67   3.385   2.957  11.987 -0.3471 -0.0897 -0.5697
    5TCq1    C1   68   3.325   2.887  11.895  0.5773  0.5528 -0.0913
    5TCq1    O2   69   3.361   2.795  11.825 -0.1747  0.2515 -0.2445
    5TCq1    C2   70   3.188   2.937  11.890  0.3476  0.0450 -0.0516
    5TCq1    C3   71   3.107   2.969  11.996 -0.5317  0.4343 -0.0834
    5TCq1    C4   72   2.980   3.025  11.972  0.5345 -0.4402 -0.1459
    5TCq1    C5   73   2.936   3.028  11.844  0.0456  0.0033  0.2032
    5TCq1    C6   74   3.018   3.004  11.740 -0.5846  0.3243  0.5853
    5TCq1    C7   75   3.141   2.955  11.758 -0.3011 -0.6563 -0.0406
    5TCq1    C8   76   2.971   3.036  11.602 -0.0999 -0.3039 -0.0604
    5TCq1    O4   77   3.046   2.991  11.513  0.0111 -0.1195 -0.6173
    5TCq1    C9   78   2.899   3.074  12.084  0.4760  0.0861  0.0420
    5TCq1    O5   79   2.957   3.090  12.195  0.3494 -0.1173  0.6643
    5TCq1    O6   80   2.799   3.146  12.053 -0.4074 -0.1484 -0.2361
    5TCq1    H1   81   3.339   3.042  12.004 -1.0013 -0.4062 -0.7569
    5TCq1    H2   82   3.148   2.962  12.096  0.6429  1.4297 -0.4872
    5TCq1    H3   83   2.839   3.076  11.835  0.6669  1.5302  1.7322
    5TCq1    H4   84   3.201   2.941  11.669 -2.1407  1.6510 -1.6422
    6MPD2     C   85   2.755   3.320  11.496 -0.1584  0.0154  0.5123
    6MPD2    C1   86   2.828   3.207  11.475  0.3448  0.7441  0.3829
    6MPD2    C2   87   2.838   3.151  11.347  0.6137  0.0830 -0.0976
    6MPD2    C3   88   2.774   3.213  11.241  0.0417 -0.3560 -0.1753
    6MPD2    C4   89   2.716   3.336  11.263 -0.0358 -0.8329 -0.2217
    6MPD2    C5   90   2.705   3.388  11.389 -1.1159 -0.7013 -0.4136
    6MPD2     H   91   2.888   3.056  11.334 -0.5581 -0.8414  2.0241
    6MPD2    H1   92   2.673   3.395  11.184  0.5069 -0.6095 -0.3542
    6MPD2    H2   93   2.755   3.363  11.595  0.4053 -0.9943  0.9507
    6MPD2    H3   94   2.648   3.480  11.397  0.3292  0.1636 -0.2026
    6MPD2     N   95   2.773   3.146  11.116  0.3075 -0.0533 -0.1696
    6MPD2    H5   96   2.819   3.055  11.117  0.6184  0.1071  0.1640
    6MPD2    N1   97   2.884   3.144  11.597 -0.3351 -0.1945  0.7286
    6MPD2    H7   98   2.865   3.195  11.683 -0.7556  0.3728  0.2999
    7TCq1    O1   99   4.417   1.661  12.640 -0.1315  0.4501  0.1087
    7TCq1    C1  100   4.454   1.789  12.613  0.5130 -0.1547 -0.4261
    7TCq1    O2  101   4.454   1.848  12.506  0.8642  0.1530  0.0072
    7TCq1    C2  102   4.522   1.852  12.729  0.6848  0.3620 -0.8151
    7TCq1    C3  103   4.574   1.976  12.720 -0.5901  0.5349  0.6716
    7TCq1    C4  104   4.628   2.032  12.834 -0.4184 -0.0016  0.1247
    7TCq1    C5  105   4.625   1.961  12.950 -0.2065 -0.0461 -0.2569
    7TCq1    C6  106   4.572   1.842  12.954 -0.0421  0.6822 -0.8382
    7TCq1    C7  107   4.520   1.776  12.847 -0.0823  0.2135  0.2041
    7TCq1    C8  108   4.595   1.765  13.080  0.0587 -0.0063 -0.0045
    7TCq1    O4  109   4.618   1.647  13.063 -0.2835 -0.3949  0.4841
    7TCq1    C9  110   4.667   2.173  12.840  0.0496 -0.1517 -0.5286
    7TCq1    O5  111   0.006   2.202  12.929  0.3385 -0.1909  0.5560
    7TCq1    O6  112   4.654   2.250  12.739  0.3367 -0.2309  0.1940
    7TCq1    H1  113   4.379   1.615  12.562 -3.0511 -0.8451  2.2780
    7TCq1    H2  114   4.584   2.032  12.627  2.0985 -0.1151  0.5585
    7TCq1    H3  115   4.661   2.007  13.042 -0.2020  0.9280 -0.7450
    7TCq1    H4  116   4.484   1.675  12.859 -2.6377  1.3867  2.3963
    8MPD2     C  117   0.088   1.754  13.544  0.3290 -0.1176  0.1350
    8MPD2    C1  118   0.075   1.655  13.448 -0.7959 -0.0575  0.2917
    8MPD2    C2  119   4.737   1.679  13.330  0.0195  0.4962  0.1146
    8MPD2    C3  120   4.674   1.803  13.308  0.2717 -0.0025  0.3314
    8MPD2    C4  121   4.681   1.902  13.418  0.1519  0.3268  0.2935
    8MPD2    C5  122   0.017   1.871  13.529  0.1702  0.3394 -0.3848
    8MPD2     H  123   4.737   1.606  13.249  0.1275 -0.1373  0.6821
    8MPD2    H1  124   4.632   1.998  13.423 -0.1911  0.2249 -0.9776
    8MPD2    H2  125   0.132   1.725  13.639  0.3067  0.8092  0.4284
    8MPD2    H3  126   0.017   1.936  13.615 -0.1100  0.5606 -0.5547
    8MPD2     N  127   4.608   1.844  13.193 -0.3854 -0.0818  0.0183
    8MPD2    H5  128   4.554   1.929  13.203  2.1759  1.4591  0.7532
    8MPD2    N1  129   0.154   1.540  13.462  0.1623  0.4542  0.3346
    8MPD2    H7  130   0.222   1.542  13.538  1.8082  1.3963 -1.1801
    9TMC1    C1  131   2.299   1.892  11.463  0.7064  0.6854 -0.1393
    9TMC1    C2  132   2.346   1.783  11.405 -0.8001  0.4487  0.1602
    9TMC1    C3  133   2.404   1.800  11.288  0.0963  0.2911  0.4492
    9TMC1    C4  134   2.309   2.016  11.411  0.0580  0.2443  0.3649
    9TMC1    C5  135   2.360   2.029  11.286 -0.1785  0.8211  0.3058
    9TMC1    C6  136   2.410   1.919  11.223 -0.0309  0.5099 -0.1358
    9TMC1     C  137   2.275   1.894  11.606 -0.2651 -0.4528  0.0072
    9TMC1     O  138   2.223   1.990  11.653  0.0459 -0.5709  0.2335
    9TMC1     H  139   2.350   1.682  11.444  0.4201  0.5901  0.3763
    9TMC1    H1  140   2.268   2.104  11.459  0.7003  1.6512 -1.6955
    9TMC1    H2  141   2.449   1.924  11.122 -2.2488 -4.7429 -1.2114
    9TMC1    C7  142   2.382   2.162  11.231  0.9460  0.0127 -0.3045
    9TMC1    C8  143   2.472   1.684  11.225 -0.3921 -0.6710  0.2940
    9TMC1    O1  144   2.291   2.245  11.235  0.3048  0.0169  0.5708
    9TMC1    O2  145   2.445   1.565  11.247  0.2141 -0.3742  0.0490
    9TMC1    O3  146   2.474   2.149  11.133  0.4914 -0.1810  0.0583
    9TMC1    H3  147   2.537   2.073  11.135  0.0362 -0.6049 -1.3256
    9TMC1    O5  148   2.577   1.729  11.152  0.6752 -0.3743 -0.4834
    9TMC1    H5  149   2.594   1.826  11.147 -2.5500  0.2816  1.6556
   10MPD2     C  150   2.337   1.881  11.897 -0.3292  0.4208 -0.6492
   10MPD2    C1  151   2.336   1.772  11.812  0.3217 -0.2578  0.0238
   10MPD2    C2  152   2.380   1.653  11.864 -0.3761  0.3166 -0.0903
   10MPD2    C3  153   2.417   1.638  11.999 -0.1664 -0.7601 -0.7850
   10MPD2    C4  154   2.402   1.748  12.080 -0.9476 -0.6925  0.6056
   10MPD2    C5  155   2.380   1.869  12.026 -0.1040 -0.2204  0.9524
   10MPD2     H  156   2.400   1.574  11.793 -0.1623  1.0261 -0.8131
   10MPD2    H1  157   2.425   1.743  12.186 -0.5913  0.1693  0.5716
   10MPD2    H2  158   2.316   1.983  11.865 -0.6049  0.7207  0.4657
   10MPD2    H3  159   2.379   1.965  12.076 -0.0739 -0.6135  1.7017
   10MPD2     N  160   2.458   1.515  12.052  0.6997 -0.1068 -0.3902
   10MPD2    H5  161   2.486   1.510  12.149  2.0444  1.6900 -0.6773
   10MPD2    N1  162   2.318   1.786  11.670 -0.4329  0.1447  0.5782
   10MPD2    H7  163   2.350   1.703  11.620  0.1905  1.1076 -0.5982
   11TCq1    O1  164   3.836   0.737  14.132  0.3203  0.6087 -0.3676
   11TCq1    C1  165   3.718   0.717  14.069  0.0979  0.3040  0.3561
   11TCq1    O2  166   3.694   0.619  14.007  0.0788  0.0442  0.4474
   11TCq1    C2  167   3.632   0.729  14.179 -0.3076 -0.1218 -0.3015
   11TCq1    C3  168   3.653   0.831  14.267  0.0664  0.0980 -0.5295
   11TCq1    C4  169   3.592   0.827  14.392 -0.5021  0.4145 -0.0899
   11TCq1    C5  170   3.503   0.726  14.425  0.5095  0.2650 -0.2970
   11TCq1    C6  171   3.476   0.631  14.329 -0.4637 -0.2873 -1.0200
   11TCq1    C7  172   3.544   0.626  14.209 -0.1764  0.3235  0.2802
   11TCq1    C8  173   3.413   0.498  14.367 -0.4471  0.8719  0.1621
   11TCq1    O4  174   3.412   0.474  14.485  0.4539  0.1796  0.8342
   11TCq1    C9  175   3.628   0.922  14.494 -0.3195 -0.2072 -0.4351
   11TCq1    O5  176   3.550   0.934  14.596 -0.1601  0.0058  0.3186
   11TCq1    O6  177   3.739   0.975  14.482  0.1118 -0.4467 -0.6240
   11TCq1    H1  178   3.863   0.825  14.167  1.7797  0.6896 -1.7261
   11TCq1    H2  179   3.711   0.919  14.243  0.2679 -0.0566 -0.6098
   11TCq1    H3  180   3.480   0.712  14.530  0.4104  2.4785 -0.0246
   11TCq1    H4  181   3.532   0.540  14.144 -1.6835  0.5444  0.2695
   12MPD2     C  182   3.290   0.228  14.381  0.0142  0.2166  0.2640
   12MPD2    C1  183   3.314   0.293  14.267  0.1185 -0.8533  0.5614
   12MPD2    C2  184   3.276   0.232  14.148  0.7946  0.2155  0.4213
   12MPD2    C3  185   3.235   0.100  14.141  0.5491  0.4890 -0.6755
   12MPD2    C4  186   3.226   0.034  14.260 -0.9501  0.7159 -0.7352
   12MPD2    C5  187   3.251   0.098  14.378 -0.0271 -0.1038 -0.6013
   12MPD2     H  188   3.301   0.279  14.054 -2.7054 -1.1264 -1.1732
   12MPD2    H1  189   3.196   4.668  14.260  0.7529  0.2264 -0.5729
   12MPD2    H2  190   3.311   0.263  14.482  1.1960  0.2957 -0.0049
   12MPD2    H3  191   3.252   0.044  14.472  2.7698 -0.2339 -0.6856
   12MPD2     N  192   3.198   0.033  14.025 -0.0133  0.8265 -0.6630
   12MPD2    H5  193   3.195   4.671  14.034  1.2138  0.9388  1.0262
   12MPD2    N1  194   3.363   0.426  14.263  0.3698 -0.4774  0.1870
   12MPD2    H7  195   3.375   0.471  14.173 -0.4167  1.2079  0.9295
   13TCq1    O1  196   3.212   1.929  10.844 -0.3096 -0.1030 -1.0239
   13TCq1    C1  197   3.135   1.824  10.814 -0.2744  0.4274  0.3572
   13TCq1    O2  198   3.159   1.704  10.839 -0.1967  0.6030 -0.3263
   13TCq1    C2  199   2.994   1.866  10.820 -0.0825 -0.3595  0.1320
   13TCq1    C3  200   2.947   1.934  10.928  0.5550 -0.0081  0.3240
   13TCq1    C4  201   2.810   1.951  10.952  0.4397  0.5628  0.1708
   13TCq1    C5  202   2.720   1.895  10.866  0.4454  0.2941  0.3875
   13TCq1    C6  203   2.769   1.820  10.759  0.2705  0.1909  0.0057
   13TCq1    C7  204   2.908   1.804  10.740  0.5502  0.0757  0.0913
   13TCq1    C8  205   2.679   1.716  10.703 -0.6642 -0.7431 -0.6788
   13TCq1    O4  206   2.558   1.738  10.711 -0.7616  0.0494  0.2583
   13TCq1    C9  207   2.773   2.017  11.080 -0.2757 -0.4340  0.0342
   13TCq1    O5  208   2.663   1.979  11.122  0.9334 -1.0650 -0.1103
   13TCq1    O6  209   2.865   2.061  11.151 -1.1324  0.1943  0.6582
   13TCq1    H1  210   3.167   2.015  10.832  0.5216  0.6814  1.5506
   13TCq1    H2  211   3.013   1.981  11.000  1.2686  2.6604 -2.0512
   13TCq1    H3  212   2.615   1.909  10.889 -0.5893 -2.3738 -2.8296
   13TCq1    H4  213   2.945   1.746  10.656  1.1544 -1.4327  1.4065
   14MPD2     C  214   2.734   1.350  10.689  0.5587  0.2524  0.5147
   14MPD2    C1  215   2.667   1.472  10.705  0.3178  0.2476  0.0691
   14MPD2    C2  216   2.553   1.465  10.777 -0.9238 -0.4534 -0.6382
   14MPD2    C3  217   2.506   1.347  10.824 -0.0212  0.0719  0.8682
   14MPD2    C4  218   2.571   1.226  10.800  0.2582 -0.7951 -0.1995
   14MPD2    C5  219   2.680   1.232  10.717 -0.5280  0.4913 -0.5593
   14MPD2     H  220   2.488   1.550  10.792 -0.1831 -0.0031  0.0065
   14MPD2    H1  221   2.531   1.131  10.831  0.8149 -0.8563  0.3301
   14MPD2    H2  222   2.837   1.340  10.659  0.0595 -1.3893 -0.6545
   14MPD2    H3  223   2.736   1.144  10.689  1.1279  1.6855 -0.9965
   14MPD2     N  224   2.388   1.349  10.900 -0.4604  0.4112 -0.2330
   14MPD2    H5  225   2.345   1.440  10.915 -1.0817  0.2620 -1.1292
   14MPD2    N1  226   2.740   1.596  10.675  0.2411 -0.1969  0.3272
   14MPD2    H7  227   2.841   1.590  10.666  0.2621  3.9850 -2.0946
   15TCq1    O1  228   0.675   0.758   1.158  0.4279 -0.2609 -0.3399
   15TCq1    C1  229   0.741   0.715   1.264 -0.4820  0.5258 -0.2920
   15TCq1    O2  230   0.785   0.794   1.346  0.0069  0.1716 -0.6978
   15TCq1    C2  231   0.812   0.592   1.232 -0.1619  0.8796 -0.7540
   15TCq1    C3  232   0.937   0.585   1.294  0.8085 -0.1318  0.1390
   15TCq1    C4  233   1.008   0.471   1.272  0.5460  0.9767  0.4888
   15TCq1    C5  234   0.956   0.366   1.210  0.0461 -0.2858 -0.1982
   15TCq1    C6  235   0.828   0.373   1.167 -0.6321 -0.2568 -0.2529
   15TCq1    C7  236   0.759   0.493   1.167  0.2621 -0.3424 -0.3513
   15TCq1    C8  237   0.770   0.249   1.105 -0.5085  0.4631 -0.2184
   15TCq1    O4  238   0.823   0.137   1.130  0.2084 -0.3224  0.3226
   15TCq1    C9  239   1.140   0.462   1.335 -0.2745 -0.2549 -0.1691
   15TCq1    O5  240   1.190   0.348   1.341  0.4970  0.1101  0.0986
   15TCq1    O6  241   1.185   0.566   1.388 -0.2989  0.1636 -0.2339
   15TCq1    H1  242   0.648   0.687   1.096  0.5093  0.3041 -1.0182
   15TCq1    H2  243   0.978   0.656   1.366  0.0345  0.2638  0.1864
   15TCq1    H3  244   1.010   0.273   1.223 -0.5575 -0.4273  1.2826
   15TCq1    H4  245   0.651   0.498   1.154  0.4351  1.8077 -0.8171
   16MPD2     C  246   0.498   0.198   0.860  0.0562  0.3246  0.3242
   16MPD2    C1  247   0.601   0.152   0.939  0.1587 -0.4447 -0.0344
   16MPD2    C2  248   0.631   0.019   0.934  0.7118 -0.6822 -0.0901
   16MPD2    C3  249   0.544   4.671   0.862 -0.4188  0.7188 -0.5651
   16MPD2    C4  250   0.429   4.714   0.807 -0.0006  0.5395 -0.2471
   16MPD2    C5  251   0.416   0.112   0.799  0.0285 -0.3722  0.7337
   16MPD2     H  252   0.714   4.721   0.994  0.2045  1.0108  1.6478
   16MPD2    H1  253   0.363   4.649   0.751  0.6164  0.0752 -0.4253
   16MPD2    H2  254   0.477   0.304   0.864  0.2419  0.3105  2.0576
   16MPD2    H3  255   0.334   0.147   0.737 -0.6817 -2.2452  0.6136
   16MPD2     N  256   0.580   4.537   0.857  0.2455 -0.1083  0.2016
   16MPD2    H5  257   0.663   4.504   0.905  0.4653  3.0662  2.0123
   16MPD2    N1  258   0.677   0.256   1.007 -0.1507  0.0294 -0.2948
   16MPD2    H7  259   0.643   0.350   0.987 -0.5890 -0.3035 -1.1006
   17TMC1    C1  260   2.747   0.382  11.805 -0.4695  0.5524  0.2373
   17TMC1    C2  261   2.656   0.352  11.907  0.2801 -1.0389  0.4210
   17TMC1    C3  262   2.619   0.219  11.913  0.8156 -0.1426  0.4999
   17TMC1    C4  263   2.793   0.293  11.707 -0.0908  0.8734  0.1863
   17TMC1    C5  264   2.759   0.163  11.731 -0.0584  0.3651  0.3830
   17TMC1    C6  265   2.674   0.125  11.826  0.5129 -0.4300 -0.3117
   17TMC1     C  266   2.751   0.528  11.784  0.3439 -0.4174  0.0193
   17TMC1     O  267   2.712   0.598  11.875 -0.5568  0.0614  0.0224
   17TMC1     H  268   2.622   0.421  11.983  1.4085 -2.5459  2.3010
   17TMC1    H1  269   2.850   0.314  11.617  1.3828  1.0133  1.1552
   17TMC1    H2  270   2.653   0.019  11.840  1.6752 -0.8476 -1.7073
   17TMC1    C7  271   2.815   0.076  11.635  1.1086  0.0193  0.3396
   17TMC1    C8  272   2.592   0.176  12.047 -0.2172  0.3029  0.0860
   17TMC1    O1  273   2.924   0.098  11.585  0.4121 -0.7792 -0.0534
   17TMC1    O2  274   2.482   0.199  12.096 -0.2629  0.1595  0.0899
   17TMC1    O3  275   2.711   0.041  11.559  0.1220 -0.8700 -0.0231
   17TMC1    H3  276   2.627   0.072  11.600  0.4181 -1.9387  1.3898
   17TMC1    O5  277   2.682   0.086  12.079 -0.2685  0.2144  0.0550
   17TMC1    H5  278   2.739   0.074  11.999 -0.4058 -1.4337  0.2078
   18MPD2     C  279   2.905   0.771  11.710 -0.5410  0.1363  0.2101
   18MPD2    C1  280   2.855   0.683  11.621 -0.1985  0.6703  0.1158
   18MPD2    C2  281   2.872   0.701  11.483 -0.4184  0.0995  0.0990
   18MPD2    C3  282   2.931   0.815  11.437  0.0464  0.4316  0.4155
   18MPD2    C4  283   2.997   0.893  11.530  0.1615  1.0295  0.5154
   18MPD2    C5  284   2.976   0.873  11.661 -0.5349  0.9711 -0.0716
   18MPD2     H  285   2.818   0.636  11.414 -0.5515 -0.8729  1.1185
   18MPD2    H1  286   3.050   0.982  11.496 -0.0628  0.8064 -0.4121
   18MPD2    H2  287   2.891   0.765  11.817  2.9780  0.2767  0.6550
   18MPD2    H3  288   3.002   0.945  11.737  1.6585 -0.7838  0.8387
   18MPD2     N  289   2.938   0.855  11.303  0.1583  0.1023  0.1532
   18MPD2    H5  290   2.970   0.951  11.293  1.8934 -0.4372  0.5231
   18MPD2    N1  291   2.790   0.564  11.658  0.1354 -0.0771  0.1498
   18MPD2    H7  292   2.784   0.489  11.590  3.8343  0.5896 -0.8935
   19TMC2    C1  293   4.287   0.812  14.012 -0.1197 -0.3516 -0.0313
   19TMC2    C2  294   4.236   0.850  13.894  0.4181 -0.5844  0.0556
   19TMC2    C3  295   4.126   0.782  13.853  0.3849 -0.3020  0.2186
   19TMC2    C4  296   4.233   0.714  14.090  0.4904  0.0622 -0.1082
   19TMC2    C5  297   4.127   0.647  14.040  0.2885  0.6106  0.4997
   19TMC2    C6  298   4.072   0.675  13.917  0.5283  0.3233 -0.1529
   19TMC2     C  299   4.400   0.894  14.051 -0.4924  0.6032 -0.2577
   19TMC2     O  300   4.437   0.972  13.966  0.1342  0.4201 -0.2623
   19TMC2     H  301   4.282   0.928  13.833 -1.1131  0.6593  0.4953
   19TMC2    H1  302   4.278   0.690  14.186 -0.7108 -2.8235 -0.2693
   19TMC2    H2  303   3.983   0.622  13.886  0.9690  0.8731 -2.3393
   19TMC2    C7  304   4.105   0.511  14.090 -0.3463 -0.2544  0.1764
   19TMC2    C8  305   4.089   0.796  13.715  0.5633 -0.6529 -0.3320
   19TMC2    O1  306   4.197   0.462  14.155 -0.0671  0.3831 -0.6407
   19TMC2    O2  307   4.163   0.817  13.623 -0.4257  0.6612  0.3165
   19TMC2    O5  308   3.964   0.858  13.718 -0.0541 -0.7133  0.5645
   19TMC2    H5  309   3.937   0.872  13.811  2.1772 -2.3590  1.4349
   20MPD2     C  310   4.602   1.053  14.196  0.3531  0.5540 -0.0934
   20MPD2    C1  311   4.572   0.926  14.234  0.4648  0.5600 -0.1712
   20MPD2    C2  312   4.633   0.872  14.347 -0.0492 -0.3395 -0.3968
   20MPD2    C3  313   0.000   0.943  14.405  1.0989  0.0072  0.2376
   20MPD2    C4  314   0.038   1.068  14.353  0.1777 -0.6801  0.8965
   20MPD2    C5  315   4.708   1.124  14.251 -0.2441 -0.1728  0.9371
   20MPD2     H  316   4.594   0.780  14.390  0.5708 -0.8780 -0.9727
   20MPD2    H1  317   0.119   1.129  14.391 -0.3683  1.1667 -0.9287
   20MPD2    H2  318   4.553   1.112  14.120  0.7938  0.3281 -0.5573
   20MPD2    H3  319   4.725   1.224  14.213 -1.4189 -0.4576 -0.2967
   20MPD2     N  320   0.073   0.897  14.518 -0.3217 -0.1650 -0.7440
   20MPD2    H5  321   0.146   0.961  14.549  0.9947 -1.9804 -0.1333
   20MPD2    N1  322   4.464   0.853  14.171  0.1951 -0.3896  0.0283
   20MPD2    H7  323   4.430   0.768  14.215  1.2014 -0.7249  0.1825
   21TMC2    C1  324   2.235   1.085  14.085  0.0630  0.4903 -0.5295
   21TMC2    C2  325   2.314   0.983  14.041 -0.1860  0.0858 -0.3696
   21TMC2    C3  326   2.306   0.861  14.106  0.3132  0.6943 -0.0159
   21TMC2    C4  327   2.128   1.073  14.170 -0.1493  0.7383 -0.4207
   21TMC2    C5  328   2.130   0.951  14.235  0.0232  0.1930  0.0183
   21TMC2    C6  329   2.214   0.847  14.210  0.2736  0.0003 -0.5247
   21TMC2     C  330   2.320   1.203  14.112  0.3682  0.3114  0.6889
   21TMC2     O  331   2.438   1.180  14.135 -0.0957  0.1903  0.0752
   21TMC2     H  332   2.402   1.006  13.983  0.5782 -2.7366 -0.3329
   21TMC2    H1  333   2.062   1.149  14.211 -0.7023  0.8711 -1.5459
   21TMC2    H2  334   2.200   0.758  14.270 -4.9713  0.9358 -0.3644
   21TMC2    C7  335   2.091   0.958  14.374 -0.0561 -0.1975  0.1388
   21TMC2    C8  336   2.399   0.755  14.061  0.0580 -0.1388  0.9303
   21TMC2    O1  337   2.166   0.901  14.452  0.2088  0.2117 -0.6895
   21TMC2    O2  338   2.460   0.747  13.950  0.6869 -0.1098  0.4993
   21TMC2    O5  339   2.440   0.670  14.161  0.2288 -0.0917 -0.0572
   21TMC2    H5  340   2.409   0.701  14.248  0.2934  0.0645 -0.0891
   22MPD2     C  341   2.234   1.493  14.526  0.7830 -0.3324  0.5742
   22MPD2    C1  342   2.324   1.391  14.502  0.0020 -0.6260 -0.8264
   22MPD2    C2  343   2.346   1.339  14.376  0.3117 -0.4298  0.0637
   22MPD2    C3  344   2.261   1.384  14.269  0.1955 -0.4838 -0.0029
   22MPD2    C4  345   2.175   1.487  14.293  0.4350  0.6554  0.7178
   22MPD2    C5  346   2.165   1.538  14.418  0.4890 -0.5092  0.8612
   22MPD2     H  347   2.406   1.251  14.360 -0.2358 -1.0671  1.5128
   22MPD2    H1  348   2.111   1.526  14.214  0.2286  1.4562  1.2748
   22MPD2    H2  349   2.209   1.537  14.622 -0.6384 -1.1689  0.5823
   22MPD2    H3  350   2.090   1.613  14.440 -1.3279 -2.2507  0.5369
   22MPD2     N  351   2.248   1.310  14.149 -0.0353 -0.6863 -0.8434
   22MPD2    H5  352   2.152   1.313  14.115 -0.1214  2.1569 -0.3989
   22MPD2    N1  353   2.378   1.324  14.606  0.0583 -0.0275  0.3916
   22MPD2    H7  354   2.428   1.238  14.584 -1.0568 -0.4413 -0.5661
   23TMC2    C1  355   3.613   1.888  14.205 -0.3453  0.4755  0.4340
   23TMC2    C2  356   3.745   1.882  14.155  0.5509  0.3677  0.2543
   23TMC2    C3  357   3.749   1.828  14.029  0.4072 -0.2974  0.7620
   23TMC2    C4  358   3.501   1.845  14.138 -0.4420  0.0771 -0.4245
   23TMC2    C5  359   3.518   1.800  14.011  0.6107  0.5910  0.7166
   23TMC2    C6  360   3.641   1.795  13.953  0.2818 -0.1576  0.0433
   23TMC2     C  361   3.600   1.958  14.331  0.2406 -0.4747 -0.3967
   23TMC2     O  362   3.696   1.941  14.405  0.1948 -1.0193  0.2788
   23TMC2     H  363   3.821   1.941  14.206  0.6171 -0.7748  1.4628
   23TMC2    H1  364   3.404   1.853  14.186  0.5576 -1.4183  1.8515
   23TMC2    H2  365   3.657   1.747  13.857  1.9855 -1.5242  0.9990
   23TMC2    C7  366   3.402   1.759  13.938 -0.3948  0.6178  0.0986
   23TMC2    C8  367   3.876   1.821  13.965  0.5621  0.2851 -0.0114
   23TMC2    O1  368   3.421   1.692  13.836 -0.4742  0.2998 -0.0021
   23TMC2    O2  369   3.896   1.799  13.849 -0.1477 -0.0987 -0.0378
   23TMC2    O5  370   3.966   1.796  14.055 -0.7791 -0.7258  0.2926
   23TMC2    H5  371   3.938   1.772  14.146  3.3135 -1.3652  1.4149
   24MPD2     C  372   3.419   2.348  14.626 -0.3006  0.1155  0.5088
   24MPD2    C1  373   3.500   2.241  14.659 -0.3063  1.1247 -0.7463
   24MPD2    C2  374   3.524   2.144  14.562  0.1369 -0.6827 -0.4228
   24MPD2    C3  375   3.473   2.150  14.438 -0.4068  0.4834  0.1274
   24MPD2    C4  376   3.385   2.253  14.413 -0.5970 -0.3541  0.2068
   24MPD2    C5  377   3.349   2.349  14.509  0.4298  0.0993  0.8430
   24MPD2     H  378   3.589   2.060  14.584  1.3994  0.0271 -1.4319
   24MPD2    H1  379   3.340   2.259  14.315 -2.0484  3.9325  1.1594
   24MPD2    H2  380   3.406   2.422  14.704 -1.0206 -2.3250  2.7139
   24MPD2    H3  381   3.282   2.431  14.486 -0.8801 -1.2393 -0.1326
   24MPD2     N  382   3.493   2.045  14.336 -0.1196  0.3949  0.1143
   24MPD2    H5  383   3.430   2.048  14.256 -1.4825 -1.6195  1.1061
   24MPD2    N1  384   3.559   2.217  14.785  0.0190  0.6980 -0.3026
   24MPD2    H7  385   3.633   2.148  14.792  1.0434  1.7474 -0.8194
   25TMC2    C1  386   2.247   0.141  11.739 -0.3304  0.0545  0.7661
   25TMC2    C2  387   2.300   0.270  11.731 -0.1409  0.4287  0.5137
   25TMC2    C3  388   2.269   0.355  11.836  0.3785 -0.3523  0.1070
   25TMC2    C4  389   2.147   0.114  11.829 -0.4656 -0.0258 -0.3643
   25TMC2    C5  390   2.117   0.206  11.928 -0.1558  0.9071 -0.7230
   25TMC2    C6  391   2.178   0.329  11.933 -0.3308  0.4356  0.0292
   25TMC2     C  392   2.331   0.036  11.688  0.1764 -0.1548  0.5371
   25TMC2     O  393   2.444   0.058  11.659 -0.4389 -0.1200  1.0111
   25TMC2     H  394   2.391   0.293  11.677  0.2086  0.2857  1.0372
   25TMC2    H1  395   2.093   0.020  11.827 -1.5238  0.6232 -2.1319
   25TMC2    H2  396   2.158   0.394  12.017  0.9283  1.7918 -0.7136
   25TMC2    C7  397   2.023   0.161  12.032 -0.6481  0.1752 -0.3635
   25TMC2    C8  398   2.322   0.494  11.833 -0.5421  0.3741 -0.2986
   25TMC2    O1  399   2.018   0.038  12.057 -0.2453 -0.2585  0.0531
   25TMC2    O2  400   2.405   0.522  11.747  0.0631  0.0917  0.1768
   25TMC2    O5  401   2.229   0.579  11.875 -0.2984  0.1731 -0.0669
   25TMC2    H5  402   2.147   0.540  11.911  0.2631 -0.6015  0.3781
   26MPD2     C  403   2.400   4.304  11.501  0.6456  0.1074 -0.3816
   26MPD2    C1  404   2.272   4.341  11.484 -0.4538 -0.1291 -0.4369
   26MPD2    C2  405   2.225   4.464  11.541  0.0150 -0.0663  0.5375
   26MPD2    C3  406   2.312   4.547  11.603 -0.3140  0.1360 -0.0558
   26MPD2    C4  407   2.439   4.507  11.625 -0.3641  0.0799  0.5917
   26MPD2    C5  408   2.484   4.382  11.580  0.1109  0.4376  0.4743
   26MPD2     H  409   2.124   4.502  11.532 -0.4528 -1.0207  1.7732
   26MPD2    H1  410   2.515   4.566  11.675 -0.0070  1.6693 -1.8061
   26MPD2    H2  411   2.436   4.223  11.438 -0.8849 -1.6684  1.0480
   26MPD2    H3  412   2.591   4.366  11.580 -0.4247 -2.9337 -1.3140
   26MPD2     N  413   2.254   4.671  11.646  0.0426 -0.0789 -0.4118
   26MPD2    H5  414   2.154   4.688  11.639 -0.6031 -3.5574  0.0282
   26MPD2    N1  415   2.188   4.244  11.423  0.6721  1.0050  0.4506
   26MPD2    H7  416   2.226   4.164  11.373 -0.1683  1.3180 -0.7073
   27TMC2    C1  417   1.399   1.689  12.257  0.6616  0.7287 -0.2434
   27TMC2    C2  418   1.324   1.749  12.167 -0.8762  0.9145 -0.8500
   27TMC2    C3  419   1.353   1.882  12.143  0.3071 -0.0578 -0.7069
   27TMC2    C4  420   1.490   1.750  12.332 -1.5114 -1.0319 -0.3250
   27TMC2    C5  421   1.510   1.883  12.318  0.5976 -0.2422  0.5156
   27TMC2    C6  422   1.435   1.952  12.225  0.0893  0.2179 -0.0341
   27TMC2     C  423   1.345   1.580  12.324  0.1095  0.7174 -0.4522
   27TMC2     O  424   1.423   1.491  12.355 -0.4055 -0.0868  0.2076
   27TMC2     H  425   1.250   1.699  12.105 -0.3496  1.2790 -1.7844
   27TMC2    H1  426   1.530   1.703  12.421 -1.1762  0.5300  0.3540
   27TMC2    H2  427   1.471   2.051  12.198 -1.8626  1.1908  1.0174
   27TMC2    C7  428   1.517   1.944  12.446  0.2077 -0.0933 -0.0404
   27TMC2    C8  429   1.276   1.946  12.038  0.2672  0.0407 -0.4066
   27TMC2    O1  430   1.568   1.893  12.540 -0.3238  0.1154 -0.2815
   27TMC2    O2  431   1.232   1.888  11.943 -0.0029  0.1569  0.0281
   27TMC2    O5  432   1.292   2.080  12.048 -0.1745 -0.1856  0.1467
   27TMC2    H5  433   1.313   2.114  12.138 -1.9764  0.8458  0.1759
   28MPD2     C  434   1.015   1.455  12.702 -0.7881 -0.5055  0.4741
   28MPD2    C1  435   0.971   1.570  12.637 -0.7285 -0.2370  0.1176
   28MPD2    C2  436   1.027   1.608  12.514  0.3705 -0.5740 -0.4349
   28MPD2    C3  437   1.147   1.559  12.475 -0.7076  0.5100 -0.3471
   28MPD2    C4  438   1.188   1.437  12.536  0.1254 -0.4039  0.0816
   28MPD2    C5  439   1.124   1.390  12.646  0.3913 -0.2842  0.1600
   28MPD2     H  440   0.986   1.694  12.463 -2.0310 -1.2447  0.3375
   28MPD2    H1  441   1.268   1.381  12.490 -0.0065 -1.2987  0.9320
   28MPD2    H2  442   0.964   1.421  12.791  2.7744  2.7370  3.7433
   28MPD2    H3  443   1.163   1.302  12.696 -0.1362 -0.7213 -0.1971
   28MPD2     N  444   1.223   1.615  12.373  0.6036 -0.5091 -0.1581
   28MPD2    H5  445   1.178   1.695  12.330  0.3365  0.3285  1.6823
   28MPD2    N1  446   0.858   1.644  12.681  0.3648 -0.0801 -0.8652
   28MPD2    H7  447   0.835   1.733  12.638  1.1316  0.3509 -0.3938
   29TMC2    C1  448   1.229   4.103  14.171  0.3297 -0.3440  0.2631
   29TMC2    C2  449   1.360   4.107  14.122 -0.6041 -0.1993 -0.0200
   29TMC2    C3  450   1.434   4.217  14.166  0.1543 -0.4870  0.1936
   29TMC2    C4  451   1.179   4.192  14.263  0.5752  0.0816 -0.0588
   29TMC2    C5  452   1.250   4.298  14.291  0.6070 -0.8520 -0.3322
   29TMC2    C6  453   1.378   4.315  14.241  0.2277 -0.0140 -0.8581
   29TMC2     C  454   1.151   3.982  14.138 -0.0692  0.2779  0.8229
   29TMC2     O  455   1.220   3.884  14.108 -0.2320 -0.1785  0.2365
   29TMC2     H  456   1.395   4.023  14.063  0.6978  0.9900 -0.9382
   29TMC2    H1  457   1.081   4.185  14.308  0.5347  1.1777  0.0184
   29TMC2    H2  458   1.449   4.381  14.291 -1.5746  0.1330  1.5092
   29TMC2    C7  459   1.200   4.363  14.408  0.5530 -0.3466  0.8705
   29TMC2    C8  460   1.566   4.233  14.119  0.1872 -0.0405  0.2167
   29TMC2    O1  461   1.122   4.301  14.479 -0.2173 -0.2863  0.3331
   29TMC2    O2  462   1.625   4.339  14.109 -1.0332 -0.0501  0.3067
   29TMC2    O5  463   1.614   4.117  14.080 -0.3756 -0.3527  0.2472
   29TMC2    H5  464   1.574   4.040  14.126  0.2988  0.4963  2.2504
   30MPD2     C  465   0.746   3.679  14.142  0.5168 -0.2144  0.3518
   30MPD2    C1  466   0.862   3.660  14.082 -0.5714  0.3515  0.6150
   30MPD2    C2  467   0.961   3.757  14.100 -0.6546  0.1895  0.4280
   30MPD2    C3  468   0.930   3.878  14.167  0.5734  0.3700 -0.0550
   30MPD2    C4  469   0.807   3.890  14.233 -0.1874  0.2711 -0.0047
   30MPD2    C5  470   0.721   3.786  14.222  0.2131 -0.3483 -0.5559
   30MPD2     H  471   1.056   3.736  14.052 -0.4074 -0.7466  1.3219
   30MPD2    H1  472   0.792   3.968  14.307 -0.5926 -0.9646  1.2134
   30MPD2    H2  473   0.669   3.603  14.141 -2.2890  2.6687 -0.7635
   30MPD2    H3  474   0.633   3.789  14.284  1.1327  0.7547  0.6836
   30MPD2     N  475   1.017   3.984  14.176  0.3981  0.1461 -0.0790
   30MPD2    H5  476   0.981   4.065  14.225  2.1679 -0.7347  2.6249
   30MPD2    N1  477   0.891   3.543  14.009 -0.8072 -0.0231 -0.3558
   30MPD2    H7  478   0.985   3.532  13.973 -1.2174 -1.9765 -0.8038
   31TMC2    C1  479   3.291   2.803  14.991 -0.5238 -0.0465  0.3560
   31TMC2    C2  480   3.208   2.728  14.916  0.5694  0.1608  0.1426
   31TMC2    C3  481   3.190   2.596  14.956 -0.4875 -0.2760 -0.3473
   31TMC2    C4  482   3.365   2.749  15.094  0.1919  0.9628 -0.4292
   31TMC2    C5  483   3.342   2.621  15.125 -0.5151  0.3029  0.1835
   31TMC2    C6  484   3.247   2.542  15.068 -0.9037 -0.0010  0.7106
   31TMC2     C  485   3.339   2.922  14.928 -0.0522 -0.2062 -0.6660
   31TMC2     O  486   3.320   2.939  14.809  0.3247  0.1383 -0.1117
   31TMC2     H  487   3.156   2.768  14.830  1.3914  2.4838  0.7353
   31TMC2    H1  488   3.451   2.803  15.133 -1.0238  1.3679  1.7039
   31TMC2    H2  489   3.227   2.438  15.095 -1.6367 -0.0503 -0.0305
   31TMC2    C7  490   3.397   2.559  15.250 -0.2001 -0.0126  0.2835
   31TMC2    C8  491   3.082   2.522  14.893  0.8322 -0.4267 -0.5502
   31TMC2    O1  492   3.389   2.439  15.271 -0.1067 -0.3997 -0.3312
   31TMC2    O2  493   3.021   2.433  14.950  0.5217  0.4789 -0.5000
   31TMC2    O5  494   3.121   2.527  14.762 -0.0193 -0.3618  0.3373
   31TMC2    H5  495   3.192   2.591  14.742  1.3342 -1.4773  1.6274
   32MPD2     C  496   3.614   3.361  14.946  0.3967 -0.6849 -0.4402
   32MPD2    C1  497   3.579   3.281  14.837  0.1459  0.0514 -0.5335
   32MPD2    C2  498   3.507   3.164  14.862  0.7485  0.3182  0.1769
   32MPD2    C3  499   3.475   3.124  14.993 -0.6676  0.8215 -0.2458
   32MPD2    C4  500   3.524   3.201  15.102  0.0376  0.5339  0.3633
   32MPD2    C5  501   3.592   3.317  15.075  0.4267 -0.6100  0.1485
   32MPD2     H  502   3.481   3.094  14.784  0.2685 -1.4674  1.9250
   32MPD2    H1  503   3.499   3.178  15.205  0.9261 -0.3120  0.3960
   32MPD2    H2  504   3.661   3.456  14.926 -0.8503 -0.2082 -1.1114
   32MPD2    H3  505   3.613   3.380  15.161 -0.6693  0.2071 -0.1755
   32MPD2     N  506   3.402   3.006  15.018  0.3963 -0.2910 -0.1718
   32MPD2    H5  507   3.417   2.968  15.111  0.2441  0.2538  0.0715
   32MPD2    N1  508   3.624   3.337  14.713 -0.2816  0.8011 -0.5685
   32MPD2    H7  509   3.683   3.419  14.711  0.3354  0.4019  0.9460
   33TMC2    C1  510   2.801   1.218  10.158 -0.3060  0.5103  0.1427
   33TMC2    C2  511   2.739   1.109  10.093 -0.1278 -0.2529  0.3272
   33TMC2    C3  512   2.714   1.134   9.958 -0.0387 -0.6498  0.0013
   33TMC2    C4  513   2.838   1.328  10.089  0.3561  0.0163 -0.3828
   33TMC2    C5  514   2.802   1.343   9.958  0.7925  0.2893  0.0261
   33TMC2    C6  515   2.742   1.248   9.887  0.6067  0.1452 -0.2508
   33TMC2     C  516   2.884   1.174  10.269  0.6634  0.2636 -0.6521
   33TMC2     O  517   2.852   1.062  10.311  0.0501  0.4533 -0.1319
   33TMC2     H  518   2.709   1.018  10.144  1.6199 -0.2845  1.2921
   33TMC2    H1  519   2.881   1.417  10.134  0.6559 -1.2423  1.8110
   33TMC2    H2  520   2.732   1.259   9.779 -1.4198 -0.8109 -0.1529
   33TMC2    C7  521   2.840   1.469   9.902 -0.2131  0.2144  0.2602
   33TMC2    C8  522   2.624   1.052   9.879  0.0480  0.6213 -0.8597
   33TMC2    O1  523   2.937   1.530   9.942  0.0227 -0.3994  0.5043
   33TMC2    O2  524   2.572   1.089   9.774  0.3787 -0.6408  0.4506
   33TMC2    O5  525   2.640   0.926   9.930  0.1535 -0.9782  0.2310
   33TMC2    H5  526   2.676   0.916  10.020  1.4686 -0.5392 -0.2465
   34MPD2     C  527   3.209   1.208  10.668  0.3980  0.1379  0.8291
   34MPD2    C1  528   3.093   1.134  10.654  0.0481 -1.1035 -0.1059
   34MPD2    C2  529   3.008   1.156  10.545  0.0243 -0.2090 -0.4687
   34MPD2    C3  530   3.043   1.255  10.449 -0.0742 -0.1768 -0.0555
   34MPD2    C4  531   3.155   1.334  10.469  1.0408  0.0294 -0.0820
   34MPD2    C5  532   3.230   1.312  10.583 -0.5634 -0.5908 -1.0640
   34MPD2     H  533   2.910   1.111  10.539 -0.2296  0.1719  0.7819
   34MPD2    H1  534   3.183   1.422  10.413 -0.4433  1.1601  0.9248
   34MPD2    H2  535   3.275   1.192  10.753 -0.4368 -0.4807  1.3567
   34MPD2    H3  536   3.312   1.380  10.604 -0.0317 -1.7127  0.5058
   34MPD2     N  537   2.969   1.268  10.326 -0.5079  0.3469  0.2411
   34MPD2    H5  538   3.000   1.336  10.258 -1.1838 -0.7600 -1.1816
   34MPD2    N1  539   3.051   1.053  10.759 -0.2961  0.1534 -0.7178
   34MPD2    H7  540   3.080   1.076  10.853 -0.7765  0.0246 -0.5367
   35TMC2    C1  541   4.377   1.994  11.033 -0.9211 -1.2329 -0.7967
   35TMC2    C2  542   4.341   2.039  10.907 -0.4084 -0.3435 -0.4033
   35TMC2    C3  543   4.215   2.102  10.900  0.0952  0.6296 -0.0925
   35TMC2    C4  544   4.285   2.003  11.132  0.0830  0.1617 -0.1450
   35TMC2    C5  545   4.162   2.048  11.115  0.3824  0.1729 -0.5475
   35TMC2    C6  546   4.122   2.104  10.999  0.5482 -0.3787 -0.3539
   35TMC2     C  547   4.493   1.904  11.034  0.6942  0.2176  0.0602
   35TMC2     O  548   4.580   1.921  10.950 -0.5810 -0.3082  0.2102
   35TMC2     H  549   4.407   2.027  10.822  1.4884  1.9586  0.7379
   35TMC2    H1  550   4.317   1.977  11.232 -1.3886 -0.0839  0.2665
   35TMC2    H2  551   4.037   2.170  10.989 -0.6085 -1.5017  2.1209
   35TMC2    C7  552   4.057   1.999  11.202 -0.3787  0.3027  0.5121
   35TMC2    C8  553   4.176   2.171  10.785  0.4622 -0.0577  0.2751
   35TMC2    O1  554   4.106   1.978  11.317 -0.1711  0.1025  0.6487
   35TMC2    O2  555   4.069   2.153  10.731 -0.0082  0.5580  0.0332
   35TMC2    O5  556   4.291   2.224  10.731  0.3512  0.2957 -0.4941
   35TMC2    H5  557   4.341   2.268  10.802 -2.0836  2.2237  0.0246
   36MPD2     C  558   0.003   1.514  11.221 -0.2683 -0.0686  0.0068
   36MPD2    C1  559   4.629   1.528  11.297  0.4444  0.1273  0.0323
   36MPD2    C2  560   4.535   1.617  11.252 -0.0164 -0.3668  0.0578
   36MPD2    C3  561   4.570   1.702  11.153  0.4565  0.8061 -0.2534
   36MPD2    C4  562   4.692   1.694  11.082 -0.6856  0.5608 -0.3847
   36MPD2    C5  563   0.037   1.597  11.122  0.1942  0.6707 -0.5809
   36MPD2     H  564   4.447   1.638  11.311  0.0740 -1.3934  0.5554
   36MPD2    H1  565   4.726   1.757  11.001 -0.5549  1.5404  0.4254
   36MPD2    H2  566   0.070   1.432  11.245  1.8185  1.0538 -1.9339
   36MPD2    H3  567   0.126   1.582  11.063  0.8216  0.3588  0.4432
   36MPD2     N  568   4.478   1.805  11.131 -0.3904 -0.0342  0.2026
   36MPD2    H5  569   4.393   1.798  11.185  0.3958  1.9230  1.6887
   36MPD2    N1  570   4.606   1.454  11.413 -0.6096 -0.1761  0.2007
   36MPD2    H7  571   4.689   1.419  11.459 -0.8270 -2.5707 -1.2142
   37TMC2    C1  572   1.394   2.754  12.171  0.6820  0.5661  0.6166
   37TMC2    C2  573   1.262   2.769  12.140 -0.3122  0.0318  0.2709
   37TMC2    C3  574   1.237   2.784  12.011 -0.0343 -0.4314  0.3844
   37TMC2    C4  575   1.492   2.764  12.076  0.0972 -0.4062 -0.3085
   37TMC2    C5  576   1.459   2.785  11.947 -0.2818  0.2949  0.0315
   37TMC2    C6  577   1.326   2.801  11.909  0.2992 -0.1827 -0.3699
   37TMC2     C  578   1.413   2.672  12.291  0.3624  0.5881 -0.5563
   37TMC2     O  579   1.319   2.663  12.361  0.6425  0.3721  0.3502
   37TMC2     H  580   1.185   2.759  12.215  0.6825 -0.5246  1.2158
   37TMC2    H1  581   1.598   2.762  12.098  0.2608  0.5691 -1.0378
   37TMC2    H2  582   1.292   2.807  11.807 -0.8339  2.2597  0.1333
   37TMC2    C7  583   1.569   2.763  11.853  0.7939 -0.2749  0.0965
   37TMC2    C8  584   1.098   2.795  11.963 -0.5183 -0.6610  0.1259
   37TMC2    O1  585   1.679   2.768  11.906 -0.0741 -0.2057 -0.4929
   37TMC2    O2  586   1.078   2.875  11.873 -0.0550  0.2297 -0.1841
   37TMC2    O5  587   1.052   2.669  11.954 -0.2678 -0.5125 -0.3620
   37TMC2    H5  588   1.076   2.609  12.028  0.5156  0.9130  0.5409
   38MPD2     C  589   1.648   2.301  12.544 -0.0330 -0.4367 -0.0098
   38MPD2    C1  590   1.707   2.307  12.415  0.2367  0.7313 -0.0556
   38MPD2    C2  591   1.656   2.406  12.325 -0.2496 -0.0613 -0.1505
   38MPD2    C3  592   1.558   2.494  12.368 -0.3910 -0.0862 -0.2109
   38MPD2    C4  593   1.499   2.482  12.491 -1.1844  0.1405  0.1514
   38MPD2    C5  594   1.544   2.386  12.581  0.2331 -0.2622 -0.5480
   38MPD2     H  595   1.701   2.407  12.227  0.1846  1.9222  0.0630
   38MPD2    H1  596   1.423   2.553  12.524 -1.3977 -0.1640  0.3085
   38MPD2    H2  597   1.660   2.224  12.619  0.2376 -1.2094 -0.8356
   38MPD2    H3  598   1.493   2.366  12.675 -0.2347  1.0132 -0.5290
   38MPD2     N  599   1.525   2.596  12.276 -0.9665  0.2614 -0.9559
   38MPD2    H5  600   1.573   2.600  12.187 -1.1652 -1.5811 -1.1428
   38MPD2    N1  601   1.805   2.221  12.378 -0.0703  0.2368 -0.3207
   38MPD2    H7  602   1.837   2.228  12.282 -0.7457 -1.1410 -0.6408
   39TMC2    C1  603   0.779   4.636   1.795 -0.2660 -0.6834  0.0673
   39TMC2    C2  604   0.911   4.595   1.792 -0.6848  0.5274 -0.2217
   39TMC2    C3  605   0.999   4.698   1.795 -0.1020  0.2747  0.1346
   39TMC2    C4  606   0.741   0.025   1.806 -0.1293 -0.2093 -0.5671
   39TMC2    C5  607   0.839   0.121   1.816  0.0184  0.2521 -0.2236
   39TMC2    C6  608   0.971   0.088   1.808 -0.4667 -0.1265 -0.3138
   39TMC2     C  609   0.680   4.539   1.762  0.0550 -0.1649  0.5683
   39TMC2     O  610   0.574   4.583   1.728  0.1435 -0.0269 -0.0543
   39TMC2     H  611   0.942   4.498   1.754  0.6125  1.2941 -1.1004
   39TMC2    H1  612   0.641   0.056   1.782 -0.0847  1.2032  1.1079
   39TMC2    H2  613   1.054   0.156   1.827 -0.5039  0.6620 -3.0015
   39TMC2    C7  614   0.807   0.263   1.821  0.3073  0.3128 -0.2417
   39TMC2    C8  615   1.141   4.668   1.827 -1.0810 -0.1685  0.1710
   39TMC2    O1  616   0.699   0.297   1.874 -0.1903  0.0447 -0.0934
   39TMC2    O2  617   1.231   0.010   1.817 -0.6142  0.3396  0.0325
   39TMC2    O5  618   1.138   4.581   1.925  0.1250 -0.2233 -0.2467
   39TMC2    H5  619   1.054   4.538   1.953 -0.4931 -0.2708 -2.1575
   40MPD2     C  620   0.664   4.180   1.759  0.0700 -0.3236  0.4355
   40MPD2    C1  621   0.646   4.305   1.712  0.0766 -0.6125  0.6454
   40MPD2    C2  622   0.572   4.328   1.598  0.4552 -0.3096 -0.1471
   40MPD2    C3  623   0.509   4.218   1.534 -0.8968  0.4777 -0.4197
   40MPD2    C4  624   0.517   4.096   1.594 -1.0003  0.3893 -0.1107
   40MPD2    C5  625   0.597   4.077   1.704 -0.8088 -0.4560 -0.3301
   40MPD2     H  626   0.562   4.428   1.556  0.7528  0.1370  0.8484
   40MPD2    H1  627   0.486   4.001   1.552 -1.5123  1.8293 -2.9664
   40MPD2    H2  628   0.728   4.161   1.844  1.7277 -1.0515 -0.9872
   40MPD2    H3  629   0.604   3.980   1.751 -0.7386  0.1103  0.8228
   40MPD2     N  630   0.432   4.224   1.411 -0.2010 -0.5118  0.3468
   40MPD2    H5  631   0.370   4.146   1.390  0.8922 -0.9357 -1.3222
   40MPD2    N1  632   0.715   4.412   1.773 -0.4237  0.6824 -0.1700
   40MPD2    H7  633   0.791   4.386   1.834 -0.8866  0.6149  0.3803
   41TMC2    C1  634   3.733   2.394  14.363 -0.1866  0.5038 -0.8225
   41TMC2    C2  635   3.690   2.523  14.350  0.4541 -0.6400 -0.2641
   41TMC2    C3  636   3.655   2.567  14.215  0.9858  0.0698 -0.3841
   41TMC2    C4  637   3.726   2.305  14.261  0.1678  0.6072  0.3439
   41TMC2    C5  638   3.688   2.349  14.140 -0.6423 -0.1951  0.1977
   41TMC2    C6  639   3.666   2.478  14.113 -0.6533  0.1639  0.0584
   41TMC2     C  640   3.815   2.344  14.485 -0.4504  0.4915 -0.7189
   41TMC2     O  641   3.831   2.226  14.505  0.3575  0.4858 -0.1775
   41TMC2     H  642   3.687   2.590  14.435 -0.9977 -0.9530 -0.0566
   41TMC2    H1  643   3.748   2.201  14.281  1.1276  1.2225  2.4644
   41TMC2    H2  644   3.671   2.520  14.013  0.0039 -0.2750 -0.0982
   41TMC2    C7  645   3.627   2.260  14.048  0.3433  0.3338 -0.2917
   41TMC2    C8  646   3.616   2.709  14.192 -0.8363 -0.2757 -0.2235
   41TMC2    O1  647   3.532   2.202  14.095 -0.4226 -0.0475 -0.3506
   41TMC2    O2  648   3.654   2.808  14.248  1.0355 -0.1759  0.3491
   41TMC2    O5  649   3.480   2.690  14.164 -0.3696  0.3355 -0.2259
   41TMC2    H5  650   3.465   2.602  14.124  1.1611  1.9765 -4.4450
   42MPD2     C  651   3.891   2.321  14.776 -0.0607 -0.4493 -0.0807
   42MPD2    C1  652   3.892   2.438  14.701 -0.0689 -0.6574  0.3574
   42MPD2    C2  653   3.952   2.549  14.762  0.0998 -0.5951  0.4042
   42MPD2    C3  654   4.001   2.539  14.890 -0.3646 -0.5235  0.1531
   42MPD2    C4  655   3.995   2.420  14.965  0.6461 -0.2343  0.6166
   42MPD2    C5  656   3.938   2.311  14.905 -0.3201  0.8746 -0.0403
   42MPD2     H  657   3.949   2.645  14.711  1.7101  0.4910  2.3653
   42MPD2    H1  658   4.033   2.413  15.067  1.7400 -0.5013  0.1929
   42MPD2    H2  659   3.864   2.225  14.733  0.5420 -0.8470  0.4446
   42MPD2    H3  660   3.929   2.214  14.951 -1.6559  0.2719 -1.5776
   42MPD2     N  661   4.043   2.655  14.966  0.6695 -0.6208  0.5643
   42MPD2    H5  662   4.059   2.646  15.065  0.5037 -0.6179  0.5910
   42MPD2    N1  663   3.842   2.449  14.571  0.0524  0.7466  0.0864
   42MPD2    H7  664   3.856   2.535  14.519  1.5225  0.1168 -0.5614
   43TMC2    C1  665   1.309   0.398   0.562  0.3449  0.1583 -0.2105
   43TMC2    C2  666   1.264   0.520   0.518 -0.1812 -0.2763 -1.2567
   43TMC2    C3  667   1.324   0.635   0.570 -0.3068 -0.1458 -0.0515
   43TMC2    C4  668   1.397   0.388   0.662  0.2705 -0.5846 -0.4005
   43TMC2    C5  669   1.457   0.500   0.703 -0.2414  0.0181  0.1517
   43TMC2    C6  670   1.428   0.624   0.652 -0.0909  0.1320 -0.5098
   43TMC2     C  671   1.259   0.270   0.511 -0.9474  0.1559 -0.5667
   43TMC2     O  672   1.328   0.172   0.529  0.0893 -0.4131  0.4111
   43TMC2     H  673   1.195   0.536   0.436 -1.8006 -0.0602  0.1461
   43TMC2    H1  674   1.417   0.290   0.704  1.1419 -0.4115 -0.4068
   43TMC2    H2  675   1.476   0.714   0.690 -1.9276  0.8579  0.0654
   43TMC2    C7  676   1.581   0.480   0.768 -0.2379 -0.2740  0.4890
   43TMC2    C8  677   1.239   0.753   0.575 -1.4142 -1.0257 -0.6658
   43TMC2    O1  678   1.613   0.363   0.778 -0.2244 -0.5971  0.9119
   43TMC2    O2  679   1.117   0.747   0.559  0.3782  0.1717  0.0280
   43TMC2    O5  680   1.313   0.865   0.562  0.0356 -0.0133 -0.5386
   43TMC2    H5  681   1.405   0.850   0.529  0.0917 -2.3466  0.6836
   44MPD2     C  682   0.942   0.005   0.226 -0.0634 -0.7621 -0.1109
   44MPD2    C1  683   1.073   4.721   0.264 -0.4995  0.1903  0.0294
   44MPD2    C2  684   1.140   0.075   0.342 -0.2339 -0.0210  0.6831
   44MPD2    C3  685   1.076   0.191   0.376  0.0765 -0.3634  0.2688
   44MPD2    C4  686   0.948   0.215   0.331  0.3341  0.6213 -1.0745
   44MPD2    C5  687   0.881   0.123   0.261  0.4482 -0.1422 -0.2888
   44MPD2     H  688   1.243   0.046   0.365 -0.4460 -1.0188  0.3608
   44MPD2    H1  689   0.909   0.312   0.359 -1.1685 -0.2464 -0.1812
   44MPD2    H2  690   0.894   4.674   0.158 -0.1837 -1.2058  0.4384
   44MPD2    H3  691   0.789   0.156   0.215  0.0088 -0.2915  0.4821
   44MPD2     N  692   1.138   0.290   0.450 -0.2771 -0.0807  0.5557
   44MPD2    H5  693   1.096   0.380   0.473 -0.2442 -0.1920  1.0659
   44MPD2    N1  694   1.147   4.609   0.217  0.4011 -0.4064  0.2279
   44MPD2    H7  695   1.248   4.613   0.227  0.4857  1.0658 -1.2042
   45TMC2    C1  696   1.602   3.006   9.624 -0.0330 -0.4209 -0.1435
   45TMC2    C2  697   1.687   3.079   9.537 -0.4482  0.3654  0.5484
   45TMC2    C3  698   1.710   3.207   9.571  0.1112 -0.0141 -0.2323
   45TMC2    C4  699   1.528   3.067   9.720 -1.2357 -0.2449  0.3896
   45TMC2    C5  700   1.553   3.195   9.753  0.1496 -0.0636 -0.3456
   45TMC2    C6  701   1.650   3.261   9.686  0.3131  0.1385  0.2268
   45TMC2     C  702   1.551   2.885   9.565 -0.4230 -0.4767 -0.4350
   45TMC2     O  703   1.625   2.822   9.488  0.1044 -0.9098  0.2368
   45TMC2     H  704   1.732   3.032   9.450 -1.9961  1.4342 -0.8355
   45TMC2    H1  705   1.468   3.003   9.784 -0.2799  0.0088  1.5388
   45TMC2    H2  706   1.670   3.363   9.714  2.1653 -0.0984 -0.2271
   45TMC2    C7  707   1.503   3.246   9.879 -0.2072  0.1696  0.0282
   45TMC2    C8  708   1.767   3.289   9.471 -0.9429 -0.2790  0.3279
   45TMC2    O1  709   1.580   3.319   9.944 -0.2976  0.0257 -0.3676
   45TMC2    O2  710   1.721   3.398   9.446 -0.2475  0.8523  0.1461
   45TMC2    O5  711   1.849   3.220   9.391 -0.1873  0.4678 -0.2959
   45TMC2    H5  712   1.880   3.133   9.424 -2.4402 -0.3755 -0.3996
   46MPD2     C  713   1.362   2.684   9.426  0.3629  0.5621  0.1563
   46MPD2    C1  714   1.331   2.783   9.522  0.0938  0.5746  0.5169
   46MPD2    C2  715   1.200   2.786   9.535 -0.4169 -0.3680  0.1551
   46MPD2    C3  716   1.107   2.696   9.479  0.2271 -0.1241 -0.1419
   46MPD2    C4  717   1.145   2.593   9.398  0.0681 -0.6981  0.0132
   46MPD2    C5  718   1.277   2.596   9.370  0.5466 -0.0314  0.2999
   46MPD2     H  719   1.164   2.862   9.605  2.8400  2.5058 -1.3237
   46MPD2    H1  720   1.084   2.512   9.358 -0.6779  0.2159 -0.7006
   46MPD2    H2  721   1.459   2.688   9.376  0.0839  2.4385 -0.2157
   46MPD2    H3  722   1.300   2.521   9.295 -1.3896 -1.0765  0.7308
   46MPD2     N  723   0.971   2.722   9.507 -0.0077 -0.0805  0.3509
   46MPD2    H5  724   0.951   2.797   9.572  1.4849 -0.0862  0.8031
   46MPD2    N1  725   1.417   2.875   9.582  0.3471  0.4690 -0.5215
   46MPD2    H7  726   1.380   2.955   9.631 -0.1429  0.4755 -0.9061
   47TMC2    C1  727   3.038   3.670   8.987 -0.0214  0.5716  0.2202
   47TMC2    C2  728   3.032   3.589   8.879  0.3235  0.2906  0.1893
   47TMC2    C3  729   2.912   3.576   8.819  0.2847 -0.0697  1.0651
   47TMC2    C4  730   2.931   3.734   9.032 -0.2968 -0.1784  0.2186
   47TMC2    C5  731   2.808   3.711   8.971  0.2717 -0.2172  0.1622
   47TMC2    C6  732   2.793   3.628   8.867 -0.2637 -0.6414 -0.3613
   47TMC2     C  733   3.158   3.678   9.068 -0.3140  0.1465 -0.0267
   47TMC2     O  734   3.161   3.761   9.156 -0.2062 -0.0213  0.4464
   47TMC2     H  735   3.122   3.546   8.836  1.1894 -0.0126  2.2961
   47TMC2    H1  736   2.934   3.782   9.129 -0.0343  1.6814 -0.6922
   47TMC2    H2  737   2.691   3.611   8.832 -0.6482 -0.1906  0.5248
   47TMC2    C7  738   2.690   3.758   9.040 -0.2208 -0.5354  0.2904
   47TMC2    C8  739   2.905   3.473   8.714 -0.4164  0.8768  0.4969
   47TMC2    O1  740   2.583   3.700   9.005  1.0320  0.2199  0.0605
   47TMC2    O2  741   2.963   3.366   8.728 -0.4460  0.2082 -0.3142
   47TMC2    O5  742   2.788   3.503   8.655  0.0488  0.5237 -1.3166
   47TMC2    H5  743   2.762   3.597   8.655  0.6245  0.6838  1.3508
   48MPD2     C  744   3.436   3.659   9.172  0.3483  0.2520 -0.6356
   48MPD2    C1  745   3.365   3.554   9.127 -0.5578 -0.3498 -0.3285
   48MPD2    C2  746   3.417   3.429   9.124 -0.1996 -0.8189  0.3064
   48MPD2    C3  747   3.543   3.405   9.164  0.3500  0.4449 -0.9404
   48MPD2    C4  748   3.626   3.516   9.205 -0.2301  0.5625 -0.4147
   48MPD2    C5  749   3.568   3.637   9.210 -0.2657 -0.4797  0.4816
   48MPD2     H  750   3.349   3.351   9.092 -2.0734  0.5535  0.9512
   48MPD2    H1  751   3.733   3.508   9.218 -0.3549 -2.2904 -1.0984
   48MPD2    H2  752   3.394   3.759   9.178  1.3058  0.6849 -1.1995
   48MPD2    H3  753   3.621   3.717   9.261  1.2255 -0.9551 -0.3320
   48MPD2     N  754   3.593   3.274   9.163  0.1508  0.3603 -0.3475
   48MPD2    H5  755   3.523   3.200   9.158  2.0102 -1.5009  1.1192
   48MPD2    N1  756   3.242   3.569   9.059  0.0265  0.1435 -0.0655
   48MPD2    H7  757   3.208   3.491   9.003  2.4276 -0.6018 -0.4957
   49TMC2    C1  758   2.052   4.699  10.489 -0.2785  0.0640  0.2531
   49TMC2    C2  759   2.099   0.077  10.427 -0.2423 -0.9186  0.6738
   49TMC2    C3  760   2.208   0.143  10.479  0.0203 -0.9937 -0.0318
   49TMC2    C4  761   2.114   4.651  10.594  0.3066  0.2682  0.0846
   49TMC2    C5  762   2.217   4.723  10.653 -0.3898  0.4936 -0.9126
   49TMC2    C6  763   2.268   0.102  10.596  0.6918 -0.0206  0.3110
   49TMC2     C  764   1.923   4.652  10.451 -0.1569 -0.0576 -0.7037
   49TMC2     O  765   1.909   4.531  10.450  0.2295 -0.1647 -0.1027
   49TMC2     H  766   2.049   0.123  10.343  1.0196 -0.7667  0.0120
   49TMC2    H1  767   2.081   4.557  10.639  3.2206 -0.5269  0.5881
   49TMC2    H2  768   2.361   0.142  10.634  0.3206  1.6085 -0.4856
   49TMC2    C7  769   2.299   4.658  10.745  0.6823 -0.0856 -0.0921
   49TMC2    C8  770   2.262   0.255  10.410 -0.2135  0.3936  0.2525
   49TMC2    O1  771   2.325   4.544  10.706  0.3579  0.5706 -0.1272
   49TMC2    O2  772   2.336   0.334  10.473 -0.7283 -0.1290 -0.0871
   49TMC2    O5  773   2.294   0.199  10.294 -0.3420  0.1254  0.0853
   49TMC2    H5  774   2.244   0.115  10.284 -2.1343  0.9721  1.9409
   50MPD2     C  775   1.623   4.631  10.401  0.6176  0.4004 -0.4461
   50MPD2    C1  776   1.687   0.012  10.433 -0.4416 -0.0243  0.7403
   50MPD2    C2  777   1.610   0.129  10.461 -0.0444 -0.0646 -0.7485
   50MPD2    C3  778   1.475   0.122  10.466  0.1371 -0.1620 -0.3374
   50MPD2    C4  779   1.419   0.005  10.428 -0.1802 -0.3836  0.4679
   50MPD2    C5  780   1.490   4.632  10.397 -0.3647 -0.7160 -0.0845
   50MPD2     H  781   1.666   0.220  10.480  2.6675 -1.7924 -0.5231
   50MPD2    H1  782   1.311   4.730  10.428 -0.4530  1.6944 -3.0080
   50MPD2    H2  783   1.675   4.539  10.376  1.7516  0.0302  3.2592
   50MPD2    H3  784   1.434   4.547  10.360 -1.8394 -1.0674  2.9749
   50MPD2     N  785   1.386   0.224  10.504 -0.4303  0.3224 -0.1924
   50MPD2    H5  786   1.288   0.198  10.510 -0.9058  2.4719  1.4646
   50MPD2    N1  787   1.833   0.018  10.445 -0.2667  0.0071 -0.1318
   50MPD2    H7  788   1.870   0.109  10.471  0.0486  0.0146 -0.5964
   51TMC2    C1  789   3.343   4.268   0.785  0.0920  0.0107  0.7196
   51TMC2    C2  790   3.328   4.396   0.821 -0.2262 -0.0286 -0.2873
   51TMC2    C3  791   3.443   4.472   0.804  0.0141  0.0146  1.5031
   51TMC2    C4  792   3.455   4.211   0.736 -0.8922 -0.3752  0.1591
   51TMC2    C5  793   3.567   4.296   0.717 -0.1112  0.1834 -0.4074
   51TMC2    C6  794   3.564   4.429   0.755  0.1222  0.4811  0.2650
   51TMC2     C  795   3.244   4.164   0.813  0.3631 -0.0380 -0.3543
   51TMC2     O  796   3.243   4.060   0.751  0.5610  0.2679  0.4618
   51TMC2     H  797   3.239   4.452   0.848 -1.1047 -1.6064  0.0440
   51TMC2    H1  798   3.462   4.105   0.715 -1.9922  0.0872 -2.5275
   51TMC2    H2  799   3.644   4.499   0.774 -0.2145  0.7381  0.7178
   51TMC2    C7  800   3.693   4.239   0.682 -0.1900 -0.3726 -0.3151
   51TMC2    C8  801   3.430   4.610   0.828  0.4180 -0.3685 -0.2389
   51TMC2    O1  802   3.794   4.307   0.711  0.3832 -0.6780  0.1671
   51TMC2    O2  803   3.346   4.661   0.896  0.4515  0.1185  0.1372
   51TMC2    O5  804   3.464   4.665   0.710 -0.0822 -0.5456 -0.5202
   51TMC2    H5  805   3.522   4.606   0.657  0.5031 -1.3333  1.0009
   52MPD2     C  806   2.848   4.038   1.120  0.2449  0.0532  0.5934
   52MPD2    C1  807   2.937   3.960   1.044  0.4302 -0.2599  0.7379
   52MPD2    C2  808   3.036   4.018   0.967 -0.4026  0.6165 -0.1897
   52MPD2    C3  809   3.045   4.156   0.958 -0.3054  0.6733 -0.3992
   52MPD2    C4  810   2.968   4.234   1.041  0.3118 -0.1331 -0.1771
   52MPD2    C5  811   2.871   4.174   1.118  0.2950  0.2707 -0.2300
   52MPD2     H  812   3.092   3.957   0.896 -0.0627  1.1502 -0.3786
   52MPD2    H1  813   2.982   4.341   1.036 -0.6227  0.0521  1.0711
   52MPD2    H2  814   2.769   3.995   1.179  1.9166 -0.2536  2.5916
   52MPD2    H3  815   2.795   4.226   1.175 -0.0049  2.9744 -3.0708
   52MPD2     N  816   3.151   4.224   0.887 -0.1529  0.3445 -0.5835
   52MPD2    H5  817   3.178   4.315   0.922 -0.3472 -0.0395  0.5716
   52MPD2    N1  818   2.938   3.816   1.047  0.2496  0.2583 -0.6126
   52MPD2    H7  819   2.992   3.768   0.976 -0.1518 -1.3257  0.1691
   53TMC2    C1  820   2.156   2.446  11.585  0.7649  0.3180 -0.0448
   53TMC2    C2  821   2.272   2.419  11.523 -0.3851  0.2497 -0.2534
   53TMC2    C3  822   2.366   2.367  11.609  0.2607  0.0749  0.7981
   53TMC2    C4  823   2.132   2.416  11.711  0.4139  1.2153 -0.2598
   53TMC2    C5  824   2.225   2.356  11.785  0.9924  0.0066  0.1736
   53TMC2    C6  825   2.348   2.330  11.739  0.0805 -0.8713 -0.2540
   53TMC2     C  826   2.061   2.526  11.509  0.7383 -0.7634 -0.0118
   53TMC2     O  827   2.073   2.527  11.389  0.2733  0.8106  0.2338
   53TMC2     H  828   2.278   2.426  11.415  0.9846 -1.5835 -0.2867
   53TMC2    H1  829   2.034   2.432  11.755  0.2068  1.6181 -0.8747
   53TMC2    H2  830   2.427   2.287  11.799 -1.6349 -2.3177  0.9870
   53TMC2    C7  831   2.194   2.340  11.926  0.1185  0.1328  0.0169
   53TMC2    C8  832   2.501   2.342  11.563  0.5278  0.1542  0.2742
   53TMC2    O1  833   2.084   2.383  11.960  0.5920 -0.0378  0.6077
   53TMC2    O2  834   2.585   2.271  11.615  0.2797 -0.0701  0.3387
   53TMC2    O5  835   2.512   2.391  11.441 -0.0060  0.4048 -0.0691
   53TMC2    H5  836   2.451   2.465  11.419 -1.6318 -0.6923  0.7470
   54MPD2     C  837   1.803   2.643  11.414  0.9728 -0.7043  0.6028
   54MPD2    C1  838   1.849   2.642  11.544  0.0934  0.3731 -0.4657
   54MPD2    C2  839   1.761   2.680  11.642  1.0500 -0.0285  0.5173
   54MPD2    C3  840   1.626   2.712  11.612  0.4816  0.6907 -0.5158
   54MPD2    C4  841   1.586   2.717  11.479 -0.1040 -0.5866  0.1825
   54MPD2    C5  842   1.678   2.694  11.381 -0.6525 -0.7181 -0.0803
   54MPD2     H  843   1.796   2.658  11.743  2.5543  0.5887  0.1285
   54MPD2    H1  844   1.483   2.745  11.459  0.9548  1.8391 -1.8230
   54MPD2    H2  845   1.866   2.619  11.329 -1.3223  2.1701 -1.8917
   54MPD2    H3  846   1.639   2.698  11.280 -3.5579 -0.8537  1.0308
   54MPD2     N  847   1.535   2.732  11.722  0.0305 -0.8463  0.4365
   54MPD2    H5  848   1.437   2.742  11.698  0.6854  1.2293 -1.3701
   54MPD2    N1  849   1.970   2.588  11.591 -0.0925  0.2628  0.8364
   54MPD2    H7  850   1.996   2.595  11.689  1.0573  0.4332  0.5142
   55TMC2    C1  851   4.208   0.646  16.976  0.1535  0.0658 -0.4767
   55TMC2    C2  852   4.279   0.687  16.869  0.0883  0.1546  1.1009
   55TMC2    C3  853   4.306   0.577  16.783 -0.1089 -0.0265 -0.0366
   55TMC2    C4  854   4.160   0.522  17.005 -0.3533 -0.1237 -0.1333
   55TMC2    C5  855   4.182   0.427  16.909  0.1236 -0.2611  0.2889
   55TMC2    C6  856   4.244   0.453  16.795  0.0953  0.3465 -0.1762
   55TMC2     C  857   4.148   0.754  17.052 -0.2590  0.2985 -0.2673
   55TMC2     O  858   4.097   0.726  17.158  0.1450  0.4641 -0.0698
   55TMC2     H  859   4.331   0.782  16.859  0.3920 -0.0227  0.9566
   55TMC2    H1  860   4.088   0.508  17.085  1.6767 -1.1393  1.5330
   55TMC2    H2  861   4.263   0.363  16.737  0.7625 -0.7695  1.7653
   55TMC2    C7  862   4.156   0.289  16.944 -0.9866  0.0030 -0.1218
   55TMC2    C8  863   4.383   0.628  16.669  0.7343  0.3511 -0.8685
   55TMC2    O1  864   4.156   0.207  16.853 -0.2836 -0.2232  0.1807
   55TMC2    O2  865   4.423   0.743  16.669 -0.0562 -0.1628  0.4262
   55TMC2    O5  866   4.357   0.561  16.559 -0.1884 -0.2031 -0.2367
   55TMC2    H5  867   4.313   0.474  16.572 -2.6503  0.9511 -0.9433
   56MPD2     C  868   4.129   1.121  16.995 -0.0582 -0.1425 -0.0156
   56MPD2    C1  869   4.122   1.004  17.065  0.1706 -0.4181  0.3058
   56MPD2    C2  870   4.088   1.009  17.197 -0.0008 -0.3719 -0.8708
   56MPD2    C3  871   4.032   1.120  17.258 -0.6959 -0.4810  0.2323
   56MPD2    C4  872   4.009   1.229  17.175 -0.5827  0.2852 -0.7152
   56MPD2    C5  873   4.068   1.226  17.057 -0.4031  0.8323 -1.0205
   56MPD2     H  874   4.100   0.918  17.256  1.2960 -0.5312 -1.3705
   56MPD2    H1  875   3.975   1.327  17.206 -3.0969 -0.4333 -1.1905
   56MPD2    H2  876   4.156   1.138  16.891  0.0745 -1.6361 -0.2160
   56MPD2    H3  877   4.063   1.317  16.998 -0.3789  0.7967 -1.0777
   56MPD2     N  878   3.988   1.115  17.390  0.7547 -0.1321 -0.1609
   56MPD2    H5  879   4.003   1.028  17.440  0.8677  0.8714  1.5463
   56MPD2    N1  880   4.159   0.885  16.996 -0.7369 -0.1080 -0.5624
   56MPD2    H7  881   4.194   0.892  16.901  1.5366  1.9525  0.4151
   57TMC2    C1  882   2.610   0.342  13.345 -0.1208 -0.5912  0.3425
   57TMC2    C2  883   2.557   0.239  13.268 -0.2460 -0.2680  0.4564
   57TMC2    C3  884   2.643   0.136  13.237 -0.1615  0.1970 -0.1473
   57TMC2    C4  885   2.734   0.346  13.387  0.3198 -0.7389  0.2343
   57TMC2    C5  886   2.816   0.251  13.333 -0.1777  0.2366  0.1505
   57TMC2    C6  887   2.777   0.147  13.256 -0.1984 -0.7028 -0.1565
   57TMC2     C  888   2.537   0.467  13.380 -0.0454 -0.1443 -0.1554
   57TMC2     O  889   2.567   0.532  13.480 -0.1693 -0.3881 -0.4592
   57TMC2     H  890   2.461   0.245  13.219 -0.4523  1.1327  1.0099
   57TMC2    H1  891   2.772   0.436  13.435 -1.7016  0.2053  0.0562
   57TMC2    H2  892   2.837   0.075  13.203  0.5249  0.8107 -1.3700
   57TMC2    C7  893   2.958   0.282  13.321  0.2534 -0.3639  0.5914
   57TMC2    C8  894   2.610   0.044  13.132 -0.1823 -0.2434  0.1914
   57TMC2    O1  895   3.032   0.211  13.250  0.7097 -0.0610  0.2945
   57TMC2    O2  896   2.678   0.053  13.027  0.0489  0.0053 -0.5095
   57TMC2    O5  897   2.475   0.027  13.152 -0.0305  0.3328 -0.1426
   57TMC2    H5  898   2.448   0.030  13.246 -0.3777  3.2108 -0.3205
   58MPD2     C  899   2.090   0.704  13.352 -0.0121  0.1162  0.0000
   58MPD2    C1  900   2.192   0.721  13.442 -1.0430  0.2363 -0.5441
   58MPD2    C2  901   2.298   0.625  13.438 -0.1735  0.5801 -0.0218
   58MPD2    C3  902   2.309   0.543  13.326  0.2495  1.0581  0.0830
   58MPD2    C4  903   2.204   0.526  13.236 -0.2488  0.5865 -0.1942
   58MPD2    C5  904   2.097   0.611  13.253 -0.1192  1.1251 -0.0588
   58MPD2     H  905   2.373   0.623  13.516 -0.0200  1.6753 -0.1345
   58MPD2    H1  906   2.208   0.469  13.144 -0.5598 -0.6965  0.5841
   58MPD2    H2  907   1.993   0.752  13.363 -1.6107 -3.1994  0.3521
   58MPD2    H3  908   2.014   0.609  13.183  0.4610 -0.5087 -0.7326
   58MPD2     N  909   2.420   0.462  13.309 -0.0085  0.2336 -0.8474
   58MPD2    H5  910   2.430   0.419  13.218 -0.8483  1.0137 -1.3024
   58MPD2    N1  911   2.185   0.826  13.542  0.2101  0.0643 -0.3235
   58MPD2    H7  912   2.109   0.893  13.550  1.6024  1.5823  0.0125
   59TMC2    C1  913   0.419   1.334  12.776  0.1312 -0.9278  0.5899
   59TMC2    C2  914   0.515   1.385  12.701  0.0817  0.1821 -0.3126
   59TMC2    C3  915   0.508   1.367  12.564  0.4371  0.9402 -0.1571
   59TMC2    C4  916   0.307   1.256  12.727  0.1548  0.8009 -0.1872
   59TMC2    C5  917   0.314   1.237  12.589  0.2445 -0.3230  0.2263
   59TMC2    C6  918   0.406   1.294  12.506  0.2993 -0.0510 -0.3672
   59TMC2     C  919   0.406   1.379  12.907  0.3918  0.2650 -0.1350
   59TMC2     O  920   0.303   1.433  12.935  0.7158  0.3044  0.6253
   59TMC2     H  921   0.587   1.451  12.748  0.3258  0.7431 -1.4682
   59TMC2    H1  922   0.232   1.213  12.793 -0.0377  1.8831  0.2959
   59TMC2    H2  923   0.410   1.265  12.402 -1.2848 -0.4553 -0.3186
   59TMC2    C7  924   0.211   1.152  12.526  0.2113  0.6761  0.1348
   59TMC2    C8  925   0.604   1.427  12.476 -0.3775  0.6934  0.4713
   59TMC2    O1  926   0.189   1.047  12.589 -0.0135  0.1571 -0.0329
   59TMC2    O2  927   0.577   1.436  12.356 -0.4585  0.2764 -0.2671
   59TMC2    O5  928   0.720   1.383  12.523  0.2636 -0.0613 -0.0464
   59TMC2    H5  929   0.722   1.336  12.609  1.6280  1.8129  0.9662
   60MPD2     C  930   0.477   1.519  13.148 -0.7240  0.5310 -0.1189
   60MPD2    C1  931   0.555   1.412  13.100 -0.5400  0.1624 -0.1776
   60MPD2    C2  932   0.666   1.359  13.166  0.5667 -0.6349  1.1097
   60MPD2    C3  933   0.707   1.417  13.283 -0.2770  0.3299  0.0656
   60MPD2    C4  934   0.636   1.531  13.319  0.8573  0.3035  0.2013
   60MPD2    C5  935   0.527   1.583  13.256  0.4948  0.0162  0.3404
   60MPD2     H  936   0.723   1.280  13.118 -0.4208 -2.6681  3.3257
   60MPD2    H1  937   0.657   1.585  13.411 -1.3432 -0.4971  1.1571
   60MPD2    H2  938   0.384   1.553  13.103 -0.8311 -0.3728 -0.5797
   60MPD2    H3  939   0.471   1.664  13.302 -1.4765 -0.7350 -0.7612
   60MPD2     N  940   0.813   1.363  13.362  0.6879 -0.7471 -0.1703
   60MPD2    H5  941   0.823   1.400  13.456 -0.0492  1.2133 -0.8560
   60MPD2    N1  942   0.515   1.346  12.981 -0.1078  0.0782 -0.1186
   60MPD2    H7  943   0.578   1.282  12.934 -0.0393  0.3244 -0.3626
   61TMC2    C1  944   4.709   2.681  15.861  0.5206 -0.1150  0.0435
   61TMC2    C2  945   0.007   2.619  15.974 -0.6195  0.0728 -0.3490
   61TMC2    C3  946   0.014   2.694  16.090  0.4465  0.8049 -0.7741
   61TMC2    C4  947   4.688   2.816  15.857 -0.4366  0.1625 -1.1092
   61TMC2    C5  948   4.718   2.893  15.967  0.1486 -0.2489 -0.0782
   61TMC2    C6  949   0.008   2.830  16.083 -0.2124 -0.4238 -0.1077
   61TMC2     C  950   0.030   2.626  15.742 -0.1935  0.3937 -0.1885
   61TMC2     O  951   0.076   2.514  15.749 -0.6141 -0.6405  0.2878
   61TMC2     H  952   0.038   2.515  15.974 -1.4748 -0.1822  0.4611
   61TMC2    H1  953   4.653   2.856  15.763  1.1064 -1.5399 -2.4095
   61TMC2    H2  954   4.725   2.892  16.169  0.4133 -0.2946 -0.0417
   61TMC2    C7  955   0.038   3.017  15.924 -0.0670  0.0235  0.1986
   61TMC2    C8  956   0.039   2.621  16.210 -0.3658  0.3047 -0.7677
   61TMC2    O1  957   0.019   3.051  15.808  0.2230  0.3505  0.0700
   61TMC2    O2  958   0.016   2.503  16.224  0.0235  0.0626  0.1358
   61TMC2    O5  959   0.118   2.693  16.295  0.8946 -0.1754  0.0485
   61TMC2    H5  960   0.140   2.784  16.264 -1.3234 -0.0493 -1.1672
   62MPD2     C  961   0.150   2.565  15.473  0.1068  0.3253 -0.3612
   62MPD2    C1  962   0.097   2.683  15.512  0.2894 -0.3806 -0.0118
   62MPD2    C2  963   0.126   2.802  15.435 -0.3959  0.0018 -0.0220
   62MPD2    C3  964   0.205   2.790  15.322  0.3228  0.5886  0.0864
   62MPD2    C4  965   0.255   2.669  15.288  0.3728  0.3149 -0.5256
   62MPD2    C5  966   0.233   2.556  15.365 -0.0242 -0.1582 -0.3358
   62MPD2     H  967   0.093   2.900  15.468 -0.4421  0.4444 -1.3799
   62MPD2    H1  968   0.307   2.652  15.194  1.7238 -3.6296  0.9291
   62MPD2    H2  969   0.152   2.475  15.534 -1.7440  0.8129  0.3987
   62MPD2    H3  970   0.272   2.458  15.338 -0.2844 -0.5548  0.7331
   62MPD2     N  971   0.223   2.903  15.247 -0.4605 -0.7359  0.2046
   62MPD2    H5  972   0.180   2.989  15.281 -1.6795 -0.2281 -2.5897
   62MPD2    N1  973   0.035   2.713  15.633 -0.1267  0.0736  0.4977
   62MPD2    H7  974   4.723   2.800  15.648 -0.9431 -0.5206  1.2104
   63TMC2    C1  975   3.676   3.058  10.192  0.7824  0.6905  0.0580
   63TMC2    C2  976   3.813   3.084  10.176 -0.0362 -0.1835  0.0291
   63TMC2    C3  977   3.854   3.132  10.062  0.0220 -0.2741 -0.7007
   63TMC2    C4  978   3.586   3.075  10.093  0.2406  0.5003  0.4669
   63TMC2    C5  979   3.631   3.131   9.973 -0.4405  0.2456 -0.7390
   63TMC2    C6  980   3.770   3.155   9.955  0.1545  0.5744 -0.0897
   63TMC2     C  981   3.634   3.001  10.317  0.6474 -0.6406 -0.1532
   63TMC2     O  982   3.708   3.016  10.416  0.9734 -0.4182  0.0847
   63TMC2     H  983   3.883   3.064  10.257  0.0365 -0.6463 -0.1453
   63TMC2    H1  984   3.481   3.077  10.121 -0.8409 -0.6932 -3.3810
   63TMC2    H2  985   3.816   3.177   9.859 -0.0900 -0.0621 -0.3572
   63TMC2    C7  986   3.536   3.148   9.870  0.0439 -0.0173 -0.9090
   63TMC2    C8  987   3.991   3.185  10.051 -0.5698 -0.3127  0.1564
   63TMC2    O1  988   3.430   3.086   9.882 -0.2501 -0.4945  0.0093
   63TMC2    O2  989   4.028   3.236   9.946  0.2623  0.2792  0.1670
   63TMC2    O5  990   4.067   3.120  10.138  0.2182 -0.0650 -0.2358
   63TMC2    H5  991   4.020   3.057  10.197 -1.6460  1.3186 -0.2364
   64MPD2     C  992   3.374   2.630  10.548 -0.2578 -0.9622 -0.4896
   64MPD2    C1  993   3.371   2.609  10.413 -0.0844 -0.1754 -0.5629
   64MPD2    C2  994   3.429   2.705  10.337  0.6320  0.0807 -0.4951
   64MPD2    C3  995   3.490   2.821  10.385  0.4700  0.2439 -0.2263
   64MPD2    C4  996   3.492   2.831  10.519  0.1660 -0.3881 -0.5020
   64MPD2    C5  997   3.432   2.746  10.599  0.8879  0.2010 -0.1992
   64MPD2     H  998   3.431   2.679  10.231 -1.8978  0.6655 -0.6690
   64MPD2    H1  999   3.546   2.911  10.568 -0.3791 -2.5014  3.5680
   64MPD2    H2 1000   3.331   2.565  10.623  3.4958 -0.5378  2.0421
   64MPD2    H3 1001   3.441   2.739  10.707  0.3991  1.6643 -0.0615
   64MPD2     N 1002   3.541   2.905  10.288  0.5546 -0.0572  0.1661
   64MPD2    H5 1003   3.520   2.886  10.191 -0.3952 -0.6122  0.4900
   64MPD2    N1 1004   3.327   2.495  10.351 -0.3720  0.2259  0.1803
   64MPD2    H7 1005   3.356   2.474  10.256 -0.5889 -1.9411  0.5948
   65TMC2    C1 1006   0.745   2.573  15.694  0.3818  0.6754 -0.1584
   65TMC2    C2 1007   0.695   2.515  15.581  0.3274 -0.0820 -0.2740
   65TMC2    C3 1008   0.670   2.596  15.476 -0.0782  0.1191 -0.2423
   65TMC2    C4 1009   0.761   2.702  15.708 -0.2210 -0.2136  0.2755
   65TMC2    C5 1010   0.732   2.790  15.598  0.3615  0.6261  0.6015
   65TMC2    C6 1011   0.681   2.736  15.482 -0.0782  0.7598  0.0381
   65TMC2     C 1012   0.745   2.490  15.817 -0.4951  0.1061  0.3186
   65TMC2     O 1013   0.769   2.547  15.923  0.1819 -0.0504  0.2394
   65TMC2     H 1014   0.694   2.408  15.569  0.8129 -0.0357 -0.6904
   65TMC2    H1 1015   0.814   2.737  15.796  0.9989  0.3629 -0.6891
   65TMC2    H2 1016   0.665   2.795  15.392 -0.5913 -2.3101 -1.8763
   65TMC2    C7 1017   0.776   2.925  15.604 -0.2997  0.4345  0.1771
   65TMC2    C8 1018   0.611   2.535  15.357 -0.2607  0.2133  0.3140
   65TMC2    O1 1019   0.758   2.983  15.499 -0.1095 -0.1267 -0.1580
   65TMC2    O2 1020   0.620   2.582  15.245 -0.0327  0.4689 -0.0682
   65TMC2    O5 1021   0.526   2.441  15.405 -0.1799 -0.4057  0.4127
   65TMC2    H5 1022   0.511   2.443  15.502 -1.1570 -1.0416  0.2725
   66MPD2     C 1023   0.673   2.289  16.029 -1.2195  0.2604 -1.0546
   66MPD2    C1 1024   0.714   2.258  15.906  0.5130 -0.1532 -0.5708
   66MPD2    C2 1025   0.731   2.126  15.875  0.0835  0.3728 -0.8718
   66MPD2    C3 1026   0.712   2.028  15.970 -0.6795  0.6390  0.6351
   66MPD2    C4 1027   0.685   2.066  16.101 -0.1231 -0.1205 -0.0169
   66MPD2    C5 1028   0.653   2.195  16.132  0.0861 -1.1736  0.1725
   66MPD2     H 1029   0.766   2.099  15.776  0.1882 -0.6170 -0.5656
   66MPD2    H1 1030   0.669   1.986  16.173 -1.3722 -2.6422 -3.0799
   66MPD2    H2 1031   0.651   2.389  16.066  1.0542  0.1779  0.5545
   66MPD2    H3 1032   0.628   2.226  16.232  0.9451 -0.7994  0.2747
   66MPD2     N 1033   0.710   1.895  15.935 -0.2776 -0.2892  0.0695
   66MPD2    H5 1034   0.696   1.831  16.013  1.1166 -2.1650 -1.2095
   66MPD2    N1 1035   0.729   2.354  15.802  0.2905  0.0453 -0.3025
   66MPD2    H7 1036   0.747   2.318  15.709  1.6603 -1.1307  0.4317
   67TMC2    C1 1037   0.867   1.356  14.290  0.4581 -0.4896 -0.1934
   67TMC2    C2 1038   0.842   1.488  14.258  0.2454 -0.0453 -0.6188
   67TMC2    C3 1039   0.932   1.580  14.314  0.0411 -0.4687 -0.3800
   67TMC2    C4 1040   0.965   1.314  14.377 -0.2286  0.2742 -0.0769
   67TMC2    C5 1041   1.033   1.412  14.433  0.0447  0.0976 -0.5453
   67TMC2    C6 1042   1.021   1.540  14.405 -0.0623 -0.1949 -0.2635
   67TMC2     C 1043   0.803   1.258  14.204  0.2605 -0.5669 -0.0715
   67TMC2     O 1044   0.867   1.160  14.174 -0.0985  0.3944 -0.4640
   67TMC2     H 1045   0.770   1.531  14.189  0.7003  2.9268  0.7328
   67TMC2    H1 1046   0.981   1.210  14.404 -1.2869  0.7528  2.3986
   67TMC2    H2 1047   1.105   1.605  14.429  0.2921 -1.3009  1.4691
   67TMC2    C7 1048   1.127   1.365  14.536 -0.3213 -0.3611  0.4563
   67TMC2    C8 1049   0.933   1.712  14.268  0.1123  0.5527  0.1349
   67TMC2    O1 1050   1.144   1.245  14.547 -0.2139  0.1254 -0.1147
   67TMC2    O2 1051   0.877   1.748  14.168 -0.0784 -0.4164 -0.0915
   67TMC2    O5 1052   0.940   1.799  14.378 -0.0977  0.2059  0.1876
   67TMC2    H5 1053   0.978   1.752  14.455  1.8398  0.5922 -0.5242
   68MPD2     C 1054   0.614   1.135  14.010 -0.1331 -0.2993  0.0101
   68MPD2    C1 1055   0.589   1.247  14.085 -0.3168  0.0820 -0.0488
   68MPD2    C2 1056   0.469   1.318  14.065 -0.2676  0.5865  0.0320
   68MPD2    C3 1057   0.369   1.273  13.980 -0.1332  0.5677  0.4897
   68MPD2    C4 1058   0.391   1.160  13.908  0.3815  0.3137  0.0155
   68MPD2    C5 1059   0.515   1.090  13.926 -0.0744  0.1675  0.3089
   68MPD2     H 1060   0.464   1.408  14.125 -1.7972  0.2885  0.3530
   68MPD2    H1 1061   0.319   1.126  13.835 -0.3661  0.5445  0.6474
   68MPD2    H2 1062   0.713   1.089  14.012  0.6600  1.4429  0.4417
   68MPD2    H3 1063   0.529   0.996  13.874  0.1277  0.3845 -0.0367
   68MPD2     N 1064   0.245   1.348  13.980 -0.5953 -0.4901 -0.8361
   68MPD2    H5 1065   0.169   1.345  13.913 -1.7905 -0.7559  0.5245
   68MPD2    N1 1066   0.682   1.309  14.169 -0.2759 -0.1666  0.3956
   68MPD2    H7 1067   0.652   1.394  14.215  0.3176  1.2738 -1.8780
   69TMC2    C1 1068   2.470   2.627  12.401 -0.3223 -0.5366  0.2460
   69TMC2    C2 1069   2.360   2.656  12.322  0.3846  0.9337 -0.0131
   69TMC2    C3 1070   2.385   2.736  12.211 -0.2108 -0.1334 -0.0536
   69TMC2    C4 1071   2.599   2.657  12.371 -0.5088 -0.4937 -0.2300
   69TMC2    C5 1072   2.612   2.740  12.250 -0.9346 -0.7868 -0.5275
   69TMC2    C6 1073   2.512   2.778  12.171  0.1283  0.7137 -0.1942
   69TMC2     C 1074   2.441   2.542  12.520  0.4505  0.4835  0.5844
   69TMC2     O 1075   2.340   2.575  12.584 -0.7029 -0.6362  0.8523
   69TMC2     H 1076   2.259   2.627  12.348  0.6602 -0.6705 -0.7614
   69TMC2    H1 1077   2.686   2.613  12.418 -0.6875 -0.1369  0.4347
   69TMC2    H2 1078   2.531   2.817  12.071 -3.2023  4.4514  0.6332
   69TMC2    C7 1079   2.742   2.741  12.177  0.0704  0.2685 -0.0289
   69TMC2    C8 1080   2.274   2.784  12.129 -0.0413 -0.0848  0.1552
   69TMC2    O1 1081   2.739   2.749  12.053  0.6785 -0.1851  0.0570
   69TMC2    O2 1082   2.163   2.741  12.153 -0.1427 -0.2833 -0.6965
   69TMC2    O5 1083   2.295   2.915  12.108 -0.2611 -0.5692  0.5069
   69TMC2    H5 1084   2.383   2.955  12.122 -1.5271  2.3448  0.2927
   70MPD2     C 1085   2.623   2.240  12.641  0.3365  0.6951  0.3198
   70MPD2    C1 1086   2.536   2.346  12.644 -0.2112  0.6231 -0.4247
   70MPD2    C2 1087   2.447   2.347  12.751  0.5703 -0.4243  0.1764
   70MPD2    C3 1088   2.438   2.248  12.845 -0.1134  0.9674 -0.3947
   70MPD2    C4 1089   2.531   2.143  12.843  0.3612  0.3065 -0.0226
   70MPD2    C5 1090   2.616   2.141  12.733 -0.0675 -0.6953  0.5482
   70MPD2     H 1091   2.388   2.436  12.766 -0.6562 -1.2984  0.5531
   70MPD2    H1 1092   2.534   2.071  12.923 -2.5598 -0.2746 -0.4340
   70MPD2    H2 1093   2.710   2.233  12.576  0.7307 -0.0292  0.9330
   70MPD2    H3 1094   2.679   2.053  12.727  0.4147 -0.3624  0.7500
   70MPD2     N 1095   2.345   2.249  12.954  0.1720 -0.1258  0.6414
   70MPD2    H5 1096   2.362   2.178  13.025 -0.0329 -1.5236 -0.7044
   70MPD2    N1 1097   2.535   2.438  12.538  0.8494  0.6463  0.0711
   70MPD2    H7 1098   2.606   2.422  12.467 -0.0441  0.4077 -0.7834
   71TMC2    C1 1099   1.217   3.409   1.236 -0.1198  0.1669  0.2986
   71TMC2    C2 1100   1.346   3.451   1.245 -0.0515 -0.3352  0.3185
   71TMC2    C3 1101   1.392   3.490   1.366  0.7287 -0.3181 -0.1169
   71TMC2    C4 1102   1.134   3.412   1.345 -0.4462 -0.0569 -0.1518
   71TMC2    C5 1103   1.184   3.453   1.463  0.0260 -0.2947 -0.6190
   71TMC2    C6 1104   1.316   3.499   1.477 -0.3472  0.8157 -0.0339
   71TMC2     C 1105   1.166   3.354   1.109  0.3430 -0.4757 -0.5412
   71TMC2     O 1106   1.227   3.379   1.008 -0.2149 -0.1637  0.4059
   71TMC2     H 1107   1.405   3.449   1.155 -0.3792  0.3495  0.0891
   71TMC2    H1 1108   1.030   3.400   1.318 -0.4279  0.1377 -0.3022
   71TMC2    H2 1109   1.363   3.503   1.574 -1.2797  2.0026  0.3582
   71TMC2    C7 1110   1.099   3.465   1.579 -0.2808  0.5566  0.6386
   71TMC2    C8 1111   1.527   3.512   1.369  0.0435 -0.5434 -0.1093
   71TMC2    O1 1112   1.129   3.531   1.677  0.4439  0.0788  0.6758
   71TMC2    O2 1113   1.603   3.468   1.283  0.0565  0.4244  0.0823
   71TMC2    O5 1114   1.547   3.620   1.446  0.4039  0.0395  0.2661
   71TMC2    H5 1115   1.474   3.651   1.504 -0.1568  1.7135 -1.3340
   72MPD2     C 1116   0.873   3.002   0.867 -0.8057  0.0640  0.6298
   72MPD2    C1 1117   0.933   3.116   0.816 -0.0395 -0.5978  0.2018
   72MPD2    C2 1118   1.007   3.190   0.907 -0.0613 -0.1020 -0.0588
   72MPD2    C3 1119   1.024   3.156   1.036 -0.5929  0.6858 -0.1192
   72MPD2    C4 1120   0.953   3.047   1.086 -0.8217  0.3051 -0.4185
   72MPD2    C5 1121   0.873   2.972   1.001 -0.5197 -0.0237  0.5782
   72MPD2     H 1122   1.048   3.282   0.867  0.6645 -0.3004  0.2209
   72MPD2    H1 1123   0.957   3.022   1.191 -0.3370 -0.6020 -0.6563
   72MPD2    H2 1124   0.803   2.939   0.813  0.2258  0.0176 -0.6502
   72MPD2    H3 1125   0.813   2.889   1.036 -1.9677  0.1410 -1.5090
   72MPD2     N 1126   1.088   3.240   1.133 -0.6263  0.1069 -0.0324
   72MPD2    H5 1127   1.060   3.216   1.228  0.3213 -1.6660 -0.2113
   72MPD2    N1 1128   0.925   3.160   0.680 -0.2487 -0.3496 -0.2772
   72MPD2    H7 1129   0.972   3.245   0.653 -1.2474  0.0842 -0.6569
   73TMC2    C1 1130   4.577   0.117  14.150 -0.4267 -0.4017 -0.0456
   73TMC2    C2 1131   4.581   0.002  14.075 -0.1284 -0.4426  0.0961
   73TMC2    C3 1132   4.682   4.662  14.104 -0.5669  0.7656  0.4523
   73TMC2    C4 1133   4.673   0.145  14.240  0.3482  0.2459  0.3689
   73TMC2    C5 1134   0.037   0.060  14.265 -0.5869 -0.0025  0.1593
   73TMC2    C6 1135   0.040   4.684  14.196 -0.8359  0.2053  0.4944
   73TMC2     C 1136   4.524   0.238  14.093 -0.4647 -0.2826 -0.5846
   73TMC2     O 1137   4.559   0.341  14.146  0.3130 -0.1628 -0.3204
   73TMC2     H 1138   4.510   4.721  13.995  0.7079 -0.0673 -0.7369
   73TMC2    H1 1139   4.650   0.230  14.304  1.9098  0.4106  0.7008
   73TMC2    H2 1140   0.119   4.613  14.217 -0.5505  0.8646  1.6330
   73TMC2    C7 1141   0.163   0.124  14.274  0.1817 -0.4616  1.0204
   73TMC2    C8 1142   4.686   4.527  14.046 -0.0553  0.2611 -0.1626
   73TMC2    O1 1143   0.267   0.058  14.292  0.1249  0.1767 -0.4675
   73TMC2    O2 1144   4.589   4.466  14.004  0.7059 -0.0204  0.3490
   73TMC2    O5 1145   0.071   4.495  14.035 -0.0464 -0.2679  0.0045
   73TMC2    H5 1146   0.131   4.572  14.044  1.2811 -1.4689  1.3783
   74MPD2     C 1147   4.355   0.532  13.709  0.2855 -0.3527 -0.4871
   74MPD2    C1 1148   4.467   0.542  13.787  0.1059  0.4453 -0.1142
   74MPD2    C2 1149   4.489   0.445  13.877  0.4302 -0.1632 -0.3911
   74MPD2    C3 1150   4.413   0.332  13.892  0.7559  0.1257 -0.9819
   74MPD2    C4 1151   4.311   0.314  13.808  0.0741 -0.3197 -0.4114
   74MPD2    C5 1152   4.283   0.415  13.717  0.5719  0.0011 -1.0428
   74MPD2     H 1153   4.554   0.473  13.959 -1.4119  1.4930  0.4955
   74MPD2    H1 1154   4.251   0.224  13.813  1.3018 -1.1083 -0.0186
   74MPD2    H2 1155   4.323   0.611  13.642 -4.2352 -0.5635  1.4175
   74MPD2    H3 1156   4.201   0.411  13.646  0.2042  0.8275 -0.6706
   74MPD2     N 1157   4.436   0.227  13.988  0.5940  0.1859 -0.2385
   74MPD2    H5 1158   4.396   0.136  13.969  2.1961 -0.2034 -1.7339
   74MPD2    N1 1159   4.552   0.659  13.767 -0.1903 -0.3434  0.0622
   74MPD2    H7 1160   4.527   0.718  13.688  0.5017  0.4411  0.4399
   75TMC2    C1 1161   0.079   1.509  14.043  0.4679 -0.3064  0.2651
   75TMC2    C2 1162   4.731   1.534  14.152 -0.5584 -0.5184 -0.0695
   75TMC2    C3 1163   4.609   1.589  14.126 -0.4382  0.6797  0.2584
   75TMC2    C4 1164   0.032   1.516  13.914  0.0405 -0.4352  0.2749
   75TMC2    C5 1165   4.640   1.553  13.888 -0.4813  0.2047  0.7752
   75TMC2    C6 1166   4.556   1.594  13.993 -0.0147 -0.7162 -0.4554
   75TMC2     C 1167   0.201   1.436  14.079  0.0689 -0.6005 -0.1188
   75TMC2     O 1168   0.237   1.461  14.196  0.2671 -0.3364 -0.8134
   75TMC2     H 1169   0.033   1.527  14.251  0.2217  1.8266 -0.2213
   75TMC2    H1 1170   0.099   1.506  13.829  1.7746 -1.0581  1.7227
   75TMC2    H2 1171   4.452   1.616  13.974  0.6923  3.4937  0.5191
   75TMC2    C7 1172   4.596   1.547  13.753 -0.2215 -0.2260 -0.4270
   75TMC2    C8 1173   4.556   1.662  14.234  0.3634  0.1118 -0.4756
   75TMC2    O1 1174   4.657   1.469  13.683 -0.7629  0.0119 -0.0894
   75TMC2    O2 1175   4.630   1.699  14.328  0.3755 -0.2618  0.2077
   75TMC2    O5 1176   4.438   1.722  14.205  0.4126 -0.4492  0.1527
   75TMC2    H5 1177   4.381   1.691  14.132 -0.8601  0.9422  0.5546
   76TMC2    C1 1178   3.494   1.831  12.288  0.1935  0.3478 -0.3139
   76TMC2    C2 1179   3.412   1.870  12.394 -0.7700 -0.0392 -0.1125
   76TMC2    C3 1180   3.440   1.811  12.514 -0.7316 -0.1677  0.3776
   76TMC2    C4 1181   3.616   1.770  12.310 -0.0633 -0.3539  0.5901
   76TMC2    C5 1182   3.635   1.717  12.432  0.2416  0.1482  0.0313
   76TMC2    C6 1183   3.546   1.732  12.534  0.4314 -0.2573 -0.4714
   76TMC2     C 1184   3.474   1.896  12.161  0.0182 -0.0489  0.3897
   76TMC2     O 1185   3.380   1.973  12.149  0.2355  0.1675  0.0739
   76TMC2     H 1186   3.328   1.936  12.380 -1.5344 -1.0113 -0.0937
   76TMC2    H1 1187   3.693   1.762  12.235 -1.1636 -1.4508 -0.4428
   76TMC2    H2 1188   3.568   1.686  12.630  3.5529 -0.4584 -1.2800
   76TMC2    C7 1189   3.774   1.688  12.469 -0.9890 -0.5076  0.1417
   76TMC2    C8 1190   3.378   1.865  12.642 -0.3418 -0.0576  0.1822
   76TMC2    O1 1191   3.848   1.654  12.379  0.2839 -0.4441 -0.0041
   76TMC2    O2 1192   3.324   1.975  12.649 -0.2470  0.0470 -0.4818
   76TMC2    O5 1193   3.366   1.761  12.730  0.0247 -0.1572  0.7455
   76TMC2    H5 1194   3.360   1.670  12.695 -1.8056 -0.4896  1.9468
   77MPD2     C 1195   3.504   1.967  11.644 -0.0252  0.1755 -0.0510
   77MPD2    C1 1196   3.457   2.049  11.741 -1.3883 -0.0025 -0.0871
   77MPD2    C2 1197   3.462   2.011  11.871  0.1012  0.1000 -0.0117
   77MPD2    C3 1198   3.525   1.893  11.916 -0.0537 -0.1600  0.2387
   77MPD2    C4 1199   3.582   1.819  11.811 -0.5671 -0.2506  0.4746
   77MPD2    C5 1200   3.577   1.851  11.676 -0.0543  0.0615  0.2427
   77MPD2     H 1201   3.431   2.082  11.947  1.6174 -0.1067  0.8001
   77MPD2    H1 1202   3.642   1.733  11.839 -1.4981 -2.2910 -3.7946
   77MPD2    H2 1203   3.507   2.008  11.544 -0.5802 -1.6101 -0.8075
   77MPD2    H3 1204   3.642   1.799  11.607 -0.2840  0.4818 -0.2958
   77MPD2     N 1205   3.547   1.852  12.052 -0.6707  0.3264 -0.0863
   77MPD2    H5 1206   3.604   1.768  12.060  1.3940  1.7171 -0.2325
   77MPD2    N1 1207   3.403   2.179  11.715  0.3726  0.9463 -0.5360
   77MPD2    H7 1208   3.364   2.226  11.797  0.2299  1.2083 -0.7550
   78TMC2    C1 1209   0.436   2.670   1.672  0.3178 -0.0135  0.0767
   78TMC2    C2 1210   0.341   2.754   1.618  0.2790  0.0655 -0.7214
   78TMC2    C3 1211   0.373   2.889   1.596 -0.0850  0.9495 -0.2104
   78TMC2    C4 1212   0.560   2.713   1.704 -0.0030  0.7024  0.2511
   78TMC2    C5 1213   0.592   2.844   1.677 -0.5482 -0.6118 -0.4857
   78TMC2    C6 1214   0.499   2.933   1.623 -0.0073 -0.6290  0.9553
   78TMC2     C 1215   0.418   2.522   1.665 -0.2134  0.0928 -0.3435
   78TMC2     O 1216   0.516   2.453   1.683  0.4338  0.4257  0.6432
   78TMC2     H 1217   0.241   2.717   1.599 -0.1796  2.6342 -3.2309
   78TMC2    H1 1218   0.646   2.655   1.736 -2.5030 -2.6974  0.6808
   78TMC2    H2 1219   0.521   3.037   1.599 -0.0510 -0.5877  1.0955
   78TMC2    C7 1220   0.738   2.884   1.648 -0.2909 -0.0083 -0.2215
   78TMC2    C8 1221   0.266   2.979   1.583 -0.5010 -0.2517 -0.2393
   78TMC2    O1 1222   0.760   2.959   1.553  0.3229  0.0660 -0.0039
   78TMC2    O2 1223   0.243   3.080   1.648 -0.1057  0.2347  0.0659
   78TMC2    O5 1224   0.203   2.942   1.469  0.0454  0.5354  0.2509
   78TMC2    H5 1225   0.250   2.863   1.432  1.4197  1.2047  0.5574
   79MPD1     C 1226   0.152   2.135   1.457 -0.2171 -0.2995  0.4476
   79MPD1    C1 1227   0.279   2.133   1.501 -1.6950 -1.2921  0.0113
   79MPD1    C2 1228   0.325   2.254   1.561 -0.8847  0.4654  0.3372
   79MPD1    C3 1229   0.251   2.370   1.557 -0.0021 -0.2528 -0.4544
   79MPD1    C4 1230   0.132   2.373   1.488  0.2287  0.4199 -0.0370
   79MPD1    C5 1231   0.077   2.253   1.436 -0.0494 -0.1426 -0.7943
   79MPD1     H 1232   0.429   2.257   1.592 -0.4707 -1.9007 -0.8076
   79MPD1    H1 1233   0.076   2.466   1.480  2.5632  1.5917 -2.6032
   79MPD1    H2 1234   0.109   2.044   1.416  2.2752 -0.7794 -1.1441
   79MPD1    H3 1235   4.722   2.235   1.386 -0.1983  0.8506 -0.8804
   79MPD1     N 1236   0.291   2.499   1.612 -0.1577  0.4410 -0.4362
   79MPD1    H5 1237   0.221   2.571   1.619 -1.6447 -1.2062  1.4554
   79MPD1    N1 1238   0.345   2.010   1.532  0.0599 -0.1057 -0.2828
   79MPD1    H6 1239   0.447   2.014   1.525 -0.0910  0.0818 -2.5222
   79MPD1    H7 1240   0.296   1.931   1.492 -0.3077 -1.2352  2.4341
   80TMC2    C1 1241   2.077   1.128  11.706  0.2151  0.1358 -0.1589
   80TMC2    C2 1242   2.127   1.052  11.602  0.5169 -0.0735  0.4520
   80TMC2    C3 1243   2.106   0.918  11.607  0.4188 -0.1405 -0.8462
   80TMC2    C4 1244   2.034   1.073  11.826 -0.5825  0.0205 -0.2345
   80TMC2    C5 1245   2.021   0.934  11.831 -0.4194 -0.7689 -0.7455
   80TMC2    C6 1246   2.061   0.861  11.721  0.4012  0.3964 -0.2080
   80TMC2     C 1247   2.069   1.274  11.676  0.4897  0.4467  0.2313
   80TMC2     O 1248   2.056   1.296  11.561 -0.0272  0.0232  0.6308
   80TMC2     H 1249   2.164   1.099  11.512 -2.4689  3.0964  0.9226
   80TMC2    H1 1250   1.990   1.134  11.904  0.5175 -2.0666  2.0229
   80TMC2    H2 1251   2.050   0.754  11.728  1.3610  0.2228 -1.4086
   80TMC2    C7 1252   1.961   0.875  11.946 -0.5521 -0.2228 -0.8752
   80TMC2    C8 1253   2.136   0.826  11.503 -0.2785  0.8180  0.1107
   80TMC2    O1 1254   1.883   0.782  11.922  0.1597  0.0221  0.6641
   80TMC2    O2 1255   2.101   0.709  11.500  0.1319 -0.0984  0.0419
   80TMC2    O5 1256   2.237   0.882  11.426 -0.0168 -0.0157 -0.5139
   80TMC2    H5 1257   2.268   0.971  11.451 -1.3329  0.9398 -2.2635
   81MPD2     C 1258   2.003   1.561  11.671  0.4235 -0.2427  0.1084
   81MPD2    C1 1259   2.022   1.491  11.789 -0.3456  0.4290 -0.0578
   81MPD2    C2 1260   2.015   1.552  11.915  0.8849 -0.1870 -0.7111
   81MPD2    C3 1261   1.989   1.689  11.918 -0.6488  0.0770  0.1733
   81MPD2    C4 1262   1.981   1.758  11.805 -0.1151  0.1022 -0.3270
   81MPD2    C5 1263   1.989   1.699  11.682  0.1057  0.3918  0.0921
   81MPD2     H 1264   2.039   1.507  12.011 -1.0420 -0.6550 -0.4447
   81MPD2    H1 1265   1.978   1.866  11.807 -0.3782  0.1084 -1.0667
   81MPD2    H2 1266   1.999   1.515  11.573  3.0739 -0.7272  0.2101
   81MPD2    H3 1267   1.979   1.756  11.590  0.8145 -0.0597 -0.2602
   81MPD2     N 1268   1.993   1.750  12.048  0.2541 -0.0550  0.9022
   81MPD2    H5 1269   1.992   1.686  12.127  1.3517 -0.9358  0.2014
   81MPD2    N1 1270   2.052   1.353  11.787 -0.8809  0.1427 -0.1340
   81MPD2    H7 1271   2.068   1.311  11.879 -0.0121  3.4181  1.2051
   82TMC2    C1 1272   0.724   1.623  11.023  0.2771  0.0850 -0.0954
   82TMC2    C2 1273   0.758   1.717  11.116 -0.1656 -0.5625  0.2768
   82TMC2    C3 1274   0.798   1.672  11.240 -0.8140  0.3626  0.2698
   82TMC2    C4 1275   0.717   1.488  11.055  0.7822  0.3976 -0.0991
   82TMC2    C5 1276   0.745   1.443  11.178  0.2026 -0.9591  0.2400
   82TMC2    C6 1277   0.792   1.535  11.272 -0.4307  0.1746  0.3476
   82TMC2     C 1278   0.621   1.662  10.918  0.9167  0.6352 -0.4415
   82TMC2     O 1279   0.610   1.576  10.831  0.4769  0.1056  0.1898
   82TMC2     H 1280   0.766   1.823  11.093  1.5725 -0.2549  2.2703
   82TMC2    H1 1281   0.671   1.428  10.977 -2.0416  0.5711  1.4280
   82TMC2    H2 1282   0.799   1.512  11.378 -3.6275 -2.0356  0.0697
   82TMC2    C7 1283   0.714   1.313  11.228  0.1825  0.7336  0.5891
   82TMC2    C8 1284   0.800   1.771  11.352  0.0004 -0.0943  0.1999
   82TMC2    O1 1285   0.717   1.299  11.347  0.1861  0.5588 -0.0180
   82TMC2    O2 1286   0.762   1.890  11.343 -0.4816  0.1891 -0.6132
   82TMC2    O5 1287   0.903   1.737  11.439  0.2220 -0.4511 -0.1528
   82TMC2    H5 1288   0.962   1.662  11.415 -0.5750 -0.8216 -0.9177
   83MPD2     C 1289   0.155   1.847  10.804  0.1470  0.2801 -0.7758
   83MPD2    C1 1290   0.235   1.760  10.739  0.9653 -0.3003 -0.6762
   83MPD2    C2 1291   0.350   1.716  10.790 -0.1760  0.8816 -0.2635
   83MPD2    C3 1292   0.396   1.772  10.908 -0.5864 -0.0078  0.1630
   83MPD2    C4 1293   0.318   1.866  10.979  0.0828 -0.5776 -0.0181
   83MPD2    C5 1294   0.199   1.902  10.924 -0.3105 -0.3112  0.2570
   83MPD2     H 1295   0.411   1.646  10.734  0.9792  0.9641  0.8999
   83MPD2    H1 1296   0.350   1.919  11.068  1.2914  0.9049 -1.3228
   83MPD2    H2 1297   0.062   1.883  10.762  0.0461 -0.7600 -1.4482
   83MPD2    H3 1298   0.135   1.977  10.970  0.4426  1.3073 -1.3408
   83MPD2     N 1299   0.523   1.749  10.964  0.3000 -0.4474  0.1691
   83MPD2    H5 1300   0.542   1.801  11.048  3.0194  1.1989 -1.4724
   83MPD2    N1 1301   0.209   1.725  10.607 -0.0616  0.3441  0.0165
   83MPD2    H7 1302   0.279   1.663  10.567  0.6847  1.7429 -0.8426
   84TMC2    C1 1303   1.284   0.675  10.632 -0.6093  0.4629  0.0714
   84TMC2    C2 1304   1.157   0.667  10.590 -0.0666  1.1224 -0.3501
   84TMC2    C3 1305   1.122   0.551  10.520 -0.4383  0.0216 -0.0803
   84TMC2    C4 1306   1.367   0.566  10.622  1.1456 -0.2806  0.4072
   84TMC2    C5 1307   1.327   0.453  10.567  0.2540  0.1083 -0.4581
   84TMC2    C6 1308   1.207   0.445  10.503 -0.0073  0.0550 -0.1463
   84TMC2     C 1309   1.325   0.779  10.717  0.8421 -0.0163  0.1213
   84TMC2     O 1310   1.417   0.758  10.794 -0.5044  0.9796 -0.2218
   84TMC2     H 1311   1.078   0.738  10.612 -1.7702 -0.9583  0.2398
   84TMC2    H1 1312   1.469   0.576  10.655  1.6298 -0.7585 -0.9673
   84TMC2    H2 1313   1.174   0.354  10.454 -0.8276  0.4012 -0.2328
   84TMC2    C7 1314   1.430   0.343  10.554  0.0837 -0.5618  0.1194
   84TMC2    C8 1315   1.007   0.562  10.440  0.1393  0.1483  0.2007
   84TMC2    O1 1316   1.541   0.374  10.606  1.1111 -0.3647 -0.3610
   84TMC2    O2 1317   0.924   0.648  10.457 -0.2621 -0.1736 -0.1955
   84TMC2    O5 1318   1.013   0.484  10.331  0.4589 -0.5454 -0.4572
   84TMC2    H5 1319   1.101   0.443  10.328  0.1623 -1.0687 -1.6722
   85TMC2    C1 1320   3.425   3.355  16.031  0.7864  0.1619 -0.9362
   85TMC2    C2 1321   3.557   3.404  16.017  1.0467  0.4007 -0.3137
   85TMC2    C3 1322   3.582   3.486  15.909 -0.1449 -0.1367 -0.6560
   85TMC2    C4 1323   3.328   3.389  15.938 -0.6987  0.4357 -0.1918
   85TMC2    C5 1324   3.358   3.472  15.836  0.7202  0.2053 -0.4250
   85TMC2    C6 1325   3.484   3.508  15.817  0.2803  0.4396 -0.1149
   85TMC2     C 1326   3.394   3.292  16.153  0.4192  0.0713 -0.6231
   85TMC2     O 1327   3.459   3.307  16.256  0.1175 -0.6025  0.1307
   85TMC2     H 1328   3.638   3.369  16.080  2.9224  0.1965 -2.8400
   85TMC2    H1 1329   3.230   3.343  15.944 -1.1097  1.5060  1.1055
   85TMC2    H2 1330   3.508   3.547  15.719  0.1496 -0.2856 -0.4429
   85TMC2    C7 1331   3.305   3.412  15.715 -0.2178 -0.1406 -0.0951
   85TMC2    C8 1332   3.726   3.519  15.886 -0.4019  0.5297 -0.7084
   85TMC2    O1 1333   3.298   3.288  15.723  0.5555  0.0888 -0.1447
   85TMC2    O2 1334   3.818   3.481  15.953 -0.3629 -0.3247  0.0264
   85TMC2    O5 1335   3.743   3.615  15.799 -0.4703  0.3551 -0.1308
   85TMC2    H5 1336   3.668   3.643  15.743  0.0683 -1.8572 -1.9926
   86MPD2     C 1337   3.092   2.981  16.427 -0.2400  0.4920  0.1193
   86MPD2    C1 1338   3.046   2.974  16.297 -0.3165  0.4196  0.5781
   86MPD2    C2 1339   3.128   3.036  16.200 -0.1021  0.3909  0.5330
   86MPD2    C3 1340   3.238   3.111  16.237  0.3750 -0.4284  0.3345
   86MPD2    C4 1341   3.270   3.129  16.378  0.4791 -0.5067  0.1130
   86MPD2    C5 1342   3.190   3.064  16.467 -0.0749  1.0089  0.1159
   86MPD2     H 1343   3.102   3.022  16.096 -0.1561 -0.3794  0.6529
   86MPD2    H1 1344   3.353   3.190  16.412  0.1022  0.0656  0.0046
   86MPD2    H2 1345   3.038   2.921  16.499  0.7763 -0.8470 -0.2551
   86MPD2    H3 1346   3.215   3.069  16.572  2.4140 -0.4404 -0.4078
   86MPD2     N 1347   3.295   3.195  16.135  0.2911  0.4972  0.3300
   86MPD2    H5 1348   3.261   3.183  16.040  1.0256  0.8978  0.0165
   86MPD2    N1 1349   2.925   2.912  16.254 -1.1178  0.3140 -0.3115
   86MPD2    H7 1350   2.915   2.906  16.153  0.4706  2.1865 -0.5855
   87TMC2    C1 1351   1.053   1.619   0.780  0.0420  0.1016 -0.5353
   87TMC2    C2 1352   1.178   1.669   0.761  0.0613 -0.4893 -0.1929
   87TMC2    C3 1353   1.211   1.793   0.822  1.2405 -0.5829  0.2932
   87TMC2    C4 1354   0.961   1.685   0.856  0.2423 -0.9565 -0.9216
   87TMC2    C5 1355   0.997   1.806   0.899  0.7652  0.5137  0.0873
   87TMC2    C6 1356   1.121   1.865   0.888 -0.2827  0.6824 -0.5740
   87TMC2     C 1357   1.024   1.491   0.708 -0.2832 -0.1063 -0.0467
   87TMC2     O 1358   1.111   1.447   0.631 -0.3074  0.1021 -0.0674
   87TMC2     H 1359   1.256   1.616   0.708  1.4328  2.0395 -0.7185
   87TMC2    H1 1360   0.864   1.640   0.873 -0.1629 -0.2270 -1.3301
   87TMC2    H2 1361   1.139   1.964   0.929 -0.0807  0.2223  0.4428
   87TMC2    C7 1362   0.889   1.892   0.949 -0.4767 -0.3310  0.0445
   87TMC2    C8 1363   1.272   1.881   0.722  0.0826  0.7522 -0.0363
   87TMC2    O1 1364   0.925   1.978   1.033 -0.3047 -0.3567  0.1948
   87TMC2    O2 1365   1.253   1.872   0.602  0.0380  0.2982 -0.3431
   87TMC2    O5 1366   1.310   1.994   0.788  0.0834 -0.0049  0.3147
   87TMC2    H5 1367   1.350   1.959   0.870 -0.0951  0.4310  0.5904
   88MPD2     C 1368   0.543   1.904   0.840 -0.2695 -0.2186  0.5699
   88MPD2    C1 1369   0.647   1.943   0.917 -0.0466  0.3825 -0.4367
   88MPD2    C2 1370   0.626   2.034   1.018 -0.1276 -0.7188  0.1422
   88MPD2    C3 1371   0.505   2.098   1.024  0.1295 -0.3218 -0.1254
   88MPD2    C4 1372   0.396   2.055   0.946 -0.6004  0.2896  0.3000
   88MPD2    C5 1373   0.418   1.958   0.855 -0.2455 -0.0519  0.1642
   88MPD2     H 1374   0.706   2.061   1.087  1.8803  0.1091 -2.5258
   88MPD2    H1 1375   0.299   2.104   0.950 -0.4900  0.5401 -0.0787
   88MPD2    H2 1376   0.550   1.834   0.757 -0.2187  0.3103  0.1249
   88MPD2    H3 1377   0.342   1.925   0.785 -1.0598  1.9906  0.0682
   88MPD2     N 1378   0.478   2.203   1.116 -0.6806 -0.2817  0.1583
   88MPD2    H5 1379   0.408   2.271   1.089 -0.1358  0.5910  0.9686
   88MPD2    N1 1380   0.765   1.870   0.900 -0.2026  0.1993 -0.2253
   88MPD2    H7 1381   0.768   1.794   0.833  0.0408 -0.4617  0.5357
   89TMC2    C1 1382   1.288   0.905   1.565  0.7411 -0.3471 -0.1554
   89TMC2    C2 1383   1.272   0.860   1.437 -0.4500  0.0592  0.4463
   89TMC2    C3 1384   1.382   0.835   1.364 -0.3363  0.3848 -0.1569
   89TMC2    C4 1385   1.406   0.922   1.621  0.6652 -0.7645 -0.2993
   89TMC2    C5 1386   1.510   0.900   1.538  0.3862  0.0691 -0.7158
   89TMC2    C6 1387   1.507   0.856   1.411  0.1848  0.2832 -0.4572
   89TMC2     C 1388   1.187   0.867   1.651 -0.3372 -0.7887  0.6451
   89TMC2     O 1389   1.177   0.920   1.760  0.0450  0.3998 -0.2488
   89TMC2     H 1390   1.174   0.848   1.393 -0.2821  0.7384 -0.1122
   89TMC2    H1 1391   1.416   0.925   1.729 -1.5073 -1.2698 -0.0809
   89TMC2    H2 1392   1.599   0.840   1.355 -1.2859  3.6996 -3.8947
   89TMC2    C7 1393   1.643   0.920   1.608 -0.0546 -0.4822 -0.0003
   89TMC2    C8 1394   1.383   0.781   1.228  0.1539 -0.2810 -0.3571
   89TMC2    O1 1395   1.641   1.005   1.699  0.0990  0.0354  0.8466
   89TMC2    O2 1396   1.466   0.826   1.148  0.2970 -0.4124 -0.3812
   89TMC2    O5 1397   1.271   0.714   1.204 -0.3017  0.1092  0.2195
   89TMC2    H5 1398   1.244   0.669   1.287 -0.6015  1.9029  1.0926
   90MPD2     C 1399   0.841   0.553   1.838 -0.1924  0.7309 -0.0032
   90MPD2    C1 1400   0.913   0.476   1.753 -0.4801  0.3488  0.3242
   90MPD2    C2 1401   1.006   0.546   1.674 -0.3523 -0.5497 -0.8856
   90MPD2    C3 1402   1.026   0.679   1.686 -0.5081 -0.2772  0.0290
   90MPD2    C4 1403   0.941   0.758   1.761  0.6380  0.3830  0.4533
   90MPD2    C5 1404   0.853   0.687   1.846 -0.0032  0.3693 -0.0012
   90MPD2     H 1405   1.062   0.497   1.596  0.5202 -0.4601 -0.3232
   90MPD2    H1 1406   0.946   0.867   1.761 -0.1181  0.4137 -0.6167
   90MPD2    H2 1407   0.768   0.519   1.911  0.1204 -0.0345 -0.0493
   90MPD2    H3 1408   0.800   0.743   1.921 -1.1006 -1.3951  0.5229
   90MPD2     N 1409   1.138   0.742   1.621  0.0461  0.0034 -0.1380
   90MPD2    H5 1410   1.184   0.688   1.549 -1.6651 -0.7695 -0.6591
   90MPD2    N1 1411   0.895   0.342   1.742 -0.7870  0.3640  0.3010
   90MPD2    H7 1412   0.955   0.297   1.673 -1.6140  0.8601 -0.7494
   91TMC2    C1 1413   3.201   3.729  16.238  0.6246 -0.3600 -0.1429
   91TMC2    C2 1414   3.151   3.808  16.340  0.2351 -0.2185  0.2898
   91TMC2    C3 1415   3.033   3.775  16.398  0.0613  0.2822 -0.1173
   91TMC2    C4 1416   3.137   3.611  16.203  0.0842  0.2113 -0.9202
   91TMC2    C5 1417   3.023   3.587  16.275 -0.5106 -0.0561  0.7144
   91TMC2    C6 1418   2.965   3.671  16.363  0.8683 -0.0441 -0.1153
   91TMC2     C 1419   3.320   3.765  16.165 -0.1447 -0.0557  0.1271
   91TMC2     O 1420   3.358   3.692  16.073  0.2896 -0.3522  0.6259
   91TMC2     H 1421   3.194   3.903  16.370  1.0318 -0.6782  0.5942
   91TMC2    H1 1422   3.169   3.540  16.127  2.1370  0.5711 -0.3995
   91TMC2    H2 1423   2.880   3.638  16.421  0.9051 -2.4506 -1.4368
   91TMC2    C7 1424   2.955   3.459  16.242 -0.3723 -0.3379 -0.2428
   91TMC2    C8 1425   2.976   3.875  16.488  0.1749  0.1192 -0.3466
   91TMC2    O1 1426   3.017   3.356  16.254  0.1590 -0.1839 -0.2362
   91TMC2    O2 1427   3.044   3.966  16.535 -0.1127 -0.0305  0.0634
   91TMC2    O5 1428   2.849   3.897  16.449  0.1609 -0.5663  0.0206
   91TMC2    H5 1429   2.816   3.814  16.407  1.7528  0.1283 -2.5976
   92MPD2     C 1430   3.566   3.887  16.020  0.6181 -0.1216  0.0713
   92MPD2    C1 1431   3.487   3.944  16.117  0.6939  0.5671  0.3689
   92MPD2    C2 1432   3.524   4.077  16.149 -0.4506  0.2268 -0.4283
   92MPD2    C3 1433   3.627   4.136  16.079  0.4339  0.2133  0.7232
   92MPD2    C4 1434   3.693   4.082  15.973  0.2238  0.1546  0.0125
   92MPD2    C5 1435   3.672   3.950  15.960  0.2917  0.6357  0.1584
   92MPD2     H 1436   3.457   4.128  16.217  0.1726 -0.6800  0.8597
   92MPD2    H1 1437   3.768   4.129  15.911  0.0985 -0.2774 -0.4708
   92MPD2    H2 1438   3.548   3.786  15.984  0.6666 -0.3704  0.7468
   92MPD2    H3 1439   3.717   3.897  15.878  0.3710 -0.2530  0.7765
   92MPD2     N 1440   3.651   4.272  16.114  0.2106 -1.0229 -0.6429
   92MPD2    H5 1441   3.590   4.319  16.180 -0.3185  1.6846 -3.0788
   92MPD2    N1 1442   3.377   3.885  16.189 -0.2002  0.5773 -0.2708
   92MPD2    H7 1443   3.357   3.934  16.276 -0.1178 -0.5961  0.4092
   93TMC2    C1 1444   0.236   4.237  13.879 -0.2853  0.7111 -0.3525
   93TMC2    C2 1445   0.147   4.225  13.982  0.4917  0.2378  0.0198
   93TMC2    C3 1446   0.194   4.253  14.110  0.8217 -0.3197 -0.4261
   93TMC2    C4 1447   0.360   4.309  13.895 -0.1539  1.0773  0.2652
   93TMC2    C5 1448   0.387   4.351  14.023  0.0811 -0.3802 -0.1348
   93TMC2    C6 1449   0.319   4.312  14.139 -0.2387  0.3856  0.1207
   93TMC2     C 1450   0.194   4.214  13.738  0.3887  1.1126  0.6168
   93TMC2     O 1451   0.261   4.270  13.648  0.1284 -0.0396 -0.1449
   93TMC2     H 1452   0.041   4.206  13.968  0.9630 -1.4142 -1.2389
   93TMC2    H1 1453   0.421   4.328  13.807 -0.9789 -0.1430 -0.5677
   93TMC2    H2 1454   0.347   4.337  14.241 -0.6528 -1.3991  0.6673
   93TMC2    C7 1455   0.514   4.413  14.031  0.0530  0.2705  0.0765
   93TMC2    C8 1456   0.122   4.191  14.226  0.1639  0.3666  0.0661
   93TMC2    O1 1457   0.576   4.427  13.928 -0.0513 -0.1618  0.4451
   93TMC2    O2 1458   0.117   4.240  14.338  0.4491 -0.2211  0.5423
   93TMC2    O5 1459   0.032   4.099  14.177  0.1996 -0.6446  0.2178
   93TMC2    H5 1460   0.061   4.062  14.091  1.3946  1.2120 -0.1952
   94MPD2     C 1461   0.032   4.162  13.496  1.2718 -0.1854  0.0192
   94MPD2    C1 1462   0.017   4.090  13.613  0.2858  0.3106  0.2112
   94MPD2    C2 1463   4.643   4.010  13.630 -0.5038  0.6213 -1.0093
   94MPD2    C3 1464   4.551   4.001  13.529  0.0298  0.4626  0.5941
   94MPD2    C4 1465   4.575   4.067  13.413 -0.3503 -0.1757 -0.7517
   94MPD2    C5 1466   4.685   4.144  13.390 -0.1948  0.5207 -0.0881
   94MPD2     H 1467   4.631   3.963  13.727 -1.9589  0.3474 -1.3152
   94MPD2    H1 1468   4.510   4.056  13.327  1.2481 -0.8621 -1.8803
   94MPD2    H2 1469   0.112   4.233  13.477 -0.2292  0.7917 -2.6739
   94MPD2    H3 1470   4.702   4.191  13.294 -1.0363  1.7968  0.3962
   94MPD2     N 1471   4.432   3.930  13.534  0.0632 -0.0431 -0.4421
   94MPD2    H5 1472   4.378   3.926  13.448  1.6396  0.0148 -1.4303
   94MPD2    N1 1473   0.100   4.118  13.728 -1.1142  0.1447  0.0055
   94MPD2    H7 1474   0.087   4.059  13.810 -0.5547  1.0191  0.7236
   95TMC2    C1 1475   0.551   1.390  16.759 -0.0269 -0.2660 -0.0695
   95TMC2    C2 1476   0.474   1.308  16.832  0.1897 -0.7994 -0.9446
   95TMC2    C3 1477   0.507   1.286  16.960  0.3146 -0.7432  0.1481
   95TMC2    C4 1478   0.646   1.467  16.814 -0.2028 -0.2788 -0.0950
   95TMC2    C5 1479   0.685   1.437  16.942 -0.3747  0.5768  0.2272
   95TMC2    C6 1480   0.625   1.336  17.015  0.4535  0.3058 -0.2000
   95TMC2     C 1481   0.510   1.405  16.618  0.0435 -0.4160 -0.1351
   95TMC2     O 1482   0.563   1.493  16.555 -0.3690  0.3078  0.4846
   95TMC2     H 1483   0.381   1.269  16.793 -0.5116 -0.1553  0.1106
   95TMC2    H1 1484   0.680   1.550  16.754  0.4123  0.8252  1.7895
   95TMC2    H2 1485   0.654   1.312  17.116 -0.7247  2.0793  0.5704
   95TMC2    C7 1486   0.797   1.510  16.996  0.0863  0.1504  0.0751
   95TMC2    C8 1487   0.416   1.232  17.049 -0.4237 -0.0732  0.1223
   95TMC2    O1 1488   0.835   1.465  17.100 -0.1231 -0.3153 -0.3890
   95TMC2    O2 1489   0.403   1.277  17.164 -0.2030 -0.0788  0.3189
   95TMC2    O5 1490   0.317   1.178  16.982  0.0219  0.0587 -0.2654
   95TMC2    H5 1491   0.365   1.135  16.908  0.2133 -1.8291  0.9649
   96MPD2     C 1492   0.382   1.169  16.162 -0.5824 -0.6463  0.5667
   96MPD2    C1 1493   0.459   1.281  16.189 -0.2348 -0.0583 -0.3071
   96MPD2    C2 1494   0.496   1.320  16.318  0.2358 -0.3624 -0.1960
   96MPD2    C3 1495   0.442   1.247  16.430  0.5785 -0.0317  0.2392
   96MPD2    C4 1496   0.381   1.126  16.391  0.1874  0.1411 -0.2482
   96MPD2    C5 1497   0.352   1.085  16.263 -0.9170  1.0148 -0.4516
   96MPD2     H 1498   0.553   1.410  16.333  2.7832 -1.6856 -1.9558
   96MPD2    H1 1499   0.337   1.063  16.468 -4.1095  2.5851 -0.7229
   96MPD2    H2 1500   0.349   1.144  16.061 -0.7617 -1.1491  0.7472
   96MPD2    H3 1501   0.299   0.992  16.243  2.7585 -0.8399 -1.6126
   96MPD2     N 1502   0.454   1.282  16.568 -0.4891 -0.5917  0.5106
   96MPD2    H5 1503   0.412   1.216  16.634  0.2350  1.1431  2.7055
   96MPD2    N1 1504   0.497   1.361  16.080  0.1609  0.3043 -0.4981
   96MPD2    H7 1505   0.449   1.350  15.991  0.9594 -2.5899 -0.5576
   97TMC2    C1 1506   3.067   4.127   0.384  0.1043  0.1062  0.0376
   97TMC2    C2 1507   3.159   4.040   0.328 -0.0924  0.5985  0.4599
   97TMC2    C3 1508   3.216   4.084   0.209  0.2807  0.2212 -0.1833
   97TMC2    C4 1509   3.020   4.230   0.307  0.3340  0.1191 -0.6936
   97TMC2    C5 1510   3.082   4.271   0.188  0.6992  0.5867 -0.2397
   97TMC2    C6 1511   3.183   4.193   0.137  0.7121  0.2093  0.2487
   97TMC2     C 1512   2.988   4.079   0.497  0.2755  0.7733 -0.5307
   97TMC2     O 1513   3.008   3.964   0.528 -0.0523  0.1187 -0.1342
   97TMC2     H 1514   3.192   3.953   0.383 -0.7576  0.1862  0.2057
   97TMC2    H1 1515   2.943   4.293   0.349 -2.1182 -2.8130 -0.7731
   97TMC2    H2 1516   3.230   4.214   0.042 -1.2019 -2.1724 -1.1967
   97TMC2    C7 1517   3.092   4.413   0.154  0.2549 -0.3089  0.5521
   97TMC2    C8 1518   3.325   4.003   0.153 -0.1360 -0.3234 -0.4749
   97TMC2    O1 1519   3.017   4.487   0.215 -0.4190 -0.0715 -0.0394
   97TMC2    O2 1520   3.395   4.038   0.062 -0.4095  0.0801 -0.2795
   97TMC2    O5 1521   3.282   3.879   0.159  0.2125  0.4791 -0.1271
   97TMC2    H5 1522   3.200   3.866   0.212  0.2015 -0.1212 -0.2942
   98MPD2     C 1523   2.626   4.101   0.867 -0.4964 -1.3003 -0.5772
   98MPD2    C1 1524   2.685   3.994   0.791 -0.4609 -0.6954 -0.1285
   98MPD2    C2 1525   2.781   4.021   0.695  0.3149  0.4511  0.0738
   98MPD2    C3 1526   2.829   4.152   0.670 -0.9770 -0.4822  0.2617
   98MPD2    C4 1527   2.763   4.255   0.739  0.6085 -0.1016 -0.6041
   98MPD2    C5 1528   2.669   4.231   0.840 -0.9895 -0.5833 -0.3577
   98MPD2     H 1529   2.830   3.938   0.645 -1.2888 -0.8223  0.6048
   98MPD2    H1 1530   2.777   4.359   0.716 -0.5290 -0.2466 -1.9712
   98MPD2    H2 1531   2.548   4.084   0.940 -0.8542 -1.3571 -0.9745
   98MPD2    H3 1532   2.632   4.314   0.898  0.8052  0.4993 -0.7760
   98MPD2     N 1533   2.923   4.179   0.568 -0.3326  0.1666  0.2662
   98MPD2    H5 1534   2.944   4.271   0.532  3.2137 -0.5598  0.4042
   98MPD2    N1 1535   2.644   3.869   0.826 -0.2592 -0.2072  0.4724
   98MPD2    H7 1536   2.597   3.867   0.916  0.3737  0.1588  0.8122
   99TMC2    C1 1537   1.956   1.002   1.313 -0.4805  0.7186  0.4001
   99TMC2    C2 1538   2.061   1.059   1.376 -0.1636 -0.3864 -0.1949
   99TMC2    C3 1539   2.030   1.184   1.425 -1.2253 -0.0429  0.4952
   99TMC2    C4 1540   1.830   1.053   1.316  0.3478  0.3970 -0.0527
   99TMC2    C5 1541   1.804   1.177   1.375  0.2459  0.4455 -0.2802
   99TMC2    C6 1542   1.905   1.236   1.444 -0.2777 -0.2971 -0.1626
   99TMC2     C 1543   1.981   0.895   1.216  0.5274 -0.2573  0.4983
   99TMC2     O 1544   2.086   0.837   1.233 -0.6769  0.2968  0.4179
   99TMC2     H 1545   2.162   1.020   1.374 -0.4021 -1.0034 -0.1588
   99TMC2    H1 1546   1.743   0.996   1.283 -0.5050  0.2730  2.4643
   99TMC2    H2 1547   1.901   1.343   1.463  1.0115 -0.0088 -1.5180
   99TMC2    C7 1548   1.671   1.225   1.394  0.2231  0.9602  0.2627
   99TMC2    C8 1549   2.139   1.261   1.484  0.1875  0.2450 -0.0403
   99TMC2    O1 1550   1.663   1.299   1.491  0.5046 -0.6831 -0.0817
   99TMC2    O2 1551   2.254   1.232   1.451 -0.0929 -0.1343  0.0244
   99TMC2    O5 1552   2.110   1.290   1.611 -0.5437  0.1382  0.6385
   99TMC2    H5 1553   2.015   1.299   1.636 -0.8786  1.1061 -0.9869
  100MPD2     C 1554   1.944   0.624   1.099 -0.2022 -0.4211  0.1740
  100MPD2    C1 1555   1.861   0.731   1.075  0.1625  0.1321 -0.7403
  100MPD2    C2 1556   1.759   0.713   0.987  0.2769 -0.0800  0.1217
  100MPD2    C3 1557   1.739   0.595   0.919 -0.6414  0.4692 -0.3812
  100MPD2    C4 1558   1.821   0.495   0.943 -0.2862 -0.0320  0.6327
  100MPD2    C5 1559   1.923   0.505   1.036  0.1299  0.0541  0.1392
  100MPD2     H 1560   1.692   0.796   0.968  0.5426  0.0269 -0.3389
  100MPD2    H1 1561   1.808   0.398   0.897  0.6700  0.5032 -0.7755
  100MPD2    H2 1562   2.026   0.627   1.170 -0.3175 -0.1016  0.2921
  100MPD2    H3 1563   1.989   0.419   1.047 -0.4338 -0.5306 -1.1234
  100MPD2     N 1564   1.635   0.590   0.824  0.8410 -0.0757  0.3062
  100MPD2    H5 1565   1.587   0.680   0.815  0.9055 -0.2241 -1.4502
  100MPD2    N1 1566   1.872   0.856   1.137  0.6865 -0.9006 -0.5542
  100MPD2    H7 1567   1.804   0.929   1.122  1.4854  0.4274  2.2519
  101TMC2    C1 1568   1.312   1.944  13.346 -0.2677  0.0997 -0.0593
  101TMC2    C2 1569   1.205   1.985  13.423  0.4812  0.2764 -0.5580
  101TMC2    C3 1570   1.158   2.105  13.385  0.5849 -0.2843  0.4740
  101TMC2    C4 1571   1.358   2.010  13.231 -0.0257 -0.5931  0.1726
  101TMC2    C5 1572   1.296   2.130  13.197 -0.0949  0.7802 -0.1887
  101TMC2    C6 1573   1.194   2.181  13.276  0.2561 -0.2825 -0.3203
  101TMC2     C 1574   1.354   1.812  13.375 -0.6210  0.1085 -0.3700
  101TMC2     O 1575   1.308   1.761  13.473 -0.8930 -0.1841  0.5294
  101TMC2     H 1576   1.153   1.926  13.497 -0.1762  1.3404 -0.1664
  101TMC2    H1 1577   1.453   1.991  13.183 -0.1111 -0.4063 -0.0735
  101TMC2    H2 1578   1.166   2.286  13.281  3.4647  0.6980 -2.9561
  101TMC2    C7 1579   1.348   2.211  13.089 -0.7163  0.0432 -0.0726
  101TMC2    C8 1580   1.037   2.153  13.456 -0.4778  0.6028  0.1955
  101TMC2    O1 1581   1.451   2.172  13.039  0.2723  0.0306  0.1416
  101TMC2    O2 1582   0.951   2.227  13.409 -0.0636  0.1416  0.0279
  101TMC2    O5 1583   1.035   2.092  13.575 -0.4580 -0.1032 -1.3526
  101TMC2    H5 1584   1.121   2.090  13.622  0.6921 -1.7863 -3.5521
  102MPD2     C 1585   1.591   1.586  13.184 -0.1507  0.3228  0.0746
  102MPD2    C1 1586   1.491   1.625  13.281  0.3284  0.1676 -0.0946
  102MPD2    C2 1587   1.423   1.523  13.352 -0.5745  0.6072  0.3831
  102MPD2    C3 1588   1.447   1.386  13.329 -0.3139 -0.5153  0.7893
  102MPD2    C4 1589   1.538   1.350  13.231  0.4060  0.7316 -0.6033
  102MPD2    C5 1590   1.610   1.451  13.170  0.2674  0.6202 -0.2275
  102MPD2     H 1591   1.357   1.550  13.433 -0.8085 -0.4468  0.5407
  102MPD2    H1 1592   1.564   1.249  13.201 -0.7038  0.4698 -0.6641
  102MPD2    H2 1593   1.647   1.664  13.135  1.9001 -0.3139  1.4209
  102MPD2    H3 1594   1.697   1.422  13.113  1.9358  2.2197  1.4990
  102MPD2     N 1595   1.353   1.305  13.399 -0.4758 -0.8345  0.4210
  102MPD2    H5 1596   1.281   1.358  13.448  0.3056  0.2275  0.4063
  102MPD2    N1 1597   1.452   1.764  13.282 -0.3145  0.4335  0.2174
  102MPD2    H7 1598   1.490   1.836  13.221  0.6867 -0.9587 -0.7861
  103TMC2    C1 1599   4.055   1.896  13.170 -0.8831  0.4092 -0.0070
  103TMC2    C2 1600   4.167   1.958  13.134 -0.1255 -0.4484 -0.4689
  103TMC2    C3 1601   4.206   2.062  13.212  0.0914 -0.2097  0.4316
  103TMC2    C4 1602   3.973   1.941  13.274  0.2167  0.1603  0.2740
  103TMC2    C5 1603   4.010   2.043  13.354 -0.1363  0.1886  0.4041
  103TMC2    C6 1604   4.136   2.094  13.328 -0.3646  0.9012  0.6589
  103TMC2     C 1605   3.991   1.805  13.073  0.4298  0.5835  0.2065
  103TMC2     O 1606   3.869   1.798  13.071  0.4595  0.3010 -0.3453
  103TMC2     H 1607   4.236   1.922  13.059  1.7876 -0.9371  1.5358
  103TMC2    H1 1608   3.882   1.886  13.293 -1.3810  2.6805 -0.2086
  103TMC2    H2 1609   4.171   2.174  13.393  1.7864  1.5583 -1.3123
  103TMC2    C7 1610   3.931   2.106  13.464 -0.4145  0.5818  0.2681
  103TMC2    C8 1611   4.337   2.114  13.203  0.8991  0.3136  0.2461
  103TMC2    O1 1612   3.972   2.207  13.520  0.0913  0.1226  0.0489
  103TMC2    O2 1613   4.413   2.112  13.298  0.4511  0.2588 -0.2738
  103TMC2    O5 1614   4.377   2.109  13.078 -0.3875 -0.2967  0.1971
  103TMC2    H5 1615   4.303   2.088  13.016  0.1367 -4.3535  0.9564
  104MPD2     C 1616   4.142   1.606  12.808 -0.1977  0.3977  0.7261
  104MPD2    C1 1617   4.045   1.678  12.868 -0.4507  0.2570  0.5506
  104MPD2    C2 1618   3.925   1.702  12.799  0.3070  0.6041 -0.5331
  104MPD2    C3 1619   3.906   1.658  12.669  0.0182 -0.0506  0.5602
  104MPD2    C4 1620   4.003   1.573  12.622  0.4331  0.4309  0.0705
  104MPD2    C5 1621   4.114   1.541  12.691 -0.0647 -0.2882 -0.1299
  104MPD2     H 1622   3.842   1.749  12.851 -1.1586  0.0269 -2.3462
  104MPD2    H1 1623   3.994   1.535  12.520 -0.9806  1.2700 -0.1229
  104MPD2    H2 1624   4.236   1.587  12.858  0.0222 -0.5710 -0.0499
  104MPD2    H3 1625   4.193   1.477  12.653 -0.9311 -0.0705 -2.2829
  104MPD2     N 1626   3.788   1.702  12.602  0.3254 -0.2006  0.4059
  104MPD2    H5 1627   3.722   1.762  12.650 -0.4061 -2.0910  1.7822
  104MPD2    N1 1628   4.082   1.742  12.987  0.0832 -0.3235  0.2054
  104MPD2    H7 1629   4.174   1.723  13.024  0.8071  1.6940 -0.5732
  105TMC2    C1 1630   1.142   0.762   0.238 -0.5088 -0.1493 -0.4620
  105TMC2    C2 1631   1.070   0.652   0.200 -0.0577  0.5237  0.4840
  105TMC2    C3 1632   0.936   0.663   0.183  0.4912 -0.2256 -0.4171
  105TMC2    C4 1633   1.078   0.875   0.280  0.6683 -0.0128  0.1790
  105TMC2    C5 1634   0.942   0.869   0.287 -0.2800 -1.0455 -0.9017
  105TMC2    C6 1635   0.872   0.772   0.227 -0.1050 -0.0526  0.3125
  105TMC2     C 1636   1.284   0.755   0.210  0.7831  0.1280 -0.2427
  105TMC2     O 1637   1.325   0.646   0.228 -0.5690  0.0506 -0.0736
  105TMC2     H 1638   1.114   0.556   0.175 -0.3845  0.5718 -0.2702
  105TMC2    H1 1639   1.144   0.947   0.328 -0.1921  2.1382 -1.8438
  105TMC2    H2 1640   0.765   0.783   0.215  0.1044 -0.4388 -1.9274
  105TMC2    C7 1641   0.876   0.921   0.400  0.4374  0.1258  0.3404
  105TMC2    C8 1642   0.853   0.549   0.142 -0.0068 -0.1217  0.4765
  105TMC2    O1 1643   0.773   0.856   0.425 -0.4811 -0.2202 -0.4931
  105TMC2    O2 1644   0.729   0.560   0.155  0.0622 -1.2477  0.3621
  105TMC2    O5 1645   0.910   0.504   0.023 -0.8944 -0.1292  0.3905
  105TMC2    H5 1646   1.008   0.505   0.021 -0.8234 -1.5233  3.3085
  106MPD2     C 1647   1.678   0.834  17.665 -0.4614  0.6126 -0.3182
  106MPD2    C1 1648   1.585   0.925  17.640  0.0802 -0.3462 -0.4818
  106MPD2    C2 1649   1.464   0.939  17.711  0.2252  0.2801 -0.5248
  106MPD2    C3 1650   1.445   0.851   0.056  0.4289 -0.9936 -1.1067
  106MPD2    C4 1651   1.549   0.759   0.086  0.1240 -0.6848 -0.3446
  106MPD2    C5 1652   1.663   0.746   0.012 -0.0821  0.1865  0.3361
  106MPD2     H 1653   1.388   1.010  17.682 -0.0163 -0.0970 -0.8268
  106MPD2    H1 1654   1.553   0.695   0.173  1.4507 -1.2824 -0.8454
  106MPD2    H2 1655   1.771   0.826  17.611 -0.4315 -0.7757 -0.0601
  106MPD2    H3 1656   1.741   0.680   0.047 -0.7324 -1.0904 -0.6389
  106MPD2     N 1657   1.329   0.861   0.138  0.4453  0.4283  0.4500
  106MPD2    H5 1658   1.256   0.923   0.106 -0.4856  0.4218  2.5740
  106MPD2    N1 1659   1.602   1.023  17.539 -0.1013  0.5216  0.4252
  106MPD2    H7 1660   1.547   1.108  17.547 -0.7005  0.3332 -1.8008
  107TMC2    C1 1661   1.401   1.203  11.487 -0.3437  0.2006 -0.2796
  107TMC2    C2 1662   1.455   1.328  11.496  0.2968 -0.6833  0.2480
  107TMC2    C3 1663   1.484   1.391  11.379 -0.7250 -0.2476  0.5190
  107TMC2    C4 1664   1.377   1.142  11.366  0.5219  0.0251 -0.2241
  107TMC2    C5 1665   1.411   1.206  11.254 -0.2769 -0.4999  0.2828
  107TMC2    C6 1666   1.468   1.333  11.253  0.1821 -0.2516  0.1554
  107TMC2     C 1667   1.378   1.133  11.608  0.3305  0.6534 -0.1630
  107TMC2     O 1668   1.365   1.202  11.706  0.4309 -0.6906 -0.0843
  107TMC2     H 1669   1.477   1.364  11.596  1.2698 -0.7305  0.0441
  107TMC2    H1 1670   1.319   1.051  11.366 -1.4145  1.2392  0.1024
  107TMC2    H2 1671   1.507   1.393  11.172 -2.2444  0.1723 -0.6867
  107TMC2    C7 1672   1.427   1.131  11.135  0.1178  0.3419  0.4368
  107TMC2    C8 1673   1.604   1.474  11.388 -0.0943  0.4654  0.7809
  107TMC2    O1 1674   1.429   1.007  11.136  0.5378 -0.0511 -0.1410
  107TMC2    O2 1675   1.705   1.433  11.339  0.3879 -0.1079 -0.6144
  107TMC2    O5 1676   1.594   1.556  11.492 -0.1598  0.0945  0.2229
  107TMC2    H5 1677   1.501   1.585  11.501  0.7560  1.8016  4.1204
  108MPD2     C 1678   1.321   0.766  11.667 -0.2603 -0.1184 -0.7490
  108MPD2    C1 1679   1.337   0.899  11.701  0.0008 -0.7374 -0.6236
  108MPD2    C2 1680   1.311   0.943  11.833  0.0453  0.2420 -0.1914
  108MPD2    C3 1681   1.266   0.848  11.930  0.4781 -0.7457  0.1893
  108MPD2    C4 1682   1.256   0.714  11.897  0.0978  0.5756  0.3933
  108MPD2    C5 1683   1.280   0.676  11.765  0.6446 -0.7190 -0.7050
  108MPD2     H 1684   1.324   1.048  11.856  0.6665  0.4885 -1.6974
  108MPD2    H1 1685   1.232   0.640  11.973 -0.9575  0.0773 -0.4293
  108MPD2    H2 1686   1.316   0.731  11.564 -0.5316 -0.3555 -0.6533
  108MPD2    H3 1687   1.261   0.575  11.731  0.0594 -0.3642 -1.4308
  108MPD2     N 1688   1.237   0.887  12.066 -0.7114 -0.0133 -0.0962
  108MPD2    H5 1689   1.207   0.814  12.130  3.0550 -0.9201  0.6220
  108MPD2    N1 1690   1.371   0.994  11.597  0.7888  0.2390 -0.1758
  108MPD2    H7 1691   1.379   0.955  11.503 -0.2794  0.4981 -0.3682
  109TMC2    C1 1692   1.594   3.199   0.255 -0.6765 -0.4221  0.2070
  109TMC2    C2 1693   1.561   3.229   0.125 -0.0901 -0.7400  0.6267
  109TMC2    C3 1694   1.666   3.259   0.042  0.0438 -0.5553 -0.9206
  109TMC2    C4 1695   1.723   3.187   0.301 -0.1687  0.5811 -0.2711
  109TMC2    C5 1696   1.820   3.233   0.215  0.3063 -0.4253 -0.6201
  109TMC2    C6 1697   1.798   3.261   0.081 -0.2125 -0.1635  0.0900
  109TMC2     C 1698   1.486   3.135   0.322  0.2836  0.3913 -0.0887
  109TMC2     O 1699   1.383   3.114   0.256 -0.0374  0.3941  0.3542
  109TMC2     H 1700   1.461   3.224   0.082  1.0305 -1.3243 -1.8894
  109TMC2    H1 1701   1.756   3.161   0.401  0.4024  5.0561  0.7095
  109TMC2    H2 1702   1.874   3.274   0.004 -0.7234  1.2753 -0.1590
  109TMC2    C7 1703   1.950   3.273   0.270 -0.3156  0.1653  0.3408
  109TMC2    C8 1704   1.643   3.210  17.666 -0.3271 -0.2481  0.3832
  109TMC2    O1 1705   1.973   3.255   0.387  0.0527 -0.0459 -1.0482
  109TMC2    O2 1706   1.585   3.103  17.636  0.3311 -0.4093  0.0229
  109TMC2    O5 1707   1.709   3.293  17.583  0.1857  0.3055 -0.2491
  109TMC2    H5 1708   1.743   3.376  17.624  1.7475 -1.5810  2.2419
  110MPD2     C 1709   1.223   2.971   0.726 -0.5141 -0.3242 -0.3026
  110MPD2    C1 1710   1.337   3.034   0.777 -0.1019  0.0210  0.5353
  110MPD2    C2 1711   1.437   3.073   0.685 -1.0433 -0.2098  0.6645
  110MPD2    C3 1712   1.422   3.061   0.551 -0.1601  0.0652 -0.1811
  110MPD2    C4 1713   1.317   2.986   0.505 -0.4001  0.2519 -0.8174
  110MPD2    C5 1714   1.222   2.939   0.592  0.4119  0.3291 -0.4751
  110MPD2     H 1715   1.507   3.151   0.713 -1.5560 -0.3564  2.3524
  110MPD2    H1 1716   1.301   2.975   0.398  0.1554 -0.6335 -0.8112
  110MPD2    H2 1717   1.147   2.926   0.788 -0.6383 -1.0597 -0.9799
  110MPD2    H3 1718   1.136   2.881   0.560  0.7660 -0.0191 -0.7915
  110MPD2     N 1719   1.507   3.129   0.463  0.2721 -0.0199  0.7149
  110MPD2    H5 1720   1.593   3.170   0.498  0.1569 -0.3637  1.4021
  110MPD2    N1 1721   1.352   3.046   0.922 -0.1288 -0.3150  0.7913
  110MPD2    H7 1722   1.283   2.996   0.978 -1.2918  0.0735 -0.3050
  111TMC2    C1 1723   1.052   3.228  12.457  0.4879 -0.7018  0.5248
  111TMC2    C2 1724   0.966   3.191  12.555 -0.2224  0.0585 -0.8479
  111TMC2    C3 1725   1.011   3.099  12.648  0.0864 -0.1457  0.4439
  111TMC2    C4 1726   1.175   3.171  12.447  0.4645  0.0022 -0.2122
  111TMC2    C5 1727   1.210   3.068  12.531 -0.1240  0.4099  1.0030
  111TMC2    C6 1728   1.131   3.037  12.635 -0.2094 -0.0122 -0.1899
  111TMC2     C 1729   1.002   3.287  12.339  0.2551  0.2404 -0.0753
  111TMC2     O 1730   1.054   3.248  12.234  0.5975 -0.0872 -0.3954
  111TMC2     H 1731   0.868   3.233  12.573  0.5185 -0.5033  4.5094
  111TMC2    H1 1732   1.238   3.208  12.366 -2.7548  2.1383 -1.7227
  111TMC2    H2 1733   1.152   2.952  12.699  1.2267 -0.1041 -0.7757
  111TMC2    C7 1734   1.339   3.001  12.520  0.3589  0.3034  0.0172
  111TMC2    C8 1735   0.941   3.076  12.771 -0.3845  0.3897  0.3827
  111TMC2    O1 1736   1.378   2.942  12.618 -0.0945 -0.1822 -0.6123
  111TMC2    O2 1737   0.857   2.987  12.771 -0.2679 -0.0840  0.4971
  111TMC2    O5 1738   1.041   3.077  12.867 -0.2978 -0.1548 -0.1920
  111TMC2    H5 1739   1.099   3.154  12.853 -2.9327  1.7374 -0.8213
  112MPD2     C 1740   0.630   3.516  12.050 -0.2835 -0.3897  0.0480
  112MPD2    C1 1741   0.719   3.415  12.026  0.2727 -0.1838  0.3767
  112MPD2    C2 1742   0.793   3.359  12.128  0.0782  0.3153 -0.3209
  112MPD2    C3 1743   0.800   3.412  12.250  0.7259  0.3441  1.5954
  112MPD2    C4 1744   0.711   3.514  12.273 -0.4514 -0.3548  0.5087
  112MPD2    C5 1745   0.626   3.564  12.181 -0.2093 -0.3541 -0.4341
  112MPD2     H 1746   0.853   3.270  12.112 -0.5188 -0.7975  3.7278
  112MPD2    H1 1747   0.709   3.564  12.370 -1.7218 -1.9757  1.3219
  112MPD2    H2 1748   0.560   3.560  11.980  0.0306 -0.7760 -0.5062
  112MPD2    H3 1749   0.562   3.643  12.217 -2.1190 -1.3170 -1.7222
  112MPD2     N 1750   0.888   3.370  12.352 -0.4015 -0.3371  0.5944
  112MPD2    H5 1751   0.888   3.420  12.440 -0.3895 -0.4225  0.6430
  112MPD2    N1 1752   0.738   3.352  11.896 -0.1370  0.0351 -0.0917
  112MPD2    H7 1753   0.811   3.281  11.889  0.2832  0.4271  0.3018
  113TMC2    C1 1754   4.645   1.486   0.258 -0.1829  0.8234  0.4552
  113TMC2    C2 1755   4.624   1.596   0.184  0.4902 -0.4270 -0.0727
  113TMC2    C3 1756   4.576   1.582   0.055  0.2597 -0.6853 -0.1470
  113TMC2    C4 1757   4.605   1.359   0.214  0.1250  0.7036  0.4088
  113TMC2    C5 1758   4.552   1.358   0.088  0.3221 -0.5498 -0.8164
  113TMC2    C6 1759   4.539   1.463   0.005 -0.4108  0.1019 -0.5226
  113TMC2     C 1760   4.732   1.504   0.376 -0.1866 -0.2407  0.6195
  113TMC2     O 1761   4.738   1.611   0.429  0.1236  0.8707  0.5218
  113TMC2     H 1762   4.650   1.695   0.218 -1.0537 -0.2189  0.4785
  113TMC2    H1 1763   4.607   1.272   0.279  0.1505  1.0742  0.9072
  113TMC2    H2 1764   4.519   1.449  17.653 -1.6211  1.0762 -0.4263
  113TMC2    C7 1765   4.519   1.229   0.032 -0.6122  0.0073  0.4260
  113TMC2    C8 1766   4.596   1.682  17.710  0.0399  0.9339 -0.3241
  113TMC2    O1 1767   4.443   1.229  17.690  0.0806 -0.1103 -0.0641
  113TMC2    O2 1768   4.685   1.767  17.726  0.4202  0.7068 -0.5987
  113TMC2    O5 1769   4.511   1.675  17.611 -0.5846  0.0657 -0.2699
  113TMC2    H5 1770   4.435   1.620  17.639  0.6901 -0.3089  2.4898
  114MPD2     C 1771   0.311   1.306   0.746  0.0784  0.4600  0.9556
  114MPD2    C1 1772   0.243   1.428   0.739  0.6189  0.3330  0.2391
  114MPD2    C2 1773   0.160   1.456   0.633 -0.2812 -0.4819  0.5705
  114MPD2    C3 1774   0.145   1.366   0.520 -0.2189 -0.0684  0.0910
  114MPD2    C4 1775   0.215   1.245   0.540 -0.1227 -0.1310  0.0780
  114MPD2    C5 1776   0.296   1.216   0.640  0.2810 -0.3441 -0.5095
  114MPD2     H 1777   0.124   1.558   0.630  1.4951  0.1701  1.2333
  114MPD2    H1 1778   0.210   1.170   0.462 -2.4300 -0.7448  0.8271
  114MPD2    H2 1779   0.379   1.280   0.827  1.7018  1.2223 -0.1425
  114MPD2    H3 1780   0.345   1.120   0.633  1.1989 -0.0211  1.4425
  114MPD2     N 1781   0.066   1.391   0.401  0.2572 -0.3275 -0.5178
  114MPD2    H5 1782   0.059   1.306   0.346 -0.7169 -0.0555 -0.8260
  114MPD2    N1 1783   0.268   1.520   0.845 -0.5359  0.4970 -0.2695
  114MPD2    H7 1784   0.199   1.594   0.853 -0.9941 -0.1009  1.2228
  115TMC2    C1 1785   1.084   3.452   0.047 -0.1151 -0.3196 -1.1224
  115TMC2    C2 1786   1.221   3.445   0.066 -0.5216 -0.2337  0.1543
  115TMC2    C3 1787   1.289   3.565   0.070  0.0440  0.2201  0.7421
  115TMC2    C4 1788   1.027   3.577   0.012  0.2788  0.3354 -0.4315
  115TMC2    C5 1789   1.102   3.685  17.751 -0.0226  0.1282 -0.4653
  115TMC2    C6 1790   1.237   3.686   0.037  0.0506 -0.0125  0.3387
  115TMC2     C 1791   0.998   3.339   0.061 -0.3422  0.1036 -0.4259
  115TMC2     O 1792   0.891   3.355   0.010  0.3904  0.3092 -0.3712
  115TMC2     H 1793   1.282   3.355   0.074 -2.1111 -1.1531  2.1353
  115TMC2    H1 1794   0.925   3.582  17.729  0.0057  0.3985  0.3235
  115TMC2    H2 1795   1.295   3.776   0.052 -0.6512  0.5291 -0.2322
  115TMC2    C7 1796   1.049   3.804  17.692 -0.0087  0.0403  0.3769
  115TMC2    C8 1797   1.419   3.562   0.135 -0.6160 -0.4501  0.0883
  115TMC2    O1 1798   0.928   3.820  17.681  0.1361  0.2100  0.0047
  115TMC2    O2 1799   1.444   3.483   0.226  0.2051  0.3472  0.0095
  115TMC2    O5 1800   1.512   3.627   0.055  0.2857 -0.1136 -0.0833
  115TMC2    H5 1801   1.469   3.677  17.736  2.5856 -0.7153 -1.8368
  116MPD2     C 1802   0.915   2.841   0.169  0.5553 -0.2188 -0.4803
  116MPD2    C1 1803   0.869   2.918   0.065 -0.1476 -0.4472 -0.3474
  116MPD2    C2 1804   0.918   3.049   0.053 -0.2191 -0.5616  0.4779
  116MPD2    C3 1805   1.011   3.102   0.144 -0.1324  0.3295 -0.6509
  116MPD2    C4 1806   1.061   3.013   0.233 -0.1162  0.4448  0.5431
  116MPD2    C5 1807   1.017   2.889   0.255  0.9975  0.0304 -0.2257
  116MPD2     H 1808   0.879   3.107  17.724  2.7506 -0.3890 -0.7684
  116MPD2    H1 1809   1.136   3.040   0.306 -1.3999 -1.3641  2.5190
  116MPD2    H2 1810   0.881   2.742   0.198  1.1433 -0.1271  0.5162
  116MPD2    H3 1811   1.046   2.832   0.342 -1.2443 -2.5656 -1.1606
  116MPD2     N 1812   1.062   3.234   0.124  0.0939  0.2360  0.7640
  116MPD2    H5 1813   1.144   3.271   0.171  0.9505  0.9279 -1.2907
  116MPD2    N1 1814   0.776   2.859  17.728 -0.1533 -0.0432  0.6456
  116MPD2    H7 1815   0.754   2.762  17.746 -1.6229 -0.0625 -1.2435
  117TMC2    C1 1816   4.112   4.333  13.986 -0.0961 -0.0346 -0.6462
  117TMC2    C2 1817   4.204   4.269  14.067  0.4439 -0.4073  0.2723
  117TMC2    C3 1818   4.283   4.351  14.144 -0.2484  1.5354 -0.3496
  117TMC2    C4 1819   4.087   4.463  13.998 -0.4028  0.1396  0.1327
  117TMC2    C5 1820   4.175   4.541  14.066 -0.3622  0.3394 -0.7358
  117TMC2    C6 1821   4.281   4.491  14.129 -0.4211  0.1569 -0.2471
  117TMC2     C 1822   4.043   4.253  13.896  0.3631  0.1572  0.5041
  117TMC2     O 1823   4.108   4.167  13.840  0.0909  0.9577 -0.6649
  117TMC2     H 1824   4.195   4.161  14.075 -0.9300 -0.2392  1.0530
  117TMC2    H1 1825   4.010   4.514  13.941  0.0007 -0.9806 -1.4087
  117TMC2    H2 1826   4.350   4.545  14.192 -2.1416  0.5616  1.2935
  117TMC2    C7 1827   4.149   4.685  14.088 -0.0831 -0.4397 -0.0408
  117TMC2    C8 1828   4.365   4.303  14.252 -0.2126 -0.2874  0.4619
  117TMC2    O1 1829   4.237   0.023  14.055 -0.1957  0.6582  0.3428
  117TMC2    O2 1830   4.395   4.371  14.349 -0.3166  0.1920 -0.4980
  117TMC2    O5 1831   4.388   4.170  14.231  0.1003  0.0690 -0.5991
  117TMC2    H5 1832   4.363   4.146  14.139  0.0520 -0.0650 -0.5502
  118MPD2     C 1833   3.820   0.093  14.138 -0.2266  0.1434  0.0228
  118MPD2    C1 1834   3.952   0.095  14.111 -0.8002 -0.1126  0.1982
  118MPD2    C2 1835   4.009   0.220  14.095  0.4408  0.0216 -0.1261
  118MPD2    C3 1836   3.926   0.333  14.084  0.2250 -0.4133  0.1724
  118MPD2    C4 1837   3.789   0.328  14.081  0.5423 -1.2071  0.6008
  118MPD2    C5 1838   3.739   0.207  14.123  0.2354  0.1476 -0.2391
  118MPD2     H 1839   4.114   0.235  14.073  0.0414  1.6255 -0.9409
  118MPD2    H1 1840   3.719   0.410  14.074  1.7336  0.0085  2.8480
  118MPD2    H2 1841   3.763   0.003  14.158 -1.8021  1.1701  0.1178
  118MPD2    H3 1842   3.631   0.199  14.121  0.2394 -0.1093  0.5151
  118MPD2     N 1843   3.974   0.467  14.077 -0.0774  0.3000  0.5011
  118MPD2    H5 1844   3.904   0.534  14.045 -0.8204 -0.6962  0.0574
  118MPD2    N1 1845   4.015   4.711  14.113  0.1227  0.3168  0.4249
  118MPD2    H7 1846   3.950   4.639  14.144  0.7387  0.0911  1.1800
  119TMC2    C1 1847   1.880   0.984  13.305 -0.7213 -0.0995 -0.0596
  119TMC2    C2 1848   1.866   0.935  13.179 -0.0870 -0.5112  0.6918
  119TMC2    C3 1849   1.767   0.844  13.149  0.8230  0.3763 -0.2012
  119TMC2    C4 1850   1.797   0.944  13.406 -0.0716 -0.2544 -0.1400
  119TMC2    C5 1851   1.695   0.861  13.368 -0.9608  0.0287 -0.6366
  119TMC2    C6 1852   1.679   0.805  13.242 -0.2961 -0.1652  0.4210
  119TMC2     C 1853   1.987   1.074  13.350  0.6674  0.2822  0.6760
  119TMC2     O 1854   1.973   1.121  13.463 -0.5613  0.0486 -0.2142
  119TMC2     H 1855   1.928   0.975  13.100 -2.7438 -1.1471 -1.7352
  119TMC2    H1 1856   1.786   0.986  13.505  0.9821 -0.1694 -0.0514
  119TMC2    H2 1857   1.626   0.710  13.243  0.0921 -0.4483 -2.9209
  119TMC2    C7 1858   1.598   0.818  13.468  0.5650 -0.3725  0.8355
  119TMC2    C8 1859   1.742   0.820  13.010 -0.1678 -0.1462 -0.6395
  119TMC2    O1 1860   1.480   0.819  13.432 -0.5721 -0.0939  0.3916
  119TMC2    O2 1861   1.839   0.809  12.936  0.2376  0.8942  0.4023
  119TMC2    O5 1862   1.636   0.742  13.006 -0.2468 -0.7566 -0.2441
  119TMC2    H5 1863   1.571   0.781  13.067 -0.1196  0.6348 -1.0071
  120MPD2     C 1864   2.485   1.192  13.377 -0.5108 -0.0356  0.4476
  120MPD2    C1 1865   2.387   1.226  13.463  0.1388 -0.0493 -0.6512
  120MPD2    C2 1866   2.256   1.187  13.426 -0.5701 -0.2483  0.7481
  120MPD2    C3 1867   2.235   1.111  13.314  0.0656 -0.1684 -0.7391
  120MPD2    C4 1868   2.332   1.077  13.226  0.4614  0.6394 -0.0456
  120MPD2    C5 1869   2.459   1.128  13.257  0.8006  0.2772 -0.5515
  120MPD2     H 1870   2.174   1.215  13.491 -0.6351  1.3127  0.0017
  120MPD2    H1 1871   2.326   1.015  13.138  0.5346  0.2677  0.2120
  120MPD2    H2 1872   2.588   1.219  13.398  0.1333 -0.9388 -1.5851
  120MPD2    H3 1873   2.543   1.100  13.195  0.7924  1.0488 -0.9135
  120MPD2     N 1874   2.106   1.061  13.279 -0.1014  0.6050 -0.4309
  120MPD2    H5 1875   2.102   1.002  13.196 -0.4185  0.3664 -0.2417
  120MPD2    N1 1876   2.420   1.296  13.576  0.4820  0.3762 -0.9604
  120MPD2    H7 1877   2.488   1.368  13.552  2.2695 -0.4409  1.7369
  121TMC2    C1 1878   3.680   2.904  14.564  0.3672 -0.6280  0.6836
  121TMC2    C2 1879   3.720   2.865  14.686 -0.0593  0.2696 -0.3855
  121TMC2    C3 1880   3.660   2.759  14.745  0.7649 -0.5110  0.4348
  121TMC2    C4 1881   3.569   2.855  14.510 -0.4715  0.6888  0.6845
  121TMC2    C5 1882   3.489   2.775  14.584  0.5352 -0.2453 -0.2274
  121TMC2    C6 1883   3.539   2.720  14.697  0.5725  0.7164  0.5689
  121TMC2     C 1884   3.785   2.997  14.500  0.3462  0.4812 -0.2432
  121TMC2     O 1885   3.856   3.060  14.577  0.0533  0.0198 -0.2006
  121TMC2     H 1886   3.816   2.899  14.725 -1.0319  0.2804  1.9975
  121TMC2    H1 1887   3.523   2.905  14.425  0.5121 -1.2057 -0.9772
  121TMC2    H2 1888   3.469   2.658  14.752 -0.3080 -0.9357 -2.3985
  121TMC2    C7 1889   3.352   2.746  14.550 -0.5844  0.0655  0.0127
  121TMC2    C8 1890   3.682   2.772  14.886 -0.2360  0.3131 -0.3452
  121TMC2    O1 1891   3.302   2.661  14.622  0.1285 -0.4484  0.3909
  121TMC2    O2 1892   3.715   2.877  14.935 -0.2611 -0.9577  0.1199
  121TMC2    O5 1893   3.627   2.671  14.958 -0.2824 -0.5662 -0.1563
  121TMC2    H5 1894   3.599   2.598  14.898 -0.2028 -1.2134  0.5997
  122MPD2     C 1895   3.988   3.135  14.339 -0.1992 -0.7864  0.0399
  122MPD2    C1 1896   3.864   3.093  14.289  0.0395 -0.8200 -0.4410
  122MPD2    C2 1897   3.834   3.114  14.156  0.0806 -0.1243  0.0109
  122MPD2    C3 1898   3.928   3.180  14.072 -0.2143 -0.4189  0.8731
  122MPD2    C4 1899   4.049   3.221  14.121 -0.3436 -0.6488  0.4882
  122MPD2    C5 1900   4.082   3.186  14.251 -0.8042  0.5658 -0.1264
  122MPD2     H 1901   3.739   3.075  14.119  0.0965 -0.7788  0.6593
  122MPD2    H1 1902   4.127   3.263  14.059 -0.0561 -0.2722  1.1055
  122MPD2    H2 1903   4.008   3.128  14.445  0.9086  0.8175 -0.0676
  122MPD2    H3 1904   4.180   3.224  14.277  0.9025 -2.9718 -1.3041
  122MPD2     N 1905   3.917   3.210  13.936  0.0719  0.9600  0.2871
  122MPD2    H5 1906   3.993   3.256  13.887 -0.6752  2.2289  0.3136
  122MPD2    N1 1907   3.771   3.018  14.365 -0.6378 -0.0698  0.2649
  122MPD2    H7 1908   3.693   2.967  14.325 -0.0963 -2.3640  2.0973
  123TMC2    C1 1909   1.914   1.705  10.335 -0.2946 -0.0064 -0.1299
  123TMC2    C2 1910   1.910   1.841  10.368 -0.0457 -0.2581 -0.0551
  123TMC2    C3 1911   1.912   1.935  10.266 -0.5222 -0.3509 -0.7354
  123TMC2    C4 1912   1.923   1.669  10.205  0.1967 -0.3281  0.5025
  123TMC2    C5 1913   1.947   1.762  10.107  0.3693  0.0498  0.5578
  123TMC2    C6 1914   1.946   1.898  10.134 -0.1816 -0.4887  0.1869
  123TMC2     C 1915   1.857   1.620  10.435  0.3893  0.1321 -0.2572
  123TMC2     O 1916   1.806   1.673  10.536  0.4056  0.3356 -0.1252
  123TMC2     H 1917   1.918   1.869  10.472  0.2901 -0.5637  0.0001
  123TMC2    H1 1918   1.917   1.563  10.184 -1.7185 -0.0671 -0.2029
  123TMC2    H2 1919   1.988   1.974  10.070 -1.3764 -1.5713 -1.8967
  123TMC2    C7 1920   1.947   1.715   9.966 -0.5071  0.1272  1.3607
  123TMC2    C8 1921   1.929   2.077  10.291 -0.1770  0.0158  0.6217
  123TMC2    O1 1922   1.950   1.592   9.962 -0.9350  0.1366 -0.1762
  123TMC2    O2 1923   2.018   2.150  10.242 -0.2169 -0.2103  0.1009
  123TMC2    O5 1924   1.867   2.103  10.407 -0.1651 -0.3927  0.6856
  123TMC2    H5 1925   1.803   2.032  10.428 -2.5847  1.5655 -0.0985
  124MPD2     C 1926   1.570   1.200  10.498 -0.6057 -1.0680 -0.5372
  124MPD2    C1 1927   1.605   1.214  10.365 -0.0547  0.1014  0.2248
  124MPD2    C2 1928   1.683   1.322  10.331  0.3355  0.4640  0.1382
  124MPD2    C3 1929   1.738   1.402  10.421  0.8390  0.4766  0.0567
  124MPD2    C4 1930   1.708   1.387  10.551  0.1308 -0.5841 -0.3896
  124MPD2    C5 1931   1.616   1.288  10.592 -0.1813 -0.1564 -0.3089
  124MPD2     H 1932   1.692   1.345  10.225  0.8427 -0.7574 -0.0838
  124MPD2    H1 1933   1.750   1.447  10.631 -0.7080 -0.4669 -0.0392
  124MPD2    H2 1934   1.508   1.114  10.524 -3.0255  0.9720  0.4745
  124MPD2    H3 1935   1.598   1.285  10.699  0.7556 -0.2073 -0.1491
  124MPD2     N 1936   1.829   1.499  10.375  0.2547  0.6275  0.5601
  124MPD2    H5 1937   1.870   1.487  10.283  0.8516 -1.3978  1.0857
  124MPD2    N1 1938   1.538   1.130  10.274 -0.2117  0.3533  0.9799
  124MPD2    H7 1939   1.466   1.069  10.312  0.8929 -0.9620  0.9666
  125TMC2    C1 1940   1.788   3.793   9.337 -0.4753  0.3341 -0.3196
  125TMC2    C2 1941   1.791   3.681   9.262 -0.0055  0.4270 -0.0829
  125TMC2    C3 1942   1.910   3.646   9.211 -0.9355 -0.6498  0.2171
  125TMC2    C4 1943   1.903   3.866   9.354 -0.1772  0.1432 -0.4955
  125TMC2    C5 1944   2.019   3.813   9.311  0.5807 -0.5047 -0.1900
  125TMC2    C6 1945   2.028   3.698   9.241 -0.8078 -0.3283 -0.3137
  125TMC2     C 1946   1.654   3.855   9.351  0.5410  0.1414  0.3985
  125TMC2     O 1947   1.653   3.956   9.418  0.3971  0.6340  0.6098
  125TMC2     H 1948   1.717   3.603   9.246  4.6162 -3.6308 -1.7989
  125TMC2    H1 1949   1.898   3.956   9.415 -0.8403  0.2810 -0.7465
  125TMC2    H2 1950   2.116   3.667   9.187 -0.0144 -0.9013  1.3077
  125TMC2    C7 1951   2.131   3.895   9.337 -0.4057 -0.0717  0.1904
  125TMC2    C8 1952   1.914   3.534   9.114 -0.1069  0.1951 -0.2684
  125TMC2    O1 1953   2.105   4.010   9.369  0.2634 -0.6032 -1.2542
  125TMC2    O2 1954   2.013   3.468   9.086  0.1599 -0.3669 -0.2923
  125TMC2    O5 1955   1.810   3.541   9.032  0.9376  0.0877  0.0256
  125TMC2    H5 1956   1.759   3.623   9.047 -0.5938 -1.0184  0.8908
  126MPD1     C 1957   1.165   3.901   9.449  0.4359 -0.4132 -0.0295
  126MPD1    C1 1958   1.197   3.767   9.451  0.2084  0.4993 -0.2996
  126MPD1    C2 1959   1.315   3.724   9.391 -0.7406  0.5145  0.0055
  126MPD1    C3 1960   1.419   3.817   9.365 -0.1165  0.3838 -0.3980
  126MPD1    C4 1961   1.390   3.957   9.378  0.4318  0.2817 -0.3118
  126MPD1    C5 1962   1.265   3.993   9.424  0.5477  0.6546  0.1132
  126MPD1     H 1963   1.332   3.617   9.386  1.4521  0.8540  0.2526
  126MPD1    H1 1964   1.452   4.041   9.351  0.2745 -0.0240 -1.6443
  126MPD1    H2 1965   1.073   3.936   9.495  1.3061  1.4858  0.2770
  126MPD1    H3 1966   1.252   4.101   9.424 -1.1525  0.4499  3.8571
  126MPD1     N 1967   1.548   3.776   9.328 -0.2236 -0.6780 -0.0856
  126MPD1    H5 1968   1.564   3.678   9.309 -1.5118 -0.6485 -1.3245
  126MPD1    N1 1969   1.102   3.665   9.474 -0.6914  0.0172  0.2888
  126MPD1    H6 1970   1.156   3.581   9.497 -2.9074 -1.4584  0.0950
  126MPD1    H7 1971   1.026   3.679   9.540  0.0930  0.7955  1.0147
  127TMC2    C1 1972   3.262   2.244   9.631  0.2018 -0.2912 -0.3437
  127TMC2    C2 1973   3.325   2.225   9.754  0.2580  0.2170 -0.1455
  127TMC2    C3 1974   3.258   2.157   9.853 -0.0996  0.5952  0.1214
  127TMC2    C4 1975   3.137   2.193   9.611  0.3881  0.4588  0.7910
  127TMC2    C5 1976   3.070   2.135   9.713 -0.7223  0.5705 -0.3935
  127TMC2    C6 1977   3.129   2.113   9.833 -0.2404  0.3388  0.1826
  127TMC2     C 1978   3.322   2.323   9.527  0.2565  0.7273  0.4010
  127TMC2     O 1979   3.425   2.380   9.556 -0.6109  0.4925  0.1394
  127TMC2     H 1980   3.425   2.262   9.772  0.8735 -2.1562  1.2617
  127TMC2    H1 1981   3.086   2.188   9.515  0.2373  0.4446  0.8715
  127TMC2    H2 1982   3.067   2.069   9.910 -3.2266  0.0449 -2.3940
  127TMC2    C7 1983   2.948   2.073   9.672  0.7575  0.2834  0.3047
  127TMC2    C8 1984   3.331   2.141   9.979 -0.1789  0.7130  0.0285
  127TMC2    O1 1985   2.881   2.132   9.588  0.3132  0.1321 -0.2284
  127TMC2    O2 1986   3.440   2.192   9.994 -0.6253 -0.6254 -0.5899
  127TMC2    O5 1987   3.283   2.032  10.036  0.4616 -0.2113 -0.1192
  127TMC2    H5 1988   3.202   2.006   9.989 -1.2342  0.7296  2.3047
  128MPD2     C 1989   3.206   2.412   9.194  0.6902  0.1925  0.1722
  128MPD2    C1 1990   3.282   2.426   9.305 -0.1863 -0.0429 -0.8086
  128MPD2    C2 1991   3.371   2.532   9.312 -0.3145 -0.7424  0.1727
  128MPD2    C3 1992   3.396   2.609   9.192 -0.1141  0.6441 -0.6617
  128MPD2    C4 1993   3.326   2.584   9.079 -0.7448 -0.5300  0.0774
  128MPD2    C5 1994   3.233   2.486   9.081 -0.1393 -0.5883  0.5944
  128MPD2     H 1995   3.429   2.555   9.401  0.4113 -0.5257 -0.3574
  128MPD2    H1 1996   3.360   2.624   8.983 -2.4477 -1.6877 -0.9989
  128MPD2    H2 1997   3.140   2.326   9.186 -0.2764  1.0185 -0.7542
  128MPD2    H3 1998   3.193   2.453   8.986  0.8158 -0.9208  0.3054
  128MPD2     N 1999   3.509   2.700   9.203 -0.3379  0.5555 -0.4995
  128MPD2    H5 2000   3.568   2.695   9.285 -0.5993 -0.5697 -0.3796
  128MPD2    N1 2001   3.254   2.328   9.406  0.3326 -0.0061 -0.3066
  128MPD2    H7 2002   3.180   2.262   9.384  1.2241 -0.6082 -1.4851
  129TMC2    C1 2003   3.060   2.525   1.550 -0.1348  1.0831 -0.8608
  129TMC2    C2 2004   3.194   2.537   1.561  0.2342  0.3731  0.3245
  129TMC2    C3 2005   3.266   2.422   1.607 -0.1159  0.1900 -0.1431
  129TMC2    C4 2006   3.004   2.403   1.563 -0.7330 -0.4045 -0.2956
  129TMC2    C5 2007   3.073   2.291   1.607  0.1831 -0.2542 -0.5888
  129TMC2    C6 2008   3.207   2.300   1.631  0.3603  0.2641 -0.3748
  129TMC2     C 2009   2.974   2.630   1.586  0.5414 -0.5544 -0.8372
  129TMC2     O 2010   2.883   2.601   1.666  0.4213 -0.3745 -0.2416
  129TMC2     H 2011   3.253   2.627   1.549 -1.0352  1.0058 -1.0720
  129TMC2    H1 2012   2.896   2.397   1.559 -0.9384  2.0278  1.4030
  129TMC2    H2 2013   3.261   2.230   1.694 -0.3921  2.0388  2.2752
  129TMC2    C7 2014   2.991   2.171   1.616  0.7497  0.2699  0.0242
  129TMC2    C8 2015   3.406   2.437   1.643 -0.5211  0.5946  0.2323
  129TMC2    O1 2016   2.869   2.187   1.621  0.1062  0.2467 -0.3813
  129TMC2    O2 2017   3.476   2.335   1.643  0.1194  0.5297  0.4847
  129TMC2    O5 2018   3.433   2.565   1.678  0.0634 -0.2314  0.3613
  129TMC2    H5 2019   3.353   2.618   1.700  0.2505  0.9572 -1.8691
  130MPD2     C 2020   2.824   2.885   1.619 -0.0640  0.6430  0.2467
  130MPD2    C1 2021   2.898   2.852   1.508  0.5094  0.3073 -0.4541
  130MPD2    C2 2022   2.891   2.947   1.401  0.2925 -0.0447  0.0764
  130MPD2    C3 2023   2.816   3.066   1.402 -0.5376 -0.1230  0.3534
  130MPD2    C4 2024   2.737   3.080   1.512  0.7973  0.4049  0.4386
  130MPD2    C5 2025   2.736   2.991   1.615 -0.1728 -0.4774 -0.3726
  130MPD2     H 2026   2.952   2.943   1.312 -1.3073 -0.4088 -0.9962
  130MPD2    H1 2027   2.674   3.166   1.528  0.6910  0.3302  0.4250
  130MPD2    H2 2028   2.837   2.828   1.711 -2.0135 -2.5348 -1.4339
  130MPD2    H3 2029   2.681   3.004   1.708 -2.6295 -0.0554 -1.8705
  130MPD2     N 2030   2.829   3.169   1.303  0.1650 -0.0006 -0.7403
  130MPD2    H5 2031   2.899   3.149   1.233  2.3776 -0.7926  1.7047
  130MPD2    N1 2032   2.978   2.738   1.503  0.2455 -0.5878  0.1515
  130MPD2    H7 2033   3.049   2.722   1.432 -1.8836 -2.5322 -1.5572
  131TMC2    C1 2034   1.565   1.898   9.613  0.3112  0.0778 -0.0462
  131TMC2    C2 2035   1.557   1.962   9.492  0.4250 -0.0815 -0.3787
  131TMC2    C3 2036   1.571   2.097   9.484 -0.0122 -0.5999 -0.0390
  131TMC2    C4 2037   1.599   1.967   9.730  0.4748 -0.1764 -0.1145
  131TMC2    C5 2038   1.632   2.102   9.714  0.2538  0.3331 -0.5753
  131TMC2    C6 2039   1.628   2.168   9.596  0.5999 -0.4541 -0.2497
  131TMC2     C 2040   1.521   1.755   9.625 -0.1443 -0.6536  0.1222
  131TMC2     O 2041   1.505   1.723   9.743  0.3484  0.0066  0.2248
  131TMC2     H 2042   1.529   1.913   9.400 -0.1775  0.1286 -0.3083
  131TMC2    H1 2043   1.603   1.908   9.821 -1.6361  0.2167  0.2231
  131TMC2    H2 2044   1.667   2.269   9.587 -0.1733 -0.0901  0.4341
  131TMC2    C7 2045   1.686   2.164   9.838  0.1250 -0.9792  0.0187
  131TMC2    C8 2046   1.611   2.129   9.350  0.0487  0.4139  0.3349
  131TMC2    O1 2047   1.706   2.087   9.930  0.1002  0.4567 -0.0482
  131TMC2    O2 2048   1.679   2.066   9.269  0.1910 -0.3813  0.0278
  131TMC2    O5 2049   1.566   2.255   9.334 -0.0349 -0.0019 -0.1994
  131TMC2    H5 2050   1.499   2.287   9.398 -0.7753 -0.7928 -0.5784
  132MPD2     C 2051   1.420   1.517   9.358  0.4992  0.4541 -0.5671
  132MPD2    C1 2052   1.448   1.561   9.486 -0.0649 -0.5042 -0.0676
  132MPD2    C2 2053   1.445   1.474   9.595  0.3154 -0.0907 -0.5051
  132MPD2    C3 2054   1.425   1.343   9.579  0.3106 -0.0469 -0.3362
  132MPD2    C4 2055   1.423   1.291   9.453  0.3692 -0.2900  0.1140
  132MPD2    C5 2056   1.408   1.375   9.344  0.2038 -0.3147  0.0862
  132MPD2     H 2057   1.456   1.510   9.697  1.1965  0.1888 -0.6947
  132MPD2    H1 2058   1.415   1.184   9.436 -0.8403  0.0617 -1.5881
  132MPD2    H2 2059   1.391   1.581   9.275  1.3876 -0.1167 -1.3225
  132MPD2    H3 2060   1.405   1.333   9.244 -0.8304  2.0099 -0.8515
  132MPD2     N 2061   1.413   1.269   9.697 -0.3680 -0.1385  0.1588
  132MPD2    H5 2062   1.436   1.324   9.779 -0.0366 -2.1507  1.4014
  132MPD2    N1 2063   1.488   1.699   9.506 -0.1841  0.1295 -0.1385
  132MPD2    H7 2064   1.480   1.755   9.421 -1.2781  1.0087  0.5407
  133TMC2    C1 2065   0.810   3.558   9.963  0.7057 -0.0373  0.5927
  133TMC2    C2 2066   0.818   3.559  10.105 -0.0690  0.1389 -0.5854
  133TMC2    C3 2067   0.935   3.574  10.165  0.5084 -0.0609  0.6510
  133TMC2    C4 2068   0.919   3.597   9.890  0.3585  0.0142 -0.0681
  133TMC2    C5 2069   1.035   3.612   9.954 -0.4345  1.4059 -0.6038
  133TMC2    C6 2070   1.046   3.603  10.087  0.2679  0.3175  0.1903
  133TMC2     C 2071   0.726   3.460   9.894 -0.3444  0.7575 -0.3735
  133TMC2     O 2072   0.762   3.418   9.783 -0.3462 -0.1570  0.8322
  133TMC2     H 2073   0.734   3.523  10.164  0.2149 -1.8178 -1.3910
  133TMC2    H1 2074   0.916   3.608   9.783  0.5495 -0.0676 -0.0816
  133TMC2    H2 2075   1.142   3.609  10.137  0.6106 -0.4929 -0.3524
  133TMC2    C7 2076   1.143   3.594   9.863  0.2614 -0.1645  1.1383
  133TMC2    C8 2077   0.947   3.612  10.300 -0.4795  0.5014 -0.1160
  133TMC2    O1 2078   1.121   3.556   9.746 -0.2723 -0.0787  0.2185
  133TMC2    O2 2079   1.047   3.612  10.366  0.3181 -0.0988 -0.1771
  133TMC2    O5 2080   0.830   3.654  10.353  0.5951 -0.2299  0.0575
  133TMC2    H5 2081   0.774   3.678  10.277  0.7687  1.5579  0.4966
  134MPD2     C 2082   0.396   3.342   9.989 -0.1611  0.5581 -0.0819
  134MPD2    C1 2083   0.525   3.340   9.941 -0.0010  0.3048 -0.4256
  134MPD2    C2 2084   0.557   3.225   9.868  0.5151  0.1890 -0.4455
  134MPD2    C3 2085   0.473   3.121   9.838 -0.3916 -0.1606 -0.6720
  134MPD2    C4 2086   0.342   3.127   9.897  0.0504  0.1193 -0.5339
  134MPD2    C5 2087   0.308   3.242   9.964  0.4318 -0.1849 -0.1582
  134MPD2     H 2088   0.660   3.208   9.839  0.5829  1.7654 -1.1365
  134MPD2    H1 2089   0.263   3.054   9.882  1.0274 -1.6196  2.9609
  134MPD2    H2 2090   0.358   3.422  10.052 -0.1772  0.8175 -0.4204
  134MPD2    H3 2091   0.209   3.256  10.004  0.8390 -1.7015  1.3972
  134MPD2     N 2092   0.519   3.002   9.781 -0.7248  0.0679  0.2363
  134MPD2    H5 2093   0.456   2.924   9.795 -2.3234  1.2170 -0.5192
  134MPD2    N1 2094   0.613   3.439   9.969  0.1134  0.0687  0.1874
  134MPD2    H7 2095   0.579   3.514  10.029  0.4142 -1.1953  1.9553
  135TMC2    C1 2096   2.634   3.891   9.629  0.2930 -0.9811  0.1989
  135TMC2    C2 2097   2.505   3.921   9.664  0.2589 -0.7618 -0.3196
  135TMC2    C3 2098   2.421   3.817   9.662 -0.0779  0.7099 -0.0535
  135TMC2    C4 2099   2.670   3.760   9.600  0.0709 -0.2028 -0.1470
  135TMC2    C5 2100   2.573   3.655   9.603  0.9402  0.5546 -0.7218
  135TMC2    C6 2101   2.445   3.684   9.631 -0.2239 -0.5128 -0.5835
  135TMC2     C 2102   2.732   3.994   9.629 -0.3234 -0.3328 -0.0117
  135TMC2     O 2103   2.728   4.081   9.715 -0.7248  0.3761  0.2709
  135TMC2     H 2104   2.476   4.019   9.699  1.2275 -1.3983  2.2269
  135TMC2    H1 2105   2.776   3.741   9.584  0.2843  2.0331 -1.2879
  135TMC2    H2 2106   2.366   3.611   9.616 -0.0368 -0.8921  0.3361
  135TMC2    C7 2107   2.616   3.524   9.577  0.2158  0.3909 -0.0446
  135TMC2    C8 2108   2.288   3.845   9.715  0.5902  0.0022 -0.3836
  135TMC2    O1 2109   2.725   3.507   9.523  0.3161 -0.9414 -1.1012
  135TMC2    O2 2110   2.227   3.948   9.683  0.2023  0.4431 -0.3711
  135TMC2    O5 2111   2.231   3.742   9.779  0.1006  0.2161 -0.4374
  135TMC2    H5 2112   2.292   3.668   9.800 -1.3616 -1.8060 -3.1459
  136MPD2     C 2113   2.975   4.157   9.580 -0.1866  0.3878  0.2596
  136MPD2    C1 2114   2.923   4.065   9.491 -0.2317 -0.1244  0.2553
  136MPD2    C2 2115   2.990   4.045   9.369 -0.7066 -0.4266 -0.6087
  136MPD2    C3 2116   3.091   4.132   9.322  0.8386 -0.0949  1.3102
  136MPD2    C4 2117   3.144   4.219   9.415 -0.6569 -0.1030 -0.1866
  136MPD2    C5 2118   3.080   4.238   9.539  0.4032  0.0564  0.0376
  136MPD2     H 2119   2.956   3.969   9.300  0.5071 -0.0356 -1.6415
  136MPD2    H1 2120   3.225   4.287   9.389 -0.8470 -0.2634 -1.1810
  136MPD2    H2 2121   2.935   4.170   9.680  2.1061  0.4944  1.1564
  136MPD2    H3 2122   3.112   4.313   9.610  2.9901 -0.0778 -0.9813
  136MPD2     N 2123   3.143   4.116   9.191 -0.1030 -0.4936 -0.1879
  136MPD2    H5 2124   3.232   4.160   9.169 -0.1520  0.0067  0.6270
  136MPD2    N1 2125   2.811   3.986   9.513  0.5652 -0.4850 -0.5088
  136MPD2    H7 2126   2.772   3.923   9.444 -1.7549 -0.1500  0.4809
  137TMC2    C1 2127   2.395   3.157   9.149  0.4724 -0.0143  0.6153
  137TMC2    C2 2128   2.494   3.217   9.079  0.2339 -0.0674  0.3209
  137TMC2    C3 2129   2.532   3.344   9.117 -0.6517 -0.2501 -0.4131
  137TMC2    C4 2130   2.326   3.221   9.248  0.8366 -0.3412  0.1307
  137TMC2    C5 2131   2.365   3.351   9.275 -0.3386  0.1448  1.0216
  137TMC2    C6 2132   2.470   3.414   9.214 -0.2432  0.2710  0.1938
  137TMC2     C 2133   2.387   3.015   9.155  0.3903  0.8322 -0.0523
  137TMC2     O 2134   2.366   2.958   9.262  0.2402 -0.6771  0.4881
  137TMC2     H 2135   2.557   3.150   9.021  0.6621  1.0520 -0.5122
  137TMC2    H1 2136   2.244   3.170   9.297  0.5570 -0.2283 -0.2176
  137TMC2    H2 2137   2.515   3.506   9.251 -1.2558  1.5108 -1.6299
  137TMC2    C7 2138   2.286   3.438   9.361  1.0234 -0.1553 -0.1281
  137TMC2    C8 2139   2.657   3.398   9.059  0.1137 -0.1322  1.0506
  137TMC2    O1 2140   2.302   3.558   9.343  0.0170  0.0913 -0.2685
  137TMC2    O2 2141   2.738   3.452   9.130  0.0826  0.1180 -0.3073
  137TMC2    O5 2142   2.671   3.339   8.936 -0.7325 -0.0157  0.0438
  137TMC2    H5 2143   2.580   3.330   8.900 -0.9202  0.5007  0.3896
  138MPD2     C 2144   2.428   2.779   8.874 -0.4283 -0.2806 -0.4295
  138MPD2    C1 2145   2.421   2.814   9.013  0.2896  0.2178  0.1122
  138MPD2    C2 2146   2.444   2.722   9.112 -0.5011  0.1043 -0.0226
  138MPD2    C3 2147   2.477   2.590   9.073  0.6934 -0.2082  0.3873
  138MPD2    C4 2148   2.488   2.556   8.938 -0.0822  0.6766 -0.1242
  138MPD2    C5 2149   2.463   2.652   8.847 -0.1738  0.1936  0.1960
  138MPD2     H 2150   2.447   2.748   9.217  1.3720 -0.5439  0.0886
  138MPD2    H1 2151   2.530   2.459   8.913 -3.2842 -1.4366  2.6785
  138MPD2    H2 2152   2.426   2.851   8.793  0.2097 -0.3091 -0.4707
  138MPD2    H3 2153   2.476   2.630   8.741  2.7338 -1.6346  0.9230
  138MPD2     N 2154   2.488   2.489   9.172 -0.0482 -0.6629 -0.1328
  138MPD2    H5 2155   2.473   2.513   9.270  0.6161  0.0050 -0.1918
  138MPD2    N1 2156   2.405   2.958   9.029  0.1075 -0.8253 -0.0594
  138MPD2    H7 2157   2.415   3.022   8.950 -0.0247  1.3111  1.6480
  139TMC2    C1 2158   3.706   0.595  13.646  0.2877  0.7546 -0.0804
  139TMC2    C2 2159   3.760   0.687  13.563  0.2575  0.3384  0.3083
  139TMC2    C3 2160   3.686   0.795  13.528  0.5579  0.4758  0.1193
  139TMC2    C4 2161   3.568   0.594  13.666 -0.0803  0.9774 -0.8844
  139TMC2    C5 2162   3.496   0.702  13.615  0.1428  0.1719 -0.2092
  139TMC2    C6 2163   3.556   0.808  13.550 -0.1637 -0.5652  0.6117
  139TMC2     C 2164   3.797   0.483  13.680 -0.0256 -0.3441 -0.2793
  139TMC2     O 2165   3.909   0.489  13.630  0.5680 -0.0298  0.1811
  139TMC2     H 2166   3.862   0.673  13.530  0.2341  0.3954  0.2092
  139TMC2    H1 2167   3.514   0.524  13.730  4.6461 -2.4702 -0.6358
  139TMC2    H2 2168   3.509   0.899  13.514 -0.4786 -0.1713  1.9815
  139TMC2    C7 2169   3.349   0.718  13.642  0.1714 -0.2003  0.5648
  139TMC2    C8 2170   3.746   0.905  13.452  0.1908  0.7368 -0.0880
  139TMC2    O1 2171   3.301   0.828  13.625 -0.2422 -0.4354  0.1539
  139TMC2    O2 2172   3.678   0.958  13.359 -0.3085 -0.4589  0.7171
  139TMC2    O5 2173   3.876   0.875  13.443  0.5399  0.5830 -0.6180
  139TMC2    H5 2174   3.908   0.849  13.532 -1.2566  0.6202  0.0419
  140MPD2     C 2175   3.702   0.138  13.790 -0.4733 -0.3553 -0.0715
  140MPD2    C1 2176   3.786   0.238  13.742 -0.2155  1.9359  0.7515
  140MPD2    C2 2177   3.914   0.204  13.702 -0.6442  0.1634 -0.0953
  140MPD2    C3 2178   3.968   0.076  13.712  0.2720  0.3137  0.5733
  140MPD2    C4 2179   3.891   4.716  13.765 -0.4132  0.1201 -0.2120
  140MPD2    C5 2180   3.756   0.013  13.797  0.2860  0.3173 -0.2107
  140MPD2     H 2181   3.980   0.280  13.660 -1.0112  0.3478 -0.3373
  140MPD2    H1 2182   3.919   4.613  13.781 -0.3106 -0.0246 -1.3365
  140MPD2    H2 2183   3.596   0.146  13.811 -0.6198 -2.0918 -0.1595
  140MPD2    H3 2184   3.686   4.671  13.818  1.5830 -0.3656  1.4773
  140MPD2     N 2185   4.095   0.056  13.645 -0.8524  0.8119  0.0726
  140MPD2    H5 2186   4.140   0.139  13.607 -0.8457  0.5063 -0.5778
  140MPD2    N1 2187   3.733   0.371  13.731  0.2966  0.4260 -0.3106
  140MPD2    H7 2188   3.633   0.371  13.750 -0.1265 -0.3401 -2.4850
  141TMC2    C1 2189   4.025   2.874  15.033  0.8814  0.9452  0.1023
  141TMC2    C2 2190   3.915   2.849  15.109 -0.2250  0.3178  0.3961
  141TMC2    C3 2191   3.870   2.947  15.187 -0.3216 -0.5994  0.6344
  141TMC2    C4 2192   4.076   2.996  15.012  0.1521 -0.3530  0.6498
  141TMC2    C5 2193   4.023   3.097  15.090 -0.4386 -0.6289  0.2148
  141TMC2    C6 2194   3.924   3.071  15.181 -0.0567  0.0091  0.5151
  141TMC2     C 2195   4.039   2.785  14.924 -0.0867  0.2816 -0.1671
  141TMC2     O 2196   4.044   2.831  14.812  0.2248  0.1449  0.0926
  141TMC2     H 2197   3.879   2.748  15.128 -1.8579  0.7152 -0.6715
  141TMC2    H1 2198   4.137   3.008  14.923 -0.6513 -0.1565  0.1254
  141TMC2    H2 2199   3.889   3.150  15.247 -0.6138 -0.5127  0.8396
  141TMC2    C7 2200   4.084   3.229  15.089  0.1798  0.2224 -0.2009
  141TMC2    C8 2201   3.764   2.919  15.270  0.4885 -0.1204  0.7116
  141TMC2    O1 2202   4.020   3.331  15.122  0.1014  0.8799  0.4023
  141TMC2    O2 2203   3.744   2.977  15.376 -0.1679  0.2213 -0.0275
  141TMC2    O5 2204   3.660   2.905  15.188  0.4473 -0.6534  0.4338
  141TMC2    H5 2205   3.682   2.892  15.093  0.2453 -0.7946  0.4061
  142TMC2    C1 2206   1.718   1.046   9.520 -0.5525 -0.1697 -0.1865
  142TMC2    C2 2207   1.701   1.042   9.385  0.5602  0.1596  0.0570
  142TMC2    C3 2208   1.729   1.156   9.311 -0.3546  0.3214  0.8803
  142TMC2    C4 2209   1.755   1.163   9.580 -1.1609  0.3948 -0.2719
  142TMC2    C5 2210   1.784   1.280   9.503 -0.9873 -0.1865 -0.4523
  142TMC2    C6 2211   1.768   1.275   9.367 -0.4975 -1.2165  0.3865
  142TMC2     C 2212   1.689   0.923   9.597  0.0198  0.7792  0.3564
  142TMC2     O 2213   1.609   0.848   9.549 -0.1324  0.1969  0.4367
  142TMC2     H 2214   1.659   0.952   9.342  0.3644  1.2452 -2.0479
  142TMC2    H1 2215   1.751   1.177   9.687 -1.9294 -2.9480  0.1479
  142TMC2    H2 2216   1.780   1.358   9.298 -0.1620 -2.1329 -0.6431
  142TMC2    C7 2217   1.818   1.401   9.573  0.6970 -0.0547 -0.1974
  142TMC2    C8 2218   1.742   1.141   9.166 -0.0685  1.3411  0.1585
  142TMC2    O1 2219   1.823   1.389   9.695 -0.2480  0.6225  0.0064
  142TMC2    O2 2220   1.743   1.237   9.089  0.1566 -0.4090 -0.1893
  142TMC2    O5 2221   1.836   1.048   9.155 -0.0592 -0.6270 -0.5099
  142TMC2    H5 2222   1.842   0.987   9.231 -0.1511 -0.2191 -0.1692
  143MPD2     C 2223   1.582   0.753  10.081  0.9790  0.1398 -0.2481
  143MPD2    C1 2224   1.514   0.734   9.961  0.1543 -0.3347 -0.0985
  143MPD2    C2 2225   1.559   0.795   9.838  0.1125 -0.0507  0.0191
  143MPD2    C3 2226   1.690   0.854   9.834  0.5444  0.1928 -0.3533
  143MPD2    C4 2227   1.749   0.872   9.960  0.5200  0.3271  0.2058
  143MPD2    C5 2228   1.703   0.818  10.074  0.0997 -0.4057  0.2244
  143MPD2     H 2229   1.496   0.804   9.750 -0.7852 -0.5854  0.6176
  143MPD2    H1 2230   1.822   0.952   9.962  1.6340 -0.7039  0.6756
  143MPD2    H2 2231   1.540   0.710  10.171 -2.2182  2.4212 -0.6310
  143MPD2    H3 2232   1.756   0.851  10.163  2.9256 -1.0134 -1.2343
  143MPD2     N 2233   1.741   0.925   9.726 -0.1812  0.4157  0.2727
  143MPD2    H5 2234   1.823   0.981   9.747  0.0550 -0.0391  0.5578
  143MPD2    N1 2235   1.392   0.668   9.982  0.0028  0.6612 -0.6175
  143MPD2    H7 2236   1.377   0.623  10.072  1.3505 -1.1466 -1.2851
  144TMC2    C1 2237   0.535   4.682   0.492 -0.1332  0.2893  0.3188
  144TMC2    C2 2238   0.570   4.557   0.440 -1.5016 -0.1734  0.0030
  144TMC2    C3 2239   0.701   4.515   0.430  0.1752  0.0656  0.2940
  144TMC2    C4 2240   0.628   0.024   0.548 -0.7339  0.6365  0.1236
  144TMC2    C5 2241   0.758   4.712   0.542 -0.0144 -0.5678 -0.0331
  144TMC2    C6 2242   0.796   4.595   0.486 -0.4127 -0.4105 -0.8856
  144TMC2     C 2243   0.402   4.733   0.463  0.0476 -0.7657 -0.8764
  144TMC2     O 2244   0.317   4.645   0.424  0.0113  0.2127  0.5266
  144TMC2     H 2245   0.487   4.496   0.405  0.3372 -2.1115 -1.0536
  144TMC2    H1 2246   0.602   0.109   0.610 -2.3090 -0.4021  0.8749
  144TMC2    H2 2247   0.899   4.572   0.463  0.0675  0.3734  0.4850
  144TMC2    C7 2248   0.859   0.041   0.622 -0.9802 -0.9752  0.1702
  144TMC2    C8 2249   0.742   4.383   0.402 -0.1104  0.5651 -0.3475
  144TMC2    O1 2250   0.943   4.699   0.662  0.4086 -0.3118  0.0312
  144TMC2    O2 2251   0.848   4.345   0.449  0.1035  0.6047 -0.3255
  144TMC2    O5 2252   0.631   4.309   0.378  0.3806  0.5254 -0.0779
  144TMC2    H5 2253   0.562   4.359   0.329  2.3919  2.3327 -1.0323
  145MPD2     C 2254   0.099   0.399   0.315  0.7248 -1.1541  0.4190
  145MPD2    C1 2255   0.082   0.263   0.316  0.3390  0.7259 -0.2881
  145MPD2    C2 2256   0.185   0.176   0.360  0.4514  0.0157  0.0215
  145MPD2    C3 2257   0.305   0.225   0.410 -0.2088  0.5116  0.3956
  145MPD2    C4 2258   0.320   0.368   0.406 -0.7029 -0.3817 -0.5874
  145MPD2    C5 2259   0.218   0.448   0.363  0.6710 -0.3699  0.3306
  145MPD2     H 2260   0.171   0.069   0.356 -0.5442  0.1942 -1.3306
  145MPD2    H1 2261   0.413   0.417   0.431  0.6169 -2.8982 -0.5772
  145MPD2    H2 2262   0.036   0.483   0.289  2.2427 -0.4903 -1.1292
  145MPD2    H3 2263   0.236   0.555   0.371  0.7970 -0.2019 -2.1031
  145MPD2     N 2264   0.404   0.138   0.463 -0.0153  0.2832 -0.1810
  145MPD2    H5 2265   0.489   0.188   0.486  0.8215 -2.6458  3.1516
  145MPD2    N1 2266   4.699   0.201   0.279 -0.4663  0.2021 -0.6112
  145MPD2    H7 2267   4.692   0.102   0.297 -0.9357  0.3357 -0.0621
  146TMC2    C1 2268   1.740   3.586  12.461  0.3237 -0.7482 -0.1100
  146TMC2    C2 2269   1.698   3.638  12.340  0.2776  0.4310  0.5911
  146TMC2    C3 2270   1.749   3.571  12.231  0.0018  0.1072 -0.1705
  146TMC2    C4 2271   1.824   3.478  12.472  0.5797  0.4949 -0.8468
  146TMC2    C5 2272   1.855   3.409  12.359 -0.2321 -0.2389 -0.0280
  146TMC2    C6 2273   1.828   3.460  12.239  0.3444 -0.1297 -0.1748
  146TMC2     C 2274   1.670   3.642  12.584  0.1022 -0.3761 -0.0735
  146TMC2     O 2275   1.603   3.746  12.577  0.3840 -0.2260 -0.2738
  146TMC2     H 2276   1.637   3.726  12.326 -0.3690  0.2012  1.9298
  146TMC2    H1 2277   1.863   3.449  12.568  1.7490  2.2534 -0.7940
  146TMC2    H2 2278   1.859   3.412  12.148  0.9295  1.7888 -0.9820
  146TMC2    C7 2279   1.936   3.291  12.362 -0.4596 -0.0125  0.3098
  146TMC2    C8 2280   1.732   3.644  12.107  0.3231  0.4502  0.3115
  146TMC2    O1 2281   1.978   3.264  12.248  0.2589  0.0011  0.2246
  146TMC2    O2 2282   1.720   3.765  12.093  0.9238  0.6739  0.1967
  146TMC2    O5 2283   1.742   3.559  12.006  0.4689 -1.0027  0.4639
  146TMC2    H5 2284   1.741   3.462  12.019  2.3114 -0.9798  0.7700
  147MPD2     C 2285   2.223   2.922  12.583 -0.8303 -0.4910 -0.0873
  147MPD2    C1 2286   2.161   2.991  12.686 -0.7474  0.1760 -0.7669
  147MPD2    C2 2287   2.080   3.099  12.651  0.6048  0.2111 -0.1222
  147MPD2    C3 2288   2.060   3.141  12.518 -0.6799 -0.6054  0.3772
  147MPD2    C4 2289   2.111   3.061  12.422 -0.7436 -0.5671 -0.0510
  147MPD2    C5 2290   2.200   2.959  12.455  0.0150  0.2491 -0.1740
  147MPD2     H 2291   2.031   3.154  12.730 -0.0831 -0.6438  0.0574
  147MPD2    H1 2292   2.089   3.086  12.319 -4.7196 -2.0574  0.4174
  147MPD2    H2 2293   2.282   2.835  12.609 -1.4255 -0.8162  0.1551
  147MPD2    H3 2294   2.246   2.903  12.374  1.7911 -1.0672  1.7567
  147MPD2     N 2295   1.972   3.251  12.486  0.5054  0.0708 -0.2669
  147MPD2    H5 2296   1.944   3.298  12.572  0.4334 -1.7627  0.7104
  147MPD2    N1 2297   2.180   2.934  12.811 -0.2690 -0.0050 -0.6475
  147MPD2    H7 2298   2.249   2.861  12.827 -1.2565 -0.7027  0.4206
  148TMC2    C1 2299   1.162   2.384  10.524 -0.3110  0.7278 -0.7682
  148TMC2    C2 2300   1.126   2.452  10.641  0.5169 -0.7901  0.4451
  148TMC2    C3 2301   1.177   2.407  10.757  0.3787  0.3743 -0.1489
  148TMC2    C4 2302   1.236   2.266  10.526 -0.4991 -0.7050 -0.0203
  148TMC2    C5 2303   1.287   2.227  10.647 -0.4636  0.4243 -0.2319
  148TMC2    C6 2304   1.254   2.286  10.765 -0.0477  0.1574 -1.0681
  148TMC2     C 2305   1.093   2.417  10.402  0.2003  0.7826 -0.2724
  148TMC2     O 2306   1.010   2.510  10.416  0.5381 -0.0906 -0.0277
  148TMC2     H 2307   1.069   2.544  10.629  0.5757 -0.9770 -1.3249
  148TMC2    H1 2308   1.285   2.231  10.436 -0.0461  0.5501 -0.2590
  148TMC2    H2 2309   1.311   2.271  10.856 -1.3728  0.5850 -0.1600
  148TMC2    C7 2310   1.359   2.101  10.637  0.8167  0.2207 -0.0495
  148TMC2    C8 2311   1.125   2.460  10.878 -0.2374 -0.3687 -0.1898
  148TMC2    O1 2312   1.404   2.075  10.527  0.3779 -0.4520 -0.1187
  148TMC2    O2 2313   1.192   2.525  10.953 -0.0126  0.0208 -0.0350
  148TMC2    O5 2314   0.995   2.483  10.851  0.1242 -0.2166 -0.5399
  148TMC2    H5 2315   0.962   2.415  10.787  0.8355 -1.0481 -0.0220
  149MPD2     C 2316   0.951   2.402  10.151 -0.4107 -0.1590 -0.2181
  149MPD2    C1 2317   0.996   2.290  10.215  0.8403  0.7460 -0.3399
  149MPD2    C2 2318   0.978   2.163  10.160  0.0380 -0.2914 -0.5323
  149MPD2    C3 2319   0.896   2.153  10.043 -0.0345  0.5587 -0.7902
  149MPD2    C4 2320   0.866   2.268   9.974 -0.2989 -0.1783  0.0701
  149MPD2    C5 2321   0.899   2.390  10.027 -0.2897 -0.1696  0.1622
  149MPD2     H 2322   1.007   2.071  10.210 -2.2081 -0.5572  0.2858
  149MPD2    H1 2323   0.815   2.274   9.879 -0.7440 -0.9553  0.2548
  149MPD2    H2 2324   0.973   2.503  10.185  1.7897 -0.9267  0.6553
  149MPD2    H3 2325   0.873   2.477   9.969 -1.4502  0.4535  1.6115
  149MPD2     N 2326   0.859   2.026   9.998 -0.2253 -0.1205 -0.3989
  149MPD2    H5 2327   0.823   2.032   9.903 -1.1355  1.6466  0.0578
  149MPD2    N1 2328   1.074   2.301  10.331 -0.6407  0.1582 -0.4486
  149MPD2    H7 2329   1.131   2.221  10.357 -2.0156 -0.9282 -0.8101
  150TMC2    C1 2330   3.515   1.326  12.351  0.6876 -0.9093  0.0037
  150TMC2    C2 2331   3.481   1.396  12.241  0.2937  0.2432 -0.2460
  150TMC2    C3 2332   3.591   1.435  12.172 -0.0874  0.3256 -0.2988
  150TMC2    C4 2333   3.629   1.265  12.384 -0.1740  0.5987 -0.2160
  150TMC2    C5 2334   3.735   1.302  12.303  0.1251 -0.6451  0.0944
  150TMC2    C6 2335   3.715   1.392  12.207 -0.2700 -0.7334  0.1480
  150TMC2     C 2336   3.407   1.282  12.438 -0.9591 -0.0177  0.7226
  150TMC2     O 2337   3.411   1.305  12.559  0.0104  0.0427 -0.5944
  150TMC2     H 2338   3.387   1.446  12.220 -0.1654 -0.4806  0.1059
  150TMC2    H1 2339   3.637   1.206  12.474 -1.8562 -0.5377 -0.8131
  150TMC2    H2 2340   3.798   1.432  12.149 -1.4820  0.5228 -0.7325
  150TMC2    C7 2341   3.871   1.263  12.324  0.2463  0.1985 -0.2869
  150TMC2    C8 2342   3.584   1.534  12.070 -0.0472  0.3899 -0.4825
  150TMC2    O1 2343   3.955   1.320  12.259  0.2425  0.4256 -0.1269
  150TMC2    O2 2344   3.682   1.600  12.030  0.4372  0.3211 -0.5399
  150TMC2    O5 2345   3.469   1.503  12.006 -0.2991  0.3641 -0.1368
  150TMC2    H5 2346   3.425   1.422  12.038 -0.8235  0.9825  0.7001
  151MPD2     C 2347   2.941   1.097  12.524 -0.6743  0.2510  0.0899
  151MPD2    C1 2348   2.950   1.136  12.395 -0.1472  0.0299 -0.2160
  151MPD2    C2 2349   3.069   1.178  12.335 -0.0699 -0.2417 -0.0531
  151MPD2    C3 2350   3.181   1.184  12.416 -0.4310  0.0020  0.6084
  151MPD2    C4 2351   3.160   1.137  12.551  0.3538 -0.5961 -0.3232
  151MPD2    C5 2352   3.047   1.090  12.601  0.6032  0.1106  0.6234
  151MPD2     H 2353   3.086   1.217  12.235 -0.1574  1.1526  0.4654
  151MPD2    H1 2354   3.246   1.148  12.615  0.8354  0.4187 -1.1471
  151MPD2    H2 2355   2.842   1.089  12.568 -0.1906  0.2825  1.1921
  151MPD2    H3 2356   3.032   1.062  12.704  0.2149 -0.9641  0.2788
  151MPD2     N 2357   3.300   1.235  12.360  0.0544  0.4613 -0.3554
  151MPD2    H5 2358   3.311   1.243  12.260 -0.2605  1.0640 -0.3449
  151MPD2    N1 2359   2.823   1.143  12.333 -0.1782 -0.2772  0.0358
  151MPD2    H7 2360   2.740   1.107  12.378 -0.2713  0.0104  0.0944
  152TMC2    C1 2361   3.288   0.685  12.941  0.0399 -0.2045  1.0142
  152TMC2    C2 2362   3.325   0.555  12.919  0.4929  0.8462 -0.3280
  152TMC2    C3 2363   3.459   0.526  12.909  0.6929 -0.9651  0.0850
  152TMC2    C4 2364   3.388   0.782  12.950  0.1614  0.5007 -0.2230
  152TMC2    C5 2365   3.514   0.743  12.964 -0.5683  0.7224 -0.3971
  152TMC2    C6 2366   3.558   0.617  12.937  0.1453 -0.4831 -0.8537
  152TMC2     C 2367   3.146   0.720  12.952 -0.2706 -0.3961  0.8188
  152TMC2     O 2368   3.126   0.839  12.934 -0.1600 -0.1301 -0.0221
  152TMC2     H 2369   3.261   0.470  12.898  2.1671 -0.4128 -0.3336
  152TMC2    H1 2370   3.350   0.875  12.990  0.7090  1.7394 -2.5932
  152TMC2    H2 2371   3.663   0.594  12.942  0.4680  1.3864  1.1323
  152TMC2    C7 2372   3.616   0.849  12.970 -0.6326 -0.4042 -0.7837
  152TMC2    C8 2373   3.501   0.395  12.870 -0.0027 -0.6170  0.6678
  152TMC2    O1 2374   3.728   0.815  13.000  0.2531 -0.1611 -0.1936
  152TMC2    O2 2375   3.448   0.292  12.916 -1.0715 -0.4017 -0.2230
  152TMC2    O5 2376   3.578   0.402  12.758 -0.0661  0.0095 -0.2274
  152TMC2    H5 2377   3.608   0.494  12.746  0.1518 -0.1457 -0.8911
  153MPD2     C 2378   2.868   0.513  13.051 -0.2821  1.1014  0.6060
  153MPD2    C1 2379   2.927   0.628  13.006  0.1849 -0.2356 -0.1384
  153MPD2    C2 2380   2.846   0.739  12.977 -0.3536 -0.5891 -0.3944
  153MPD2    C3 2381   2.707   0.728  12.977  0.2947  0.4197 -0.1351
  153MPD2    C4 2382   2.655   0.601  13.000  0.2878  0.7034  0.2680
  153MPD2    C5 2383   2.736   0.504  13.044  0.5228  0.1645  0.1589
  153MPD2     H 2384   2.901   0.827  12.946 -0.0333 -0.1789  1.3046
  153MPD2    H1 2385   2.548   0.586  12.989 -0.0447  2.6780  0.8090
  153MPD2    H2 2386   2.918   0.424  13.086 -3.3287 -0.9755 -0.2554
  153MPD2    H3 2387   2.689   0.411  13.075 -2.3372  1.7373  0.5204
  153MPD2     N 2388   2.638   0.843  12.928  0.5651 -0.2092  0.4286
  153MPD2    H5 2389   2.682   0.935  12.921  1.0328 -0.5741 -1.3924
  153MPD2    N1 2390   3.066   0.627  12.993 -0.4937 -0.0823  0.0526
  153MPD2    H7 2391   3.103   0.534  13.010 -1.4155 -0.9684 -2.9176
  154TMC2    C1 2392   0.240   1.762   0.255  0.8374 -0.5886 -0.0084
  154TMC2    C2 2393   0.337   1.728   0.343 -0.8107 -0.0399 -0.2014
  154TMC2    C3 2394   0.411   1.615   0.311  0.2580  0.6009  0.0424
  154TMC2    C4 2395   0.221   1.695   0.141 -0.6140  0.0865 -0.1823
  154TMC2    C5 2396   0.291   1.580   0.118 -0.2853  0.1687  0.1715
  154TMC2    C6 2397   0.388   1.535   0.202  0.6811 -0.3278 -0.0165
  154TMC2     C 2398   0.175   1.888   0.287  0.4107  0.6529 -0.3788
  154TMC2     O 2399   0.207   1.957   0.381 -0.5773  0.0713 -0.1115
  154TMC2     H 2400   0.359   1.793   0.427  0.5288  0.1802 -0.7193
  154TMC2    H1 2401   0.145   1.731   0.072 -1.1387 -0.6920 -0.0197
  154TMC2    H2 2402   0.454   1.456   0.167  1.6326  0.2722  0.4376
  154TMC2    C7 2403   0.245   1.484   0.023  0.1344  0.0049 -0.0447
  154TMC2    C8 2404   0.545   1.613   0.362 -0.2310 -0.2287 -0.1315
  154TMC2    O1 2405   0.286   1.371   0.036 -0.3702  0.4631  0.1701
  154TMC2    O2 2406   0.587   1.537   0.452 -0.1407 -0.1303 -0.0128
  154TMC2    O5 2407   0.609   1.719   0.307  0.1015  0.6685 -0.2225
  154TMC2    H5 2408   0.556   1.748   0.229 -2.5790 -3.1539  0.1661
  155MPD2     C 2409   4.667   2.090   0.106  0.3400 -0.2166  0.5196
  155MPD2    C1 2410   4.727   2.037   0.213  0.5606  0.2696 -0.2589
  155MPD2    C2 2411   4.682   2.072   0.341 -0.0084 -0.1973  0.6410
  155MPD2    C3 2412   4.574   2.163   0.351 -0.5712  0.0266 -0.0965
  155MPD2    C4 2413   4.524   2.223   0.238 -0.2764  0.3304 -0.2384
  155MPD2    C5 2414   4.573   2.183   0.118  0.2605  0.0650  0.7306
  155MPD2     H 2415   4.726   2.029   0.430  1.9448  2.1231  0.7986
  155MPD2    H1 2416   4.439   2.289   0.240  1.0277  1.9848  0.8281
  155MPD2    H2 2417   4.706   2.066   0.007  1.4930  3.4309  0.0689
  155MPD2    H3 2418   4.518   2.217   0.031 -0.6138  2.3803  2.1855
  155MPD2     N 2419   4.528   2.199   0.480  0.4006  0.1819 -0.1670
  155MPD2    H5 2420   4.553   2.146   0.563 -0.8643 -2.8709 -1.7714
  155MPD2    N1 2421   0.080   1.933   0.195  0.1047 -0.1460 -0.7780
  155MPD2    H7 2422   0.076   1.888   0.105 -0.9642  0.0491 -0.8337
  156TMC2    C1 2423   3.224   3.308  11.511  0.1578 -0.4939 -0.1887
  156TMC2    C2 2424   3.239   3.261  11.385 -0.3994  0.3387 -0.3132
  156TMC2    C3 2425   3.178   3.332  11.281  0.8566 -0.4306  0.0976
  156TMC2    C4 2426   3.126   3.403  11.536 -0.2961 -0.7138  0.1680
  156TMC2    C5 2427   3.060   3.459  11.431  0.3506  0.1823  0.3356
  156TMC2    C6 2428   3.090   3.437  11.301 -0.2384  0.0580 -0.4992
  156TMC2     C 2429   3.314   3.265  11.621  1.0222 -0.0781 -0.1732
  156TMC2     O 2430   3.274   3.304  11.732 -0.0160 -0.3722  0.2376
  156TMC2     H 2431   3.301   3.174  11.365  0.7308  0.8301  1.1294
  156TMC2    H1 2432   3.100   3.430  11.637  2.4104  1.4974  0.2692
  156TMC2    H2 2433   3.055   3.501  11.221 -0.5421  1.8071  1.0624
  156TMC2    C7 2434   2.985   3.578  11.456 -0.7590  0.5625  0.4884
  156TMC2    C8 2435   3.207   3.303  11.140 -0.2315 -0.3189  0.2339
  156TMC2    O1 2436   2.955   3.650  11.363  0.5877 -0.1672 -0.2939
  156TMC2    O2 2437   3.133   3.335  11.046  0.6719 -0.0894 -0.1154
  156TMC2    O5 2438   3.343   3.293  11.135 -0.4684 -0.1101 -0.0719
  156TMC2    H5 2439   3.387   3.270  11.220  0.6816 -0.6817 -0.8246
  157MPD2     C 2440   3.614   3.073  11.635  0.3758  0.4827  0.0542
  157MPD2    C1 2441   3.527   3.165  11.680 -0.1585  0.4049  0.1575
  157MPD2    C2 2442   3.545   3.226  11.804  0.1412  0.8033  0.1385
  157MPD2    C3 2443   3.663   3.215  11.871  1.0364 -0.4488  0.6205
  157MPD2    C4 2444   3.746   3.108  11.834  0.5164 -0.2399 -0.0270
  157MPD2    C5 2445   3.722   3.041  11.717 -0.1811  0.1171 -0.0568
  157MPD2     H 2446   3.468   3.292  11.841 -1.4505 -1.0434  0.1474
  157MPD2    H1 2447   3.841   3.091  11.884  1.3066 -2.9663 -2.4450
  157MPD2    H2 2448   3.605   3.017  11.542 -3.0756  0.5452  0.3710
  157MPD2    H3 2449   3.793   2.969  11.679  0.4803  1.0100 -0.5044
  157MPD2     N 2450   3.693   3.315  11.967 -0.6913 -0.8891 -0.1832
  157MPD2    H5 2451   3.628   3.388  11.995 -0.0767 -0.8664  1.2326
  157MPD2    N1 2452   3.422   3.194  11.589  0.5762  0.6368  0.7752
  157MPD2    H7 2453   3.429   3.148  11.499 -0.9802  2.9245 -0.4994
  158TMC2    C1 2454   3.582   1.657  13.485 -0.0803 -0.2695 -0.6374
  158TMC2    C2 2455   3.636   1.721  13.377  0.3481  0.9232  0.0202
  158TMC2    C3 2456   3.538   1.776  13.292 -0.3539 -0.3754 -0.2323
  158TMC2    C4 2457   3.451   1.630  13.521 -0.0600  0.1679 -0.3431
  158TMC2    C5 2458   3.366   1.690  13.429 -0.2352 -0.1678  0.5636
  158TMC2    C6 2459   3.405   1.761  13.321  0.6251  0.1630 -0.5417
  158TMC2     C 2460   3.692   1.616  13.573 -0.3322 -0.1102  0.3473
  158TMC2     O 2461   3.791   1.681  13.557 -0.1606 -0.3325 -0.8517
  158TMC2     H 2462   3.740   1.722  13.347  0.5942  1.5560  0.8990
  158TMC2    H1 2463   3.412   1.574  13.605  0.7142 -1.0758 -0.8078
  158TMC2    H2 2464   3.333   1.823  13.268 -0.7704 -1.1880 -0.2021
  158TMC2    C7 2465   3.232   1.717  13.467  0.3703  0.1880  0.5101
  158TMC2    C8 2466   3.569   1.904  13.229  0.7591  0.1903 -0.2868
  158TMC2    O1 2467   3.196   1.832  13.459 -0.3288 -0.2307 -0.1383
  158TMC2    O2 2468   3.667   1.975  13.254 -0.1576 -0.2396  0.0096
  158TMC2    O5 2469   3.486   1.923  13.123  0.0698 -0.1170 -0.0644
  158TMC2    H5 2470   3.444   1.840  13.092 -1.1519  0.8708 -1.0394
  159MPD2     C 2471   3.822   1.392  14.022 -1.1792 -0.6376 -0.0663
  159MPD2    C1 2472   3.691   1.364  13.995 -0.4961 -0.1528  0.1102
  159MPD2    C2 2473   3.640   1.402  13.872  0.6387 -0.5974  0.6165
  159MPD2    C3 2474   3.712   1.482  13.782 -0.4221 -0.1539  0.2629
  159MPD2    C4 2475   3.848   1.498  13.810 -0.3207  0.1820  0.4704
  159MPD2    C5 2476   3.900   1.450  13.922  0.3653  0.1860 -0.0335
  159MPD2     H 2477   3.537   1.376  13.848  0.0423  1.1080  1.3105
  159MPD2    H1 2478   3.919   1.552  13.748 -0.0042  0.5405  1.1402
  159MPD2    H2 2479   3.870   1.360  14.114  0.5253 -2.4511 -1.5977
  159MPD2    H3 2480   4.007   1.463  13.936  0.3043  0.2323  0.3845
  159MPD2     N 2481   3.648   1.532  13.667 -0.0833 -0.2672  0.2410
  159MPD2    H5 2482   3.549   1.508  13.664 -0.5792  1.8551 -0.7294
  159MPD2    N1 2483   3.615   1.300  14.100  0.5623  0.2083 -0.2007
  159MPD2    H7 2484   3.671   1.278  14.182 -1.0834 -1.5178  0.4705
  160TMC2    C1 2485   3.975   0.497   0.589 -0.5371  0.1603  0.5285
  160TMC2    C2 2486   3.936   0.369   0.563 -0.1092  0.2693  0.7650
  160TMC2    C3 2487   4.002   0.269   0.632 -0.9848  0.3285 -0.6258
  160TMC2    C4 2488   4.074   0.539   0.677  0.3400  0.0223  0.5631
  160TMC2    C5 2489   4.128   0.429   0.753  0.0868  0.0903  0.2481
  160TMC2    C6 2490   4.098   0.295   0.723  0.3684 -0.4063 -0.1646
  160TMC2     C 2491   3.887   0.598   0.529 -0.0225 -0.4125 -0.0543
  160TMC2     O 2492   3.770   0.568   0.505 -0.6668  0.0436 -0.0934
  160TMC2     H 2493   3.855   0.362   0.491  2.1037  0.0350 -1.7238
  160TMC2    H1 2494   4.095   0.639   0.712  0.0886  0.6834 -1.1420
  160TMC2    H2 2495   4.141   0.211   0.776 -1.7960 -1.2388  0.2927
  160TMC2    C7 2496   4.257   0.452   0.822 -0.0964  0.7409 -0.5241
  160TMC2    C8 2497   3.939   0.133   0.633  0.8016 -0.6329  0.1185
  160TMC2    O1 2498   4.297   0.353   0.882 -0.1654 -0.3715  0.0918
  160TMC2    O2 2499   3.948   0.058   0.727 -0.1896 -0.0966 -0.3991
  160TMC2    O5 2500   3.879   0.114   0.515 -0.4685  0.4575  0.5743
  160TMC2    H5 2501   3.902   0.185   0.453 -1.8661  0.2013 -0.2366
  161MPD2     C 2502   3.970   0.948   0.455  0.5543  0.5050 -0.0857
  161MPD2    C1 2503   3.886   0.841   0.464 -0.1017 -0.2783 -0.4203
  161MPD2    C2 2504   3.752   0.859   0.433 -0.3575 -0.5922 -0.6064
  161MPD2    C3 2505   3.701   0.987   0.402  0.6588  0.1454  0.2060
  161MPD2    C4 2506   3.790   1.098   0.401 -0.2544  0.9518  0.4037
  161MPD2    C5 2507   3.922   1.073   0.418 -0.8604 -0.1056  0.0961
  161MPD2     H 2508   3.683   0.775   0.439  0.3830 -1.1457  0.2585
  161MPD2    H1 2509   3.752   1.196   0.378  0.6290  1.0666 -0.5398
  161MPD2    H2 2510   4.075   0.925   0.464  0.1175 -1.5547 -0.1156
  161MPD2    H3 2511   3.996   1.153   0.414  0.8603 -1.7644 -0.9857
  161MPD2     N 2512   3.562   1.016   0.379  0.0830  0.1921  0.1171
  161MPD2    H5 2513   3.537   1.113   0.360  1.5390  0.6676  0.5845
  161MPD2    N1 2514   3.948   0.722   0.506 -0.3764 -0.1807 -0.1115
  161MPD2    H7 2515   4.049   0.730   0.518 -0.1895 -1.7404 -0.6604
  162TMC2    C1 2516   1.686   2.515   1.409 -0.7357  0.0653 -0.7390
  162TMC2    C2 2517   1.601   2.598   1.471 -0.1452 -0.4725 -0.5416
  162TMC2    C3 2518   1.649   2.642   1.595  0.2280  0.1116  0.1206
  162TMC2    C4 2519   1.806   2.468   1.460  0.2122  0.3970  0.1402
  162TMC2    C5 2520   1.850   2.517   1.581 -0.6527  0.3238  0.9064
  162TMC2    C6 2521   1.771   2.606   1.649  0.6873  0.0233  0.7892
  162TMC2     C 2522   1.648   2.468   1.284  0.5883  1.1191 -0.3129
  162TMC2     O 2523   1.741   2.448   1.206 -0.2000 -0.0550  0.5087
  162TMC2     H 2524   1.507   2.636   1.433  0.4544  1.8891  0.3654
  162TMC2    H1 2525   1.865   2.397   1.402 -0.9824 -0.1977 -0.3410
  162TMC2    H2 2526   1.793   2.638   1.750  0.3394  0.1865  0.8137
  162TMC2    C7 2527   1.961   2.461   1.653  0.1292  0.6403  0.0653
  162TMC2    C8 2528   1.587   2.770   1.640  0.8483 -0.2088  0.1160
  162TMC2    O1 2529   2.001   2.523   1.751  0.0840  0.3054 -0.0290
  162TMC2    O2 2530   1.544   2.860   1.570  0.1509  0.3967  0.5531
  162TMC2    O5 2531   1.588   2.776   1.772 -0.5282  0.1950  0.7075
  162TMC2    H5 2532   1.623   2.697   1.818  0.1290 -0.4663 -0.9550
  163MPD2     C 2533   1.291   2.269   0.975 -0.0636 -0.5367 -0.1661
  163MPD2    C1 2534   1.429   2.285   0.953 -0.7184  0.4098 -0.3261
  163MPD2    C2 2535   1.507   2.349   1.048  0.0041  0.1392 -0.0989
  163MPD2    C3 2536   1.446   2.386   1.168 -0.0976  0.2021  0.4975
  163MPD2    C4 2537   1.316   2.358   1.194 -0.0527  0.1689 -0.3391
  163MPD2    C5 2538   1.241   2.291   1.101 -0.4402 -0.1231 -0.1238
  163MPD2     H 2539   1.611   2.366   1.024 -0.1762 -0.0162 -0.9872
  163MPD2    H1 2540   1.287   2.376   1.297  2.4275 -1.6452  0.6682
  163MPD2    H2 2541   1.234   2.222   0.896 -0.1168 -0.7262 -0.0148
  163MPD2    H3 2542   1.138   2.277   1.131 -0.1233  1.4618  1.6822
  163MPD2     N 2543   1.518   2.443   1.282 -0.5250 -0.1393  0.3578
  163MPD2    H5 2544   1.469   2.451   1.371  1.9699  1.2307  1.6074
  163MPD2    N1 2545   1.472   2.246   0.825 -1.3082  0.4616  0.5099
  163MPD2    H7 2546   1.406   2.186   0.777 -0.8288 -0.0016  0.4341
  164TMC2    C1 2547   1.684   1.915  11.052  0.5892 -0.6442  0.0964
  164TMC2    C2 2548   1.750   1.985  10.949  0.1090  0.0695 -0.6113
  164TMC2    C3 2549   1.716   2.117  10.928 -0.0060  0.5007 -0.1938
  164TMC2    C4 2550   1.582   1.979  11.124 -0.2434 -0.5808  0.5438
  164TMC2    C5 2551   1.546   2.107  11.086  0.4438 -0.4701  0.4646
  164TMC2    C6 2552   1.613   2.185  10.999  0.5841 -0.0727 -0.0841
  164TMC2     C 2553   1.678   1.772  11.054 -0.4482  0.2912 -0.3140
  164TMC2     O 2554   1.607   1.718  11.140  0.1232  0.0538 -0.1833
  164TMC2     H 2555   1.825   1.935  10.888  0.5327  0.3802 -0.3442
  164TMC2    H1 2556   1.522   1.931  11.201 -0.5753  1.9630  1.8774
  164TMC2    H2 2557   1.570   2.282  10.974  2.5914  1.4186  2.2844
  164TMC2    C7 2558   1.414   2.151  11.119  0.2983  0.0572  0.0128
  164TMC2    C8 2559   1.760   2.186  10.812 -0.1964  0.7561  0.2111
  164TMC2    O1 2560   1.320   2.087  11.079 -0.3762  0.8566  0.0847
  164TMC2    O2 2561   1.727   2.300  10.790  0.0630 -0.2624  0.1855
  164TMC2    O5 2562   1.802   2.103  10.713  0.3884 -0.0735 -0.7884
  164TMC2    H5 2563   1.789   2.008  10.733 -1.3534 -0.5107 -3.9092
  165TMC2    C1 2564   4.354   4.095   0.562  0.0301  0.6023  0.5653
  165TMC2    C2 2565   4.409   4.037   0.448 -0.2222  1.1973  0.0591
  165TMC2    C3 2566   4.524   4.087   0.389 -0.1936  0.1976  0.2745
  165TMC2    C4 2567   4.419   4.201   0.617  0.9123 -0.2551 -0.1639
  165TMC2    C5 2568   4.519   4.260   0.548  0.7866  0.0571 -0.4454
  165TMC2    C6 2569   4.582   4.199   0.443 -0.0925  0.1874 -0.8128
  165TMC2     C 2570   4.205   4.102   0.576 -0.3307  0.0747 -0.3235
  165TMC2     O 2571   4.159   4.197   0.646 -0.8102  0.0576 -0.0899
  165TMC2     H 2572   4.374   3.943   0.406  0.2623  0.4131  1.3922
  165TMC2    H1 2573   4.377   4.262   0.696 -2.2815 -2.8288  0.1209
  165TMC2    H2 2574   4.662   4.244   0.386 -1.1756  2.5872 -0.4537
  165TMC2    C7 2575   4.508   4.405   0.540 -0.2558  0.1406 -0.5655
  165TMC2    C8 2576   4.572   4.054   0.257 -0.2519  0.1898 -0.6253
  165TMC2    O1 2577   4.615   4.469   0.538  0.3167 -0.9163 -0.4644
  165TMC2    O2 2578   4.686   4.087   0.226 -0.2276 -0.0701 -0.2677
  165TMC2    O5 2579   4.480   4.007   0.169  0.0889  0.5205 -0.9905
  165TMC2    H5 2580   4.386   4.008   0.196  0.3253  0.4449 -0.1499
  166MPD2     C 2581   3.736   4.006   0.413  0.6717 -0.3538  0.5916
  166MPD2    C1 2582   3.776   4.070   0.525 -0.3853 -0.0040  0.0681
  166MPD2    C2 2583   3.908   4.080   0.550 -0.7669  0.1958 -0.9461
  166MPD2    C3 2584   3.998   4.013   0.466  0.7405  0.1228 -0.3129
  166MPD2    C4 2585   3.959   3.935   0.356  0.0951 -0.2462 -0.3634
  166MPD2    C5 2586   3.827   3.940   0.333 -0.0579  0.2393  0.1512
  166MPD2     H 2587   3.943   4.140   0.634 -1.5324  1.7673 -1.7502
  166MPD2    H1 2588   4.024   3.878   0.290  2.5337  0.2852  1.6100
  166MPD2    H2 2589   3.635   4.002   0.373 -0.2757  0.6672  2.9090
  166MPD2    H3 2590   3.789   3.879   0.252 -1.2479  2.0829 -0.6962
  166MPD2     N 2591   4.139   4.024   0.487 -0.3454  0.6201 -0.2092
  166MPD2    H5 2592   4.191   3.966   0.424  0.9118  3.3746 -1.6878
  166MPD2    N1 2593   3.675   4.131   0.599  0.7306  0.6783  0.4269
  166MPD2    H7 2594   3.583   4.097   0.574  1.9950 -2.5232  0.1564
  167TMC2    C1 2595   1.123   1.715  13.024 -0.3763 -0.1416 -0.9722
  167TMC2    C2 2596   1.056   1.699  13.138  0.3690  0.4771  0.6975
  167TMC2    C3 2597   1.061   1.576  13.205 -0.5960 -0.5323  0.0945
  167TMC2    C4 2598   1.190   1.608  12.971  0.3861 -0.8677 -0.2612
  167TMC2    C5 2599   1.206   1.491  13.035  0.2767 -0.1311 -0.0283
  167TMC2    C6 2600   1.140   1.473  13.155 -0.0830 -0.1230  0.0843
  167TMC2     C 2601   1.115   1.847  12.967  0.2695  0.1901 -0.0735
  167TMC2     O 2602   1.014   1.914  12.991  0.0954  0.3237 -0.3235
  167TMC2     H 2603   1.004   1.785  13.179 -2.2677 -1.1981  0.8344
  167TMC2    H1 2604   1.233   1.626  12.873 -1.8652  0.7095 -0.9583
  167TMC2    H2 2605   1.152   1.383  13.215 -0.3335 -0.3591 -0.2178
  167TMC2    C7 2606   1.270   1.368  12.972 -0.0628 -0.4623  0.0450
  167TMC2    C8 2607   1.053   1.578  13.350 -0.4709 -0.4523 -0.3909
  167TMC2    O1 2608   1.238   1.261  13.028  0.2870  0.2072 -0.1689
  167TMC2    O2 2609   1.107   1.498  13.427  0.3199  0.1883 -0.2456
  167TMC2    O5 2610   0.988   1.691  13.392  0.6795 -0.1901 -0.0008
  167TMC2    H5 2611   0.939   1.741  13.322 -1.8859 -0.5441  1.5471
  168MPD2     C 2612   1.155   2.087  12.789 -0.3382 -1.1074  0.2914
  168MPD2    C1 2613   1.228   1.972  12.782  0.2684  0.4811 -0.3250
  168MPD2    C2 2614   1.320   1.956  12.681 -0.0657  0.1122 -0.0663
  168MPD2    C3 2615   1.336   2.050  12.576 -0.0704 -0.0835 -0.6564
  168MPD2    C4 2616   1.254   2.164  12.587  0.6084 -0.5581  0.2019
  168MPD2    C5 2617   1.182   2.190  12.697 -0.0061 -0.3861  0.9264
  168MPD2     H 2618   1.380   1.865  12.681 -1.7127 -0.9874 -1.3448
  168MPD2    H1 2619   1.262   2.242  12.511 -0.6496  1.8498  2.5509
  168MPD2    H2 2620   1.096   2.101  12.879 -1.9765 -1.0170 -0.7907
  168MPD2    H3 2621   1.119   2.278  12.705  1.6600  0.8378  0.5833
  168MPD2     N 2622   1.421   2.037  12.460 -0.3535  0.0784  0.0876
  168MPD2    H5 2623   1.392   2.100  12.385  2.7211 -0.7778 -1.8195
  168MPD2    N1 2624   1.220   1.869  12.882 -0.8992 -0.2332 -0.4345
  168MPD2    H7 2625   1.288   1.795  12.872  1.7714  1.9222  1.8765
  169MPD1     C 2626   2.153   1.587   9.327  0.2210 -0.8160  0.1696
  169MPD1    C1 2627   2.214   1.469   9.326  0.6794 -0.2798  0.0479
  169MPD1    C2 2628   2.350   1.460   9.361  0.3127 -0.3129  0.0998
  169MPD1    C3 2629   2.429   1.573   9.371 -0.0724 -0.3842  0.2300
  169MPD1    C4 2630   2.370   1.697   9.347 -0.1087 -0.3400  0.0938
  169MPD1    C5 2631   2.233   1.697   9.344  0.5786 -0.1383 -0.5051
  169MPD1     H 2632   2.397   1.364   9.381  0.4360 -0.1259  0.7098
  169MPD1    H1 2633   2.420   1.791   9.368 -1.4763  0.5152 -0.4194
  169MPD1    H2 2634   2.046   1.601   9.314 -0.0791 -1.5513  1.8818
  169MPD1    H3 2635   2.188   1.796   9.343 -1.0272 -0.8606 -0.4319
  169MPD1     N 2636   2.572   1.557   9.383  0.5195 -0.2354  0.0251
  169MPD1    H5 2637   2.601   1.460   9.390  0.2825 -0.3707 -0.8503
  169MPD1    N1 2638   2.134   1.351   9.321  0.2390  0.0572  0.5153
  169MPD1    H6 2639   2.186   1.269   9.291 -1.3708 -1.1971  1.1726
  169MPD1    H7 2640   2.049   1.356   9.265 -0.0733  0.6492  1.0424
  170MPD1     C 2641   2.756   3.478  13.021 -0.2158  0.0844 -0.1087
  170MPD1    C1 2642   2.822   3.486  13.139 -0.0239 -0.0987 -1.0581
  170MPD1    C2 2643   2.759   3.545  13.248 -0.0969 -0.2028  0.0842
  170MPD1    C3 2644   2.626   3.589  13.236 -1.1549 -0.2387  0.3507
  170MPD1    C4 2645   2.555   3.569  13.118  0.2469 -0.3714  0.4189
  170MPD1    C5 2646   2.619   3.516  13.013 -0.3783  0.2373  0.0961
  170MPD1     H 2647   2.813   3.562  13.341  2.0751  1.0165 -1.3909
  170MPD1    H1 2648   2.452   3.599  13.103  0.3433  0.0926  0.6758
  170MPD1    H2 2649   2.804   3.442  12.931 -0.3316  3.9679 -1.6920
  170MPD1    H3 2650   2.569   3.496  12.919  0.9749  1.4523 -0.8914
  170MPD1     N 2651   2.566   3.656  13.347 -0.5615 -0.0867 -0.2062
  170MPD1    H5 2652   2.633   3.671  13.422 -0.5746  0.6129 -0.3318
  170MPD1    N1 2653   2.959   3.467  13.145 -0.2388  0.3815  0.5169
  170MPD1    H6 2654   2.981   3.379  13.099 -2.1523  0.1071  0.1316
  170MPD1    H7 2655   3.003   3.458  13.237 -0.7516  1.6403  0.8927
  171MPD1     C 2656   0.792   0.553  15.525  0.0633 -0.3167  0.9379
  171MPD1    C1 2657   0.856   0.488  15.420 -0.1123 -1.1383  0.6761
  171MPD1    C2 2658   0.965   0.402  15.452  0.5325  0.3100  0.1549
  171MPD1    C3 2659   0.996   0.359  15.581 -0.5252  0.2723  0.0839
  171MPD1    C4 2660   0.925   0.417  15.683  0.7666  0.1287  0.6390
  171MPD1    C5 2661   0.833   0.519  15.649 -0.1584  0.2922 -0.4882
  171MPD1     H 2662   1.021   0.358  15.370 -0.2507 -2.0069  0.8722
  171MPD1    H1 2663   0.929   0.390  15.788  0.2713 -2.6625 -0.0574
  171MPD1    H2 2664   0.709   0.622  15.514  0.0746 -0.4597 -0.0355
  171MPD1    H3 2665   0.781   0.564  15.733  1.0610  0.4182  0.2015
  171MPD1     N 2666   1.094   0.254  15.600  0.1077 -0.4496  0.5246
  171MPD1    H5 2667   1.139   0.204  15.524  0.6749 -1.2712  1.3964
  171MPD1    N1 2668   0.830   0.515  15.285  0.3745 -0.0342 -0.3870
  171MPD1    H6 2669   0.731   0.536  15.274  0.1273  0.0215  1.9421
  171MPD1    H7 2670   0.863   0.450  15.214  2.6754  1.2166 -0.4744
  172MPD1     C 2671   4.375   4.241   0.011 -0.4890 -0.8555 -0.0489
  172MPD1    C1 2672   4.396   4.342   0.099  0.6165  0.7368  0.6029
  172MPD1    C2 2673   4.521   4.405   0.093 -0.5580  0.3877  0.5217
  172MPD1    C3 2674   4.622   4.371  17.753 -0.0518 -0.5467 -0.0839
  172MPD1    C4 2675   4.598   4.261  17.670 -0.7507 -0.3402  0.6092
  172MPD1    C5 2676   4.474   4.199  17.682 -0.0565  0.1552  0.3055
  172MPD1     H 2677   4.544   4.481   0.166  0.1205  1.6188 -0.9658
  172MPD1    H1 2678   4.665   4.230  17.591  1.1589  0.0341  2.0644
  172MPD1    H2 2679   4.283   4.184   0.010 -1.6621  1.0452 -0.6488
  172MPD1    H3 2680   4.441   4.119  17.616 -1.0395 -0.5473  1.6391
  172MPD1     N 2681   0.011   4.431  17.734 -0.0839 -0.4887 -0.4240
  172MPD1    H5 2682   0.071   4.397  17.660  0.9478 -0.8571  0.5808
  172MPD1    N1 2683   4.297   4.395   0.188  0.0857  0.3793  0.6850
  172MPD1    H6 2684   4.227   4.330   0.223  0.1454 -0.4057 -0.6895
  172MPD1    H7 2685   4.330   4.471   0.248 -0.3742 -1.2172  2.9627
  173MPD1     C 2686   2.376   4.685  14.019  0.1879 -0.6482 -0.3859
  173MPD1    C1 2687   2.255   4.705  14.082 -0.2798 -0.1583  0.0401
  173MPD1    C2 2688   2.186   4.589  14.121 -0.0796 -0.1460 -0.5920
  173MPD1    C3 2689   2.242   4.464  14.101 -0.0076  0.2093  0.4662
  173MPD1    C4 2690   2.365   4.447  14.039 -0.1612  0.0562 -0.3436
  173MPD1    C5 2691   2.435   4.566  14.010  0.5221  1.0012 -0.1623
  173MPD1     H 2692   2.092   4.590  14.175  0.2756 -1.9533  0.0430
  173MPD1    H1 2693   2.410   4.348  14.030  1.4954  0.8694 -1.0177
  173MPD1    H2 2694   2.434   0.031  13.984 -1.3590  0.1243 -1.0692
  173MPD1    H3 2695   2.532   4.570  13.961  0.3500  4.4433 -0.2159
  173MPD1     N 2696   2.166   4.359  14.141 -0.6739  0.5560  0.2766
  173MPD1    H5 2697   2.083   4.386  14.192 -0.0894 -0.6540  1.8599
  173MPD1    N1 2698   2.197   0.093  14.098 -0.3211  0.0262 -0.9112
  173MPD1    H6 2699   2.110   0.097  14.152 -0.2586  2.1720 -0.9701
  173MPD1    H7 2700   2.261   0.170  14.118  1.2422 -1.3995 -0.4080
  174MPD1     C 2701   2.547   3.661  14.621 -0.7674  0.0836  0.2338
  174MPD1    C1 2702   2.413   3.642  14.653  0.0459 -0.0271 -1.1236
  174MPD1    C2 2703   2.317   3.688  14.563  0.3283 -0.3866 -0.1487
  174MPD1    C3 2704   2.353   3.759  14.449  0.4940 -0.4531 -0.2981
  174MPD1    C4 2705   2.489   3.785  14.428 -0.2307 -0.2105 -0.1893
  174MPD1    C5 2706   2.591   3.738  14.505 -0.4103  0.3994 -0.4912
  174MPD1     H 2707   2.213   3.662  14.581  0.4683 -0.8711 -0.0389
  174MPD1    H1 2708   2.509   3.863  14.355  1.1668 -0.4329 -0.0461
  174MPD1    H2 2709   2.620   3.622  14.691  0.8915  2.7335 -0.0190
  174MPD1    H3 2710   2.695   3.769  14.501 -0.6454  1.0959 -1.0498
  174MPD1     N 2711   2.263   3.835  14.376  0.1751 -0.4344  0.0850
  174MPD1    H5 2712   2.297   3.905  14.310 -1.1929  0.0973 -0.0589
  174MPD1    N1 2713   2.373   3.564  14.766  0.0033 -0.2699  0.2310
  174MPD1    H6 2714   2.440   3.584  14.839 -1.6613 -0.2099  1.7428
  174MPD1    H7 2715   2.281   3.585  14.804 -0.0046  1.2631 -0.6582
  175MPD1     C 2716   4.301   0.649  14.914 -0.0988 -0.0082 -0.1016
  175MPD1    C1 2717   4.382   0.544  14.951 -0.4762  0.0837 -0.1878
  175MPD1    C2 2718   4.460   0.565  15.066 -0.3973 -0.8533 -0.6668
  175MPD1    C3 2719   4.433   0.665  15.160 -0.3913 -0.2572 -0.3141
  175MPD1    C4 2720   4.358   0.770  15.113 -0.7098 -0.7639  0.4161
  175MPD1    C5 2721   4.288   0.761  14.993 -0.1554  0.3195  0.1063
  175MPD1     H 2722   4.542   0.496  15.078 -1.2430 -1.9242 -1.0271
  175MPD1    H1 2723   4.343   0.861  15.169  2.4977  1.3868 -2.2640
  175MPD1    H2 2724   4.234   0.648  14.829 -1.3574  0.5510  0.8894
  175MPD1    H3 2725   4.219   0.839  14.963  1.0138 -0.1804 -3.8897
  175MPD1     N 2726   4.502   0.678  15.280  0.1957 -0.0963 -0.6868
  175MPD1    H5 2727   4.504   0.772  15.319 -0.6860 -1.3217  2.3112
  175MPD1    N1 2728   4.426   0.450  14.858  0.5057  0.3738  0.2536
  175MPD1    H6 2729   4.350   0.414  14.800  3.0345 -1.4767 -1.9270
  175MPD1    H7 2730   4.479   0.369  14.889  2.7812  2.2436  1.1624
  176MPD1     C 2731   1.994   2.348  16.094 -0.1312  0.6618  0.2229
  176MPD1    C1 2732   1.892   2.273  16.152 -0.4846  0.4609  0.3213
  176MPD1    C2 2733   1.845   2.305  16.275  0.1489 -0.8166 -0.4209
  176MPD1    C3 2734   1.898   2.406  16.349 -0.1298 -0.2173  0.2235
  176MPD1    C4 2735   2.008   2.473  16.296 -0.7831 -0.3991 -0.5315
  176MPD1    C5 2736   2.047   2.452  16.165 -0.2209 -0.3202 -0.2973
  176MPD1     H 2737   1.763   2.245  16.311 -0.9934  1.0132 -0.0125
  176MPD1    H1 2738   2.054   2.559  16.343  1.8987 -1.0425 -1.9617
  176MPD1    H2 2739   2.026   2.324  15.993  0.0436  3.1035 -0.2845
  176MPD1    H3 2740   2.131   2.505  16.123 -0.0394  0.5932  1.2178
  176MPD1     N 2741   1.841   2.438  16.476 -0.8446 -0.4226  1.1623
  176MPD1    H5 2742   1.748   2.401  16.495 -1.1267  0.4114  1.3978
  176MPD1    N1 2743   1.836   2.168  16.081  0.7108 -0.1320  0.7546
  176MPD1    H6 2744   1.840   2.188  15.981  0.6957  0.9794  0.9808
  176MPD1    H7 2745   1.745   2.140  16.114  0.4496  3.5342  3.0806
  177MPD1     C 2746   4.303   2.894   9.723  0.2327 -0.1924  0.7462
  177MPD1    C1 2747   4.230   3.017   9.722  1.2023  0.4421 -0.7079
  177MPD1    C2 2748   4.132   3.033   9.631  0.4862  0.0641 -0.3367
  177MPD1    C3 2749   4.102   2.940   9.537 -0.1789 -0.2499 -0.0244
  177MPD1    C4 2750   4.177   2.823   9.534  0.0522 -0.0079  0.3063
  177MPD1    C5 2751   4.281   2.806   9.621 -0.5789 -0.1188 -0.4876
  177MPD1     H 2752   4.088   3.132   9.619 -0.6799 -0.3781  0.3429
  177MPD1    H1 2753   4.171   2.755   9.451  0.1705 -0.8840  1.0157
  177MPD1    H2 2754   4.387   2.886   9.791 -0.4949 -0.6156  1.5719
  177MPD1    H3 2755   4.345   2.719   9.617  2.2162  1.7618  3.1995
  177MPD1     N 2756   3.995   2.962   9.447  0.1030  0.4671  0.7799
  177MPD1    H5 2757   3.942   3.048   9.463 -0.4581  0.0878  0.9496
  177MPD1    N1 2758   4.272   3.119   9.810  0.6569 -0.5405 -0.3187
  177MPD1    H6 2759   4.197   3.186   9.827 -0.4270 -1.5182 -1.2275
  177MPD1    H7 2760   4.305   3.075   9.896  1.1318 -1.1815 -0.8283
  178MPD1     C 2761   2.241   3.861  17.584 -0.3519  0.2224  0.0228
  178MPD1    C1 2762   2.238   3.727  17.578 -0.4062 -0.0691 -0.3266
  178MPD1    C2 2763   2.351   3.659  17.544  0.0535 -0.0305  0.4911
  178MPD1    C3 2764   2.466   3.718  17.502  0.1198  0.0157 -0.0271
  178MPD1    C4 2765   2.463   3.856  17.491  0.0043 -0.3906  0.2034
  178MPD1    C5 2766   2.353   3.928  17.539 -0.4609  0.3687 -0.4492
  178MPD1     H 2767   2.344   3.552  17.530  0.6589 -0.1097  0.7917
  178MPD1    H1 2768   2.547   3.907  17.443 -1.3499  0.5681 -1.1411
  178MPD1    H2 2769   2.153   3.915  17.618 -3.2936 -1.7479 -4.3422
  178MPD1    H3 2770   2.344   4.035  17.527 -0.2745  0.2037 -2.1031
  178MPD1     N 2771   2.575   3.650  17.452  0.0443  0.3394 -0.3524
  178MPD1    H5 2772   2.655   3.709  17.431  0.8745 -0.1822  1.4038
  178MPD1    N1 2773   2.123   3.665  17.630 -0.6871  0.0819  0.1242
  178MPD1    H6 2774   2.049   3.735  17.630 -0.6558  0.1235  1.1489
  178MPD1    H7 2775   2.106   3.573  17.588  0.5919 -1.7487  3.5709
  179MPD1     C 2776   2.172   2.128  15.775 -0.1776 -0.4064 -0.3585
  179MPD1    C1 2777   2.299   2.098  15.746  0.0114  0.2587 -0.2799
  179MPD1    C2 2778   2.328   1.971  15.700  0.4244 -0.1784 -0.1543
  179MPD1    C3 2779   2.226   1.897  15.644  0.9172 -0.1729 -0.5979
  179MPD1    C4 2780   2.094   1.940  15.652 -0.0276 -0.9734  0.5044
  179MPD1    C5 2781   2.071   2.054  15.725  0.4120 -0.2360  0.1545
  179MPD1     H 2782   2.430   1.942  15.680  0.3519  0.5789 -1.6717
  179MPD1    H1 2783   2.012   1.889  15.604  0.3572 -0.4080 -0.7467
  179MPD1    H2 2784   2.144   2.225  15.815  2.1799  0.8363 -1.7942
  179MPD1    H3 2785   1.971   2.088  15.748  0.6807 -0.8495  2.2336
  179MPD1     N 2786   2.251   1.767  15.586  0.3276  0.2075 -0.6892
  179MPD1    H5 2787   2.166   1.723  15.553 -0.5178  2.7693 -1.9126
  179MPD1    N1 2788   2.394   2.174  15.815  0.2541 -0.3444 -0.1247
  179MPD1    H6 2789   2.478   2.179  15.757 -0.5566 -2.0392 -1.4557
  179MPD1    H7 2790   2.360   2.269  15.830  2.4527  0.6247 -1.2073
  180MPD1     C 2791   1.843   2.581  15.378  0.7763  0.1198  0.3347
  180MPD1    C1 2792   1.753   2.671  15.322 -0.2095  0.4318 -0.0107
  180MPD1    C2 2793   1.749   2.687  15.187  0.9395 -0.2661  0.1815
  180MPD1    C3 2794   1.811   2.599  15.098  0.4112 -0.3355  0.3159
  180MPD1    C4 2795   1.902   2.512  15.153  0.2764 -0.9124  0.2916
  180MPD1    C5 2796   1.916   2.495  15.290  0.0866  0.0312 -0.3329
  180MPD1     H 2797   1.683   2.765  15.151  1.5315  0.1243 -0.0471
  180MPD1    H1 2798   1.969   2.456  15.087  1.0813 -3.1656  3.0237
  180MPD1    H2 2799   1.873   2.572  15.482 -1.6004 -2.0101  0.8450
  180MPD1    H3 2800   1.987   2.429  15.338  0.3734  0.9128  0.4637
  180MPD1     N 2801   1.785   2.611  14.960  0.2890 -0.3801  0.0360
  180MPD1    H5 2802   1.726   2.686  14.927  1.1813  0.8182  1.1581
  180MPD1    N1 2803   1.691   2.767  15.400  0.2800  0.0937  0.6162
  180MPD1    H6 2804   1.687   2.754  15.501  1.0520 -0.1667  0.6138
  180MPD1    H7 2805   1.596   2.786  15.371  0.1736  0.7827  1.4115
  181MPD1     C 2806   2.608   3.991  10.223  0.1049  0.0397  0.0958
  181MPD1    C1 2807   2.676   4.045  10.112  0.2295  0.0844 -0.7685
  181MPD1    C2 2808   2.733   4.167  10.131 -0.5872 -0.3598  0.2930
  181MPD1    C3 2809   2.737   4.234  10.255 -1.1907 -0.1783  0.1545
  181MPD1    C4 2810   2.688   4.167  10.364 -0.7356  0.1170  0.5481
  181MPD1    C5 2811   2.624   4.043  10.349  0.1311  0.2313  0.3050
  181MPD1     H 2812   2.773   4.215  10.042 -0.1305 -2.3285 -0.5508
  181MPD1    H1 2813   2.702   4.207  10.463 -3.7066  0.9557  0.6240
  181MPD1    H2 2814   2.565   3.892  10.222 -0.8903  0.4361  2.5572
  181MPD1    H3 2815   2.585   3.999  10.440 -0.0882 -1.2071 -0.4927
  181MPD1     N 2816   2.804   4.352  10.270 -0.1943 -0.4460  0.0656
  181MPD1    H5 2817   2.798   4.391  10.364  2.6406 -0.2846  0.1711
  181MPD1    N1 2818   2.657   3.996   9.983  0.1911 -0.0321 -0.1980
  181MPD1    H6 2819   2.735   4.018   9.921  0.5884  0.7443  0.5916
  181MPD1    H7 2820   2.655   3.894   9.983  0.7212 -0.0375  0.9749
  182MPD1     C 2821   0.648   3.268   1.104  0.4057 -0.1950  0.0742
  182MPD1    C1 2822   0.636   3.380   1.184  0.0466  0.1959 -0.1590
  182MPD1    C2 2823   0.534   3.475   1.160 -0.7659  0.6900  0.7198
  182MPD1    C3 2824   0.442   3.444   1.053 -0.1102  0.3704 -0.2988
  182MPD1    C4 2825   0.453   3.325   0.982  0.1945  0.2866  0.4437
  182MPD1    C5 2826   0.549   3.235   1.015 -0.5279  1.0040 -0.2021
  182MPD1     H 2827   0.522   3.561   1.225 -4.4101  0.3989  0.4338
  182MPD1    H1 2828   0.391   3.295   0.898  1.5052 -0.9608 -0.0624
  182MPD1    H2 2829   0.721   3.193   1.130  2.2282  1.3024 -0.7552
  182MPD1    H3 2830   0.576   3.147   0.957  1.2189  0.7426  0.9858
  182MPD1     N 2831   0.339   3.531   1.013  0.1500  0.2365 -0.1314
  182MPD1    H5 2832   0.281   3.491   0.940 -0.1764 -0.5526  0.5611
  182MPD1    N1 2833   0.727   3.407   1.284  0.0610  0.5049 -0.1362
  182MPD1    H6 2834   0.744   3.315   1.324  2.5861  1.4308  0.9189
  182MPD1    H7 2835   0.699   3.471   1.358 -2.1542 -1.3551  0.6524
  183MPD1     C 2836   0.347   0.075   9.681 -0.1072 -0.0278 -0.6474
  183MPD1    C1 2837   0.256   0.164   9.637  0.3665 -0.0906  0.0221
  183MPD1    C2 2838   0.138   0.182   9.707 -0.4566 -0.4688 -0.0590
  183MPD1    C3 2839   0.113   0.116   9.828  0.6457 -0.1438  0.7155
  183MPD1    C4 2840   0.216   0.038   9.881 -0.0958 -0.0750  1.2074
  183MPD1    C5 2841   0.329   0.015   9.804  1.0259  0.5167  0.7742
  183MPD1     H 2842   0.063   0.253   9.672  0.0724  0.4967  0.7870
  183MPD1    H1 2843   0.215   4.715   9.970 -0.3357  1.4870  2.2897
  183MPD1    H2 2844   0.439   0.057   9.627  0.6619  0.9442  0.3572
  183MPD1    H3 2845   0.401   4.679   9.834 -0.4921 -1.9017 -1.7146
  183MPD1     N 2846   4.724   0.135   9.883  0.4116 -0.2269  0.0712
  183MPD1    H5 2847   4.666   0.208   9.843  0.3518  0.5773  1.6163
  183MPD1    N1 2848   0.279   0.214   9.506 -0.0571 -0.3641  0.4296
  183MPD1    H6 2849   0.375   0.244   9.494 -0.0662  0.6020  2.8084
  183MPD1    H7 2850   0.232   0.301   9.479  0.1279 -0.8802 -1.5660
  184MPD1     C 2851   2.849   2.545   9.987 -0.2384 -0.4756 -0.2937
  184MPD1    C1 2852   2.891   2.475   9.874 -0.0437 -0.1428 -0.7311
  184MPD1    C2 2853   3.008   2.513   9.804 -0.4072  0.4033 -0.0081
  184MPD1    C3 2854   3.057   2.641   9.836 -0.1765  0.3506 -1.1029
  184MPD1    C4 2855   3.025   2.701   9.956 -0.3212  0.6365  0.4949
  184MPD1    C5 2856   2.920   2.653  10.027  0.6304 -0.0156 -0.0471
  184MPD1     H 2857   3.054   2.459   9.721  2.3616 -0.5774  2.1732
  184MPD1    H1 2858   3.068   2.798   9.981 -1.8962  1.1948  1.0749
  184MPD1    H2 2859   2.771   2.499  10.046 -0.3506 -0.2057 -0.2335
  184MPD1    H3 2860   2.884   2.707  10.114 -1.0578 -1.0991 -0.0752
  184MPD1     N 2861   3.159   2.706   9.762  0.2760 -0.2569  0.3044
  184MPD1    H5 2862   3.207   2.786   9.802  0.6331  0.6791 -1.9665
  184MPD1    N1 2863   2.846   2.344   9.861  0.8958 -0.1614  0.3553
  184MPD1    H6 2864   2.754   2.334   9.904 -0.3932  1.5306 -2.0421
  184MPD1    H7 2865   2.843   2.305   9.768  2.0033 -1.8920  1.0495
  185MPD1     C 2866   2.974   3.188   9.022  0.1184  0.5982  0.9657
  185MPD1    C1 2867   3.108   3.191   9.010  0.1869 -0.1069  0.5412
  185MPD1    C2 2868   3.167   3.137   9.116  0.4389 -0.1017 -0.8516
  185MPD1    C3 2869   3.106   3.058   9.213 -0.3050  0.7507 -0.1485
  185MPD1    C4 2870   2.967   3.047   9.214 -0.1593  0.5734  0.5782
  185MPD1    C5 2871   2.903   3.123   9.120 -0.4771 -1.0538 -0.4555
  185MPD1     H 2872   3.273   3.156   9.114  0.3940  0.2342 -0.1925
  185MPD1    H1 2873   2.906   2.997   9.289 -1.2141  1.0441  0.0379
  185MPD1    H2 2874   2.925   3.239   8.939 -1.3367  0.5819  1.8118
  185MPD1    H3 2875   2.796   3.124   9.136 -0.4559  1.3284 -0.4370
  185MPD1     N 2876   3.177   2.991   9.313  0.1040  0.4739  0.5792
  185MPD1    H5 2877   3.123   2.931   9.375 -0.4318 -1.2303 -1.5632
  185MPD1    N1 2878   3.172   3.284   8.920 -0.2930 -0.6729  0.7426
  185MPD1    H6 2879   3.265   3.246   8.900 -0.1368 -0.0933  0.3797
  185MPD1    H7 2880   3.118   3.289   8.834  1.6826  1.5236 -0.3922
  186MPD1     C 2881   1.805   1.645  15.927  0.4234 -1.0717 -0.1552
  186MPD1    C1 2882   1.941   1.645  15.908  0.1459  1.3627  0.0468
  186MPD1    C2 2883   2.012   1.755  15.954  0.7659 -0.6395 -0.0483
  186MPD1    C3 2884   1.953   1.843  16.037 -0.0178  0.4614 -0.5539
  186MPD1    C4 2885   1.821   1.843  16.063 -0.1303 -0.2411  0.3338
  186MPD1    C5 2886   1.746   1.742  16.001  0.5383 -0.3286  0.1470
  186MPD1     H 2887   2.117   1.763  15.930  0.1997  1.3127 -1.8603
  186MPD1    H1 2888   1.768   1.926  16.108 -0.4498 -0.6015  0.6261
  186MPD1    H2 2889   1.743   1.558  15.907 -1.1633  0.3647 -1.3477
  186MPD1    H3 2890   1.640   1.763  16.004  0.3948 -0.9061 -1.2546
  186MPD1     N 2891   2.022   1.938  16.107  0.0969  0.1585 -0.1452
  186MPD1    H5 2892   1.959   2.004  16.152 -1.5288 -0.4845 -1.4860
  186MPD1    N1 2893   1.993   1.551  15.817  0.4287 -0.0891 -0.1130
  186MPD1    H6 2894   1.980   1.582  15.721  1.1950  2.4968  0.6001
  186MPD1    H7 2895   2.094   1.546  15.832  0.6154 -0.6769 -1.6206
  187MPD1     C 2896   1.969   2.846  17.726  0.3867 -0.2392  0.7469
  187MPD1    C1 2897   2.041   2.959  17.752 -0.5031  0.0854  0.2749
  187MPD1    C2 2898   2.049   3.056  17.654  0.0086 -0.3101  0.2906
  187MPD1    C3 2899   1.983   3.033  17.527 -0.1734  0.1439 -0.3874
  187MPD1    C4 2900   1.933   2.916  17.496  0.1147  0.0362 -0.2133
  187MPD1    C5 2901   1.922   2.823  17.599 -0.3092 -0.0625  0.1018
  187MPD1     H 2902   2.114   3.140  17.675 -0.5052  0.3071 -0.5559
  187MPD1    H1 2903   1.881   2.904  17.402  0.6844 -1.0245 -0.3904
  187MPD1    H2 2904   1.942   2.763   0.037 -2.5324 -0.6792 -1.0636
  187MPD1    H3 2905   1.862   2.733  17.592 -2.5529  1.4539 -0.2210
  187MPD1     N 2906   1.972   3.135  17.429  0.5646 -0.1482  0.3571
  187MPD1    H5 2907   1.924   3.117  17.341 -0.9175  0.2384  1.0956
  187MPD1    N1 2908   2.079   2.985   0.132  0.5283 -0.4657  0.5631
  187MPD1    H6 2909   2.103   2.904   0.190  1.8133  0.5611  1.4527
  187MPD1    H7 2910   2.163   3.043   0.127  0.0390  0.2871  1.1244
  188MPD1     C 2911   0.739   3.604  11.178 -0.3333  0.2469 -1.0517
  188MPD1    C1 2912   0.857   3.549  11.200  0.2581  0.2758  0.5380
  188MPD1    C2 2913   0.878   3.439  11.122 -0.0443  0.4914  0.4255
  188MPD1    C3 2914   0.776   3.377  11.050  0.7443 -0.5397 -0.4420
  188MPD1    C4 2915   0.650   3.421  11.058 -0.9518 -0.0414  0.5964
  188MPD1    C5 2916   0.629   3.539  11.122  0.3792  0.4639 -0.2717
  188MPD1     H 2917   0.975   3.392  11.126 -1.4952 -2.4231  1.2801
  188MPD1    H1 2918   0.573   3.378  10.994  0.8309 -1.0888 -0.8477
  188MPD1    H2 2919   0.717   3.695  11.232 -0.0585 -0.1593 -0.2540
  188MPD1    H3 2920   0.533   3.589  11.113  0.9044  1.0905 -2.2757
  188MPD1     N 2921   0.794   3.265  10.964  0.1832 -0.0679  0.0054
  188MPD1    H5 2922   0.735   3.243  10.884  0.0958 -2.1599  0.6417
  188MPD1    N1 2923   0.955   3.623  11.269  0.4244 -0.0731 -0.2141
  188MPD1    H6 2924   0.917   3.691  11.335  0.1329 -0.7190  0.2952
  188MPD1    H7 2925   1.021   3.557  11.311  1.2239  0.5355 -0.5281
  189MPD1     C 2926   2.900   0.739   1.038  0.4512  0.6927  0.0008
  189MPD1    C1 2927   3.008   0.805   0.983 -0.1533  0.0138 -0.2360
  189MPD1    C2 2928   3.062   0.750   0.873 -0.2161  0.6055  0.1842
  189MPD1    C3 2929   2.994   0.651   0.802  0.9227  0.0846 -0.3482
  189MPD1    C4 2930   2.893   0.584   0.867  0.8545  0.1553  0.6122
  189MPD1    C5 2931   2.847   0.629   0.985 -0.1404 -0.4323 -0.3142
  189MPD1     H 2932   3.152   0.795   0.831  0.4896 -0.9980 -0.0058
  189MPD1    H1 2933   2.849   0.491   0.834 -0.0638  1.0889 -0.7952
  189MPD1    H2 2934   2.861   0.764   1.136 -0.7740  0.6866 -0.4856
  189MPD1    H3 2935   2.767   0.572   1.031 -0.6662  1.4519  1.1133
  189MPD1     N 2936   3.043   0.607   0.674 -0.3459  0.3725  0.0362
  189MPD1    H5 2937   3.137   0.635   0.648  0.4229  0.2697  2.6579
  189MPD1    N1 2938   3.061   0.911   1.061 -0.3416 -0.5455  1.0283
  189MPD1    H6 2939   3.120   0.981   1.016  0.4974 -0.3691  2.3985
  189MPD1    H7 2940   2.997   0.959   1.124  1.7806  0.6684  2.2668
  190MPD1     C 2941   2.085   3.439  15.373 -0.3402  0.0948 -0.1538
  190MPD1    C1 2942   2.026   3.319  15.395  0.0709  0.0241 -0.1072
  190MPD1    C2 2943   2.101   3.225  15.467 -0.1951 -0.4915 -0.7847
  190MPD1    C3 2944   2.224   3.258  15.520  0.1534  0.0813  0.4688
  190MPD1    C4 2945   2.270   3.385  15.500 -0.0165 -0.5705  0.3014
  190MPD1    C5 2946   2.202   3.471  15.426  0.3015  0.7932 -0.0046
  190MPD1     H 2947   2.063   3.124  15.465  1.4529 -1.1240 -0.0842
  190MPD1    H1 2948   2.358   3.421  15.553  0.5080 -0.3147 -0.7499
  190MPD1    H2 2949   2.027   3.515  15.322  1.0595  0.9146 -0.5407
  190MPD1    H3 2950   2.225   3.576  15.415  0.2921  0.8043  0.0820
  190MPD1     N 2951   2.290   3.163  15.605 -0.1847 -0.2586  0.5881
  190MPD1    H5 2952   2.242   3.080  15.637  0.1001 -0.6056  0.1231
  190MPD1    N1 2953   1.914   3.281  15.323 -0.1255 -0.2624  0.4525
  190MPD1    H6 2954   1.841   3.350  15.308 -1.5920 -1.5847  1.5164
  190MPD1    H7 2955   1.858   3.208  15.366 -0.1736  0.2294  1.2189
  191MPD1     C 2956   0.911   3.865  13.502  0.9729  0.0753  0.3240
  191MPD1    C1 2957   0.958   3.966  13.583  0.2713  0.3482  0.7283
  191MPD1    C2 2958   0.943   4.093  13.541  0.4234 -0.8367 -0.1294
  191MPD1    C3 2959   0.899   4.122  13.411 -0.4461  0.1953  0.1522
  191MPD1    C4 2960   0.848   4.017  13.336  0.4084  0.2629 -0.7669
  191MPD1    C5 2961   0.861   3.887  13.381 -0.1035 -0.2207  0.7657
  191MPD1     H 2962   0.985   4.170  13.603 -1.7538  0.4830 -0.2933
  191MPD1    H1 2963   0.808   4.026  13.236  0.3132  1.7389 -0.5975
  191MPD1    H2 2964   0.925   3.763  13.538  0.0461 -1.1349 -2.7245
  191MPD1    H3 2965   0.837   3.805  13.315  0.4990  1.2090 -1.2308
  191MPD1     N 2966   0.894   4.257  13.357 -0.1316 -0.0657 -0.2477
  191MPD1    H5 2967   0.845   4.273  13.270  0.4795  0.6295 -0.4672
  191MPD1    N1 2968   1.007   3.934  13.715 -0.1695 -0.1221  0.3768
  191MPD1    H6 2969   1.054   4.014  13.757  1.4264 -0.0267 -1.6051
  191MPD1    H7 2970   1.069   3.854  13.715  0.3387  0.2887 -1.3457
  192MPD1     C 2971   0.195   0.211  13.206 -0.0758  0.0098 -0.8128
  192MPD1    C1 2972   0.197   0.072  13.190  0.0163 -0.6947 -0.2278
  192MPD1    C2 2973   0.314   0.009  13.192 -0.1282  0.1159  0.4958
  192MPD1    C3 2974   0.437   0.078  13.216 -0.2157  0.2497 -0.7121
  192MPD1    C4 2975   0.432   0.214  13.246 -0.3610 -0.0604  0.0863
  192MPD1    C5 2976   0.309   0.276  13.239  0.1399  0.3525  0.3543
  192MPD1     H 2977   0.320   4.641  13.177  1.7189  0.4776 -1.3581
  192MPD1    H1 2978   0.526   0.262  13.270 -0.3595 -0.0082 -0.0242
  192MPD1    H2 2979   0.105   0.270  13.219 -0.3727 -0.8505  1.0723
  192MPD1    H3 2980   0.308   0.384  13.243 -1.4365  0.3008  1.5943
  192MPD1     N 2981   0.566   0.019  13.214 -0.4040 -0.0185  0.3132
  192MPD1    H5 2982   0.649   0.076  13.201 -0.9762  0.2625 -2.1298
  192MPD1    N1 2983   0.081   0.006  13.164 -0.2987  0.2946  0.1712
  192MPD1    H6 2984   4.737   0.037  13.214  0.0343 -0.6118  1.2850
  192MPD1    H7 2985   0.097   4.651  13.201 -0.3175 -0.3946 -1.5764
  193MPD1     C 2986   1.157   0.008  16.210  0.0669  0.5638 -0.2247
  193MPD1    C1 2987   1.113   0.113  16.287  0.1794 -0.4557 -0.1133
  193MPD1    C2 2988   1.185   0.153  16.396 -0.0713 -0.5959 -0.4684
  193MPD1    C3 2989   1.304   0.084  16.442  0.7336  0.2735 -0.1097
  193MPD1    C4 2990   1.346   4.715  16.362  0.7943  0.0578 -0.4966
  193MPD1    C5 2991   1.269   4.678  16.256  0.0069 -0.0947 -0.4283
  193MPD1     H 2992   1.153   0.236  16.458 -1.0642  0.4013 -2.3038
  193MPD1    H1 2993   1.438   4.662  16.384 -0.1691 -1.6355 -0.5553
  193MPD1    H2 2994   1.109   4.722  16.116 -2.5046 -1.3589  1.5924
  193MPD1    H3 2995   1.302   4.593  16.197  0.1437 -1.5115  1.6726
  193MPD1     N 2996   1.386   0.132  16.537  0.1974 -0.1915  0.1108
  193MPD1    H5 2997   1.462   0.067  16.556  0.4709 -0.4097 -1.7670
  193MPD1    N1 2998   1.015   0.204  16.237 -0.3014  0.1853  0.2047
  193MPD1    H6 2999   0.975   0.280  16.291 -0.8296 -0.1344  0.2611
  193MPD1    H7 3000   0.945   0.160  16.176  1.0963 -0.3529 -1.0186
  194MPD1     C 3001   4.158   2.936  16.593 -0.1764 -0.3278 -0.1784
  194MPD1    C1 3002   4.173   2.928  16.732  0.5674  0.2735  0.6563
  194MPD1    C2 3003   4.181   2.805  16.790 -0.6703  0.2575 -0.1733
  194MPD1    C3 3004   4.214   2.690  16.715 -1.1574  0.2903  0.3931
  194MPD1    C4 3005   4.211   2.696  16.574  0.0236  0.0764 -0.4111
  194MPD1    C5 3006   4.177   2.819  16.520 -0.2212  0.0639  0.0776
  194MPD1     H 3007   4.180   2.806  16.899  1.0583  1.3198 -0.1769
  194MPD1    H1 3008   4.250   2.617  16.510 -0.7037  0.0227 -0.7802
  194MPD1    H2 3009   4.143   3.028  16.537  1.7805 -0.1903 -0.4611
  194MPD1    H3 3010   4.168   2.832  16.413  1.0234 -0.5847 -0.1027
  194MPD1     N 3011   4.214   2.562  16.779 -0.9302 -0.2320 -0.3464
  194MPD1    H5 3012   4.218   2.482  16.717  1.1763 -1.4198  1.2871
  194MPD1    N1 3013   4.158   3.042  16.806  0.7777 -0.5844  0.2786
  194MPD1    H6 3014   4.186   3.124  16.752  1.2895 -2.1967 -1.9421
  194MPD1    H7 3015   4.215   3.043  16.890  0.8136 -1.5410  0.2689
  195MPD1     C 3016   1.093   3.715  17.360  0.2689  0.1886  0.4764
  195MPD1    C1 3017   1.214   3.649  17.359  0.4215 -0.8810  0.6568
  195MPD1    C2 3018   1.224   3.523  17.409  0.0908  0.1416 -0.4304
  195MPD1    C3 3019   1.108   3.448  17.437  0.2377  0.2430 -0.0973
  195MPD1    C4 3020   0.989   3.515  17.435  0.2299 -0.1914 -0.3826
  195MPD1    C5 3021   0.980   3.647  17.402  0.4480 -0.7209 -0.3310
  195MPD1     H 3022   1.323   3.479  17.406 -0.0307 -0.1647 -0.0926
  195MPD1    H1 3023   0.899   3.462  17.462 -0.1648  1.5965  1.8648
  195MPD1    H2 3024   1.093   3.822  17.343  1.2778  0.2670  0.9292
  195MPD1    H3 3025   0.883   3.695  17.410  0.5870 -0.3438 -0.8967
  195MPD1     N 3026   1.111   3.315  17.481  0.2364  0.3657  0.0692
  195MPD1    H5 3027   1.017   3.275  17.485  0.3065  0.0746 -1.2211
  195MPD1    N1 3028   1.330   3.728  17.348 -0.8659  0.4066  0.3367
  195MPD1    H6 3029   1.398   3.663  17.308 -1.1626 -0.4111  1.1688
  195MPD1    H7 3030   1.316   3.801  17.278 -0.1347 -0.5655 -0.8257
  196MPD1     C 3031   0.251   3.076  17.580  0.5196 -0.0351 -0.3306
  196MPD1    C1 3032   0.216   3.035  17.706  0.5046  0.3435 -0.0342
  196MPD1    C2 3033   0.288   3.078   0.065  0.0044 -0.0343  0.1310
  196MPD1    C3 3034   0.383   3.179   0.044 -0.2915 -0.2203  0.0213
  196MPD1    C4 3035   0.413   3.223  17.669 -0.8626  0.3861  0.5583
  196MPD1    C5 3036   0.350   3.166  17.565  0.7222  0.3095 -0.1333
  196MPD1     H 3037   0.261   3.043   0.164 -0.1662 -5.4139 -1.8216
  196MPD1    H1 3038   0.495   3.292  17.653 -0.7883  0.1732  0.0400
  196MPD1    H2 3039   0.204   3.039  17.489  1.4669  0.6743 -1.1126
  196MPD1    H3 3040   0.360   3.210  17.466 -2.5565  1.6621  0.1338
  196MPD1     N 3041   0.465   3.241   0.141 -0.7757  0.0305  0.6065
  196MPD1    H5 3042   0.510   3.325   0.106 -1.1763  0.4117  1.0108
  196MPD1    N1 3043   0.128   2.929  17.726 -0.2999 -0.1751 -0.4385
  196MPD1    H6 3044   0.052   2.919  17.660 -1.4935 -0.6117  1.0006
  196MPD1    H7 3045   0.095   2.933   0.068 -2.4354  1.1041 -1.2211
  197MPD1     C 3046   4.524   0.299  17.220  0.1299 -0.7435  0.2200
  197MPD1    C1 3047   4.644   0.289  17.287  0.3626 -0.0893  0.6685
  197MPD1    C2 3048   0.016   0.342  17.216  0.0441 -0.0322  0.5090
  197MPD1    C3 3049   4.739   0.381  17.085 -0.8343  0.2877  0.6480
  197MPD1    C4 3050   4.616   0.384  17.026  0.0942  0.2791 -0.7289
  197MPD1    C5 3051   4.509   0.340  17.095  0.4637 -0.0330 -0.5399
  197MPD1     H 3052   0.107   0.356  17.273  1.5722  0.1010 -1.9181
  197MPD1    H1 3053   4.604   0.428  16.927 -0.7123 -1.2953 -1.3445
  197MPD1    H2 3054   4.435   0.275  17.277  1.0540 -2.2662  1.0301
  197MPD1    H3 3055   4.409   0.341  17.052  0.4134 -1.5737 -0.4678
  197MPD1     N 3056   0.112   0.433  17.014 -0.2145 -0.2207  0.0798
  197MPD1    H5 3057   0.100   0.455  16.915 -2.1845  3.4020  1.1556
  197MPD1    N1 3058   4.667   0.253  17.415 -0.4937  0.5985  0.2696
  197MPD1    H6 3059   0.016   0.203  17.429 -1.9308 -1.9960 -0.0813
  197MPD1    H7 3060   4.599   0.183  17.441 -0.0826  0.8816  2.1117
  198MPD1     C 3061   1.552   2.980  15.598  0.1401 -0.2908  0.1114
  198MPD1    C1 3062   1.642   2.932  15.692  0.4649  0.2317 -0.5268
  198MPD1    C2 3063   1.743   3.007  15.738  0.3328  0.3554  0.0408
  198MPD1    C3 3064   1.738   3.141  15.704 -0.0868  0.3443  0.3756
  198MPD1    C4 3065   1.641   3.193  15.620  0.0672  0.0894 -0.4587
  198MPD1    C5 3066   1.542   3.111  15.565  0.6982  0.4312 -0.0683
  198MPD1     H 3067   1.817   2.972  15.807 -0.1306  0.9924  0.8653
  198MPD1    H1 3068   1.648   3.294  15.580  1.3258  0.4380  0.6305
  198MPD1    H2 3069   1.483   2.910  15.551 -0.3095 -1.2604  2.2317
  198MPD1    H3 3070   1.467   3.141  15.492  1.6720  0.6802 -0.9677
  198MPD1     N 3071   1.851   3.214  15.749 -0.1738 -0.2301 -0.3642
  198MPD1    H5 3072   1.911   3.163  15.813 -2.2942  2.1941  3.5810
  198MPD1    N1 3073   1.661   2.794  15.709 -0.0404  0.4824 -0.4423
  198MPD1    H6 3074   1.718   2.771  15.790 -1.2210  2.1353  0.8372
  198MPD1    H7 3075   1.571   2.748  15.717  0.7342 -0.8694  0.5886
  199MPD1     C 3076   4.131   1.456  10.636  0.1174  0.5735 -0.0612
  199MPD1    C1 3077   4.101   1.479  10.506 -0.2447  0.9000  0.8255
  199MPD1    C2 3078   3.983   1.433  10.457  0.0457 -0.0274  0.5242
  199MPD1    C3 3079   3.880   1.394  10.546  0.5193 -0.1570  0.7159
  199MPD1    C4 3080   3.905   1.389  10.677  0.1763 -0.1856 -0.0904
  199MPD1    C5 3081   4.034   1.399  10.717 -0.1786  0.2936 -0.3163
  199MPD1     H 3082   3.966   1.428  10.350 -1.1190 -1.2264  0.7585
  199MPD1    H1 3083   3.832   1.353  10.748  0.6847  1.3987  1.2284
  199MPD1    H2 3084   4.232   1.471  10.674 -0.0761  0.8680  0.3412
  199MPD1    H3 3085   4.061   1.373  10.818 -1.6887  1.5465  0.4225
  199MPD1     N 3086   3.751   1.368  10.508 -0.7104 -0.6353  0.2222
  199MPD1    H5 3087   3.693   1.337  10.584  0.3439 -1.7436  0.5705
  199MPD1    N1 3088   4.200   1.513  10.416 -0.5283  0.6783 -0.0165
  199MPD1    H6 3089   4.158   1.545  10.329  0.8267  0.4991 -0.7391
  199MPD1    H7 3090   4.250   1.595  10.449  0.7982  0.1004 -0.5782
  200MPD1     C 3091   3.127   0.100  15.389  0.7828  0.3696  0.6629
  200MPD1    C1 3092   3.044   0.044  15.301  0.1423  0.1262 -0.2583
  200MPD1    C2 3093   3.022   0.099  15.175 -0.0788  0.2238  0.7235
  200MPD1    C3 3094   3.106   0.199  15.127  0.2221 -0.2447 -0.0541
  200MPD1    C4 3095   3.200   0.249  15.217  0.5101 -0.1950  0.1967
  200MPD1    C5 3096   3.206   0.202  15.349  0.4515  0.3468  0.0921
  200MPD1     H 3097   2.944   0.053  15.115  1.8743  0.1596 -1.7483
  200MPD1    H1 3098   3.271   0.328  15.194 -0.9270  1.4567  1.4412
  200MPD1    H2 3099   3.137   0.060  15.489  2.9810 -0.4635  0.1013
  200MPD1    H3 3100   3.265   0.246  15.429 -0.5929 -0.7526  1.4848
  200MPD1     N 3101   3.107   0.234  14.986  0.1566  0.2011 -1.1309
  200MPD1    H5 3102   3.029   0.199  14.932 -0.6497 -3.9107  2.7220
  200MPD1    N1 3103   2.970   4.673  15.344 -0.6034 -0.4671  0.2713
  200MPD1    H6 3104   3.038   4.611  15.388  1.1138  0.9241 -0.4476
  200MPD1    H7 3105   2.933   4.624  15.263 -1.4698  2.3477 -1.0336
  201MPD1     C 3106   1.070   4.271  12.554 -0.3026  0.8191  0.0550
  201MPD1    C1 3107   0.945   4.239  12.598 -0.1293  0.5489 -0.0513
  201MPD1    C2 3108   0.935   4.143  12.687 -0.0522 -0.2532 -0.3375
  201MPD1    C3 3109   1.043   4.076  12.731 -0.2262 -0.1080 -0.0601
  201MPD1    C4 3110   1.167   4.102  12.684 -0.3021  0.1172 -0.0861
  201MPD1    C5 3111   1.180   4.197  12.589  0.2071  0.3995  0.3556
  201MPD1     H 3112   0.839   4.128  12.735 -0.3627  0.1084 -0.8506
  201MPD1    H1 3113   1.251   4.038  12.709  1.2590  1.6755 -1.3261
  201MPD1    H2 3114   1.084   4.362  12.497  1.0065  0.7884  0.3390
  201MPD1    H3 3115   1.280   4.227  12.558  0.3408 -0.9499 -0.4989
  201MPD1     N 3116   1.019   3.992  12.850 -0.1098  0.6179 -0.5377
  201MPD1    H5 3117   0.931   3.992  12.901 -1.1460  1.7288 -2.3169
  201MPD1    N1 3118   0.838   4.329  12.579 -0.1441  0.1847 -0.2394
  201MPD1    H6 3119   0.753   4.274  12.591 -0.5945  0.6329 -1.4167
  201MPD1    H7 3120   0.841   4.387  12.496 -0.5775  3.2484  1.8644
  202MPD1     C 3121   4.320   3.701   9.200 -0.0832  0.4883 -0.4406
  202MPD1    C1 3122   4.351   3.587   9.265 -1.1582 -0.5538  0.2894
  202MPD1    C2 3123   4.397   3.608   9.391 -0.2489  0.4081  0.0069
  202MPD1    C3 3124   4.377   3.729   9.461 -0.1782 -0.1133 -0.5838
  202MPD1    C4 3125   4.348   3.840   9.389 -0.4387 -0.0074  0.1224
  202MPD1    C5 3126   4.328   3.826   9.258 -0.2496  0.8247 -0.3867
  202MPD1     H 3127   4.412   3.520   9.453 -1.1852 -0.1393 -0.5503
  202MPD1    H1 3128   4.347   3.938   9.435 -2.6965 -0.4755  1.1103
  202MPD1    H2 3129   4.287   3.699   9.096  0.1009 -1.5570 -0.4551
  202MPD1    H3 3130   4.292   3.912   9.203 -0.4072  1.6361  0.9965
  202MPD1     N 3131   4.383   3.734   9.604 -0.5360 -0.5069 -0.3025
  202MPD1    H5 3132   4.401   3.644   9.647 -0.1626 -1.1997 -1.9463
  202MPD1    N1 3133   4.385   3.475   9.196  0.1349  0.4457 -1.1072
  202MPD1    H6 3134   4.380   3.396   9.260 -1.2071 -0.1093 -1.8842
  202MPD1    H7 3135   4.327   3.453   9.114 -1.4227  0.1150  0.0809
  203MPD1     C 3136   3.247   3.971  12.370  0.2626  0.0840 -0.0173
  203MPD1    C1 3137   3.305   3.843  12.359 -0.2766 -0.6951 -0.0830
  203MPD1    C2 3138   3.427   3.823  12.434 -0.2024  0.2311 -0.4862
  203MPD1    C3 3139   3.483   3.928  12.510 -0.0586  0.1472  0.0954
  203MPD1    C4 3140   3.425   4.056  12.502  0.3222 -0.5383 -0.2880
  203MPD1    C5 3141   3.312   4.072  12.439  0.8785 -0.2408 -0.4042
  203MPD1     H 3142   3.485   3.732  12.426 -1.4609 -0.5725 -0.4565
  203MPD1    H1 3143   3.456   4.140  12.563 -0.2917 -1.0601  0.7547
  203MPD1    H2 3144   3.158   4.005  12.318  0.2420 -1.3854 -0.9358
  203MPD1    H3 3145   3.263   4.168  12.426 -0.3070 -0.7227  0.5145
  203MPD1     N 3146   3.601   3.905  12.588  0.0225  0.3597  0.3454
  203MPD1    H5 3147   3.646   3.815  12.574  1.1849  0.8411  1.0354
  203MPD1    N1 3148   3.262   3.762  12.253 -0.0130  0.2120 -0.3727
  203MPD1    H6 3149   3.284   3.664  12.273 -0.3966 -0.1192 -1.6148
  203MPD1    H7 3150   3.161   3.767  12.239  0.1791  0.2400 -1.7443
  204MPD1     C 3151   3.235   1.298  16.647  0.7043  0.3085  0.4580
  204MPD1    C1 3152   3.288   1.225  16.540 -0.4121 -0.4079  0.0140
  204MPD1    C2 3153   3.351   1.106  16.564 -0.0096 -0.0387 -0.5788
  204MPD1    C3 3154   3.378   1.066  16.693  1.1106  0.4939  0.9678
  204MPD1    C4 3155   3.333   1.141  16.802  0.1890  0.4966 -1.0858
  204MPD1    C5 3156   3.259   1.255  16.773  0.0415  0.4727 -0.2479
  204MPD1     H 3157   3.378   1.043  16.480 -1.5422 -1.7126  0.1780
  204MPD1    H1 3158   3.357   1.121  16.905 -1.2115 -2.0479 -1.2750
  204MPD1    H2 3159   3.185   1.391  16.625 -0.4538 -0.8417 -1.7250
  204MPD1    H3 3160   3.234   1.326  16.850  0.3136 -1.0189  1.2147
  204MPD1     N 3161   3.461   0.947  16.704 -0.0397 -0.5360 -0.4360
  204MPD1    H5 3162   3.515   0.917  16.623  0.9358  0.8456 -0.2887
  204MPD1    N1 3163   3.271   1.274  16.406 -0.1409  0.0896  1.0883
  204MPD1    H6 3164   3.309   1.368  16.397 -0.4371 -0.0264 -1.3942
  204MPD1    H7 3165   3.327   1.209  16.350  0.0523  0.2965  1.0432
  205MPD1     C 3166   3.979   4.294  16.418 -0.4692  0.2065 -0.0718
  205MPD1    C1 3167   3.949   4.194  16.501  0.2598 -0.2070  0.1479
  205MPD1    C2 3168   3.919   4.229  16.632 -0.3386 -0.7147  0.0378
  205MPD1    C3 3169   3.927   4.362  16.672  0.0918  0.2470  0.3916
  205MPD1    C4 3170   3.958   4.460  16.581 -1.0211 -0.6788 -0.1761
  205MPD1    C5 3171   3.987   4.418  16.455 -0.2783  0.5484 -0.8587
  205MPD1     H 3172   3.903   4.142  16.694  0.7489 -0.5637  0.5264
  205MPD1    H1 3173   3.966   4.564  16.611  0.8680 -0.5548 -1.1470
  205MPD1    H2 3174   4.004   4.279  16.313 -3.0650  2.1118 -0.9730
  205MPD1    H3 3175   4.008   4.492  16.378 -0.4078  0.2950 -1.1394
  205MPD1     N 3176   3.899   4.400  16.804  0.0973 -0.1559  1.1809
  205MPD1    H5 3177   3.902   4.501  16.819 -2.1617  0.1361 -0.4018
  205MPD1    N1 3178   3.924   4.070  16.445  0.1199  0.2068  0.1551
  205MPD1    H6 3179   3.940   3.995  16.513 -2.4644 -2.0251 -1.7151
  205MPD1    H7 3180   3.980   4.055  16.361 -0.7879  1.2434 -0.6285
  206MPD1     C 3181   3.976   1.550  16.358 -0.0457 -0.3738 -0.1051
  206MPD1    C1 3182   3.926   1.670  16.395  0.4594  0.0182  0.4209
  206MPD1    C2 3183   3.884   1.754  16.292  0.6962  0.6029 -1.1845
  206MPD1    C3 3184   3.901   1.723  16.160  0.2905 -0.3132 -0.2125
  206MPD1    C4 3185   3.958   1.605  16.123  0.2218 -0.0447 -0.6706
  206MPD1    C5 3186   3.991   1.518  16.220 -0.2123  0.6669 -0.1657
  206MPD1     H 3187   3.857   1.856  16.314 -3.4111 -1.0009  1.3264
  206MPD1    H1 3188   3.964   1.577  16.019  1.6827  2.4995 -1.2628
  206MPD1    H2 3189   4.012   1.476  16.430  1.7225 -0.3753 -0.9940
  206MPD1    H3 3190   4.024   1.420  16.186 -2.0655 -0.0888  0.1701
  206MPD1     N 3191   3.865   1.802  16.050  0.3723 -0.1556 -0.1892
  206MPD1    H5 3192   3.908   1.775  15.962 -0.3586 -0.8362 -0.3487
  206MPD1    N1 3193   3.892   1.692  16.532 -0.6762 -0.3411  0.2195
  206MPD1    H6 3194   3.961   1.649  16.593  0.4468  0.2695 -0.6078
  206MPD1    H7 3195   3.885   1.789  16.561 -4.2578 -0.8846  1.1725
  207MPD1     C 3196   0.630   0.108   9.467 -0.0149 -0.5348  0.8133
  207MPD1    C1 3197   0.626   0.244   9.483 -0.5342  0.3402 -0.6462
  207MPD1    C2 3198   0.705   0.315   9.572  0.8615 -0.5761 -0.2014
  207MPD1    C3 3199   0.794   0.239   9.645  0.5042 -0.1231  0.1794
  207MPD1    C4 3200   0.791   0.103   9.638  0.8240  0.2630 -0.5952
  207MPD1    C5 3201   0.705   0.037   9.555  0.2466  0.0299 -0.2497
  207MPD1     H 3202   0.704   0.423   9.570  0.7740 -0.5917 -1.0525
  207MPD1    H1 3203   0.863   0.042   9.692 -0.0344 -0.6290 -0.4690
  207MPD1    H2 3204   0.583   0.070   9.377  1.9661 -2.0805  0.4154
  207MPD1    H3 3205   0.697   4.669   9.538 -0.0894 -0.0755  0.5963
  207MPD1     N 3206   0.887   0.296   9.733  0.1703 -0.1517  0.2177
  207MPD1    H5 3207   0.941   0.230   9.788  2.0947  1.5406  0.3919
  207MPD1    N1 3208   0.562   0.323   9.387 -0.1927 -0.5863  0.0117
  207MPD1    H6 3209   0.474   0.283   9.355  0.4993 -3.5889  1.8802
  207MPD1    H7 3210   0.543   0.417   9.421  0.4892 -0.8694  1.1541
  208MPD1     C 3211   4.664   4.153  17.112  0.1482  1.1137 -0.3263
  208MPD1    C1 3212   4.567   4.071  17.083  0.1502 -0.1575  1.2906
  208MPD1    C2 3213   4.513   3.985  17.181 -0.5843 -0.3533 -0.0566
  208MPD1    C3 3214   4.581   3.966  17.301  0.1796 -0.9257 -0.0193
  208MPD1    C4 3215   4.687   4.048  17.330  0.1341  0.5574 -0.4471
  208MPD1    C5 3216   4.728   4.138  17.229 -0.1951  0.1168  0.3058
  208MPD1     H 3217   4.427   3.924  17.160 -1.2396  0.4790  0.1900
  208MPD1    H1 3218   0.013   4.046  17.417 -0.6170  2.1223  0.1649
  208MPD1    H2 3219   4.706   4.230  17.048 -1.8074  0.3931 -2.4315
  208MPD1    H3 3220   0.071   4.207  17.245  0.0077  0.1510 -0.8427
  208MPD1     N 3221   4.531   3.879  17.401  0.1003 -0.1570  0.3109
  208MPD1    H5 3222   4.455   3.820  17.370  0.3641 -0.0698 -0.5015
  208MPD1    N1 3223   4.500   4.076  16.955  0.0294 -0.2604  0.1704
  208MPD1    H6 3224   4.576   4.070  16.888  0.1118  1.8148  0.0725
  208MPD1    H7 3225   4.437   4.000  16.930  0.1293  0.2497 -1.6258
  209MPD1     C 3226   0.598   4.455  11.402  0.4482  0.2732  0.5962
  209MPD1    C1 3227   0.722   4.490  11.457  0.5648  0.0962 -0.2374
  209MPD1    C2 3228   0.813   4.534  11.366 -0.3741 -0.1987 -0.5745
  209MPD1    C3 3229   0.777   4.561  11.236 -0.0934 -0.2852  0.0382
  209MPD1    C4 3230   0.654   4.543  11.189 -0.3772 -0.5432 -0.2074
  209MPD1    C5 3231   0.560   4.488  11.270  0.7112 -0.4714  0.3637
  209MPD1     H 3232   0.912   4.557  11.405 -0.3076  1.3257 -1.6348
  209MPD1    H1 3233   0.616   4.570  11.091 -1.4504  0.3326  0.4436
  209MPD1    H2 3234   0.523   4.418  11.471 -0.2161  1.8743  0.7434
  209MPD1    H3 3235   0.460   4.473  11.230  0.4279  1.2198  0.4315
  209MPD1     N 3236   0.885   4.611  11.160  0.2061  0.7076  0.0070
  209MPD1    H5 3237   0.973   4.618  11.210  0.6182 -0.6522 -0.5273
  209MPD1    N1 3238   0.759   4.444  11.589 -0.3963  0.7446 -0.2636
  209MPD1    H6 3239   0.686   4.432  11.658  1.3793  1.2203  1.6846
  209MPD1    H7 3240   0.831   4.497  11.637  0.9883 -2.3435  1.0810
  210MPD1     C 3241   1.634   0.209  11.441 -0.1214 -0.0470  0.5812
  210MPD1    C1 3242   1.633   0.278  11.320 -0.4878 -0.2307  0.1366
  210MPD1    C2 3243   1.523   0.259  11.230  0.0702  0.6947  0.3585
  210MPD1    C3 3244   1.427   0.167  11.257 -0.0262 -0.4636 -0.1443
  210MPD1    C4 3245   1.427   0.109  11.386  0.3017  0.7063  0.6307
  210MPD1    C5 3246   1.540   0.119  11.467 -0.3272 -1.0359  0.2865
  210MPD1     H 3247   1.508   0.321  11.142 -0.8086 -3.0040 -2.1301
  210MPD1    H1 3248   1.341   0.056  11.426 -0.5553  1.4428 -0.2284
  210MPD1    H2 3249   1.717   0.203  11.512 -2.1742 -0.3825  2.9496
  210MPD1    H3 3250   1.536   0.069  11.563 -0.0183 -2.2837 -0.3446
  210MPD1     N 3251   1.317   0.134  11.178 -0.5472 -0.0293 -0.0703
  210MPD1    H5 3252   1.242   0.079  11.218 -0.9461  1.0017  0.5731
  210MPD1    N1 3253   1.733   0.379  11.301  0.1383 -0.3871 -0.6216
  210MPD1    H6 3254   1.823   0.363  11.346  0.0798  0.0396 -0.3523
  210MPD1    H7 3255   1.749   0.411  11.205  2.3752 -2.5325 -0.9955
  211MPD1     C 3256   4.129   0.526  15.982 -0.2781  0.2401  0.2139
  211MPD1    C1 3257   4.139   0.498  16.116  0.0562 -0.2775  0.1816
  211MPD1    C2 3258   4.086   0.376  16.158 -0.0299  0.9267 -0.0253
  211MPD1    C3 3259   4.017   0.293  16.074 -0.3334 -0.1982 -0.8231
  211MPD1    C4 3260   4.006   0.320  15.941 -0.4764  0.1531 -0.4484
  211MPD1    C5 3261   4.063   0.438  15.899 -0.1106  0.6974 -0.0959
  211MPD1     H 3262   4.099   0.357  16.264 -0.2871  1.6435  0.1354
  211MPD1    H1 3263   3.954   0.259  15.867 -0.5243  1.0181 -1.1364
  211MPD1    H2 3264   4.177   0.610  15.932 -0.8447  0.2765 -0.2691
  211MPD1    H3 3265   4.045   0.463  15.795 -2.8670  3.3051  1.0227
  211MPD1     N 3266   3.963   0.170  16.123  0.0695  0.2708  0.2282
  211MPD1    H5 3267   3.971   0.150  16.223  0.5399 -0.1714  0.1038
  211MPD1    N1 3268   4.233   0.577  16.191  0.4176  0.5518  0.3337
  211MPD1    H6 3269   4.254   0.662  16.139  2.7369 -0.5259 -0.4933
  211MPD1    H7 3270   4.201   0.608  16.283 -0.5276 -1.3509  0.6283
  212MPD1     C 3271   3.348   1.439  17.279  0.2416 -0.5053  0.5360
  212MPD1    C1 3272   3.253   1.405  17.366  0.3828 -0.4481  0.3083
  212MPD1    C2 3273   3.121   1.444  17.344  0.4590  0.1318 -0.1096
  212MPD1    C3 3274   3.081   1.530  17.243 -0.0742  0.7074 -0.2248
  212MPD1    C4 3275   3.181   1.566  17.151  0.3266 -0.6063 -0.3497
  212MPD1    C5 3276   3.306   1.525  17.180 -0.4233  0.0975  0.3359
  212MPD1     H 3277   3.046   1.408  17.414 -1.6575  2.0329 -1.3840
  212MPD1    H1 3278   3.161   1.637  17.071 -0.6579 -0.5974 -0.0973
  212MPD1    H2 3279   3.451   1.404  17.289  0.7077  0.3286 -1.3519
  212MPD1    H3 3280   3.376   1.550  17.101 -0.6244  2.1526  0.8171
  212MPD1     N 3281   2.955   1.588  17.239  0.6813  0.5197 -0.5649
  212MPD1    H5 3282   2.933   1.642  17.156 -0.0671 -0.4656 -1.0151
  212MPD1    N1 3283   3.279   1.306  17.466 -0.0274 -0.1662  0.2343
  212MPD1    H6 3284   3.367   1.301  17.517  0.6062  0.9105 -0.7580
  212MPD1    H7 3285   3.210   1.301  17.541  1.1996 -1.9157  1.2406
  213MPD1     C 3286   1.062   2.431  15.571 -0.1227 -0.3160  0.1980
  213MPD1    C1 3287   1.101   2.542  15.645  0.0603 -0.0777  0.7110
  213MPD1    C2 3288   1.132   2.658  15.572  0.0241  0.6865  0.5676
  213MPD1    C3 3289   1.083   2.673  15.441 -0.0904  0.1166  0.1824
  213MPD1    C4 3290   1.020   2.563  15.381 -0.4971  0.2203  1.0680
  213MPD1    C5 3291   1.017   2.445  15.443  0.0251  0.5582  0.6962
  213MPD1     H 3292   1.181   2.738  15.627  1.9509  0.1465 -0.3525
  213MPD1    H1 3293   0.993   2.565  15.276  1.2192 -3.4587  0.5487
  213MPD1    H2 3294   1.048   2.337  15.623 -1.2304 -1.0146 -1.3537
  213MPD1    H3 3295   0.978   2.363  15.385  0.5655 -0.6305  2.0193
  213MPD1     N 3296   1.097   2.799  15.380  0.1661  0.9484 -0.2313
  213MPD1    H5 3297   1.151   2.870  15.429 -0.5493  1.4216 -0.1117
  213MPD1    N1 3298   1.160   2.511  15.766  0.8336  0.1472 -0.1189
  213MPD1    H6 3299   1.171   2.596  15.821 -2.6039 -0.3568  1.3500
  213MPD1    H7 3300   1.098   2.445  15.813  0.4238  0.5941 -0.0353
  214MPD1     C 3301   0.319   3.287  15.370 -0.2909  0.1567 -0.0873
  214MPD1    C1 3302   0.397   3.360  15.276  0.2498  0.8136  0.2516
  214MPD1    C2 3303   0.522   3.327  15.248 -0.6755  0.3645 -0.8640
  214MPD1    C3 3304   0.576   3.210  15.294 -0.1347 -0.1061  0.0208
  214MPD1    C4 3305   0.494   3.119  15.372 -0.6246 -0.1740  0.3740
  214MPD1    C5 3306   0.369   3.166  15.409 -0.0695  0.0315  0.0000
  214MPD1     H 3307   0.578   3.397  15.186  1.1900  0.2061  0.6161
  214MPD1    H1 3308   0.537   3.027  15.410  0.0065  0.1439  0.4318
  214MPD1    H2 3309   0.219   3.317  15.401  0.5749  1.9749  0.9706
  214MPD1    H3 3310   0.311   3.106  15.478  0.4894  1.4077  1.6586
  214MPD1     N 3311   0.708   3.168  15.271  0.1253 -0.3779  0.1287
  214MPD1    H5 3312   0.734   3.083  15.319 -1.8611 -1.9527 -1.5885
  214MPD1    N1 3313   0.354   3.488  15.233  0.2178 -0.5601 -0.5745
  214MPD1    H6 3314   0.381   3.508  15.137 -1.3248 -0.1271 -0.9152
  214MPD1    H7 3315   0.253   3.483  15.238  0.3742 -0.7721  2.6234
  215MPD1     C 3316   0.586   4.660  11.916 -0.2074  0.3141  0.5603
  215MPD1    C1 3317   0.645   4.726  12.024 -0.9921 -0.2037  0.1091
  215MPD1    C2 3318   0.745   0.073  11.991  0.3727  0.6089  0.4298
  215MPD1    C3 3319   0.761   0.127  11.863 -0.2148  0.5390 -0.2615
  215MPD1    C4 3320   0.677   0.080  11.758  0.0442 -0.1719  0.0268
  215MPD1    C5 3321   0.593   4.713  11.786  1.2258  0.0049 -0.3129
  215MPD1     H 3322   0.805   0.120  12.068 -1.8333  4.9934 -0.5014
  215MPD1    H1 3323   0.679   0.111  11.654 -2.5265 -0.1651 -0.0272
  215MPD1    H2 3324   0.513   4.582  11.932 -0.3855  0.8126  2.2072
  215MPD1    H3 3325   0.529   4.665  11.712  2.1312  1.0155 -1.7686
  215MPD1     N 3326   0.863   0.222  11.845  0.6712 -0.3760  0.6527
  215MPD1    H5 3327   0.916   0.250  11.927  0.2144 -1.7529  1.4324
  215MPD1    N1 3328   0.644   4.673  12.157 -0.1577  0.2206 -0.0997
  215MPD1    H6 3329   0.656   0.013  12.221  2.6576  1.3864 -2.0180
  215MPD1    H7 3330   0.557   4.627  12.183  0.9238 -1.8108 -0.0777
  216MPD1     C 3331   2.911   2.165   0.887 -0.1381 -0.1810 -0.0753
  216MPD1    C1 3332   3.009   2.176   0.788  0.0251 -0.4248  0.0683
  216MPD1    C2 3333   3.035   2.074   0.705 -0.2176  0.1662  0.2567
  216MPD1    C3 3334   2.956   1.962   0.711 -0.3048  0.0660 -0.5851
  216MPD1    C4 3335   2.857   1.951   0.807 -0.8556 -0.0042 -0.6484
  216MPD1    C5 3336   2.830   2.053   0.890 -0.2224  0.1455  0.8699
  216MPD1     H 3337   3.122   2.079   0.640  1.5602 -0.1945  2.5973
  216MPD1    H1 3338   2.805   1.857   0.825  0.7700 -0.6087  0.8161
  216MPD1    H2 3339   2.899   2.256   0.945  1.4321 -0.1854  0.2495
  216MPD1    H3 3340   2.755   2.041   0.967 -1.0917  2.6454  0.4149
  216MPD1     N 3341   2.997   1.856   0.619 -0.0456  0.8784 -0.0103
  216MPD1    H5 3342   3.043   1.888   0.534 -1.3385 -0.4866 -1.2229
  216MPD1    N1 3343   3.085   2.292   0.784  0.1297  0.2872  0.1625
  216MPD1    H6 3344   3.050   2.372   0.836 -2.7966 -1.0830  0.3356
  216MPD1    H7 3345   3.091   2.326   0.689 -0.7230  1.3125  0.4723
  217MPD1     C 3346   2.995   3.509   8.305  0.1785  0.1086  0.0598
  217MPD1    C1 3347   2.939   3.635   8.311 -0.0933 -0.2474  0.1873
  217MPD1    C2 3348   2.980   3.720   8.413  0.1912  0.3657  0.5701
  217MPD1    C3 3349   3.083   3.676   8.504 -0.1710  0.6276 -0.2127
  217MPD1    C4 3350   3.135   3.551   8.486  0.5944 -0.1178 -0.1849
  217MPD1    C5 3351   3.103   3.467   8.384  0.4742  0.5785  0.0963
  217MPD1     H 3352   2.929   3.812   8.438 -0.6568 -0.0113  0.2282
  217MPD1    H1 3353   3.205   3.519   8.563  0.8396  0.4306 -0.1805
  217MPD1    H2 3354   2.955   3.437   8.234  0.5893  0.2926 -0.3590
  217MPD1    H3 3355   3.146   3.369   8.366  1.5108  1.5672 -2.6878
  217MPD1     N 3356   3.132   3.747   8.613  0.0362 -0.0732 -0.2357
  217MPD1    H5 3357   3.215   3.704   8.653  1.8276  2.7482 -0.9008
  217MPD1    N1 3358   2.821   3.669   8.235  0.5722 -0.6331  0.3139
  217MPD1    H6 3359   2.796   3.768   8.229  1.1482 -0.5837 -1.2354
  217MPD1    H7 3360   2.833   3.637   8.140  0.0683  0.7647 -0.2207
  218MPD1     C 3361   0.442   0.381  12.869 -0.8829  0.1042 -0.4229
  218MPD1    C1 3362   0.551   0.454  12.834  0.4455  0.1476  0.5996
  218MPD1    C2 3363   0.674   0.389  12.809  0.3305 -0.0259 -0.4847
  218MPD1    C3 3364   0.681   0.248  12.830  0.5216 -0.1727  0.3638
  218MPD1    C4 3365   0.565   0.178  12.855  0.9386  0.3720 -0.0698
  218MPD1    C5 3366   0.447   0.243  12.873  0.1068 -0.5579 -0.6866
  218MPD1     H 3367   0.758   0.429  12.753  0.4627  1.1126  0.5374
  218MPD1    H1 3368   0.553   0.070  12.861  0.4539  0.2249 -4.1230
  218MPD1    H2 3369   0.348   0.423  12.902 -1.3511 -1.8603  0.7263
  218MPD1    H3 3370   0.355   0.186  12.886 -0.7656  1.2576  1.1275
  218MPD1     N 3371   0.806   0.180  12.812 -0.6417  0.0937  0.1617
  218MPD1    H5 3372   0.882   0.243  12.789 -1.7091  1.0791 -0.7538
  218MPD1    N1 3373   0.530   0.590  12.815 -0.9317  0.2133 -0.3770
  218MPD1    H6 3374   0.442   0.605  12.864 -2.8281  0.7773 -3.8880
  218MPD1    H7 3375   0.595   0.659  12.852 -0.1804 -0.2731 -0.7736
  219MPD1     C 3376   1.437   0.439  12.166 -0.7096 -0.2287 -0.2623
  219MPD1    C1 3377   1.372   0.490  12.271  0.5954 -0.3189  0.4831
  219MPD1    C2 3378   1.318   0.396  12.359  0.3145  0.2401 -0.0906
  219MPD1    C3 3379   1.344   0.256  12.351  0.3135 -0.1877 -0.1046
  219MPD1    C4 3380   1.421   0.211  12.244  0.6436  0.0428  0.0889
  219MPD1    C5 3381   1.463   0.302  12.153  0.7694 -0.3848 -0.0958
  219MPD1     H 3382   1.266   0.442  12.442  1.1004  0.5194  0.2521
  219MPD1    H1 3383   1.439   0.105  12.231  0.3180 -0.3288  2.7323
  219MPD1    H2 3384   1.476   0.503  12.088 -1.4220  0.1060 -0.3487
  219MPD1    H3 3385   1.519   0.273  12.065  0.6920 -1.4180  0.2020
  219MPD1     N 3386   1.285   0.163  12.441  0.0147 -0.3658 -0.0548
  219MPD1    H5 3387   1.291   0.064  12.417  0.4807 -0.5203  0.6806
  219MPD1    N1 3388   1.356   0.630  12.282 -0.3703  0.1870 -0.0529
  219MPD1    H6 3389   1.360   0.651  12.381  1.0102 -0.3685  0.0072
  219MPD1    H7 3390   1.443   0.669  12.248 -0.1053  0.2781  0.7375
  220MPD1     C 3391   0.603   0.274   9.915  0.1325 -0.1250 -0.6076
  220MPD1    C1 3392   0.660   0.376   9.993 -0.5207  0.5471 -0.1535
  220MPD1    C2 3393   0.709   0.352  10.116 -0.4950  0.0398 -0.8152
  220MPD1    C3 3394   0.699   0.224  10.173 -0.0398  0.3668 -0.1156
  220MPD1    C4 3395   0.660   0.123  10.090 -0.1437 -0.3060  0.4266
  220MPD1    C5 3396   0.613   0.147   9.963  0.0903 -0.5955  0.0325
  220MPD1     H 3397   0.755   0.438  10.163 -0.8384 -0.1751 -0.0773
  220MPD1    H1 3398   0.658   0.018  10.118  2.0042 -0.8777 -1.5548
  220MPD1    H2 3399   0.548   0.293   9.823  0.8238  1.8081 -0.6236
  220MPD1    H3 3400   0.578   0.059   9.911  0.0402 -1.3498  1.3421
  220MPD1     N 3401   0.732   0.204  10.312  0.0982 -0.2745  0.0052
  220MPD1    H5 3402   0.740   0.289  10.367 -0.1807  0.3456 -0.9318
  220MPD1    N1 3403   0.627   0.510   9.957  0.3992  0.3169 -0.1916
  220MPD1    H6 3404   0.623   0.521   9.856 -0.6993  2.0251  0.0461
  220MPD1    H7 3405   0.685   0.584   9.997 -1.3065  1.5077  0.0665
  221MPD1     C 3406   4.344   4.012  15.750 -0.0568 -0.0443 -0.0946
  221MPD1    C1 3407   4.319   3.907  15.668 -0.2044  0.3140 -0.2376
  221MPD1    C2 3408   4.295   3.786  15.731  0.1377 -0.1804  0.3090
  221MPD1    C3 3409   4.285   3.788  15.868  0.4993 -0.3710  0.1755
  221MPD1    C4 3410   4.327   3.888  15.951 -0.8882 -0.2860 -0.7428
  221MPD1    C5 3411   4.364   4.003  15.887 -0.7909  0.1152 -0.5981
  221MPD1     H 3412   4.250   3.706  15.673 -2.8889  0.0847  2.2876
  221MPD1    H1 3413   4.334   3.876  16.058 -1.8930  1.4167 -0.4871
  221MPD1    H2 3414   4.359   4.106  15.697  1.1053 -1.1437 -1.7131
  221MPD1    H3 3415   4.402   4.080  15.953  1.0550 -0.4557 -1.0032
  221MPD1     N 3416   4.250   3.671  15.942 -0.3753  0.3395  0.4652
  221MPD1    H5 3417   4.281   3.666  16.039 -1.4768  0.7497  0.8350
  221MPD1    N1 3418   4.286   3.916  15.529  0.6543  0.2792 -0.0867
  221MPD1    H6 3419   4.303   3.825  15.487 -1.8324  0.1395 -0.8263
  221MPD1    H7 3420   4.355   3.980  15.489  1.0339 -0.3691 -0.4662
  222MPD1     C 3421   2.310   1.605   0.224  0.6364  0.1257  0.1254
  222MPD1    C1 3422   2.354   1.576   0.351  0.0577 -0.0896  0.2291
  222MPD1    C2 3423   2.383   1.676   0.435 -0.0168 -0.4867 -0.3785
  222MPD1    C3 3424   2.413   1.797   0.379 -0.7016 -0.0555 -0.4412
  222MPD1    C4 3425   2.381   1.832   0.250 -0.2748 -0.1085 -0.0634
  222MPD1    C5 3426   2.333   1.728   0.173 -0.4476 -0.2305 -0.1439
  222MPD1     H 3427   2.405   1.654   0.538 -0.9072 -0.0799 -0.0992
  222MPD1    H1 3428   2.401   1.928   0.204  3.8579 -0.7351  0.4866
  222MPD1    H2 3429   2.267   1.532   0.157  3.4497 -0.9772 -0.4963
  222MPD1    H3 3430   2.326   1.745   0.066 -0.6246  0.9389  0.0551
  222MPD1     N 3431   2.472   1.909   0.455 -0.2922  0.3848  0.4104
  222MPD1    H5 3432   2.508   1.981   0.393  0.9742 -0.2009  0.4618
  222MPD1    N1 3433   2.327   1.455   0.404  0.0011 -0.3344  0.0271
  222MPD1    H6 3434   2.340   1.380   0.336 -0.1232  0.7264 -1.1773
  222MPD1    H7 3435   2.397   1.435   0.475  0.0756  1.5342  0.4839
  223MPD1     C 3436   2.405   2.766   1.099 -0.8219  0.8756 -0.1811
  223MPD1    C1 3437   2.539   2.764   1.072 -0.3072  0.5182  0.1086
  223MPD1    C2 3438   2.589   2.651   1.009  0.5200 -0.1349  0.5429
  223MPD1    C3 3439   2.504   2.542   0.980 -0.2018  0.3439  0.8498
  223MPD1    C4 3440   2.375   2.547   1.018  0.3898  1.0662 -0.3712
  223MPD1    C5 3441   2.321   2.665   1.074  0.3478 -0.7081 -0.0408
  223MPD1     H 3442   2.695   2.642   0.989  0.3333  2.0546 -1.3999
  223MPD1    H1 3443   2.309   2.463   1.004  0.3539  0.6162  2.5542
  223MPD1    H2 3444   2.356   2.851   1.144 -0.1757  1.4931 -0.6306
  223MPD1    H3 3445   2.214   2.669   1.089  0.8199  2.0893  2.6008
  223MPD1     N 3446   2.553   2.423   0.913  0.1501 -0.5881  0.3873
  223MPD1    H5 3447   2.647   2.429   0.876  0.1742  1.2326  0.7499
  223MPD1    N1 3448   2.630   2.862   1.106  0.3264 -0.2153  0.7836
  223MPD1    H6 3449   2.601   2.959   1.114  0.8675  0.0021  0.1327
  223MPD1    H7 3450   2.710   2.869   1.044  0.5822 -0.3737  1.0962
  224MPD1     C 3451   4.594   0.151   9.489 -0.6312  0.1895 -0.2107
  224MPD1    C1 3452   4.472   0.216   9.517 -0.5172  0.7187 -0.4621
  224MPD1    C2 3453   4.388   0.154   9.607  0.1498 -0.0651 -0.1394
  224MPD1    C3 3454   4.404   0.027   9.652 -0.0050  0.5642  0.0609
  224MPD1    C4 3455   4.521   4.699   9.622 -0.3820 -0.0059  0.3193
  224MPD1    C5 3456   4.611   0.019   9.540  0.2349 -0.4997  0.0165
  224MPD1     H 3457   4.301   0.216   9.624  0.5517  0.1270  1.1974
  224MPD1    H1 3458   4.541   4.597   9.652  2.0333  0.8085  1.4024
  224MPD1    H2 3459   4.677   0.197   9.437  0.3482 -1.6247 -0.2492
  224MPD1    H3 3460   4.700   4.704   9.510  0.6097 -0.5391  1.2046
  224MPD1     N 3461   4.320   4.705   9.750  0.6380 -0.5459 -0.1682
  224MPD1    H5 3462   4.347   4.614   9.785  0.5257  0.2877  2.0645
  224MPD1    N1 3463   4.444   0.348   9.481 -0.4394  0.2597  0.0797
  224MPD1    H6 3464   4.492   0.377   9.395 -1.6891  0.1590 -0.6398
  224MPD1    H7 3465   4.346   0.366   9.464 -0.4178  0.2491 -0.0578
  225MPD1     C 3466   1.028   0.652  12.480 -0.6884  0.0347  0.0800
  225MPD1    C1 3467   0.964   0.603  12.374 -0.2558  0.9780  0.5645
  225MPD1    C2 3468   0.828   0.596  12.379  0.7223  0.8149  0.7693
  225MPD1    C3 3469   0.753   0.625  12.490  0.4907  0.1131 -0.7016
  225MPD1    C4 3470   0.825   0.664  12.606  1.0409  0.9193  0.0625
  225MPD1    C5 3471   0.963   0.674  12.592  0.2118  0.1016 -0.4116
  225MPD1     H 3472   0.777   0.571  12.287  1.0471  2.1486  0.2269
  225MPD1    H1 3473   0.789   0.697  12.703  0.3620  0.7512 -0.1339
  225MPD1    H2 3474   1.135   0.669  12.483 -0.2779 -2.1247 -1.7618
  225MPD1    H3 3475   1.020   0.711  12.676 -1.1972 -2.7513  1.8123
  225MPD1     N 3476   0.613   0.616  12.504 -0.4384  0.5643  0.1976
  225MPD1    H5 3477   0.581   0.618  12.601 -0.6637 -2.9098  0.1743
  225MPD1    N1 3478   1.027   0.609  12.253  0.3520  0.1155  0.8311
  225MPD1    H6 3479   1.122   0.577  12.269  0.2149 -0.5197  0.3560
  225MPD1    H7 3480   0.985   0.549  12.182 -0.8051  0.8924  0.8499
  226MPD1     C 3481   4.391   1.085  10.817 -0.7769 -0.6986 -0.0209
  226MPD1    C1 3482   4.426   0.985  10.728  0.3288 -0.3963  0.5028
  226MPD1    C2 3483   4.345   0.943  10.629 -1.3665 -0.7265 -0.3989
  226MPD1    C3 3484   4.231   1.014  10.601  0.4469  0.6374 -0.3672
  226MPD1    C4 3485   4.183   1.106  10.694  0.0206 -0.2046  0.3909
  226MPD1    C5 3486   4.267   1.141  10.795  0.0789 -0.4223  0.4820
  226MPD1     H 3487   4.375   0.865  10.560  0.6206 -0.9645  0.7558
  226MPD1    H1 3488   4.091   1.162  10.684 -0.0919 -0.4715 -0.0369
  226MPD1    H2 3489   4.453   1.128  10.895 -1.6463 -0.8862  0.7733
  226MPD1    H3 3490   4.235   1.220  10.862  0.6717 -0.5468  0.9065
  226MPD1     N 3491   4.159   0.984  10.484  0.2657  0.0498  0.2768
  226MPD1    H5 3492   4.208   0.937  10.409 -1.2949  0.1252 -0.8013
  226MPD1    N1 3493   4.538   0.909  10.755 -0.2270  0.5011 -0.4884
  226MPD1    H6 3494   4.590   0.878  10.673 -2.1320  0.3490 -1.6347
  226MPD1    H7 3495   4.594   0.950  10.830 -1.8466  1.1181  0.3833
  227MPD1     C 3496   3.279   0.733   9.999  0.1733 -0.6324  0.1148
  227MPD1    C1 3497   3.339   0.673  10.110  0.0343 -0.4276  0.0244
  227MPD1    C2 3498   3.457   0.736  10.155 -0.0849  0.0829 -0.1389
  227MPD1    C3 3499   3.500   0.854  10.096  0.0790 -0.5167 -0.4261
  227MPD1    C4 3500   3.432   0.911   9.996 -0.7024  0.2754 -0.6279
  227MPD1    C5 3501   3.320   0.851   9.952 -0.1260  0.5003 -0.7664
  227MPD1     H 3502   3.511   0.694  10.239 -0.4209  0.9292  0.5113
  227MPD1    H1 3503   3.459   1.007   9.955 -0.7567  0.8170  0.5922
  227MPD1    H2 3504   3.197   0.682   9.950  0.0288 -0.2904  0.0022
  227MPD1    H3 3505   3.277   0.880   9.856  0.4898  1.8780 -0.6191
  227MPD1     N 3506   3.620   0.913  10.153  0.0009  0.0033  0.9419
  227MPD1    H5 3507   3.667   0.854  10.221  0.8158 -0.7674 -0.3001
  227MPD1    N1 3508   3.317   0.535  10.124  0.4082 -0.4044 -0.3522
  227MPD1    H6 3509   3.222   0.522  10.089  0.6604  1.2727 -1.6622
  227MPD1    H7 3510   3.312   0.512  10.223 -2.7105 -3.9366 -1.2997
  228MPD1     C 3511   2.875   2.530  12.986  0.2910 -0.5227  0.6195
  228MPD1    C1 3512   2.772   2.529  12.897  0.2344  0.0180  1.1161
  228MPD1    C2 3513   2.647   2.581  12.923  0.2128  0.2446  0.1964
  228MPD1    C3 3514   2.629   2.645  13.042  0.2062  0.1088  0.7915
  228MPD1    C4 3515   2.729   2.640  13.136 -0.1503 -0.4072 -0.2605
  228MPD1    C5 3516   2.852   2.586  13.109 -0.6987 -0.4499 -0.1671
  228MPD1     H 3517   2.574   2.597  12.846  0.0374  0.6742  0.4509
  228MPD1    H1 3518   2.718   2.686  13.233 -0.5681 -0.7169 -0.1650
  228MPD1    H2 3519   2.974   2.500  12.954 -0.3491 -1.6997 -0.2434
  228MPD1    H3 3520   2.929   2.591  13.186 -0.0633 -2.0651 -0.7012
  228MPD1     N 3521   2.505   2.710  13.062 -0.1454 -0.1081  0.0425
  228MPD1    H5 3522   2.441   2.711  12.983  0.3481 -2.4388 -0.4014
  228MPD1    N1 3523   2.795   2.487  12.765 -0.6182  0.4358 -0.2274
  228MPD1    H6 3524   2.705   2.462  12.725 -1.2520  0.4786  1.1633
  228MPD1    H7 3525   2.857   2.407  12.754 -0.1848  0.3365  2.8234
  229MPD1     C 3526   1.876   1.652  15.111  0.0032 -0.6444 -0.2114
  229MPD1    C1 3527   1.850   1.514  15.103  0.2420  0.2498 -0.4101
  229MPD1    C2 3528   1.958   1.423  15.105  0.5804 -0.2919  0.1191
  229MPD1    C3 3529   2.090   1.473  15.116 -0.1999 -0.3947  0.0687
  229MPD1    C4 3530   2.113   1.610  15.133 -0.0166  0.8312  0.0043
  229MPD1    C5 3531   2.006   1.696  15.123  0.3176 -0.1468  0.4144
  229MPD1     H 3532   1.932   1.318  15.092 -4.1331  0.9865 -0.7186
  229MPD1    H1 3533   2.214   1.646  15.144  0.7807 -1.2489 -0.5714
  229MPD1    H2 3534   1.794   1.722  15.111 -1.0549 -1.8759 -0.5281
  229MPD1    H3 3535   2.025   1.802  15.127  0.0283 -0.0844  0.1623
  229MPD1     N 3536   2.205   1.386  15.127  0.0196  0.2282  0.0668
  229MPD1    H5 3537   2.292   1.430  15.156  1.0076 -0.6636 -1.5026
  229MPD1    N1 3538   1.727   1.471  15.057 -0.4182 -0.6122 -0.0348
  229MPD1    H6 3539   1.663   1.539  15.097  0.8893 -1.0089  2.7383
  229MPD1    H7 3540   1.707   1.373  15.077  1.1633 -0.8314  0.4925
  230MPD1     C 3541   2.988   1.281  15.732 -0.2099 -0.3458 -0.6533
  230MPD1    C1 3542   2.976   1.152  15.691  0.6939  0.1903  0.5534
  230MPD1    C2 3543   2.865   1.113  15.613 -1.1397  0.0308 -0.0389
  230MPD1    C3 3544   2.779   1.210  15.563 -0.4480  0.0183  0.4573
  230MPD1    C4 3545   2.794   1.346  15.598  0.6875  1.2636  0.3453
  230MPD1    C5 3546   2.910   1.382  15.674  0.2077 -0.5801 -0.4002
  230MPD1     H 3547   2.859   1.012  15.574  0.8614 -0.4687  0.9942
  230MPD1    H1 3548   2.734   1.427  15.558  1.0560  0.9941 -0.7658
  230MPD1    H2 3549   3.068   1.320  15.794  0.4165 -1.7131 -0.5915
  230MPD1    H3 3550   2.936   1.486  15.691 -1.2554 -0.3651  0.5215
  230MPD1     N 3551   2.680   1.174  15.473 -0.3594  0.5241  0.3223
  230MPD1    H5 3552   2.686   1.079  15.438 -1.6242  0.4431  0.3326
  230MPD1    N1 3553   3.055   1.050  15.752 -0.4533 -0.3026 -0.3022
  230MPD1    H6 3554   3.071   0.966  15.696  0.3295 -2.0255  2.4619
  230MPD1    H7 3555   3.146   1.074  15.790 -0.1023 -2.5055  0.2871
  231MPD1     C 3556   0.760   3.629  15.613 -0.0670 -0.8326  0.3828
  231MPD1    C1 3557   0.701   3.574  15.497 -0.3055 -0.9154  0.6661
  231MPD1    C2 3558   0.750   3.615  15.373 -0.3434  0.7889 -0.3599
  231MPD1    C3 3559   0.867   3.694  15.364  0.6153  0.0848 -0.3998
  231MPD1    C4 3560   0.933   3.726  15.479  0.2593  0.2856  0.7788
  231MPD1    C5 3561   0.875   3.702  15.598 -0.1263  0.2083 -0.3785
  231MPD1     H 3562   0.692   3.593  15.284  1.2194  0.1997 -1.2207
  231MPD1    H1 3563   1.022   3.787  15.492 -1.5515  2.7074  1.7993
  231MPD1    H2 3564   0.728   3.607  15.714  1.0536 -1.3667  0.6208
  231MPD1    H3 3565   0.926   3.750  15.681  1.1801 -3.1961  0.7962
  231MPD1     N 3566   0.915   3.729  15.240  0.3044 -0.2816 -0.7280
  231MPD1    H5 3567   0.862   3.708  15.156  0.8404  0.0367 -1.1476
  231MPD1    N1 3568   0.585   3.497  15.512 -0.1455 -0.7864  0.7625
  231MPD1    H6 3569   0.579   3.441  15.427  0.6666  1.2476 -0.6456
  231MPD1    H7 3570   0.582   3.447  15.601  1.5027 -2.5828 -0.1810
  232MPD1     C 3571   2.508   0.679   1.050 -0.2973  0.0652  0.3438
  232MPD1    C1 3572   2.538   0.717   0.917 -0.3040  0.3590  0.7597
  232MPD1    C2 3573   2.509   0.623   0.822  0.1898  0.2275  0.2255
  232MPD1    C3 3574   2.472   0.490   0.863 -0.0633 -0.7369  0.4536
  232MPD1    C4 3575   2.445   0.458   0.987  0.5550  0.6283  0.3381
  232MPD1    C5 3576   2.460   0.558   1.081 -0.0726 -0.2484 -0.0874
  232MPD1     H 3577   2.525   0.647   0.718 -0.3237  0.2058  0.1453
  232MPD1    H1 3578   2.402   0.363   1.016  1.4248  0.3727  0.7866
  232MPD1    H2 3579   2.516   0.745   1.136 -0.1966 -0.2460  0.5733
  232MPD1    H3 3580   2.421   0.536   1.179 -1.3142 -1.6412 -0.8791
  232MPD1     N 3581   2.439   0.398   0.756  0.0248  0.2704  0.2938
  232MPD1    H5 3582   2.437   0.443   0.665  1.0022 -0.9003 -0.3129
  232MPD1    N1 3583   2.571   0.850   0.878  0.6284  1.6253  0.3930
  232MPD1    H6 3584   2.624   0.903   0.947  2.5381 -1.1765  1.0686
  232MPD1    H7 3585   2.631   0.849   0.795  0.5678 -2.1131  0.4006
  233MPD1     C 3586   0.698   0.308   1.475 -0.4542  0.4946  0.0886
  233MPD1    C1 3587   0.568   0.343   1.446  0.4810  0.1188  0.3131
  233MPD1    C2 3588   0.473   0.245   1.435  0.1716  0.7691 -0.2502
  233MPD1    C3 3589   0.495   0.110   1.463  0.1550  0.6176  0.6739
  233MPD1    C4 3590   0.632   0.078   1.490  0.5348  0.7577 -0.3455
  233MPD1    C5 3591   0.727   0.180   1.508  0.2733 -0.6291 -0.4544
  233MPD1     H 3592   0.373   0.284   1.419 -0.0100 -0.2358 -1.5691
  233MPD1    H1 3593   0.665   4.718   1.518 -1.7546 -0.1607 -0.8965
  233MPD1    H2 3594   0.766   0.389   1.493 -0.8922  1.3420 -2.0062
  233MPD1    H3 3595   0.826   0.154   1.541  1.2569  1.5052 -1.6663
  233MPD1     N 3596   0.396   0.004   1.470  0.0587 -0.0783 -0.1653
  233MPD1    H5 3597   0.430   4.648   1.485 -0.4982 -0.0229  1.4093
  233MPD1    N1 3598   0.540   0.477   1.417 -0.3321 -0.2989 -0.5712
  233MPD1    H6 3599   0.443   0.506   1.416 -0.2710 -0.1201 -1.1592
  233MPD1    H7 3600   0.590   0.537   1.483 -1.5394  1.3061 -1.1150
  234MPD1     C 3601   4.204   2.905   9.017  0.2225  0.3634  0.2295
  234MPD1    C1 3602   4.099   2.972   8.971  0.6096 -0.5194 -0.0604
  234MPD1    C2 3603   4.082   3.097   9.026  0.5856 -0.3498  0.0407
  234MPD1    C3 3604   4.143   3.141   9.136 -0.6870 -0.3537 -0.5814
  234MPD1    C4 3605   4.231   3.058   9.202  0.3983  0.0948  0.0058
  234MPD1    C5 3606   4.261   2.939   9.137 -0.6729 -0.5978 -0.1754
  234MPD1     H 3607   4.003   3.155   8.980 -1.2883 -1.8705  1.3384
  234MPD1    H1 3608   4.280   3.084   9.296 -0.4558 -1.6848  0.9457
  234MPD1    H2 3609   4.235   2.811   8.973 -2.4518  1.1652 -3.4126
  234MPD1    H3 3610   4.349   2.884   9.167  1.1922  2.8529  0.6823
  234MPD1     N 3611   4.098   3.263   9.195 -0.3333 -0.1271  0.2400
  234MPD1    H5 3612   4.018   3.309   9.152  0.3070  0.5832 -0.1992
  234MPD1    N1 3613   4.022   2.934   8.861 -0.8147 -0.6928 -0.5146
  234MPD1    H6 3614   3.926   2.969   8.869 -0.3871  0.4621 -0.4565
  234MPD1    H7 3615   4.024   2.836   8.834  4.0165 -0.7415  0.1422
  235MPD1     C 3616   0.654   0.805  10.069 -0.7429  0.3701  0.0280
  235MPD1    C1 3617   0.659   0.913   9.987 -0.0856 -0.3152 -0.5495
  235MPD1    C2 3618   0.781   0.965   9.958 -0.6220  0.2486  0.8756
  235MPD1    C3 3619   0.894   0.912  10.023 -0.1172 -0.1896  0.3404
  235MPD1    C4 3620   0.885   0.809  10.117 -0.5188 -0.8344 -0.0351
  235MPD1    C5 3621   0.764   0.759  10.140  0.0320  0.4286 -0.3223
  235MPD1     H 3622   0.789   1.047   9.888 -0.1895 -2.8778 -2.7788
  235MPD1    H1 3623   0.972   0.760  10.159  0.3127  0.2305 -0.5099
  235MPD1    H2 3624   0.562   0.748  10.078  1.3299 -2.6036  2.3938
  235MPD1    H3 3625   0.750   0.672  10.202  0.7259 -0.2277 -1.0906
  235MPD1     N 3626   1.012   0.973   9.989 -0.1469  0.1020 -0.1718
  235MPD1    H5 3627   1.014   1.049   9.922 -1.2660  1.3568  1.2334
  235MPD1    N1 3628   0.552   0.937   9.903  0.2191  0.5568  0.4028
  235MPD1    H6 3629   0.551   1.026   9.854  3.7188  1.8816  2.7590
  235MPD1    H7 3630   0.462   0.913   9.946 -1.0211  3.0115 -0.8735
  236MPD1     C 3631   0.915   1.896   9.183 -0.0305 -0.3222 -0.4644
  236MPD1    C1 3632   0.961   1.772   9.228  0.5176  0.3680  0.1876
  236MPD1    C2 3633   0.942   1.741   9.362  0.0932 -0.1526 -0.1558
  236MPD1    C3 3634   0.874   1.828   9.449  0.6715 -0.2536 -0.0762
  236MPD1    C4 3635   0.825   1.944   9.393 -0.0536  0.2604  0.1762
  236MPD1    C5 3636   0.851   1.978   9.268 -0.1384 -0.2184  0.4718
  236MPD1     H 3637   0.973   1.643   9.397 -0.6296 -0.7143 -1.0845
  236MPD1    H1 3638   0.785   2.026   9.452 -2.1105 -0.4153 -0.2526
  236MPD1    H2 3639   0.944   1.926   9.083  0.8695  2.1497  0.5634
  236MPD1    H3 3640   0.811   2.068   9.223 -1.1987  0.0872  2.0415
  236MPD1     N 3641   0.847   1.791   9.582 -0.2212 -1.2771  0.3103
  236MPD1    H5 3642   0.801   1.862   9.639  0.7411 -0.9062  0.6169
  236MPD1    N1 3643   1.003   1.682   9.136  0.0364 -0.0362 -0.1317
  236MPD1    H6 3644   1.016   1.721   9.042 -0.7865 -0.4214 -0.4012
  236MPD1    H7 3645   1.076   1.613   9.154 -0.4595 -1.0316 -1.8462
  237MPD1     C 3646   1.627   4.708  15.204 -0.8187  1.0120  0.3848
  237MPD1    C1 3647   1.559   0.058  15.281  0.3358  0.2618  0.1347
  237MPD1    C2 3648   1.423   0.072  15.270  0.4403 -0.0139 -0.0623
  237MPD1    C3 3649   1.356   4.732  15.174  0.3574  0.1715 -0.3824
  237MPD1    C4 3650   1.426   4.646  15.090  0.6288  0.1197  0.3304
  237MPD1    C5 3651   1.562   4.633  15.109 -0.0326 -0.1626 -0.1196
  237MPD1     H 3652   1.369   0.134  15.341 -0.0934 -0.5578  0.0151
  237MPD1    H1 3653   1.381   4.599  15.003 -0.3944 -0.8026  1.3524
  237MPD1    H2 3654   1.735   4.705  15.210 -0.8057 -0.3302 -0.4338
  237MPD1    H3 3655   1.621   4.575  15.039 -1.0281 -0.8898 -0.3437
  237MPD1     N 3656   1.218   4.727  15.148 -0.1634 -0.3875 -0.1370
  237MPD1    H5 3657   1.186   4.658  15.081  0.5003 -0.7077 -0.1241
  237MPD1    N1 3658   1.634   0.155  15.349  0.8009 -0.0189 -0.0264
  237MPD1    H6 3659   1.606   0.170  15.446 -2.2054 -1.0228 -0.7319
  237MPD1    H7 3660   1.731   0.131  15.366  0.3370 -1.6977  0.2151
  238MPD1     C 3661   2.564   3.410  15.013  0.5482  0.5840  0.0106
  238MPD1    C1 3662   2.440   3.376  15.072 -0.2383 -0.2338 -0.0918
  238MPD1    C2 3663   2.374   3.262  15.033  0.3468  0.5798 -0.2510
  238MPD1    C3 3664   2.446   3.168  14.955 -0.1672 -0.1685  0.5638
  238MPD1    C4 3665   2.578   3.182  14.929 -0.4629 -0.8735 -0.1930
  238MPD1    C5 3666   2.631   3.308  14.945 -0.1917  0.0225  0.1950
  238MPD1     H 3667   2.266   3.254  15.044  0.4900 -0.3997  0.4819
  238MPD1    H1 3668   2.627   3.118  14.857 -3.0826  1.1479 -3.7646
  238MPD1    H2 3669   2.627   3.496  15.033 -0.6100  1.2649  0.7301
  238MPD1    H3 3670   2.733   3.324  14.913  0.2053 -1.0729  0.8955
  238MPD1     N 3671   2.388   3.056  14.877  0.3459  0.3005 -0.0717
  238MPD1    H5 3672   2.451   3.021  14.806  0.0095 -1.4561  0.4881
  238MPD1    N1 3673   2.376   3.473  15.156  0.3364  0.0541  0.0885
  238MPD1    H6 3674   2.426   3.547  15.205 -0.9642  1.1610 -0.2603
  238MPD1    H7 3675   2.311   3.426  15.219  0.7186  0.2744  0.6436
  239MPD1     C 3676   2.760   3.726  15.090  0.0690  0.0862 -0.2169
  239MPD1    C1 3677   2.880   3.774  15.034 -0.0345  0.0504 -1.0230
  239MPD1    C2 3678   2.876   3.825  14.903 -0.0145 -0.4464  0.5202
  239MPD1    C3 3679   2.755   3.861  14.843 -0.8825 -0.0298 -0.0530
  239MPD1    C4 3680   2.637   3.846  14.917  0.6040 -0.1716  0.2689
  239MPD1    C5 3681   2.646   3.771  15.034 -0.1712 -0.0125  0.7454
  239MPD1     H 3682   2.968   3.841  14.847 -1.5951  1.0485 -1.6107
  239MPD1    H1 3683   2.537   3.867  14.882  1.6392  0.6696 -2.1633
  239MPD1    H2 3684   2.752   3.665  15.179 -0.6675  0.5768  0.0532
  239MPD1    H3 3685   2.548   3.747  15.073 -0.8926  1.2333 -0.2745
  239MPD1     N 3686   2.744   3.943  14.728 -0.3826 -0.0458 -0.5696
  239MPD1    H5 3687   2.653   3.976  14.697 -0.3851  1.2325  0.8092
  239MPD1    N1 3688   2.995   3.721  15.100  0.6226 -0.0956 -0.0554
  239MPD1    H6 3689   2.983   3.700  15.199 -0.0371  0.1814 -0.0789
  239MPD1    H7 3690   3.078   3.775  15.076  1.7156 -0.6197  2.6101
  240MPD1     C 3691   1.835   4.098  13.818  0.4468 -0.2588  0.0898
  240MPD1    C1 3692   1.734   4.006  13.803 -0.2973 -0.4349 -0.6151
  240MPD1    C2 3693   1.749   3.881  13.859 -0.8508 -0.3657  0.1120
  240MPD1    C3 3694   1.865   3.847  13.929  0.5584  0.4782 -0.2039
  240MPD1    C4 3695   1.965   3.940  13.947  0.2831  0.1736  0.3660
  240MPD1    C5 3696   1.945   4.067  13.894  0.1439 -0.1529 -0.3732
  240MPD1     H 3697   1.668   3.811  13.843 -1.1802  0.0254  0.0888
  240MPD1    H1 3698   2.063   3.917  13.987  1.0329  2.1962 -0.3125
  240MPD1    H2 3699   1.832   4.199  13.778 -0.8066 -0.8319 -1.2587
  240MPD1    H3 3700   2.031   4.133  13.894 -0.9696  1.2753  0.8561
  240MPD1     N 3701   1.873   3.710  13.970 -0.0078  0.5551  0.3383
  240MPD1    H5 3702   1.786   3.657  13.968  0.8467 -0.7993 -1.0143
  240MPD1    N1 3703   1.631   4.034  13.713  0.4072 -0.3320 -0.1346
  240MPD1    H6 3704   1.540   3.999  13.743  0.0854 -1.3141 -2.2300
  240MPD1    H7 3705   1.623   4.132  13.685 -1.8688 -1.1167 -2.2257
  241MPD1     C 3706   1.999   3.511  14.936  0.1655  0.5736  1.2094
  241MPD1    C1 3707   1.998   3.381  14.883  0.3359 -0.6945  0.0941
  241MPD1    C2 3708   1.978   3.371  14.745  0.9201 -0.7340 -0.0780
  241MPD1    C3 3709   1.965   3.484  14.665  0.3104  0.4303  0.1325
  241MPD1    C4 3710   1.981   3.606  14.720 -0.0261  0.2294  0.7733
  241MPD1    C5 3711   1.991   3.618  14.856 -0.2170  0.5558  0.0293
  241MPD1     H 3712   1.977   3.271  14.704  0.2726 -0.0861 -1.6645
  241MPD1    H1 3713   1.987   3.699  14.665 -1.3497  0.0697  0.3549
  241MPD1    H2 3714   2.006   3.529  15.043 -0.7272 -1.3339  1.5971
  241MPD1    H3 3715   1.986   3.720  14.892 -3.4719  0.3486  0.1644
  241MPD1     N 3716   1.962   3.480  14.525 -0.3353 -0.3691  0.1392
  241MPD1    H5 3717   1.988   3.563  14.473  0.4407 -0.2036  0.7831
  241MPD1    N1 3718   2.008   3.275  14.969  0.1563 -0.8285  0.1035
  241MPD1    H6 3719   2.074   3.294  15.044 -0.3655 -0.6800  0.5276
  241MPD1    H7 3720   2.056   3.195  14.929 -0.3039 -2.2390  2.3678
  242MPD1     C 3721   1.679   2.471  15.866  0.2826  0.7280  0.0325
  242MPD1    C1 3722   1.615   2.360  15.820 -0.2306 -0.4373 -0.4278
  242MPD1    C2 3723   1.673   2.286  15.714 -0.3613  0.2901 -0.1357
  242MPD1    C3 3724   1.795   2.316  15.668 -0.1044 -0.4252  0.3346
  242MPD1    C4 3725   1.869   2.419  15.725 -0.1597 -0.6668  0.3578
  242MPD1    C5 3726   1.805   2.498  15.818  0.1870  0.0784  0.6970
  242MPD1     H 3727   1.614   2.208  15.667  0.0621 -0.3227  0.3537
  242MPD1    H1 3728   1.966   2.455  15.695  0.4094 -0.6024  2.3164
  242MPD1    H2 3729   1.632   2.541  15.934 -1.5279  0.4437 -0.9234
  242MPD1    H3 3730   1.857   2.583  15.861 -1.1597  1.8165 -1.0991
  242MPD1     N 3731   1.863   2.241  15.569  0.8047  0.5672  0.1863
  242MPD1    H5 3732   1.957   2.273  15.546  1.1325  0.7030  1.7274
  242MPD1    N1 3733   1.480   2.343  15.856  0.2340  0.2790 -0.0217
  242MPD1    H6 3734   1.441   2.250  15.844  0.2829  0.0669  1.4771
  242MPD1    H7 3735   1.458   2.371  15.951  1.8977  1.3924  0.0413
  243MPD1     C 3736   2.508   0.448   0.182 -0.5647 -0.0266  0.2011
  243MPD1    C1 3737   2.461   0.534   0.086  0.4658  0.0437 -0.1883
  243MPD1    C2 3738   2.551   0.608   0.012 -0.2086 -0.9400 -0.9858
  243MPD1    C3 3739   2.686   0.574   0.024 -1.1657  0.2335  0.2574
  243MPD1    C4 3740   2.728   0.470   0.108 -0.4501  0.5156  0.5534
  243MPD1    C5 3741   2.640   0.415   0.194  0.2535 -0.1521 -0.6610
  243MPD1     H 3742   2.520   0.669  17.682 -1.6967 -0.1059  0.1637
  243MPD1    H1 3743   2.826   0.423   0.114 -1.0621 -1.0565 -1.7055
  243MPD1    H2 3744   2.439   0.394   0.245 -0.1044  1.6223  2.1262
  243MPD1    H3 3745   2.665   0.341   0.269 -0.8897  1.5811  1.4086
  243MPD1     N 3746   2.773   0.635  17.687 -0.1491  0.2599 -0.1954
  243MPD1    H5 3747   2.734   0.713  17.635 -1.8364  0.4356  1.3182
  243MPD1    N1 3748   2.326   0.574   0.081  0.1114 -0.0382 -0.2594
  243MPD1    H6 3749   2.260   0.510   0.126 -0.2842  0.3927 -0.2225
  243MPD1    H7 3750   2.298   0.608  17.743  2.2757 -2.0291 -1.6355
  244MPD1     C 3751   3.775   0.840  17.301  0.5128  0.4753 -0.2587
  244MPD1    C1 3752   3.682   0.905  17.220  0.1051 -0.4786 -0.6943
  244MPD1    C2 3753   3.557   0.898  17.256  0.2276  0.0764  0.6962
  244MPD1    C3 3754   3.516   0.833  17.371  0.0683  0.4633  0.4078
  244MPD1    C4 3755   3.603   0.765  17.449  0.3944  0.4095  0.2173
  244MPD1    C5 3756   3.730   0.773  17.412 -0.0388 -0.0964 -0.0952
  244MPD1     H 3757   3.479   0.946  17.197 -2.1851 -1.3350  2.7332
  244MPD1    H1 3758   3.581   0.706  17.538  3.7760 -3.2585 -1.3935
  244MPD1    H2 3759   3.875   0.827  17.261  0.0753  0.4476 -1.3500
  244MPD1    H3 3760   3.796   0.713  17.473  0.8424  2.5306  1.5280
  244MPD1     N 3761   3.381   0.841  17.398  0.0925  0.3095  0.5235
  244MPD1    H5 3762   3.327   0.912  17.349  1.8801  1.2061 -0.1634
  244MPD1    N1 3763   3.721   0.967  17.101 -0.1871  0.6632  0.2636
  244MPD1    H6 3764   3.657   1.036  17.062 -0.5314  0.3005  0.1870
  244MPD1    H7 3765   3.819   0.994  17.092  0.3628 -1.9955 -1.7089
  245MPD1     C 3766   0.630   0.920  12.772 -0.3039 -0.3858  0.0517
  245MPD1    C1 3767   0.722   0.962  12.858 -0.1081  0.1754 -0.0192
  245MPD1    C2 3768   0.675   0.998  12.988 -0.0601  0.7231 -0.8488
  245MPD1    C3 3769   0.541   1.008  13.010  0.3466  0.0665 -0.0247
  245MPD1    C4 3770   0.450   0.987  12.909  0.1921 -0.0494 -0.2212
  245MPD1    C5 3771   0.500   0.937  12.796 -0.2222 -0.0556 -0.2501
  245MPD1     H 3772   0.750   1.026  13.061  0.9847 -2.6378 -0.6602
  245MPD1    H1 3773   0.343   0.995  12.922  0.1096 -0.7223 -0.4728
  245MPD1    H2 3774   0.661   0.876  12.678 -1.7173 -0.5801 -0.3163
  245MPD1    H3 3775   0.428   0.891  12.731 -0.9471  1.7683 -0.7363
  245MPD1     N 3776   0.509   1.057  13.137  0.1332  0.2527  0.0143
  245MPD1    H5 3777   0.588   1.084  13.195  0.6649  0.5429 -0.8535
  245MPD1    N1 3778   0.856   0.941  12.822  0.2828  0.4951 -0.3048
  245MPD1    H6 3779   0.872   0.950  12.722 -0.5117 -0.2213 -0.4987
  245MPD1    H7 3780   0.911   1.010  12.873  0.7280 -0.7364  0.8938
  246MPD1     C 3781   1.638   3.645   9.704 -0.0091 -0.9833 -0.2703
  246MPD1    C1 3782   1.622   3.711   9.825 -0.2068 -0.0891  0.5151
  246MPD1    C2 3783   1.496   3.700   9.890  0.0970  0.3248 -0.1825
  246MPD1    C3 3784   1.384   3.640   9.836 -0.0847 -0.2213 -0.3726
  246MPD1    C4 3785   1.401   3.579   9.711  0.7464 -0.1151  0.3573
  246MPD1    C5 3786   1.524   3.592   9.649 -0.2462 -0.2956 -0.5051
  246MPD1     H 3787   1.490   3.762   9.980 -0.4426  1.9548 -1.3391
  246MPD1    H1 3788   1.332   3.510   9.662  0.5115  2.1241 -2.4790
  246MPD1    H2 3789   1.733   3.640   9.652  0.0981 -1.9933  0.0226
  246MPD1    H3 3790   1.532   3.542   9.553 -3.0052 -2.2012  0.2659
  246MPD1     N 3791   1.264   3.636   9.908 -0.1819  0.7827 -1.4387
  246MPD1    H5 3792   1.260   3.679  10.000  0.9152 -0.8104 -0.6407
  246MPD1    N1 3793   1.735   3.745   9.906 -0.1287 -0.5757 -0.2600
  246MPD1    H6 3794   1.699   3.814   9.972 -1.7901 -2.1192  0.4283
  246MPD1    H7 3795   1.811   3.792   9.858 -1.3788 -2.1599 -3.7876
  247MPD1     C 3796   1.176   1.845  17.034  0.0390 -0.0476  0.0979
  247MPD1    C1 3797   1.144   1.730  17.099  0.5870 -0.0060 -0.1126
  247MPD1    C2 3798   1.021   1.671  17.078  0.1308 -0.1173 -0.1342
  247MPD1    C3 3799   0.949   1.700  16.968  0.3306 -0.2260 -0.1622
  247MPD1    C4 3800   0.989   1.800  16.882  0.3034 -0.1219 -0.4954
  247MPD1    C5 3801   1.090   1.880  16.929  0.1908  0.0095 -0.6739
  247MPD1     H 3802   0.995   1.602  17.157  3.1767 -2.0387 -0.8297
  247MPD1    H1 3803   0.956   1.806  16.779  0.1641 -2.7418 -0.6167
  247MPD1    H2 3804   1.264   1.903  17.060  0.2837 -1.6067  2.7923
  247MPD1    H3 3805   1.121   1.957  16.858  0.0809 -1.2343 -2.0577
  247MPD1     N 3806   0.840   1.623  16.929 -0.0897  0.1735 -0.4863
  247MPD1    H5 3807   0.799   1.650  16.841 -0.2501 -0.6426 -0.6564
  247MPD1    N1 3808   1.213   1.704  17.219  0.0754 -0.0321 -0.4658
  247MPD1    H6 3809   1.312   1.710  17.195  0.5572 -0.3294  1.4506
  247MPD1    H7 3810   1.192   1.612  17.258  0.3721  0.1134  0.0326
  248MPD1     C 3811   4.680   1.321  17.419 -0.3970 -0.2104 -0.2289
  248MPD1    C1 3812   4.673   1.457  17.402 -0.1435 -0.6139 -0.1979
  248MPD1    C2 3813   0.025   1.524  17.485  0.0985  0.6351 -0.3437
  248MPD1    C3 3814   0.090   1.463  17.592 -0.6084  0.3214  0.4732
  248MPD1    C4 3815   0.055   1.331  17.623  0.0050  0.3422 -0.0482
  248MPD1    C5 3816   4.730   1.262  17.527 -0.1525  0.1418 -0.3041
  248MPD1     H 3817   0.048   1.626  17.457  1.2563  0.4065 -0.2096
  248MPD1    H1 3818   0.090   1.269  17.704 -0.3489  1.4308  0.9281
  248MPD1    H2 3819   4.628   1.257  17.349 -1.0503  0.5478 -0.4462
  248MPD1    H3 3820   4.728   1.154  17.535  0.7002  0.1855  0.4406
  248MPD1     N 3821   0.169   1.539  17.678 -0.0960  0.4503 -0.2848
  248MPD1    H5 3822   0.170   1.638  17.656 -1.5714  0.0924 -1.9161
  248MPD1    N1 3823   4.606   1.517  17.293 -0.2368  0.4062  0.2438
  248MPD1    H6 3824   4.579   1.614  17.308 -0.2430  0.5884 -0.9166
  248MPD1    H7 3825   4.517   1.476  17.267  0.2549  0.2605 -1.2294
  249MPD1     C 3826   2.749   4.662  10.999 -0.5684 -0.0352  0.2447
  249MPD1    C1 3827   2.674   0.021  11.051  0.5038  0.5781 -0.5057
  249MPD1    C2 3828   2.558   0.060  10.980  0.3316  0.4282 -0.0917
  249MPD1    C3 3829   2.490   4.711  10.892 -0.2075  0.4320 -0.3772
  249MPD1    C4 3830   2.574   4.602  10.847  0.5399  0.1462  0.1693
  249MPD1    C5 3831   2.700   4.587  10.895 -0.5648  0.3255  0.3144
  249MPD1     H 3832   2.496   0.139  11.021  1.3073  0.7273  0.8177
  249MPD1    H1 3833   2.534   4.533  10.774  1.2961  1.6604 -1.7002
  249MPD1    H2 3834   2.845   4.649  11.048 -0.6716 -0.1623  0.4152
  249MPD1    H3 3835   2.755   4.497  10.869 -3.1381 -0.9598 -0.6132
  249MPD1     N 3836   2.363   0.002  10.837  0.1652  0.0877 -0.2501
  249MPD1    H5 3837   2.331   0.098  10.849  0.3587 -0.1331  2.0952
  249MPD1    N1 3838   2.726   0.114  11.144 -0.5591  0.5526  0.3764
  249MPD1    H6 3839   2.656   0.163  11.199 -0.9023  1.4038 -0.8200
  249MPD1    H7 3840   2.771   0.188  11.089  1.4322 -1.1372 -0.2501
  250MPD2     C 3841   3.825   4.240  13.231 -0.4372  0.0561  1.0969
  250MPD2    C1 3842   3.708   4.310  13.241 -0.0668  0.4384  0.4402
  250MPD2    C2 3843   3.587   4.265  13.183 -0.2109 -0.0983 -0.7377
  250MPD2    C3 3844   3.610   4.169  13.080 -0.3912 -0.2296  0.4056
  250MPD2    C4 3845   3.731   4.102  13.067 -0.4949 -0.6302  0.7462
  250MPD2    C5 3846   3.836   4.133  13.150 -0.5932  0.3528  0.0644
  250MPD2     H 3847   3.497   4.324  13.195 -1.5589 -2.6936  2.0331
  250MPD2    H1 3848   3.746   4.029  12.988 -2.9632 -0.3190  0.0194
  250MPD2    H2 3849   3.905   4.251  13.303 -0.2687 -0.5769  1.0043
  250MPD2    H3 3850   3.923   4.069  13.156  1.6587  3.6129  2.0659
  250MPD2     N 3851   3.506   4.124  12.996 -0.0751  0.1568 -0.0112
  250MPD2    H5 3852   3.527   4.064  12.916  1.3391  1.5101 -0.6407
  250MPD2    N1 3853   3.724   4.423  13.327  0.7767  0.3591  0.1678
  250MPD2    H7 3854   3.817   4.442  13.363  0.8111  1.2555 -0.4007
  251TMC3    C1 3855   3.677   4.639  13.409  0.2385 -0.8734  0.1141
  251TMC3    C2 3856   3.572   4.721  13.428  0.4988 -0.5782  0.4840
  251TMC3    C3 3857   3.596   0.115  13.414  0.2582  0.4798 -0.5331
  251TMC3    C4 3858   3.796   4.688  13.369 -0.2750 -0.5217 -0.1689
  251TMC3    C5 3859   3.822   0.081  13.368  0.5451  0.3933 -0.0474
  251TMC3    C6 3860   3.720   0.161  13.407  0.8224 -0.1116 -0.2292
  251TMC3     C 3861   3.629   4.511  13.353  0.0958 -0.1954 -0.4245
  251TMC3     O 3862   3.511   4.512  13.334 -0.2144 -0.3484  0.0525
  251TMC3     H 3863   3.472   4.687  13.452 -0.2360  1.9171  1.0297
  251TMC3    H1 3864   3.871   4.618  13.334  0.8201 -1.0013  3.1210
  251TMC3    H2 3865   3.741   0.264  13.431 -1.8664  0.4603 -0.3460
  251TMC3    C7 3866   3.960   0.127  13.339  0.2336  0.4874 -0.4860
  251TMC3    C8 3867   3.489   0.201  13.447  0.3831  0.3378  0.3855
  251TMC3    O1 3868   4.045   0.039  13.350  0.4613  0.1766  0.2929
  251TMC3    O2 3869   3.397   0.156  13.519  0.6692 -0.1194 -0.3287
  252TMC3    C1 3870   2.804   1.608   9.373 -0.1858  0.4822 -0.4456
  252TMC3    C2 3871   2.884   1.710   9.395  0.4848  0.5446  0.0834
  252TMC3    C3 3872   3.002   1.681   9.465 -0.0789 -0.9584  0.3199
  252TMC3    C4 3873   2.837   1.480   9.415  0.2107 -0.0827 -0.6885
  252TMC3    C5 3874   2.947   1.452   9.488 -0.4385  0.6520  0.2325
  252TMC3    C6 3875   3.037   1.558   9.505 -0.1053  0.1034 -0.2149
  252TMC3     C 3876   2.666   1.649   9.356 -0.3099  0.7342  0.0841
  252TMC3     O 3877   2.654   1.762   9.316 -0.1557 -0.0715 -0.6903
  252TMC3     H 3878   2.858   1.813   9.375 -2.6116 -0.1297  0.7440
  252TMC3    H1 3879   2.771   1.397   9.391  1.2901 -1.5082  1.2736
  252TMC3    H2 3880   3.136   1.523   9.532 -0.0098 -0.6823 -1.6075
  252TMC3    C7 3881   2.956   1.322   9.553  0.7096  0.7597  0.5304
  252TMC3    C8 3882   3.101   1.785   9.462 -0.4033  0.3037 -0.3182
  252TMC3    O1 3883   2.868   1.241   9.529 -0.0390  0.3383 -0.0268
  252TMC3    O2 3884   3.072   1.878   9.393 -0.0194  0.0547 -0.3555
  253MPD2     C 3885   0.320   4.607  14.930 -0.3029 -0.1422  1.1308
  253MPD2    C1 3886   0.187   4.633  14.930  0.2799 -0.7737 -0.0192
  253MPD2    C2 3887   0.119   4.669  15.042  0.3491  0.2547 -0.6176
  253MPD2    C3 3888   0.196   4.694  15.160  0.4024  0.3958  1.0963
  253MPD2    C4 3889   0.332   4.662  15.154  0.8118  0.1430 -0.0181
  253MPD2    C5 3890   0.390   4.624  15.041 -0.1811  0.5393 -0.2156
  253MPD2     H 3891   0.013   4.689  15.028  0.6316  3.6059  1.7521
  253MPD2    H1 3892   0.403   4.684  15.233 -0.6760  2.0977  0.7840
  253MPD2    H2 3893   0.371   4.567  14.843 -0.7097  0.6205  0.5405
  253MPD2    H3 3894   0.498   4.613  15.032 -0.0103  0.1857  2.0545
  253MPD2     N 3895   0.140   0.017  15.277 -0.1423 -0.5835  0.2711
  253MPD2    H5 3896   0.201   0.048  15.352 -1.7632  1.1489  0.8679
  253MPD2    N1 3897   0.103   4.628  14.817 -0.0834 -0.1868  0.6511
  253MPD2    H7 3898   0.004   4.643  14.831 -0.2561  0.2679 -1.0702
  254TMC3    C1 3899   4.704   0.095  15.418 -0.2467 -1.0176 -0.8449
  254TMC3    C2 3900   4.566   0.120  15.418 -0.0047 -1.0172 -0.5239
  254TMC3    C3 3901   4.495   0.071  15.527 -0.1041  0.6795 -0.2117
  254TMC3    C4 3902   0.024   0.011  15.517 -0.2082 -0.1093  0.6040
  254TMC3    C5 3903   4.682   4.694  15.615  0.2948  0.0078 -0.0620
  254TMC3    C6 3904   4.549   4.714  15.605 -0.3731  0.3695 -0.2539
  254TMC3     C 3905   0.007   0.053  15.289 -0.0864  0.2460 -0.3294
  254TMC3     O 3906   4.657   0.045  15.209 -0.1463  0.5059 -0.4870
  254TMC3     H 3907   4.536   0.181  15.333 -0.6298 -1.4449 -0.6171
  254TMC3    H1 3908   0.128   4.720  15.512  0.4348  2.1145  0.5256
  254TMC3    H2 3909   4.489   4.683  15.690  0.2390 -0.3313 -0.0737
  254TMC3    C7 3910   4.735   4.706  15.754 -0.4134  0.0759  0.3957
  254TMC3    C8 3911   4.453   0.179  15.609 -0.4254  0.4261  0.3429
  254TMC3    O1 3912   4.695   4.619  15.833  0.0088 -0.3148  0.0443
  254TMC3    O2 3913   4.466   0.161  15.731  0.2578 -0.3493 -0.1608
  255MPD2     C 3914   1.884   2.418   9.541  0.5007  0.5249 -0.3684
  255MPD2    C1 3915   1.978   2.417   9.646  0.0370 -0.4231 -0.0502
  255MPD2    C2 3916   2.078   2.328   9.636  0.1070 -0.1343  0.0546
  255MPD2    C3 3917   2.091   2.241   9.529  0.8664 -0.2186 -0.4075
  255MPD2    C4 3918   1.987   2.228   9.438  0.0033 -0.0614  0.2614
  255MPD2    C5 3919   1.888   2.318   9.440  0.0812  0.0477 -0.7637
  255MPD2     H 3920   2.165   2.346   9.699  1.8768  0.4921 -2.5731
  255MPD2    H1 3921   1.991   2.158   9.356 -1.0740  2.1047 -1.6563
  255MPD2    H2 3922   1.801   2.488   9.544 -0.5243 -0.8050  2.4505
  255MPD2    H3 3923   1.809   2.309   9.367 -0.5630 -1.2584  0.0912
  255MPD2     N 3924   2.213   2.172   9.520  0.3933 -0.6362 -0.3312
  255MPD2    H5 3925   2.286   2.207   9.583 -0.6278  1.1492 -0.1382
  255MPD2    N1 3926   1.982   2.525   9.741 -0.1122  0.0749  0.4803
  255MPD2    H7 3927   1.948   2.612   9.702 -1.7343 -0.1199  1.4676
  256TMC3    C1 3928   2.087   2.658   9.894  0.1172 -0.1891  0.4212
  256TMC3    C2 3929   2.146   2.731   9.791  0.2014  0.8142 -0.3400
  256TMC3    C3 3930   2.222   2.832   9.828  0.5486 -0.4965  0.4553
  256TMC3    C4 3931   2.104   2.676  10.029 -0.7423  0.1314  0.2837
  256TMC3    C5 3932   2.190   2.781  10.069  0.3022  0.5771 -0.8483
  256TMC3    C6 3933   2.240   2.861   9.963 -0.6349 -0.1223 -0.0267
  256TMC3     C 3934   2.054   2.525   9.860 -0.7969  0.0420 -0.6523
  256TMC3     O 3935   2.088   2.431   9.927  0.1806  0.6514  0.3537
  256TMC3     H 3936   2.130   2.715   9.685 -2.2631  0.8640  0.0132
  256TMC3    H1 3937   2.043   2.618  10.097 -0.2187 -1.1489 -0.3611
  256TMC3    H2 3938   2.312   2.939   9.987 -0.7042  0.3502 -1.3384
  256TMC3    C7 3939   2.139   2.848  10.187  0.4404  1.2452  0.2827
  256TMC3    C8 3940   2.315   2.873   9.726  0.1142  0.1729 -0.1845
  256TMC3    O1 3941   2.024   2.821  10.214 -0.0133 -0.0407  0.0083
  256TMC3    O2 3942   2.331   2.802   9.622  0.0151 -0.4521  0.2269
  257MPD2     C 3943   2.155   4.511  13.579 -0.4822 -0.9137  0.0116
  257MPD2    C1 3944   2.152   4.445  13.456 -0.1026 -0.1652  0.1613
  257MPD2    C2 3945   2.202   4.317  13.445 -0.4681 -0.2748  0.2754
  257MPD2    C3 3946   2.256   4.260  13.562 -0.1211  0.1535 -0.2396
  257MPD2    C4 3947   2.243   4.330  13.682  0.1093  0.1022  0.9226
  257MPD2    C5 3948   2.199   4.457  13.691 -0.5097 -0.5042  0.1875
  257MPD2     H 3949   2.210   4.273  13.346  0.3394  0.4937 -0.0047
  257MPD2    H1 3950   2.269   4.288  13.779 -0.9883  0.8916  1.5573
  257MPD2    H2 3951   2.121   4.614  13.586  1.1246 -0.3558 -0.2344
  257MPD2    H3 3952   2.188   4.509  13.786 -4.3582 -0.5123 -0.2462
  257MPD2     N 3953   2.314   4.130  13.562 -0.4690  0.4417 -0.2382
  257MPD2    H5 3954   2.301   4.066  13.484 -0.0527 -0.2891  0.2988
  257MPD2    N1 3955   2.122   4.527  13.343  0.8491  0.1486  0.3013
  257MPD2    H7 3956   2.068   4.612  13.359 -0.2452 -1.1343  3.3293
  258TMC3    C1 3957   2.404   3.940  13.641  0.2374 -1.0701  0.2164
  258TMC3    C2 3958   2.384   3.882  13.521 -0.3832 -1.2600 -0.3268
  258TMC3    C3 3959   2.428   3.756  13.500  0.0900 -0.6753 -0.3080
  258TMC3    C4 3960   2.480   3.873  13.735 -0.0773  0.0356  0.2817
  258TMC3    C5 3961   2.520   3.743  13.708 -0.0752 -0.1106  0.1465
  258TMC3    C6 3962   2.500   3.687  13.592  0.2830  0.0886  0.6342
  258TMC3     C 3963   2.370   4.075  13.673 -0.1750 -0.3913 -0.0823
  258TMC3     O 3964   2.415   4.121  13.777 -0.1570 -0.1735 -0.0551
  258TMC3     H 3965   2.323   3.932  13.446  0.7437  0.2689 -0.2256
  258TMC3    H1 3966   2.504   3.911  13.833 -2.6224  0.7851  0.6100
  258TMC3    H2 3967   2.540   3.588  13.575 -0.3017 -0.0212 -0.1167
  258TMC3    C7 3968   2.566   3.662  13.814  0.5182 -0.0897 -0.1727
  258TMC3    C8 3969   2.453   3.722  13.358  0.4099 -0.5057 -0.0595
  258TMC3    O1 3970   2.516   3.552  13.815 -0.3177 -0.2891 -0.1333
  258TMC3    O2 3971   2.361   3.750  13.285 -0.2766  0.1024 -0.6001
  259MPD2     C 3972   1.227   1.237   0.401  0.2660  0.2879 -0.2165
  259MPD2    C1 3973   1.328   1.203   0.489  0.6600 -1.4180 -0.7115
  259MPD2    C2 3974   1.442   1.144   0.442  0.7173  0.0289  0.9376
  259MPD2    C3 3975   1.465   1.138   0.304  0.8361  0.1629  0.0993
  259MPD2    C4 3976   1.369   1.175   0.212  0.7215 -0.5028 -0.4166
  259MPD2    C5 3977   1.252   1.215   0.264  0.2100  0.2363  0.2309
  259MPD2     H 3978   1.520   1.109   0.509 -0.1467 -0.6008  1.6111
  259MPD2    H1 3979   1.394   1.166   0.107  0.4000 -0.6265 -0.4837
  259MPD2    H2 3980   1.132   1.281   0.427  1.3722  1.7535  1.3709
  259MPD2    H3 3981   1.177   1.227   0.186  0.3425  0.9542  0.2201
  259MPD2     N 3982   1.591   1.104   0.262  0.5422 -0.1187 -0.1325
  259MPD2    H5 3983   1.655   1.072   0.333 -0.5363  1.4008  1.5101
  259MPD2    N1 3984   1.307   1.248   0.625  0.3974  0.0091 -0.2240
  259MPD2    H7 3985   1.241   1.322   0.646 -0.6072 -0.9428 -0.0359
  260TMC3    C1 3986   1.797   1.133   0.178 -0.3357 -0.5226 -0.0027
  260TMC3    C2 3987   1.862   1.051   0.095 -0.1254 -0.5031 -0.7484
  260TMC3    C3 3988   1.986   0.998   0.142 -0.5042 -0.1598  0.3051
  260TMC3    C4 3989   1.823   1.150   0.311  0.1939 -0.0833 -0.0665
  260TMC3    C5 3990   1.932   1.080   0.360 -0.3161 -0.1290 -1.1419
  260TMC3    C6 3991   2.013   1.004   0.279 -0.8834  0.0967  0.1106
  260TMC3     C 3992   1.654   1.132   0.148 -0.3883  0.0965 -0.0435
  260TMC3     O 3993   1.619   1.192   0.050 -0.3000  0.2650  0.0046
  260TMC3     H 3994   1.837   1.024  17.747 -1.0130  0.1356 -0.7000
  260TMC3    H1 3995   1.782   1.224   0.379  1.0820  0.3211  0.0374
  260TMC3    H2 3996   2.104   0.955   0.312 -0.7734 -1.2029 -2.0919
  260TMC3    C7 3997   1.879   0.993   0.466  0.0891 -0.2405 -0.5684
  260TMC3    C8 3998   2.009   0.871   0.070  0.6681 -0.6193  0.6790
  260TMC3    O1 3999   1.763   0.961   0.457 -0.4270  0.0050 -0.2832
  260TMC3    O2 4000   1.999   0.876  17.704  0.2340 -0.0497 -0.1262
  261MPD2     C 4001   2.836   4.185  12.481 -0.6958 -0.1718  0.9448
  261MPD2    C1 4002   2.951   4.242  12.544  0.2406  0.1877  0.1073
  261MPD2    C2 4003   2.968   4.381  12.533  0.5679 -0.0350 -0.2101
  261MPD2    C3 4004   2.874   4.458  12.469  0.3611  0.4838  0.4869
  261MPD2    C4 4005   2.778   4.393  12.392 -0.5758  0.0319  0.2651
  261MPD2    C5 4006   2.749   4.262  12.410  0.3102  0.1883  0.0939
  261MPD2     H 4007   3.057   4.428  12.572  2.1679 -1.7618 -1.7834
  261MPD2    H1 4008   2.719   4.442  12.316 -0.6412  0.5577  0.6523
  261MPD2    H2 4009   2.806   4.084  12.504  0.0965 -0.7409 -0.5044
  261MPD2    H3 4010   2.667   4.216  12.357  0.2596 -0.4248  0.7015
  261MPD2     N 4011   2.905   4.587  12.438  0.1214 -0.0304 -0.0363
  261MPD2    H5 4012   2.995   4.621  12.468 -0.0844  1.8189 -1.4630
  261MPD2    N1 4013   3.035   4.170  12.628  0.0083  0.6153 -0.5728
  261MPD2    H7 4014   3.116   4.218  12.665  0.5303 -2.1310  1.8084
  262TMC3    C1 4015   2.872   0.070  12.353 -0.5069  0.0907  0.3514
  262TMC3    C2 4016   2.791   0.180  12.377  0.5703  0.6149 -0.6095
  262TMC3    C3 4017   2.834   0.298  12.319 -0.0699  0.3726 -0.7173
  262TMC3    C4 4018   2.984   0.084  12.270  0.5221 -0.2740  0.2943
  262TMC3    C5 4019   3.026   0.202  12.218 -1.0490  0.0028 -0.1921
  262TMC3    C6 4020   2.953   0.314  12.251 -0.7840  0.1821 -0.1476
  262TMC3     C 4021   2.813   4.676  12.383  0.3964 -0.2477 -0.0967
  262TMC3     O 4022   2.691   4.672  12.373 -0.0998 -0.0767 -0.0773
  262TMC3     H 4023   2.703   0.170  12.440  0.7265 -0.6265 -0.5871
  262TMC3    H1 4024   3.031   4.731  12.237 -2.4511 -2.5176  2.2924
  262TMC3    H2 4025   2.986   0.411  12.214  1.2376 -0.1641  0.7245
  262TMC3    C7 4026   3.112   0.200  12.103 -0.6289  0.0494 -0.2806
  262TMC3    C8 4027   2.748   0.409  12.323  0.3556  0.7757 -0.1149
  262TMC3    O1 4028   3.175   0.098  12.069  0.3659  0.3925  0.2289
  262TMC3    O2 4029   2.798   0.522  12.326  0.1282  0.4590 -0.1940
  263MPD2     C 4030   3.578   4.023  11.743 -0.1107  0.4421  0.6988
  263MPD2    C1 4031   3.647   3.974  11.631 -0.2188  0.6497  0.3635
  263MPD2    C2 4032   3.595   4.014  11.508  0.5368 -0.2089  0.1502
  263MPD2    C3 4033   3.500   4.116  11.492 -0.5873  1.1099  0.1700
  263MPD2    C4 4034   3.445   4.159  11.608  0.2166  0.9864  0.3417
  263MPD2    C5 4035   3.481   4.115  11.729  0.0199  0.5219  0.4282
  263MPD2     H 4036   3.644   3.987  11.415 -1.3318 -1.4790 -0.4613
  263MPD2    H1 4037   3.357   4.221  11.608  0.8091  1.8124 -1.0701
  263MPD2    H2 4038   3.613   3.995  11.842 -1.1960  1.2128  1.2963
  263MPD2    H3 4039   3.435   4.161  11.816 -0.9338  0.0763  0.1700
  263MPD2     N 4040   3.490   4.189  11.369 -0.4828 -0.6517 -0.0164
  263MPD2    H5 4041   3.540   4.154  11.289  0.1991  2.6335 -1.0286
  263MPD2    N1 4042   3.769   3.903  11.649  0.6602 -0.2965  0.5062
  263MPD2    H7 4043   3.799   3.903  11.746 -1.2169 -0.8252  1.0755
  264TMC3    C1 4044   3.437   4.361  11.220 -0.3638  0.6530  0.2188
  264TMC3    C2 4045   3.382   4.483  11.221  0.5141  0.2883 -0.0806
  264TMC3    C3 4046   3.405   4.556  11.111  0.3405 -0.3025  0.4913
  264TMC3    C4 4047   3.519   4.310  11.123 -0.6282 -0.7504 -0.1312
  264TMC3    C5 4048   3.542   4.392  11.013  0.8611 -0.1840  0.8546
  264TMC3    C6 4049   3.469   4.505  11.004  0.1021 -0.5710 -0.7627
  264TMC3     C 4050   3.412   4.297  11.347  0.5705 -0.6227 -0.0929
  264TMC3     O 4051   3.338   4.344  11.433 -0.0671  0.1971 -0.5362
  264TMC3     H 4052   3.340   4.525  11.311  0.0500  1.6848 -0.9370
  264TMC3    H1 4053   3.582   4.222  11.123  1.7303  0.9260 -0.5762
  264TMC3    H2 4054   3.482   4.561  10.913 -1.7784  0.6074 -0.3169
  264TMC3    C7 4055   3.680   4.406  10.968 -0.1745 -0.1588 -0.2014
  264TMC3    C8 4056   3.429   4.696  11.127  0.3474  0.2389 -0.0028
  264TMC3    O1 4057   3.748   4.307  10.955 -0.1925  0.3259  0.3246
  264TMC3    O2 4058   3.492   4.739  11.034 -0.8679 -0.0206 -0.3250
  265MPD2     C 4059   1.225   4.280  15.413 -0.0005  0.9962  0.3413
  265MPD2    C1 4060   1.344   4.353  15.398 -0.6610 -0.3802  0.1525
  265MPD2    C2 4061   1.442   4.295  15.312 -0.1794  0.8541  0.4396
  265MPD2    C3 4062   1.421   4.174  15.256  0.0254  0.8658  0.3778
  265MPD2    C4 4063   1.301   4.105  15.286 -0.1187  0.3212 -0.1238
  265MPD2    C5 4064   1.202   4.155  15.363 -0.7110 -0.3095 -0.2057
  265MPD2     H 4065   1.537   4.345  15.300  0.2118 -0.4873 -2.1198
  265MPD2    H1 4066   1.275   4.005  15.253  1.3814  0.4072 -1.5662
  265MPD2    H2 4067   1.140   4.309  15.474 -0.5278 -0.2644  0.2147
  265MPD2    H3 4068   1.113   4.094  15.376 -1.1364 -0.1968 -2.6223
  265MPD2     N 4069   1.512   4.115  15.170 -0.9608  0.5559  0.4355
  265MPD2    H5 4070   1.503   4.014  15.166  0.5271  0.4814 -1.4050
  265MPD2    N1 4071   1.358   4.482  15.452  1.0847 -0.1433  0.3735
  265MPD2    H7 4072   1.451   4.522  15.446 -0.1386  2.4733 -1.2032
  266TMC3    C1 4073   1.304   4.659  15.596 -0.0488  0.1498 -0.8684
  266TMC3    C2 4074   1.389   4.620  15.699 -0.3085 -0.2496  0.4003
  266TMC3    C3 4075   1.384   4.695  15.817  0.5437  1.0132  0.5242
  266TMC3    C4 4076   1.218   0.022  15.604 -0.0952 -0.3754 -0.0028
  266TMC3    C5 4077   1.219   0.092  15.722  0.1896  0.3256 -0.1140
  266TMC3    C6 4078   1.308   0.073  15.825  0.0026  0.5203  0.1157
  266TMC3     C 4079   1.260   4.550  15.518 -0.3036  0.7267 -1.2438
  266TMC3     O 4080   1.139   4.521  15.518 -0.1868  0.1566  0.4300
  266TMC3     H 4081   1.442   4.526  15.681 -0.4722 -0.3558  0.4750
  266TMC3    H1 4082   1.146   0.029  15.523  0.9608 -2.1955 -1.1084
  266TMC3    H2 4083   1.298   0.126  15.919  1.2533 -0.0130  0.5467
  266TMC3    C7 4084   1.126   0.198  15.728  0.0840  0.2466  0.5239
  266TMC3    C8 4085   1.487   4.660  15.912 -0.2180  0.5806  0.0224
  266TMC3    O1 4086   1.093   0.230  15.840  0.3097 -0.1940 -0.1792
  266TMC3    O2 4087   1.536   4.548  15.914  0.1015  0.0262 -0.3806
  267MPD2     C 4088   3.669   1.909   0.171  0.0162 -0.0510  0.1603
  267MPD2    C1 4089   3.639   1.782   0.149  0.0234  0.2300  0.2946
  267MPD2    C2 4090   3.509   1.738   0.174  0.0041 -0.6771 -0.4542
  267MPD2    C3 4091   3.402   1.822   0.214 -0.3513  0.2898  0.2896
  267MPD2    C4 4092   3.437   1.953   0.223 -0.3969  0.0201  0.4824
  267MPD2    C5 4093   3.567   1.997   0.197  0.4122  0.1200 -0.1398
  267MPD2     H 4094   3.490   1.633   0.155  2.3298 -1.2605  0.3474
  267MPD2    H1 4095   3.366   2.027   0.258  0.5480  0.1123  2.2238
  267MPD2    H2 4096   3.767   1.953   0.162 -0.1901  0.0589 -1.4112
  267MPD2    H3 4097   3.589   2.103   0.204 -0.6687  0.2754  1.1097
  267MPD2     N 4098   3.271   1.778   0.243 -0.0377 -0.5440 -0.2184
  267MPD2    H5 4099   3.207   1.849   0.279  0.7288  0.8643 -1.6696
  267MPD2    N1 4100   3.746   1.704   0.112  0.7350  0.1545 -0.1016
  267MPD2    H7 4101   3.837   1.747   0.107  1.8194 -2.1091  0.3314
  268TMC3    C1 4102   3.877   1.502   0.082 -0.1733  0.0939  0.2108
  268TMC3    C2 4103   3.944   1.550  17.724  0.7791 -0.0339  0.1045
  268TMC3    C3 4104   4.074   1.507  17.700 -0.2362 -0.3689  0.5184
  268TMC3    C4 4105   3.929   1.414   0.173 -0.1409  0.6026 -0.1788
  268TMC3    C5 4106   4.060   1.370   0.145 -0.3917  0.4439 -0.4426
  268TMC3    C6 4107   4.130   1.421   0.042 -0.0940  0.1832  0.9081
  268TMC3     C 4108   3.749   1.563   0.112 -0.1858 -0.0694 -0.6011
  268TMC3     O 4109   3.656   1.487   0.125 -0.3428 -0.3044  0.3664
  268TMC3     H 4110   3.893   1.617  17.656 -1.4421 -1.6424  0.1866
  268TMC3    H1 4111   3.871   1.396   0.262 -0.7328  0.3110 -0.6231
  268TMC3    H2 4112   4.233   1.388   0.030 -0.5465 -0.5969 -0.7251
  268TMC3    C7 4113   4.147   1.382   0.265 -0.3097  0.2499  0.1247
  268TMC3    C8 4114   4.164   1.609  17.668  0.4915  0.2193  0.4851
  268TMC3    O1 4115   4.177   1.290   0.337  0.3998 -0.2460 -0.6171
  268TMC3    O2 4116   4.277   1.599  17.710 -0.1248 -0.0771 -0.1319
  269MPD2     C 4117   4.048   0.480  15.329 -0.8226 -0.0617  0.5115
  269MPD2    C1 4118   3.978   0.478  15.444  0.1603 -0.2506 -0.4549
  269MPD2    C2 4119   3.930   0.597  15.503  0.0688 -0.3800 -0.2181
  269MPD2    C3 4120   3.948   0.717  15.434 -0.0008  0.6489 -0.7092
  269MPD2    C4 4121   4.023   0.715  15.320  0.1623 -0.2525 -0.6755
  269MPD2    C5 4122   4.074   0.600  15.266 -0.4434 -0.6050 -0.6662
  269MPD2     H 4123   3.874   0.604  15.596  2.3317 -1.2963  1.1891
  269MPD2    H1 4124   4.064   0.805  15.278  0.5965  0.0654  0.4183
  269MPD2    H2 4125   4.098   0.395  15.283  1.5310  0.7768  1.5025
  269MPD2    H3 4126   4.135   0.603  15.176 -1.8123  1.1410 -1.5344
  269MPD2     N 4127   3.885   0.837  15.472  0.4458  0.3660 -0.3309
  269MPD2    H5 4128   3.826   0.845  15.555 -0.3794  2.9446 -1.1501
  269MPD2    N1 4129   3.968   0.348  15.502 -0.0732  0.2258 -0.4521
  269MPD2    H7 4130   4.013   0.274  15.450  3.3181  1.5804  0.5650
  270TMC3    C1 4131   3.895   0.160  15.613 -0.2916  0.2845  0.1608
  270TMC3    C2 4132   3.779   0.087  15.587  0.4243  0.2895 -0.2135
  270TMC3    C3 4133   3.782   4.684  15.592  0.0421  0.6769 -0.1851
  270TMC3    C4 4134   4.018   0.100  15.622 -0.2684  0.1620  0.1425
  270TMC3    C5 4135   4.017   4.710  15.646  0.1675  0.4132  0.8501
  270TMC3    C6 4136   3.903   4.629  15.629  0.3910 -0.1789 -0.1784
  270TMC3     C 4137   3.881   0.306  15.599  0.4934  0.7959  0.0357
  270TMC3     O 4138   3.800   0.371  15.665 -0.3485  0.4889  0.6766
  270TMC3     H 4139   3.694   0.149  15.564 -0.1623 -0.8868 -1.2126
  270TMC3    H1 4140   4.117   0.144  15.626 -0.1020 -0.4025  1.9896
  270TMC3    H2 4141   3.919   4.523  15.642 -2.0120 -0.6169 -0.9355
  270TMC3    C7 4142   4.130   4.647  15.584 -0.0962 -0.5063  0.6031
  270TMC3    C8 4143   3.718   4.610  15.481  0.6889  0.9468  0.4528
  270TMC3    O1 4144   4.237   4.672  15.636 -0.5375 -0.5954 -0.3085
  270TMC3    O2 4145   3.795   4.532  15.434 -0.3578 -0.5709 -0.2081
  271MPD2     C 4146   3.035   4.317  13.731  0.7828  0.2103  0.7080
  271MPD2    C1 4147   3.011   4.391  13.846  0.6160 -0.5575 -0.8076
  271MPD2    C2 4148   2.919   4.498  13.831  0.1950 -0.1318 -0.7086
  271MPD2    C3 4149   2.851   4.521  13.710 -0.0136 -0.1973 -0.0429
  271MPD2    C4 4150   2.879   4.447  13.599 -0.4446 -0.2173  0.8734
  271MPD2    C5 4151   2.973   4.348  13.609 -0.3200  0.3505 -0.3565
  271MPD2     H 4152   2.895   4.558  13.918 -0.7592  0.0723 -1.1187
  271MPD2    H1 4153   2.837   4.462  13.501  0.1783 -1.1155  0.4766
  271MPD2    H2 4154   3.102   4.233  13.736 -0.5215 -0.9176 -0.6847
  271MPD2    H3 4155   2.994   4.279  13.529  0.0409 -3.1789  2.7703
  271MPD2     N 4156   2.755   4.620  13.682  0.0152 -0.5995  0.0813
  271MPD2    H5 4157   2.714   4.619  13.589  1.4833  1.7746 -0.6165
  271MPD2    N1 4158   3.084   4.365  13.965  0.2221 -0.3091 -0.1121
  271MPD2    H7 4159   3.050   4.409  14.050 -1.8380 -3.5467  0.7285
  272TMC3    C1 4160   3.252   4.265  14.108 -0.4662 -0.3148  0.0254
  272TMC3    C2 4161   3.382   4.234  14.134  0.5322  0.0684 -0.7185
  272TMC3    C3 4162   3.434   4.245  14.262  0.2073  0.5376  0.0694
  272TMC3    C4 4163   3.170   4.285  14.218 -0.1387 -1.0117  0.2178
  272TMC3    C5 4164   3.222   4.300  14.344 -0.0245 -0.0983 -0.0142
  272TMC3    C6 4165   3.353   4.276  14.370 -0.1285 -0.2821 -0.4079
  272TMC3     C 4166   3.207   4.290  13.973  0.2214 -0.5581 -0.0131
  272TMC3     O 4167   3.269   4.233  13.886  0.2376  1.0392 -0.9139
  272TMC3     H 4168   3.450   4.224  14.050  1.9275 -0.5532  0.4901
  272TMC3    H1 4169   3.063   4.304  14.212  0.4767  2.2356 -0.5825
  272TMC3    H2 4170   3.399   4.282  14.468 -3.1776 -0.5891  1.0454
  272TMC3    C7 4171   3.152   4.385  14.432 -0.1959 -0.2136 -0.3110
  272TMC3    C8 4172   3.580   4.256  14.283 -0.0347 -0.1800  0.3597
  272TMC3    O1 4173   3.031   4.397  14.425  0.3764  0.7004  0.3252
  272TMC3    O2 4174   3.646   4.302  14.192  0.1004  0.1241  0.5114
  273MPD2     C 4175   3.794   2.541  11.793 -0.4904 -0.2908 -0.4849
  273MPD2    C1 4176   3.933   2.510  11.760 -0.3517 -0.3377 -0.6373
  273MPD2    C2 4177   3.994   2.577  11.654  0.5014 -0.0369 -0.6666
  273MPD2    C3 4178   3.921   2.674  11.583 -0.8480  0.0215 -0.3520
  273MPD2    C4 4179   3.791   2.706  11.618  0.1888 -0.4137  0.2827
  273MPD2    C5 4180   3.732   2.643  11.727 -0.6535  0.2321 -0.8045
  273MPD2     H 4181   4.090   2.547  11.615  1.6803  1.8045  0.8321
  273MPD2    H1 4182   3.733   2.790  11.582  1.8920 -0.3465 -2.2663
  273MPD2    H2 4183   3.753   2.487  11.877  0.2818  2.9376  1.9350
  273MPD2    H3 4184   3.645   2.681  11.779 -0.2759 -3.1825  2.3148
  273MPD2     N 4185   3.979   2.740  11.465 -0.3461  0.2632 -0.9324
  273MPD2    H5 4186   3.910   2.800  11.420 -1.4767  0.7630  1.4558
  273MPD2    N1 4187   3.997   2.408  11.834 -0.0620 -0.3699 -0.0937
  273MPD2    H7 4188   3.934   2.360  11.898  1.4997 -2.6293 -0.2556
  274TMC3    C1 4189   4.129   2.773  11.289  0.0987 -0.2021 -0.3925
  274TMC3    C2 4190   4.025   2.817  11.209  0.3543 -0.1800 -0.6327
  274TMC3    C3 4191   4.049   2.903  11.108  0.1529 -0.3795  0.3554
  274TMC3    C4 4192   4.254   2.818  11.270  0.0377  0.2560 -0.1370
  274TMC3    C5 4193   4.268   2.923  11.182  0.0460  0.0228 -0.3596
  274TMC3    C6 4194   4.168   2.970  11.100 -0.4376  0.5999 -0.0442
  274TMC3     C 4195   4.110   2.718  11.424  0.4964 -0.6147  0.0446
  274TMC3     O 4196   4.206   2.678  11.485  0.7903  0.4746  0.5184
  274TMC3     H 4197   3.926   2.781  11.235  0.2421 -1.2502 -2.5065
  274TMC3    H1 4198   4.332   2.806  11.344  1.1306  2.9266 -0.8668
  274TMC3    H2 4199   4.182   3.025  11.008  0.6024 -1.0642 -0.8811
  274TMC3    C7 4200   4.381   3.008  11.205 -0.0236 -0.4684 -0.2461
  274TMC3    C8 4201   3.935   2.929  11.019 -0.2463 -0.3239  0.2223
  274TMC3    O1 4202   4.487   2.953  11.229  0.1978  0.1173 -0.2151
  274TMC3    O2 4203   3.925   3.042  10.971 -0.3586 -0.6339  0.3023
  275MPD2     C 4204   4.529   1.149  14.609  0.5628  0.1097  0.1398
  275MPD2    C1 4205   4.516   1.034  14.683 -0.5117 -0.2325  0.7811
  275MPD2    C2 4206   4.421   0.938  14.654 -0.1811 -0.4087 -0.1854
  275MPD2    C3 4207   4.338   0.966  14.543 -0.5578 -0.2290 -0.1306
  275MPD2    C4 4208   4.365   1.070  14.460  0.1294  0.3250  0.4170
  275MPD2    C5 4209   4.460   1.162  14.492 -0.3760 -1.3366 -0.4547
  275MPD2     H 4210   4.406   0.856  14.723  0.5908  0.6020  1.1609
  275MPD2    H1 4211   4.301   1.079  14.373 -0.6447  2.0800  1.1617
  275MPD2    H2 4212   4.605   1.223  14.630  0.6054  0.1645 -0.2046
  275MPD2    H3 4213   4.475   1.235  14.413 -1.6249 -1.9089 -1.2070
  275MPD2     N 4214   4.232   0.883  14.511 -0.9810  0.2653  0.1022
  275MPD2    H5 4215   4.160   0.918  14.449 -0.8360 -0.7497 -0.6448
  275MPD2    N1 4216   4.580   1.013  14.811  0.1556  0.3169  0.0670
  275MPD2    H7 4217   4.558   0.923  14.853 -1.5553  1.9688  2.6554
  276TMC3    C1 4218   4.683   1.070  15.013  0.3268  0.0502  0.2007
  276TMC3    C2 4219   4.700   0.938  15.049 -0.1823  0.3523 -0.1269
  276TMC3    C3 4220   0.046   0.911  15.158 -0.1754 -0.2735  0.4964
  276TMC3    C4 4221   0.015   1.168  15.079 -0.4103 -0.5313  0.0224
  276TMC3    C5 4222   0.098   1.136  15.184 -0.7520 -0.1331  0.1155
  276TMC3    C6 4223   0.111   1.007  15.228  0.1092  0.6344 -0.6125
  276TMC3     C 4224   4.637   1.116  14.886 -0.1951 -0.5741  0.2160
  276TMC3     O 4225   4.653   1.236  14.858 -0.2396 -0.5989 -0.3092
  276TMC3     H 4226   4.643   0.855  15.010 -0.0392  0.5129 -0.6823
  276TMC3    H1 4227   4.733   1.272  15.061 -3.6201 -0.7405  2.4638
  276TMC3    H2 4228   0.197   0.973  15.285  0.3194  3.0214  0.4950
  276TMC3    C7 4229   0.187   1.234  15.238  0.3110 -0.9774  0.4435
  276TMC3    C8 4230   0.099   0.776  15.177  0.1936 -0.5256  0.1652
  276TMC3    O1 4231   0.264   1.187  15.324  0.4473  0.6354  0.1692
  276TMC3    O2 4232   0.183   0.763  15.262  0.4432 -0.0485  0.4432
  277MPD2     C 4233   1.543   0.153  13.368  0.1309 -0.6127  0.3654
  277MPD2    C1 4234   1.414   0.160  13.412  0.5262  0.3150 -0.4435
  277MPD2    C2 4235   1.380   0.068  13.513 -0.0780 -0.0353  0.7225
  277MPD2    C3 4236   1.478   0.001  13.584 -0.6721 -0.3652  0.6910
  277MPD2    C4 4237   1.611   0.009  13.546  0.3133 -1.2016 -0.1951
  277MPD2    C5 4238   1.640   0.082  13.434  0.5652  0.2913  0.5951
  277MPD2     H 4239   1.274   0.065  13.535 -0.4775  0.7642 -1.0914
  277MPD2    H1 4240   1.690   4.700  13.603  1.8631  1.1836 -0.3510
  277MPD2    H2 4241   1.579   0.199  13.276 -1.2466 -0.8527 -0.2944
  277MPD2    H3 4242   1.741   0.079  13.394  0.0628  3.1008 -0.8873
  277MPD2     N 4243   1.437   4.655  13.693 -0.1871 -0.4671 -0.0690
  277MPD2    H5 4244   1.338   4.645  13.712 -0.0360 -0.7106  0.6190
  277MPD2    N1 4245   1.321   0.239  13.343 -0.2081 -0.5927 -0.1434
  277MPD2    H7 4246   1.346   0.291  13.259 -3.2286 -1.6146 -1.6625
  278TMC3    C1 4247   1.441   4.476  13.834 -0.3170  0.9795 -0.3186
  278TMC3    C2 4248   1.409   4.360  13.775 -0.2612 -0.2295 -0.1225
  278TMC3    C3 4249   1.286   4.309  13.801  0.0411 -0.4841 -0.0093
  278TMC3    C4 4250   1.355   4.546  13.919  0.5667 -0.3622 -0.3776
  278TMC3    C5 4251   1.234   4.487  13.942  0.6314  0.3683 -0.0542
  278TMC3    C6 4252   1.199   4.369  13.887  0.4376 -0.1358  0.3672
  278TMC3     C 4253   1.518   4.565  13.750  0.1813  0.6097 -0.4092
  278TMC3     O 4254   1.611   4.507  13.702 -0.5611  0.1794 -0.1552
  278TMC3     H 4255   1.470   4.314  13.698  0.3882  0.5915 -0.1010
  278TMC3    H1 4256   1.393   4.636  13.966 -0.3983  0.4746 -1.2125
  278TMC3    H2 4257   1.108   4.314  13.910  1.4915 -2.2413 -0.4262
  278TMC3    C7 4258   1.159   4.554  14.046  0.7714 -0.6542 -0.3533
  278TMC3    C8 4259   1.264   4.163  13.783 -0.5915 -0.6030  0.0214
  278TMC3    O1 4260   1.222   4.596  14.138 -0.4149 -0.1656  0.2544
  278TMC3    O2 4261   1.194   4.103  13.871  0.0625 -0.4457 -0.2893
  279MPD2     C 4262   0.509   4.248  17.432 -0.3119 -0.3232  0.2922
  279MPD2    C1 4263   0.564   4.340  17.515 -0.4742 -0.1489 -0.5480
  279MPD2    C2 4264   0.691   4.392  17.478  0.2801 -0.5061  0.1156
  279MPD2    C3 4265   0.749   4.361  17.360 -0.7783  0.0440  0.0212
  279MPD2    C4 4266   0.693   4.273  17.273  0.3714  0.1578  0.7983
  279MPD2    C5 4267   0.567   4.222  17.311 -0.3959 -0.2250  0.0695
  279MPD2     H 4268   0.740   4.463  17.544 -0.5624 -0.9543  1.2152
  279MPD2    H1 4269   0.738   4.241  17.180 -0.9814  0.6446 -0.0303
  279MPD2    H2 4270   0.413   4.201  17.449 -0.4170  0.1441  0.9586
  279MPD2    H3 4271   0.520   4.155  17.241 -0.9458  1.6360 -1.3256
  279MPD2     N 4272   0.861   4.432  17.314  0.1230 -0.7105 -0.2863
  279MPD2    H5 4273   0.898   4.396  17.226  0.0282 -3.3350  0.7250
  279MPD2    N1 4274   0.488   4.388  17.627 -0.4950  0.0459 -0.1610
  279MPD2    H7 4275   0.389   4.368  17.626 -0.1457 -1.6469  0.3655
  280TMC3    C1 4276   0.425   4.537   0.043  0.0151 -0.2778 -0.1505
  280TMC3    C2 4277   0.295   4.489   0.019  0.2572 -0.1183 -0.3268
  280TMC3    C3 4278   0.195   4.575   0.029  0.2202 -0.3234  0.1335
  280TMC3    C4 4279   0.455   4.661   0.090 -0.2473 -0.5153  0.0735
  280TMC3    C5 4280   0.348   0.008   0.105 -0.6376 -0.0129  0.9412
  280TMC3    C6 4281   0.224   4.706   0.062  0.7916 -0.3757 -0.2304
  280TMC3     C 4282   0.538   4.474  17.723 -0.1680 -0.8234  0.1607
  280TMC3     O 4283   0.657   4.497  17.746 -0.1656  0.1798  0.8833
  280TMC3     H 4284   0.269   4.384   0.022 -1.0644  0.1812 -1.3428
  280TMC3    H1 4285   0.562   4.677   0.103 -0.2136 -0.1512 -0.6392
  280TMC3    H2 4286   0.134   0.027   0.068  1.1839  0.0399  1.4490
  280TMC3    C7 4287   0.376   0.144   0.087 -0.7417 -0.2425  0.0487
  280TMC3    C8 4288   0.060   4.535   0.055 -0.2706  0.1503  0.1131
  280TMC3    O1 4289   0.483   0.185   0.129  0.1550 -0.5009 -0.7524
  280TMC3    O2 4290   0.013   4.585   0.153 -0.3962 -0.0804 -0.3057
  281TMC3    C1 4291   4.276   4.667  13.550 -0.1809 -0.0365  0.2537
  281TMC3    C2 4292   4.332   0.049  13.517 -0.2430 -0.4650  0.4508
  281TMC3    C3 4293   4.413   0.050  13.405  1.3256  0.3199 -0.1049
  281TMC3    C4 4294   4.281   4.556  13.470  0.8554  0.2046  0.1695
  281TMC3    C5 4295   4.368   4.562  13.366 -0.1227 -0.5765  0.1856
  281TMC3    C6 4296   4.439   4.682  13.327  0.5690 -1.1101  0.5360
  281TMC3     C 4297   4.160   4.672  13.638 -0.5240  0.4922  0.0991
  281TMC3     O 4298   4.118   4.563  13.674  0.2045 -0.2855  0.0557
  281TMC3     H 4299   4.344   0.131  13.585  0.5354  1.2819 -1.7799
  281TMC3    H1 4300   4.205   4.480  13.481  1.6517 -0.6936 -0.6083
  281TMC3    H2 4301   4.514   4.676  13.249  0.6584  0.8993  0.4758
  281TMC3    C7 4302   4.381   4.454  13.272  0.0308 -0.1153 -0.0419
  281TMC3    C8 4303   4.503   0.162  13.373  0.1667  0.2546 -0.2882
  281TMC3    O1 4304   4.432   4.472  13.163  0.4392 -0.1085 -0.6538
  281TMC3    O2 4305   4.613   0.124  13.334 -0.2722  0.1571  0.0265
  282MPD2     C 4306   1.434   1.435  14.934 -0.6083  0.2545 -0.5189
  282MPD2    C1 4307   1.338   1.535  14.931 -0.1976 -0.3304  0.2183
  282MPD2    C2 4308   1.256   1.536  14.823 -0.1288 -0.1551 -0.5400
  282MPD2    C3 4309   1.263   1.447  14.719 -0.9515  0.0345 -0.2047
  282MPD2    C4 4310   1.351   1.340  14.727 -0.5704 -0.2358 -0.2010
  282MPD2    C5 4311   1.429   1.329  14.841  0.5912  0.2107  0.1219
  282MPD2     H 4312   1.187   1.619  14.816 -0.1080 -0.1544 -0.7657
  282MPD2    H1 4313   1.364   1.267  14.647 -0.2164 -0.4611  0.0617
  282MPD2    H2 4314   1.505   1.424  15.015 -1.1850 -0.5434 -0.1174
  282MPD2    H3 4315   1.498   1.248  14.863  0.2831  0.1063  0.7299
  282MPD2     N 4316   1.177   1.466  14.610  0.3867 -0.4511  0.0065
  282MPD2    H5 4317   1.133   1.557  14.603 -0.7264 -1.0365 -0.5557
  282MPD2    N1 4318   1.308   1.625  15.033 -0.3391  0.1424  0.3735
  282MPD2    H7 4319   1.216   1.667  15.032 -0.2230  0.3446 -2.5170
  283TMC3    C1 4320   1.329   1.768  15.216  0.2726  0.7652 -0.5289
  283TMC3    C2 4321   1.406   1.857  15.280 -0.2353  0.3174  0.2278
  283TMC3    C3 4322   1.369   1.892  15.404  0.8640 -0.3998  0.0141
  283TMC3    C4 4323   1.218   1.710  15.277 -0.7494  0.3432 -0.1683
  283TMC3    C5 4324   1.197   1.741  15.408  0.3272  0.4194  0.4570
  283TMC3    C6 4325   1.259   1.841  15.471  0.4279 -0.0446 -0.5567
  283TMC3     C 4326   1.400   1.675  15.127  0.3654 -0.5542  0.1387
  283TMC3     O 4327   1.522   1.671  15.126  0.6055 -0.8202 -0.5094
  283TMC3     H 4328   1.503   1.876  15.235 -1.0929 -0.6345 -2.0325
  283TMC3    H1 4329   1.168   1.623  15.236 -0.1896  0.8584 -1.9406
  283TMC3    H2 4330   1.236   1.874  15.572 -1.8911  1.4770 -1.5494
  283TMC3    C7 4331   1.110   1.659  15.488  0.1367 -1.3673  0.4906
  283TMC3    C8 4332   1.387   2.032  15.435 -0.2560 -0.4624 -0.0085
  283TMC3    O1 4333   1.131   1.653  15.609 -0.6255 -0.2023 -0.0861
  283TMC3    O2 4334   1.390   2.067  15.553  0.0878  0.1023 -0.5670
  284MPD2     C 4335   3.618   1.105  12.021  0.3662  0.3073  0.6639
  284MPD2    C1 4336   3.754   1.109  12.016 -0.1590  0.0265  0.6652
  284MPD2    C2 4337   3.821   1.019  12.088 -0.2979  0.4910  0.4597
  284MPD2    C3 4338   3.763   0.925  12.176 -0.3918  0.8266 -0.2921
  284MPD2    C4 4339   3.625   0.934  12.188  0.3966  0.1176 -0.5649
  284MPD2    C5 4340   3.556   1.018  12.111  0.1352 -0.3184 -0.1107
  284MPD2     H 4341   3.928   1.018  12.068 -0.2726 -1.0592  0.6927
  284MPD2    H1 4342   3.567   0.869  12.252  1.0633  0.1078  0.0326
  284MPD2    H2 4343   3.556   1.160  11.952  0.8527 -3.1106 -2.4913
  284MPD2    H3 4344   3.448   1.014  12.108  0.2097  0.0866 -2.7356
  284MPD2     N 4345   3.848   0.835  12.245 -0.1910  0.5721 -0.1351
  284MPD2    H5 4346   3.948   0.839  12.226  0.4574 -0.4157  3.0001
  284MPD2    N1 4347   3.836   1.188  11.925  0.1582 -0.1902  0.1696
  284MPD2    H7 4348   3.937   1.183  11.917  0.1428  1.0586 -0.8287
  285TMC3    C1 4349   3.900   1.321  11.760  0.5131  0.6730 -0.2585
  285TMC3    C2 4350   3.993   1.230  11.723 -0.1664  0.1088 -0.1726
  285TMC3    C3 4351   4.072   1.264  11.614 -0.7769  0.1226  0.2421
  285TMC3    C4 4352   3.876   1.430  11.684 -0.4359 -0.8901  0.0506
  285TMC3    C5 4353   3.955   1.455  11.574 -0.3220 -0.0158 -0.8548
  285TMC3    C6 4354   4.054   1.380  11.542  0.3521 -0.7247 -0.6569
  285TMC3     C 4355   3.785   1.269  11.829  0.0843 -0.4356  0.2113
  285TMC3     O 4356   3.676   1.322  11.827  0.3164 -0.2773  0.3630
  285TMC3     H 4357   4.008   1.140  11.781 -1.7570 -0.4798 -0.6711
  285TMC3    H1 4358   3.802   1.506  11.708 -1.2277 -1.4643 -0.5664
  285TMC3    H2 4359   4.125   1.415  11.468  2.9943 -0.2243  2.1075
  285TMC3    C7 4360   3.949   1.590  11.513 -0.1016 -0.3551  0.1271
  285TMC3    C8 4361   4.138   1.150  11.543  0.0345  1.0610  0.0455
  285TMC3    O1 4362   4.049   1.635  11.461 -0.4229  0.0960  0.3949
  285TMC3    O2 4363   4.102   1.037  11.578 -0.1254  0.4722 -0.3116
  286MPD2     C 4364   0.230   0.340   1.011 -0.3021  0.8248  0.3653
  286MPD2    C1 4365   0.148   0.264   0.937  0.2709  0.4902 -0.1678
  286MPD2    C2 4366   0.136   0.133   0.974  0.1243  0.1282  0.1030
  286MPD2    C3 4367   0.223   0.074   1.066 -0.6599  0.2697 -0.1815
  286MPD2    C4 4368   0.301   0.158   1.137 -0.5407 -0.0467  0.1315
  286MPD2    C5 4369   0.299   0.293   1.114  0.4751 -0.2496 -0.3292
  286MPD2     H 4370   0.078   0.070   0.908 -0.6126  1.3290 -0.3957
  286MPD2    H1 4371   0.363   0.124   1.219  1.4748 -2.3944 -2.3697
  286MPD2    H2 4372   0.241   0.445   0.984  2.5710  0.8660  1.6843
  286MPD2    H3 4373   0.359   0.362   1.172  0.6839 -0.8902  0.2265
  286MPD2     N 4374   0.224   4.675   1.105 -0.1616  0.1833 -0.5577
  286MPD2    H5 4375   0.294   4.646   1.172 -0.5078 -0.6246 -0.5432
  286MPD2    N1 4376   0.066   0.307   0.827  0.2878 -0.1257 -0.6775
  286MPD2    H7 4377   0.005   0.233   0.793 -0.5404  0.2268  0.0535
  287TMC3    C1 4378   0.189   4.444   1.089 -0.1795  0.1482 -0.8011
  287TMC3    C2 4379   0.207   4.346   0.997  0.1715 -0.5350  0.3748
  287TMC3    C3 4380   0.277   4.232   1.024 -0.6724  0.0058  0.2108
  287TMC3    C4 4381   0.246   4.436   1.211  0.3112  0.7184 -0.1301
  287TMC3    C5 4382   0.318   4.326   1.236 -0.3438 -0.1752  0.3449
  287TMC3    C6 4383   0.334   4.217   1.149 -0.0707 -0.2648  0.5638
  287TMC3     C 4384   0.154   4.579   1.039  0.2488  0.2119 -0.0719
  287TMC3     O 4385   0.091   4.587   0.935 -0.2692  0.7776 -0.3226
  287TMC3     H 4386   0.156   4.362   0.902  1.5487  0.1926 -0.2494
  287TMC3    H1 4387   0.244   4.520   1.279 -0.1839  0.5184  0.1018
  287TMC3    H2 4388   0.390   4.125   1.166 -0.1058 -0.1424  1.3292
  287TMC3    C7 4389   0.408   4.342   1.345 -0.2383 -0.1284 -0.9117
  287TMC3    C8 4390   0.284   4.129   0.924 -0.1527 -0.2957  0.5244
  287TMC3    O1 4391   0.442   4.456   1.374  0.2199 -0.3915 -0.2010
  287TMC3    O2 4392   0.324   4.019   0.963  0.2035  0.4854 -0.1716
  288TMC3    C1 4393   2.065   3.950  14.329  0.1134  0.2942 -0.1208
  288TMC3    C2 4394   1.949   3.999  14.389  0.4097 -0.2556 -0.1314
  288TMC3    C3 4395   1.908   4.123  14.341  0.3840  0.1292  0.6929
  288TMC3    C4 4396   2.144   4.014  14.234 -0.0422  0.0179  0.7161
  288TMC3    C5 4397   2.106   4.145  14.214 -0.0326 -0.2146 -0.3749
  288TMC3    C6 4398   1.991   4.197  14.264  0.0870  0.3020 -0.1202
  288TMC3     C 4399   2.122   3.836  14.395 -0.1952 -0.2857  0.2539
  288TMC3     O 4400   2.047   3.757  14.449 -0.3253 -0.9202 -0.4122
  288TMC3     H 4401   1.888   3.940  14.457  2.2344 -1.9624  0.0275
  288TMC3    H1 4402   2.228   3.974  14.180  1.5968  1.2736  2.3592
  288TMC3    H2 4403   1.947   4.286  14.221 -0.0954  0.3743  0.2108
  288TMC3    C7 4404   2.195   4.225  14.135 -0.1981 -0.3275 -0.1118
  288TMC3    C8 4405   1.791   4.192  14.399  0.4322  0.5441 -0.6697
  288TMC3    O1 4406   2.284   4.160  14.079  0.1472  0.3427  0.4371
  288TMC3    O2 4407   1.798   4.313  14.383  0.0218 -0.2228 -0.3276
  289MPD2     C 4408   1.594   2.919  14.136 -0.3721 -0.1654  0.2442
  289MPD2    C1 4409   1.577   3.049  14.106  0.2395  0.0179 -0.3379
  289MPD2    C2 4410   1.453   3.095  14.074  0.0398 -0.6333  0.2000
  289MPD2    C3 4411   1.347   3.004  14.055 -0.3396 -0.3742  0.0611
  289MPD2    C4 4412   1.369   2.870  14.081 -0.1851  0.6770  0.6191
  289MPD2    C5 4413   1.485   2.834  14.136  0.2629 -0.1025 -0.3640
  289MPD2     H 4414   1.440   3.198  14.041  0.6906 -0.3961  0.6997
  289MPD2    H1 4415   1.301   2.791  14.053 -0.1195  0.7622  0.2187
  289MPD2    H2 4416   1.691   2.876  14.160 -0.5436 -0.5027  0.3395
  289MPD2    H3 4417   1.509   2.730  14.157 -0.9035 -0.0498  1.2845
  289MPD2     N 4418   1.219   3.044  14.007 -0.2118 -0.6668 -0.2449
  289MPD2    H5 4419   1.142   2.977  14.003  0.2481 -1.2656  1.0137
  289MPD2    N1 4420   1.696   3.127  14.103  0.1431 -0.1597 -0.0377
  289MPD2    H7 4421   1.777   3.076  14.137 -0.5675 -0.7645  0.7310
  290TMC3    C1 4422   1.026   3.173  13.969 -0.3780 -0.2088  1.4015
  290TMC3    C2 4423   0.965   3.289  14.006 -0.1709 -0.2662 -0.3438
  290TMC3    C3 4424   0.866   3.333  13.921 -0.7772 -0.0073 -0.7846
  290TMC3    C4 4425   0.996   3.103  13.857  0.2057 -0.4729 -0.0142
  290TMC3    C5 4426   0.889   3.154  13.781  0.6134  0.3409 -0.6991
  290TMC3    C6 4427   0.826   3.273  13.806 -0.0820  0.5373 -0.2017
  290TMC3     C 4428   1.171   3.172  14.008  0.1016 -0.4222  0.4878
  290TMC3     O 4429   1.220   3.281  14.030 -0.0571  0.3043  0.6571
  290TMC3     H 4430   0.987   3.338  14.101  0.9637  0.7310 -1.1246
  290TMC3    H1 4431   1.058   3.019  13.827  0.7249  0.8605 -2.7328
  290TMC3    H2 4432   0.742   3.310  13.748 -0.0324 -1.7270 -1.7258
  290TMC3    C7 4433   0.810   3.071  13.694 -0.1960  0.7807 -0.1464
  290TMC3    C8 4434   0.795   3.454  13.962 -0.2378  0.4704 -0.3655
  290TMC3    O1 4435   0.731   3.122  13.615 -0.0193  0.0655 -0.0239
  290TMC3    O2 4436   0.675   3.468  13.955 -0.2655 -0.3627  0.1021
  291MPD2     C 4437   1.713   2.822   0.335 -0.3210  0.4249 -0.1117
  291MPD2    C1 4438   1.580   2.785   0.334  0.1058  0.1180 -0.1547
  291MPD2    C2 4439   1.502   2.799   0.222 -0.3329 -0.0558  0.1775
  291MPD2    C3 4440   1.556   2.865   0.117 -0.6160 -0.3638  0.4090
  291MPD2    C4 4441   1.685   2.902   0.116  0.5377  0.4973 -0.4055
  291MPD2    C5 4442   1.766   2.880   0.231 -0.0174 -0.3566 -0.2663
  291MPD2     H 4443   1.402   2.760   0.206 -0.0412 -1.3630  1.4718
  291MPD2    H1 4444   1.738   2.947   0.033  0.0819  0.6847 -0.5926
  291MPD2    H2 4445   1.782   2.803   0.416 -0.8305 -2.0435 -0.2518
  291MPD2    H3 4446   1.864   2.925   0.239 -1.0059  1.4942  1.6727
  291MPD2     N 4447   1.474   2.890   0.001  0.1264  0.2579  0.7449
  291MPD2    H5 4448   1.502   2.973  17.704 -2.7707  0.4349 -0.5500
  291MPD2    N1 4449   1.506   2.741   0.447 -0.4253  0.1550 -0.0726
  291MPD2    H7 4450   1.407   2.735   0.429 -0.8027 -1.0479  2.4760
  292TMC3    C1 4451   1.450   2.674   0.664 -0.3276 -0.4609  0.0733
  292TMC3    C2 4452   1.442   2.723   0.789  0.0752 -0.1787 -0.2319
  292TMC3    C3 4453   1.332   2.678   0.860  0.2566  0.4422  0.0328
  292TMC3    C4 4454   1.367   2.581   0.611 -0.5285 -0.3356  0.5295
  292TMC3    C5 4455   1.268   2.527   0.687 -0.5959 -0.8266  1.0265
  292TMC3    C6 4456   1.239   2.586   0.812  0.2085 -0.1019  0.6953
  292TMC3     C 4457   1.549   2.730   0.574 -0.0322  0.3644 -0.1810
  292TMC3     O 4458   1.668   2.733   0.611  0.2422  0.3458 -0.2195
  292TMC3     H 4459   1.509   2.801   0.824 -0.6651  0.9404 -1.2782
  292TMC3    H1 4460   1.393   2.530   0.518  0.7681  0.2026  0.5924
  292TMC3    H2 4461   1.165   2.536   0.872  0.4229 -0.3872  0.7246
  292TMC3    C7 4462   1.197   2.408   0.640 -0.3897 -0.0056  0.2154
  292TMC3    C8 4463   1.319   2.733   0.995 -0.2034 -0.6352 -0.3036
  292TMC3    O1 4464   1.244   2.344   0.543 -0.4280  0.3055  0.3420
  292TMC3    O2 4465   1.418   2.784   1.046  0.6630  0.2699  0.4870
  293MPD2     C 4466   2.145   4.113  12.656 -0.0143 -0.1712 -0.0116
  293MPD2    C1 4467   2.104   4.210  12.747  0.3269  0.3957  0.1848
  293MPD2    C2 4468   2.168   4.224  12.868  0.1745  0.0584  0.0925
  293MPD2    C3 4469   2.281   4.157  12.895  0.0924  0.3064  0.1966
  293MPD2    C4 4470   2.313   4.052  12.811 -0.3238  0.0872 -0.2726
  293MPD2    C5 4471   2.245   4.028  12.695 -0.3017 -0.1472  0.1160
  293MPD2     H 4472   2.135   4.306  12.930 -0.6398 -0.9972  1.0589
  293MPD2    H1 4473   2.388   3.977  12.838  1.6076  1.4265 -1.9043
  293MPD2    H2 4474   2.094   4.107  12.560 -1.9727 -0.4060  1.0343
  293MPD2    H3 4475   2.279   3.956  12.621 -2.5274 -0.9233 -0.1684
  293MPD2     N 4476   2.356   4.200  13.007 -0.0228 -0.2196  0.2414
  293MPD2    H5 4477   2.322   4.283  13.053 -1.4915 -0.7950  0.2023
  293MPD2    N1 4478   1.990   4.280  12.704  0.1746 -0.0413  0.2125
  293MPD2    H7 4479   1.964   4.269  12.607  0.7294  1.3121 -0.0914
  294TMC3    C1 4480   1.813   4.428  12.708  0.5883 -0.6927 -0.4030
  294TMC3    C2 4481   1.731   4.354  12.631  0.2086 -0.0709  0.3363
  294TMC3    C3 4482   1.646   4.421  12.549 -0.3135  0.6604 -0.0114
  294TMC3    C4 4483   1.800   4.561  12.724 -0.2899 -0.5617 -0.1942
  294TMC3    C5 4484   1.706   4.622  12.640 -0.0494  0.2211 -0.2993
  294TMC3    C6 4485   1.642   4.552  12.543  0.5358 -0.2547 -0.1318
  294TMC3     C 4486   1.913   4.361  12.786 -0.0162  0.3251 -0.6183
  294TMC3     O 4487   1.927   4.398  12.906  0.1672  0.3807 -0.3563
  294TMC3     H 4488   1.738   4.246  12.618  0.0602  0.1457 -1.5274
  294TMC3    H1 4489   1.866   4.625  12.781  0.5842 -1.0324 -0.6868
  294TMC3    H2 4490   1.571   4.605  12.480  1.2627  1.1199  0.1856
  294TMC3    C7 4491   1.734   0.023  12.611  0.3235  0.3517  0.0598
  294TMC3    C8 4492   1.607   4.362  12.422  0.0251  1.1270  0.2938
  294TMC3    O1 4493   1.752   0.103  12.701 -0.0786  0.1077  0.1758
  294TMC3    O2 4494   1.600   4.432  12.321  0.7857 -0.0902  0.2968
  295MPD2     C 4495   2.577   3.046   0.529  0.5136  0.1462 -0.1794
  295MPD2    C1 4496   2.704   3.111   0.511 -0.0065  0.0001  0.1846
  295MPD2    C2 4497   2.761   3.184   0.618 -0.1143  0.0418  0.7528
  295MPD2    C3 4498   2.693   3.186   0.741 -0.5075  0.0618 -0.1622
  295MPD2    C4 4499   2.574   3.122   0.753 -0.3700 -0.3317 -0.1731
  295MPD2    C5 4500   2.512   3.051   0.650  0.1885 -0.0861 -0.0092
  295MPD2     H 4501   2.862   3.220   0.602  0.2850 -0.3874  2.2322
  295MPD2    H1 4502   2.524   3.119   0.850  1.0126 -2.0620  0.4824
  295MPD2    H2 4503   2.531   2.979   0.457  0.6816 -0.4876  0.3087
  295MPD2    H3 4504   2.417   3.001   0.667 -0.4688  0.7459 -1.2381
  295MPD2     N 4505   2.733   3.266   0.849  0.0754  0.1762 -0.2172
  295MPD2    H5 4506   2.687   3.249   0.937 -0.5572  0.6079 -0.4668
  295MPD2    N1 4507   2.778   3.100   0.391  0.0980  0.0257 -0.9071
  295MPD2    H7 4508   2.873   3.134   0.399 -1.4197  4.2776 -1.1180
  296TMC3    C1 4509   2.874   3.406   0.975  0.1438  0.2741 -0.2597
  296TMC3    C2 4510   2.893   3.541   0.995 -0.2781  0.5183 -0.8148
  296TMC3    C3 4511   2.879   3.594   1.118  0.2501  0.0457 -0.4983
  296TMC3    C4 4512   2.846   3.322   1.077 -0.0889 -0.5035  0.0987
  296TMC3    C5 4513   2.823   3.378   1.200 -0.0805  0.1077  0.0022
  296TMC3    C6 4514   2.835   3.517   1.225 -0.3753 -0.4468  0.3191
  296TMC3     C 4515   2.839   3.353   0.844 -0.3464  0.3326 -0.2659
  296TMC3     O 4516   2.895   3.398   0.745 -0.5825 -0.6325 -0.0824
  296TMC3     H 4517   2.902   3.596   0.902  2.2142  1.0703 -0.2296
  296TMC3    H1 4518   2.826   3.218   1.056 -0.5221 -0.5061  0.5138
  296TMC3    H2 4519   2.819   3.556   1.324  1.5785  0.6714  0.1852
  296TMC3    C7 4520   2.770   3.292   1.300  0.0944  0.6515 -0.0825
  296TMC3    C8 4521   2.863   3.741   1.131 -0.3394  0.6404  0.9262
  296TMC3    O1 4522   2.685   3.340   1.372  0.2415  0.8164  0.3893
  296TMC3    O2 4523   2.810   3.778   1.237  0.1200  0.0245  0.3742
  297MPD2     C 4524   0.435   0.405  15.768  0.0765 -0.3990 -0.3420
  297MPD2    C1 4525   0.410   0.537  15.765 -0.1079  0.5220  0.1094
  297MPD2    C2 4526   0.496   0.616  15.842  0.3103  0.4900 -0.2343
  297MPD2    C3 4527   0.598   0.563  15.919 -0.2737  0.1809 -0.5042
  297MPD2    C4 4528   0.611   0.426  15.922 -0.0111  0.8129  0.1226
  297MPD2    C5 4529   0.528   0.350  15.843 -0.1363 -0.6572  0.7371
  297MPD2     H 4530   0.481   0.723  15.851  3.1044  1.0115 -1.5764
  297MPD2    H1 4531   0.695   0.388  15.979 -0.1274  1.0342  0.4483
  297MPD2    H2 4532   0.377   0.340  15.704  1.5544  0.5047 -2.6286
  297MPD2    H3 4533   0.545   0.243  15.840  0.7635 -0.5270  1.2230
  297MPD2     N 4534   0.697   0.647  15.984 -0.2450 -0.3215 -0.3503
  297MPD2    H5 4535   0.697   0.746  15.961 -0.2781  0.8488  4.6436
  297MPD2    N1 4536   0.301   0.593  15.700 -0.4842  0.0120 -0.4102
  297MPD2    H7 4537   0.289   0.692  15.719 -0.5677 -0.1252  0.2737
  298TMC3    C1 4538   0.089   0.594  15.604  1.0259 -0.1705 -0.1076
  298TMC3    C2 4539   0.020   0.560  15.490 -0.0629 -0.2553  0.8312
  298TMC3    C3 4540   4.648   0.624  15.453 -0.0393 -0.6896 -0.0887
  298TMC3    C4 4541   0.054   0.699  15.680  0.9683 -0.4794  0.6956
  298TMC3    C5 4542   4.677   0.760  15.644  0.2472 -0.5439  0.3340
  298TMC3    C6 4543   4.603   0.728  15.532  0.1399  0.2069  0.1195
  298TMC3     C 4544   0.201   0.515  15.635 -0.2607 -0.0236 -0.3331
  298TMC3     O 4545   0.209   0.402  15.588 -0.5629  0.4903  0.0216
  298TMC3     H 4546   0.052   0.473  15.433 -0.0730  0.0900  0.2984
  298TMC3    H1 4547   0.098   0.718  15.777  0.5705 -0.8233  0.9478
  298TMC3    H2 4548   4.499   0.757  15.527 -0.4378 -1.6641  1.4887
  298TMC3    C7 4549   4.629   0.857  15.740 -0.4542  0.0458  0.1310
  298TMC3    C8 4550   4.574   0.578  15.340  0.4014 -0.7359 -1.1254
  298TMC3    O1 4551   4.659   0.847  15.860 -0.3038 -0.2672 -0.3773
  298TMC3    O2 4552   4.587   0.459  15.313  0.9614 -0.2096  0.1868
  299MPD2     C 4553   0.489   0.449  10.953 -0.5596 -0.1074 -0.1317
  299MPD2    C1 4554   0.520   0.483  10.827  0.1104  0.5734  0.4210
  299MPD2    C2 4555   0.447   0.441  10.721 -0.7522 -0.0704 -0.2453
  299MPD2    C3 4556   0.338   0.356  10.739  0.4270  0.3001 -0.1868
  299MPD2    C4 4557   0.310   0.313  10.865 -0.7769  0.7754 -0.7369
  299MPD2    C5 4558   0.389   0.358  10.970  0.2936 -0.7431  0.0415
  299MPD2     H 4559   0.482   0.474  10.624  0.2654  2.1083  0.8474
  299MPD2    H1 4560   0.220   0.257  10.888 -0.5407  1.4100  1.8018
  299MPD2    H2 4561   0.538   0.501  11.034 -0.8620 -1.0806  0.6752
  299MPD2    H3 4562   0.361   0.321  11.068  0.8170  0.6560  0.7194
  299MPD2     N 4563   0.267   0.298  10.633  0.1718  0.1046 -0.5828
  299MPD2    H5 4564   0.199   0.229  10.664  1.2247 -0.6546  0.0441
  299MPD2    N1 4565   0.626   0.577  10.822 -0.8736  0.2482  0.2077
  299MPD2    H7 4566   0.683   0.578  10.906  0.2515  1.1773 -0.5677
  300TMC3    C1 4567   0.172   0.288  10.417 -0.5494 -0.1505  0.0076
  300TMC3    C2 4568   0.116   0.387  10.342 -0.2429 -0.3640 -0.1140
  300TMC3    C3 4569   4.728   0.362  10.301 -0.4035  0.2224  0.1839
  300TMC3    C4 4570   0.108   0.169  10.456 -0.4456  0.1501 -0.7897
  300TMC3    C5 4571   4.716   0.163  10.418 -0.0511  0.1336  0.4372
  300TMC3    C6 4572   4.655   0.267  10.357  0.6746  0.2077 -1.3844
  300TMC3     C 4573   0.279   0.337  10.499  0.3840 -0.4482 -0.7943
  300TMC3     O 4574   0.340   0.430  10.457  0.2847 -0.0073  0.1437
  300TMC3     H 4575   0.176   0.459  10.288  2.2334 -1.4362  1.2198
  300TMC3    H1 4576   0.148   0.089  10.517  1.3978  2.3879  0.9377
  300TMC3    H2 4577   4.551   0.253  10.330 -0.3035  1.6195  1.6748
  300TMC3    C7 4578   4.621   0.076  10.483 -0.1807  0.7180 -0.7431
  300TMC3    C8 4579   4.658   0.474  10.251 -0.2961 -0.7355  0.0314
  300TMC3    O1 4580   4.605   4.701  10.445  0.1013  0.4281 -0.2791
  300TMC3    O2 4581   4.554   0.452  10.194  0.1592  0.2978 -0.6172
  301MPD2     C 4582   3.428   1.788   0.685 -0.2769 -0.3959  0.9814
  301MPD2    C1 4583   3.340   1.704   0.745  0.6400 -0.6391 -0.0686
  301MPD2    C2 4584   3.304   1.584   0.682  0.7950  0.2881  0.1147
  301MPD2    C3 4585   3.370   1.544   0.568 -0.3116 -0.5633 -0.2738
  301MPD2    C4 4586   3.458   1.633   0.498 -0.3771  0.0767 -0.0202
  301MPD2    C5 4587   3.483   1.752   0.565 -0.4724  0.2325 -0.4516
  301MPD2     H 4588   3.246   1.513   0.740  2.2344 -1.8184 -1.0406
  301MPD2    H1 4589   3.516   1.609   0.409 -3.3817 -0.9530 -1.7237
  301MPD2    H2 4590   3.452   1.884   0.729 -0.0283  0.2414 -0.5259
  301MPD2    H3 4591   3.532   1.821   0.497  0.7329 -0.0236  0.1530
  301MPD2     N 4592   3.347   1.416   0.517 -0.3409 -0.1958 -0.0563
  301MPD2    H5 4593   3.397   1.389   0.433  0.0791  0.8485 -0.1470
  301MPD2    N1 4594   3.263   1.742   0.859 -0.2257 -0.1989 -0.1284
  301MPD2    H7 4595   3.190   1.676   0.884 -1.3669  0.6215 -1.2616
  302TMC3    C1 4596   3.224   1.220   0.493  0.4340  0.8260  0.0036
  302TMC3    C2 4597   3.337   1.154   0.457 -0.2922 -0.1016  0.2026
  302TMC3    C3 4598   3.335   1.019   0.446 -0.7425  0.7880 -0.6396
  302TMC3    C4 4599   3.105   1.156   0.528 -0.1090 -0.2158 -0.8452
  302TMC3    C5 4600   3.114   1.020   0.524  0.4074 -0.4178 -0.0120
  302TMC3    C6 4601   3.222   0.949   0.485  0.4190 -0.0510  0.1036
  302TMC3     C 4602   3.238   1.344   0.556  0.4258  0.4138 -0.1579
  302TMC3     O 4603   3.130   1.375   0.605  0.2523  0.1279  0.3773
  302TMC3     H 4604   3.427   1.208   0.430 -0.2995 -0.8785 -1.3913
  302TMC3    H1 4605   3.015   1.216   0.534  0.0048  0.1867 -3.1492
  302TMC3    H2 4606   3.237   0.842   0.480 -2.7937 -0.5716  2.2292
  302TMC3    C7 4607   2.989   0.949   0.517  0.5402 -0.2749 -0.4139
  302TMC3    C8 4608   3.459   0.944   0.428  0.8019 -0.1568 -0.3447
  302TMC3    O1 4609   2.975   0.858   0.438 -0.7509  0.0863 -0.7109
  302TMC3    O2 4610   3.458   0.827   0.454  0.1688  0.9441 -0.1945
  303MPD2     C 4611   2.447   0.703  10.978  0.6862  0.6776  0.3227
  303MPD2    C1 4612   2.435   0.568  10.951 -0.0438  0.0286 -0.0010
  303MPD2    C2 4613   2.512   0.505  10.856  0.0422  1.1078 -0.2245
  303MPD2    C3 4614   2.592   0.583  10.775  0.3863 -0.1529 -0.5128
  303MPD2    C4 4615   2.607   0.716  10.798  0.7324  0.3032 -0.3106
  303MPD2    C5 4616   2.543   0.776  10.908 -0.0746 -0.1732  0.9098
  303MPD2     H 4617   2.497   0.398  10.844  1.6255  0.8439  0.2029
  303MPD2    H1 4618   2.656   0.780  10.725  0.2324  1.5597  0.4389
  303MPD2    H2 4619   2.369   0.752  11.035 -1.3130  0.0565 -1.8756
  303MPD2    H3 4620   2.540   0.883  10.924 -1.8232 -0.1894  0.6775
  303MPD2     N 4621   2.656   0.528  10.664  0.3391 -0.5059  0.5284
  303MPD2    H5 4622   2.719   0.590  10.615 -0.0966  0.3128  1.0105
  303MPD2    N1 4623   2.347   0.489  11.031  0.7332 -0.4688 -0.0223
  303MPD2    H7 4624   2.321   0.539  11.115 -0.4859  2.2951 -2.0425
  304TMC3    C1 4625   2.232   0.323  11.135 -0.7192 -0.0713 -0.0065
  304TMC3    C2 4626   2.100   0.286  11.111 -0.4757 -0.2403  0.2195
  304TMC3    C3 4627   2.050   0.181  11.179 -0.2811 -0.0007 -0.5138
  304TMC3    C4 4628   2.311   0.268  11.235 -0.3371  0.4844  0.4499
  304TMC3    C5 4629   2.259   0.166  11.301  0.4218  0.5647 -1.2191
  304TMC3    C6 4630   2.126   0.125  11.281 -0.4816  0.6333 -0.2033
  304TMC3     C 4631   2.305   0.361  11.019  0.3250 -0.0133  0.1136
  304TMC3     O 4632   2.308   0.287  10.919 -0.4048  0.0944  0.5096
  304TMC3     H 4633   2.066   0.303  11.010 -1.9195 -0.1128  0.7305
  304TMC3    H1 4634   2.418   0.284  11.239 -0.2682  0.0963  0.1302
  304TMC3    H2 4635   2.083   0.044  11.340  1.5693 -1.3613 -1.4338
  304TMC3    C7 4636   2.345   0.057  11.314 -1.1953 -0.3233  0.4106
  304TMC3    C8 4637   2.003   0.079  11.089 -0.0889 -0.3191 -0.1788
  304TMC3    O1 4638   2.461   0.081  11.355  0.0318  0.7293  0.1623
  304TMC3    O2 4639   2.047   4.709  11.121  0.0639  0.1991  0.0817
  305MPD2     C 4640   1.271   1.774  13.933 -0.0726 -0.2633 -0.4887
  305MPD2    C1 4641   1.277   1.648  13.983  0.4233 -0.3186 -0.3555
  305MPD2    C2 4642   1.222   1.540  13.922  0.2525 -0.4277  1.1260
  305MPD2    C3 4643   1.169   1.556  13.790 -0.0866 -0.1962 -0.5921
  305MPD2    C4 4644   1.183   1.686  13.731 -0.5503 -1.3052 -0.4026
  305MPD2    C5 4645   1.226   1.790  13.803 -0.3169  0.0107 -0.2430
  305MPD2     H 4646   1.229   1.444  13.971 -0.6912 -0.2910  1.5325
  305MPD2    H1 4647   1.143   1.698  13.631 -0.5888  0.5992 -0.1571
  305MPD2    H2 4648   1.306   1.856  13.994 -0.4453 -0.7499  0.3865
  305MPD2    H3 4649   1.223   1.889  13.758 -0.1120  0.3282  0.4402
  305MPD2     N 4650   1.123   1.445  13.709 -0.2189 -0.1926 -0.4446
  305MPD2    H5 4651   1.097   1.463  13.613 -0.4440  0.5581 -0.2465
  305MPD2    N1 4652   1.339   1.643  14.106  0.0906 -0.5281  0.0811
  305MPD2    H7 4653   1.391   1.728  14.124 -0.7669  0.1829 -0.8632
  306TMC3    C1 4654   1.414   1.566  14.312 -0.2492 -0.0744 -0.2839
  306TMC3    C2 4655   1.444   1.455  14.386 -0.0316  0.4156 -0.2662
  306TMC3    C3 4656   1.535   1.474  14.495 -0.2460  0.6940 -0.5132
  306TMC3    C4 4657   1.451   1.689  14.340  0.1460  0.3837 -0.3553
  306TMC3    C5 4658   1.525   1.702  14.459  0.2347 -0.9379 -0.3529
  306TMC3    C6 4659   1.582   1.599  14.527  0.1135  0.4654 -0.1824
  306TMC3     C 4660   1.345   1.532  14.189  0.5560  0.5318  0.4466
  306TMC3     O 4661   1.288   1.425  14.180 -0.3055 -0.2527  0.5382
  306TMC3     H 4662   1.414   1.353  14.363 -0.7754 -0.1625  3.1275
  306TMC3    H1 4663   1.419   1.779  14.288 -0.1009 -0.7972 -2.2356
  306TMC3    H2 4664   1.647   1.614  14.612  0.8907 -2.1083 -0.3140
  306TMC3    C7 4665   1.551   1.839  14.496  0.2109 -0.1063  0.0527
  306TMC3    C8 4666   1.618   1.362  14.524  0.0346 -0.9011  0.2644
  306TMC3    O1 4667   1.510   1.921  14.412 -0.1350  0.5060 -0.1181
  306TMC3    O2 4668   1.579   1.257  14.476  0.0102 -0.2448 -0.1334
  307MPD2     C 4669   4.147   0.034  17.094 -0.9591 -0.3627  0.2784
  307MPD2    C1 4670   4.108   0.157  17.143 -0.9845 -0.3661 -0.2095
  307MPD2    C2 4671   4.050   0.165  17.269  0.0989 -0.5665 -0.3833
  307MPD2    C3 4672   4.033   0.050  17.347 -0.1214 -0.2219  0.3895
  307MPD2    C4 4673   4.081   4.668  17.298  0.1991  0.3895 -0.2544
  307MPD2    C5 4674   4.144   4.665  17.176  0.0768 -0.4152 -0.0408
  307MPD2     H 4675   4.043   0.261  17.319 -0.4037 -1.4572  1.2775
  307MPD2    H1 4676   4.072   4.575  17.354  0.6742  0.6825  0.3068
  307MPD2    H2 4677   4.181   0.023  16.991 -0.4073 -0.5148  0.4777
  307MPD2    H3 4678   4.200   4.577  17.145  1.4641  0.9845 -1.5254
  307MPD2     N 4679   3.964   0.060  17.471  0.1536 -0.7006  0.5705
  307MPD2    H5 4680   3.947   0.150  17.514  1.1894  0.3584 -1.1973
  307MPD2    N1 4681   4.125   0.280  17.077  0.3660 -0.3639 -0.2016
  307MPD2    H7 4682   4.132   0.364  17.134 -1.5198  0.2248 -0.8440
  308TMC3    C1 4683   3.745   4.660   0.106 -0.2433 -0.3450  0.4911
  308TMC3    C2 4684   3.774   0.035   0.174 -0.0902 -0.4387 -0.3772
  308TMC3    C3 4685   3.828   0.138   0.101  1.0515 -0.4826  0.6344
  308TMC3    C4 4686   3.781   4.645  17.728 -0.2855 -0.0572  0.0350
  308TMC3    C5 4687   3.840   0.006  17.658 -0.3656  0.0262 -0.2378
  308TMC3    C6 4688   3.869   0.122  17.724  0.3416  0.3527 -0.2379
  308TMC3     C 4689   3.680   4.550   0.171 -0.4203  0.5422  0.5994
  308TMC3     O 4690   3.698   4.440   0.134 -0.4481 -0.2774 -0.0800
  308TMC3     H 4691   3.757   0.046   0.281  1.6885  1.5785 -0.2983
  308TMC3    H1 4692   3.737   4.554  17.688  0.5257 -0.9924  1.2362
  308TMC3    H2 4693   3.899   0.204  17.661  0.1547  1.0037  0.5198
  308TMC3    C7 4694   3.908   4.695  17.542  0.3801  0.0989 -0.5743
  308TMC3    C8 4695   3.899   0.239   0.179 -0.2361  0.9466 -0.0709
  308TMC3    O1 4696   3.897   4.577  17.513 -0.2785  0.8232 -0.9465
  308TMC3    O2 4697   3.911   0.226   0.295 -0.8519  0.4220  0.6341
  309MPD2     C 4698   3.125   0.409  17.346  0.2757 -0.1378  0.6852
  309MPD2    C1 4699   3.023   0.468  17.272  0.8470  0.5238  0.2077
  309MPD2    C2 4700   2.892   0.446  17.309  0.6929 -0.5935  0.4786
  309MPD2    C3 4701   2.862   0.366  17.415  0.3615 -0.0618  0.7193
  309MPD2    C4 4702   2.967   0.312  17.488  0.6609 -0.0711 -0.2728
  309MPD2    C5 4703   3.096   0.333  17.457  0.3812  1.0523  0.6901
  309MPD2     H 4704   2.814   0.503  17.259 -0.0057 -0.3259  1.8830
  309MPD2    H1 4705   2.947   0.236  17.563 -1.6010  3.9405  3.2158
  309MPD2    H2 4706   3.229   0.429  17.325 -0.1739  0.8393 -0.6018
  309MPD2    H3 4707   3.174   0.281  17.511 -1.4366 -2.5449 -0.1579
  309MPD2     N 4708   2.733   0.356  17.476 -0.4215  0.2390 -0.6521
  309MPD2    H5 4709   2.720   0.330  17.573 -2.7724  0.2200 -0.9681
  309MPD2    N1 4710   3.042   0.542  17.155 -0.1105 -0.1252  0.2661
  309MPD2    H7 4711   2.965   0.571  17.096  0.0760 -0.3589 -0.0890
  310TMC3    C1 4712   3.167   0.584  16.961  0.2265  0.1266 -0.3585
  310TMC3    C2 4713   3.061   0.632  16.888  0.3430 -0.4226  0.0675
  310TMC3    C3 4714   3.074   0.636  16.750  0.3480  0.8474  0.6958
  310TMC3    C4 4715   3.280   0.531  16.899 -0.3875 -0.5571 -0.7509
  310TMC3    C5 4716   3.277   0.523  16.765  0.4255 -0.7288  0.2150
  310TMC3    C6 4717   3.180   0.579  16.688 -0.2747  0.2023 -0.4188
  310TMC3     C 4718   3.165   0.584  17.110 -0.0598 -0.0974 -0.4818
  310TMC3     O 4719   3.276   0.581  17.160  0.7981  0.0103  0.1965
  310TMC3     H 4720   2.978   0.678  16.939  1.4006  1.2828  0.2575
  310TMC3    H1 4721   3.357   0.494  16.967 -1.9894 -1.5505  0.5455
  310TMC3    H2 4722   3.171   0.558  16.582 -0.9212 -0.8965 -0.1443
  310TMC3    C7 4723   3.357   0.424  16.706 -0.2715 -0.1744 -0.1272
  310TMC3    C8 4724   2.972   0.688  16.665 -0.4040 -0.3430  0.2338
  310TMC3    O1 4725   3.382   0.433  16.587 -0.2443  0.5113  0.2309
  310TMC3    O2 4726   2.933   0.614  16.574 -0.0326  0.6735  0.5611
  311MPD2     C 4727   0.132   1.565  12.532  0.6167 -0.1859 -0.4577
  311MPD2    C1 4728   0.157   1.567  12.669 -0.2757  0.5168  0.5776
  311MPD2    C2 4729   0.066   1.502  12.751  0.5142  0.0859 -0.0865
  311MPD2    C3 4730   4.692   1.438  12.696  0.4758  0.0642  0.3536
  311MPD2    C4 4731   4.670   1.453  12.562  0.4253  0.0651 -0.1811
  311MPD2    C5 4732   0.014   1.511  12.480 -0.3501  0.2864  0.2493
  311MPD2     H 4733   0.088   1.483  12.855 -1.8576 -2.5796 -0.0635
  311MPD2    H1 4734   4.571   1.428  12.526  0.6318  0.0723 -0.7504
  311MPD2    H2 4735   0.204   1.611  12.465  0.1574  1.4766  0.1834
  311MPD2    H3 4736   4.716   1.511  12.378 -1.2675 -3.2215  0.5636
  311MPD2     N 4737   4.598   1.387  12.794 -0.6183 -0.4676  0.1758
  311MPD2    H5 4738   4.619   1.410  12.890 -1.8951 -0.0338  0.3392
  311MPD2    N1 4739   0.262   1.641  12.725  0.4534  0.8090 -0.0217
  311MPD2    H7 4740   0.270   1.632  12.826  0.7397 -1.9242 -0.2932
  312TMC3    C1 4741   4.408   1.297  12.880  0.1094 -0.0050 -0.4373
  312TMC3    C2 4742   4.306   1.207  12.879 -0.5756 -0.3430  0.2821
  312TMC3    C3 4743   4.212   1.215  12.980 -0.0532 -0.1996 -0.3802
  312TMC3    C4 4744   4.430   1.383  12.982  0.4176 -0.3847  0.6016
  312TMC3    C5 4745   4.342   1.380  13.086 -0.0936  0.1904 -0.3700
  312TMC3    C6 4746   4.226   1.303  13.078  0.3562 -0.2885  0.0778
  312TMC3     C 4747   4.492   1.305  12.765  0.0014  0.3017 -0.2005
  312TMC3     O 4748   4.460   1.248  12.662  0.0018  0.3318 -0.5819
  312TMC3     H 4749   4.302   1.132  12.800 -0.3184 -0.6588  0.5682
  312TMC3    H1 4750   4.504   1.463  12.985 -1.3674  1.1878  2.5060
  312TMC3    H2 4751   4.143   1.323  13.145  0.7153 -0.4112  0.5595
  312TMC3    C7 4752   4.336   1.507  13.149 -0.5159 -0.3076 -0.2953
  312TMC3    C8 4753   4.078   1.160  12.958  0.5198 -0.3692 -0.4938
  312TMC3    O1 4754   4.273   1.603  13.096 -0.6938  0.2465 -0.2197
  312TMC3    O2 4755   4.055   1.060  13.017  0.0790 -0.5019 -0.5872
  313MPD2     C 4756   4.079   1.013  11.015 -0.3643  0.8206 -0.3468
  313MPD2    C1 4757   3.984   1.042  11.105  0.1652  0.2146  0.3226
  313MPD2    C2 4758   3.872   0.965  11.113 -0.0770 -0.2004  0.0539
  313MPD2    C3 4759   3.860   0.853  11.033 -0.0826  0.8494 -0.0987
  313MPD2    C4 4760   3.965   0.817  10.944  0.4828  0.4609  0.1705
  313MPD2    C5 4761   4.073   0.898  10.937 -0.0001 -0.3064 -0.2426
  313MPD2     H 4762   3.796   1.004  11.179  0.4480 -1.2530  1.2882
  313MPD2    H1 4763   3.966   0.734  10.875  0.1462  0.4287  0.2051
  313MPD2    H2 4764   4.167   1.077  11.016 -1.5280  2.4481 -0.9944
  313MPD2    H3 4765   4.143   0.878  10.857 -1.0574  1.6926 -1.6574
  313MPD2     N 4766   3.737   0.786  11.048 -1.0072 -0.4114 -0.3266
  313MPD2    H5 4767   3.673   0.812  11.123  1.3005 -0.5540  1.6941
  313MPD2    N1 4768   3.982   1.161  11.181  0.2239 -0.3044  0.4041
  313MPD2    H7 4769   3.910   1.168  11.253 -0.1595  0.3468 -0.0507
  314TMC3    C1 4770   4.003   1.393  11.201 -0.6492 -0.4491 -0.0631
  314TMC3    C2 4771   4.096   1.495  11.206 -0.2390 -0.7035 -0.8842
  314TMC3    C3 4772   4.073   1.611  11.138  0.0596 -0.1740 -0.1986
  314TMC3    C4 4773   3.875   1.413  11.138  0.5382 -0.0626  0.1419
  314TMC3    C5 4774   3.864   1.534  11.080 -0.0681  0.0422  0.2286
  314TMC3    C6 4775   3.951   1.640  11.088  0.0546  0.8289 -0.2930
  314TMC3     C 4776   4.059   1.271  11.149 -0.8456 -0.0329  0.6626
  314TMC3     O 4777   4.146   1.297  11.066 -0.6840 -0.0791  0.4733
  314TMC3     H 4778   4.195   1.461  11.233 -1.0959 -3.1390 -0.7499
  314TMC3    H1 4779   3.812   1.330  11.108 -0.8007  0.6812  0.8710
  314TMC3    H2 4780   3.915   1.732  11.045  0.3580  1.2385  0.3263
  314TMC3    C7 4781   3.742   1.561  11.002  0.1851  0.6273  0.6292
  314TMC3    C8 4782   4.166   1.651  11.038 -0.3472  0.3221  0.2629
  314TMC3    O1 4783   3.645   1.490  11.035  0.5008 -1.0175  0.0889
  314TMC3    O2 4784   4.154   1.763  10.994 -0.2221 -0.3614 -0.3381
  315MPD2     C 4785   4.192   0.465  17.525 -0.3499 -0.2855 -0.6626
  315MPD2    C1 4786   4.315   0.448  17.594 -0.3793 -0.1367 -0.1847
  315MPD2    C2 4787   4.427   0.499  17.535 -1.0405  0.5726  0.2781
  315MPD2    C3 4788   4.425   0.558  17.411  0.0919  0.0841 -0.3302
  315MPD2    C4 4789   4.301   0.589  17.354 -0.1221  0.7245  0.7052
  315MPD2    C5 4790   4.191   0.543  17.411  0.4895 -0.5944  0.3500
  315MPD2     H 4791   4.520   0.470  17.583 -0.3327  1.3565 -0.6096
  315MPD2    H1 4792   4.297   0.634  17.255 -1.3562 -2.4032 -0.6911
  315MPD2    H2 4793   4.095   0.435  17.563  0.5378  0.9827  2.6358
  315MPD2    H3 4794   4.100   0.565  17.356  0.2344  1.6063  1.6397
  315MPD2     N 4795   4.546   0.602  17.362  0.2676  0.5152 -0.3375
  315MPD2    H5 4796   4.623   0.573  17.421 -0.8928  0.5591  1.1902
  315MPD2    N1 4797   4.327   0.360  17.699  0.3220 -0.5176  0.1406
  315MPD2    H7 4798   4.417   0.353  17.744  1.0680 -0.6902 -1.3992
  316TMC3    C1 4799   4.696   0.734  17.230  0.1630  0.1591  0.6713
  316TMC3    C2 4800   0.052   0.697  17.322 -0.0276  0.3996  0.2431
  316TMC3    C3 4801   0.177   0.739  17.292 -0.4203  0.1983 -0.6019
  316TMC3    C4 4802   4.723   0.801  17.113  0.1823 -0.0779  0.0053
  316TMC3    C5 4803   0.110   0.826  17.088 -0.3825 -0.1475 -0.7273
  316TMC3    C6 4804   0.213   0.811  17.178 -0.1085 -0.6698 -0.4485
  316TMC3     C 4805   4.564   0.670  17.245 -0.1764 -0.5647  1.0334
  316TMC3     O 4806   4.486   0.693  17.153 -0.2832  0.0812  0.6223
  316TMC3     H 4807   0.030   0.645  17.415 -0.4292  0.3228  0.1051
  316TMC3    H1 4808   4.640   0.814  17.044  0.4615 -2.2834 -0.7571
  316TMC3    H2 4809   0.317   0.837  17.165 -0.8311  2.0815 -0.7963
  316TMC3    C7 4810   0.147   0.867  16.955  0.2949  0.4226  0.1867
  316TMC3    C8 4811   0.270   0.699  17.387  0.4402  0.2920 -0.1973
  316TMC3    O1 4812   0.266   0.850  16.920 -0.0960 -0.0115  0.0358
  316TMC3    O2 4813   0.366   0.768  17.396 -0.2818  0.3923  0.1284
  317MPD2     C 4814   1.559   3.697  12.874 -0.0106  0.0538  0.9562
  317MPD2    C1 4815   1.649   3.602  12.831  0.8198  0.1534  0.3863
  317MPD2    C2 4816   1.691   3.509  12.933 -0.4010 -0.5006  0.2836
  317MPD2    C3 4817   1.633   3.503  13.058 -0.0825 -0.2620 -0.2327
  317MPD2    C4 4818   1.545   3.596  13.100 -0.2394  0.4914  0.1915
  317MPD2    C5 4819   1.518   3.698  13.007  0.3898 -0.1967 -0.2045
  317MPD2     H 4820   1.774   3.446  12.901  0.9778  0.9831  0.9231
  317MPD2    H1 4821   1.518   3.591  13.205  0.1668  0.9511  0.3145
  317MPD2    H2 4822   1.542   3.782  12.809  0.9662  0.2628  0.9762
  317MPD2    H3 4823   1.464   3.788  13.034  0.2162 -0.3861  0.0801
  317MPD2     N 4824   1.667   3.391  13.136 -0.4724  1.1818  0.8209
  317MPD2    H5 4825   1.741   3.331  13.101  1.4496  2.9044  1.9209
  317MPD2    N1 4826   1.707   3.582  12.703 -0.8252  0.2456  0.3854
  317MPD2    H7 4827   1.765   3.499  12.708  2.5929  2.5430 -0.6902
  318TMC3    C1 4828   1.647   3.212  13.293 -0.5627  0.6037 -0.5790
  318TMC3    C2 4829   1.561   3.113  13.333  0.3732 -0.0953 -0.5134
  318TMC3    C3 4830   1.616   2.991  13.375  0.2260 -0.2699 -0.8675
  318TMC3    C4 4831   1.781   3.207  13.303  0.1040  0.6217  0.6249
  318TMC3    C5 4832   1.831   3.092  13.352  0.1719  0.0913  0.3302
  318TMC3    C6 4833   1.753   2.983  13.384 -0.7023 -0.2777 -0.9477
  318TMC3     C 4834   1.588   3.331  13.236  0.7432  0.0677 -0.3588
  318TMC3     O 4835   1.470   3.362  13.261 -0.1335  0.1918  0.1562
  318TMC3     H 4836   1.454   3.125  13.323  0.2862 -0.6198 -0.2101
  318TMC3    H1 4837   1.847   3.288  13.272  1.5989  1.0268  4.8745
  318TMC3    H2 4838   1.790   2.883  13.406 -0.9412  0.5459  3.1974
  318TMC3    C7 4839   1.979   3.078  13.376 -0.7759  0.4296 -0.9304
  318TMC3    C8 4840   1.539   2.870  13.394  0.1347  0.6289  0.4281
  318TMC3    O1 4841   2.046   3.169  13.323 -0.1502 -0.0790  0.6564
  318TMC3    O2 4842   1.593   2.785  13.462  0.8410 -0.1359 -0.1017
  319MPD2     C 4843   2.952   0.276  16.779  0.5603 -0.2557 -0.4555
  319MPD2    C1 4844   2.896   0.174  16.849  0.2454 -0.0854 -0.1444
  319MPD2    C2 4845   2.771   0.127  16.810  0.8112  1.1307  0.3868
  319MPD2    C3 4846   2.710   0.174  16.697 -0.8713 -0.2351  0.1600
  319MPD2    C4 4847   2.776   0.276  16.629 -0.8475 -0.0753 -0.1565
  319MPD2    C5 4848   2.901   0.320  16.658  0.4653  0.1042 -0.9455
  319MPD2     H 4849   2.712   0.064  16.875  1.3224  0.4941  0.2363
  319MPD2    H1 4850   2.739   0.322  16.538 -0.7388  0.9323  0.3103
  319MPD2    H2 4851   3.046   0.320  16.811  0.4346  0.1762 -0.6857
  319MPD2    H3 4852   2.952   0.386  16.589  2.7394  3.9789  4.3860
  319MPD2     N 4853   2.578   0.140  16.656 -0.4137  0.3816 -0.1373
  319MPD2    H5 4854   2.552   0.183  16.568  3.1956 -1.3728 -2.0491
  319MPD2    N1 4855   2.952   0.128  16.970 -0.0851 -0.3394 -0.1446
  319MPD2    H7 4856   2.901   0.061  17.026  0.7497 -2.2382 -1.6956
  320TMC3    C1 4857   2.408   4.728  16.593  0.1578  0.3286  0.0136
  320TMC3    C2 4858   2.384   0.070  16.487  0.6061 -0.1238  0.0935
  320TMC3    C3 4859   2.379   0.022  16.359  1.6229  0.0179  0.0706
  320TMC3    C4 4860   2.402   4.591  16.570  0.4764 -0.7232 -0.1890
  320TMC3    C5 4861   2.384   4.541  16.444  0.1055 -1.2208  0.3999
  320TMC3    C6 4862   2.382   4.629  16.337  0.2177  0.1408  0.1861
  320TMC3     C 4863   2.505   0.029  16.695  0.3410  0.7774  0.7296
  320TMC3     O 4864   2.513   4.689  16.794  1.0690 -0.8367 -0.4564
  320TMC3     H 4865   2.385   0.177  16.505  1.7188  0.2903 -2.4373
  320TMC3    H1 4866   2.437   4.529  16.652  0.2482  1.1331  1.3194
  320TMC3    H2 4867   2.364   4.573  16.246  2.3474  1.0555 -0.7863
  320TMC3    C7 4868   2.399   4.399  16.415 -0.3897  0.3933  0.4283
  320TMC3    C8 4869   2.342   0.114  16.254 -0.4426 -0.0875 -0.0822
  320TMC3    O1 4870   2.350   4.315  16.498 -0.3153 -0.2751 -0.4579
  320TMC3    O2 4871   2.249   0.187  16.262  0.5092 -0.1778  0.4636
  321TMC3    C1 4872   3.103   0.076  17.130 -0.0307  0.1013 -0.3743
  321TMC3    C2 4873   3.014   0.054  17.243  1.3467  0.0385  0.1375
  321TMC3    C3 4874   3.072   0.014  17.366  0.2972  0.3917 -0.0024
  321TMC3    C4 4875   3.238   0.035  17.139  0.1998 -0.5792 -0.4565
  321TMC3    C5 4876   3.278   4.718  17.255 -0.5896 -0.2693  0.7368
  321TMC3    C6 4877   3.199   4.710  17.369  0.1154 -0.8703 -0.5260
  321TMC3     C 4878   3.075   0.147  17.015 -0.3673 -0.3536  0.6676
  321TMC3     O 4879   3.171   0.200  16.960 -0.0713  0.1152 -0.0022
  321TMC3     H 4880   2.910   0.083  17.240  0.4996 -3.3020 -2.4642
  321TMC3    H1 4881   3.300   0.038  17.051  1.0544 -1.5357  0.1281
  321TMC3    H2 4882   3.242   4.671  17.461  0.0332 -0.4526 -0.3098
  321TMC3    C7 4883   3.394   4.638  17.243  0.2375  0.2508 -0.7141
  321TMC3    C8 4884   2.986   4.665  17.442  0.5246 -0.0085 -0.2516
  321TMC3    O1 4885   3.449   4.608  17.348 -0.3255 -0.3019  0.2322
  321TMC3    O2 4886   2.883   4.704  17.491  0.5076 -0.0011  0.1939
  322MPD2     C 4887   0.932   0.969  13.803 -0.3681 -0.1435 -0.0678
  322MPD2    C1 4888   1.004   0.907  13.902  0.0139  0.0718 -0.1203
  322MPD2    C2 4889   1.081   0.797  13.864  0.3028  0.5120  0.8539
  322MPD2    C3 4890   1.082   0.747  13.737 -0.9162 -0.3320 -0.7041
  322MPD2    C4 4891   1.024   0.821  13.639  0.3756  0.3140 -0.7800
  322MPD2    C5 4892   0.954   0.938  13.676  0.0343 -0.0071  0.2953
  322MPD2     H 4893   1.149   0.749  13.933  0.7019 -1.3064 -0.8283
  322MPD2    H1 4894   1.015   0.799  13.533  0.2563 -2.7279 -0.1449
  322MPD2    H2 4895   0.879   1.062  13.820  1.8160  1.6534 -2.9621
  322MPD2    H3 4896   0.915   0.996  13.593 -0.2360 -1.4414 -0.5752
  322MPD2     N 4897   1.163   0.632  13.715 -0.2379 -0.2191 -0.6925
  322MPD2    H5 4898   1.200   0.591  13.800  0.1699 -1.3699 -1.4107
  322MPD2    N1 4899   1.031   0.979  14.015 -0.4623  0.0488  0.2608
  322MPD2    H7 4900   1.002   1.076  14.013  1.4238  0.6410  1.8826
  323TMC3    C1 4901   1.162   1.016  14.213  0.7209  0.5671  0.0006
  323TMC3    C2 4902   1.245   1.098  14.139  0.8361  0.0964 -1.1091
  323TMC3    C3 4903   1.375   1.111  14.185  0.7695 -0.1926 -0.2438
  323TMC3    C4 4904   1.215   0.958  14.321 -0.0705 -1.1795  0.5653
  323TMC3    C5 4905   1.332   0.989  14.375 -0.6165 -1.3836 -0.0010
  323TMC3    C6 4906   1.423   1.055  14.301  0.4251 -0.2201  0.3957
  323TMC3     C 4907   1.092   0.924  14.127  0.2576 -0.5546  0.1469
  323TMC3     O 4908   1.123   0.809  14.150  0.5455  0.3311  0.3988
  323TMC3     H 4909   1.204   1.156  14.057 -3.1077  3.0410  2.9836
  323TMC3    H1 4910   1.152   0.893  14.381  0.4970  1.9654  4.5299
  323TMC3    H2 4911   1.526   1.073  14.330  0.5546 -2.0480  1.0803
  323TMC3    C7 4912   1.367   0.915  14.498  0.5033 -0.3550 -0.1541
  323TMC3    C8 4913   1.475   1.161  14.088  0.0260  0.3934  0.9499
  323TMC3    O1 4914   1.308   0.814  14.534 -0.3726  0.0874  0.4578
  323TMC3    O2 4915   1.589   1.137  14.126 -0.4153 -0.2300 -0.2335
  324MPD2     C 4916   3.151   1.633  13.913 -0.1247  0.1400  0.0178
  324MPD2    C1 4917   3.154   1.770  13.944 -0.3520 -0.1589  0.1469
  324MPD2    C2 4918   3.041   1.837  13.967  0.5651  0.8358 -0.0412
  324MPD2    C3 4919   2.914   1.777  13.960  0.8185  0.1965  0.1585
  324MPD2    C4 4920   2.916   1.641  13.936 -0.2061 -0.1531  0.7904
  324MPD2    C5 4921   3.028   1.566  13.914  0.1783 -0.9740  0.0688
  324MPD2     H 4922   3.058   1.939  13.999  2.0625  0.3365  0.8052
  324MPD2    H1 4923   2.820   1.591  13.933 -0.7530  1.0435 -2.4450
  324MPD2    H2 4924   3.231   1.563  13.891  0.3053  0.5956  0.1352
  324MPD2    H3 4925   3.026   1.458  13.914  1.9668 -1.0107  0.7424
  324MPD2     N 4926   2.790   1.837  13.990  0.0973 -0.5670 -0.0445
  324MPD2    H5 4927   2.710   1.775  13.990 -0.5128  0.2243 -0.3165
  324MPD2    N1 4928   3.284   1.829  13.974 -0.6583 -0.4764  0.1488
  324MPD2    H7 4929   3.286   1.910  14.035  0.8371 -1.6379  1.6529
  325TMC3    C1 4930   2.637   2.009  14.081 -0.2066  0.8227  0.0674
  325TMC3    C2 4931   2.524   1.938  14.040  0.1911 -0.5891 -0.4235
  325TMC3    C3 4932   2.407   1.985  14.085 -0.2206  0.3013  0.4124
  325TMC3    C4 4933   2.625   2.122  14.155 -0.6874 -0.0371  0.1894
  325TMC3    C5 4934   2.504   2.161  14.198  0.6750 -0.4001  0.4087
  325TMC3    C6 4935   2.386   2.096  14.167  0.2429 -0.1926 -0.7362
  325TMC3     C 4936   2.775   1.966  14.042 -0.9210 -0.0984  0.4299
  325TMC3     O 4937   2.869   2.041  14.061  0.2330  0.1449 -0.3976
  325TMC3     H 4938   2.533   1.847  13.981 -0.1064 -0.3758 -0.8016
  325TMC3    H1 4939   2.706   2.193  14.150 -1.8612  1.2652 -0.2302
  325TMC3    H2 4940   2.288   2.141  14.170  0.1781 -0.3233 -0.8871
  325TMC3    C7 4941   2.480   2.308  14.205 -0.6718  0.7032  0.2442
  325TMC3    C8 4942   2.299   1.888  14.078 -0.4752 -0.0181  0.3978
  325TMC3    O1 4943   2.567   2.381  14.163 -0.0276  0.4568  0.0224
  325TMC3    O2 4944   2.310   1.796  13.995 -0.3438  0.2188  0.9571
  326MPD2     C 4945   3.610   3.400  10.246  0.1853 -0.0637  0.3664
  326MPD2    C1 4946   3.618   3.365  10.381  0.1415 -0.4698  0.4244
  326MPD2    C2 4947   3.735   3.387  10.454 -0.0612 -0.5784  0.9221
  326MPD2    C3 4948   3.844   3.460  10.400 -0.0827  0.4432 -0.4846
  326MPD2    C4 4949   3.831   3.486  10.265 -0.6958 -0.8792  0.6060
  326MPD2    C5 4950   3.723   3.442  10.186 -0.3355 -0.2995  0.8033
  326MPD2     H 4951   3.730   3.373  10.561  0.6221 -0.4389  0.9665
  326MPD2    H1 4952   3.918   3.524  10.213 -1.7134 -1.9565 -1.9303
  326MPD2    H2 4953   3.529   3.376  10.177  1.0731  1.1478 -1.1141
  326MPD2    H3 4954   3.723   3.453  10.078 -0.6939 -0.3312  0.8007
  326MPD2     N 4955   3.955   3.514  10.477  0.4414 -0.5188  0.9832
  326MPD2    H5 4956   4.021   3.576  10.430 -0.4475 -0.7952 -0.6351
  326MPD2    N1 4957   3.510   3.314  10.454 -0.1395 -0.9393 -0.5335
  326MPD2    H7 4958   3.522   3.297  10.553 -0.3150  0.1225 -0.3379
  327TMC3    C1 4959   3.301   3.243  10.513 -0.0829 -0.4109  0.2980
  327TMC3    C2 4960   3.165   3.270  10.502  0.3590 -0.7340 -0.1355
  327TMC3    C3 4961   3.090   3.250  10.617  0.6506  0.1116 -0.0229
  327TMC3    C4 4962   3.353   3.177  10.621 -0.0613 -0.3058  0.1708
  327TMC3    C5 4963   3.270   3.140  10.729 -0.4144 -0.2572  0.1252
  327TMC3    C6 4964   3.139   3.174  10.720 -0.0315  0.0704  0.0856
  327TMC3     C 4965   3.385   3.288  10.406  0.4525  0.4498 -0.1693
  327TMC3     O 4966   3.331   3.311  10.297 -0.3418  0.0996 -0.5084
  327TMC3     H 4967   3.117   3.327  10.423 -0.0883 -0.3991  0.3741
  327TMC3    H1 4968   3.454   3.139  10.626  0.3659  0.2831 -3.9794
  327TMC3    H2 4969   3.078   3.158  10.808  0.0547 -1.5729 -0.1508
  327TMC3    C7 4970   3.300   3.036  10.819 -0.4535 -0.6105  0.7477
  327TMC3    C8 4971   2.996   3.349  10.639  0.9273  0.2935  0.6324
  327TMC3    O1 4972   3.209   2.974  10.872 -0.1659 -0.4252  1.3607
  327TMC3    O2 4973   2.940   3.405  10.543 -0.6596 -0.3400  0.2357
  328MPD2     C 4974   2.186   2.890  17.113  0.0270 -0.0829  0.3673
  328MPD2    C1 4975   2.062   2.887  17.065  0.3589  0.2655 -0.7579
  328MPD2    C2 4976   1.993   3.007  17.046  0.3562 -0.1523 -0.1259
  328MPD2    C3 4977   2.062   3.129  17.056  0.1840  0.1071  0.1017
  328MPD2    C4 4978   2.188   3.124  17.102 -0.0659  0.5338 -0.2401
  328MPD2    C5 4979   2.252   3.002  17.124 -0.4572 -0.8803 -0.4664
  328MPD2     H 4980   1.895   3.009  16.999  1.3140  0.8673 -2.0722
  328MPD2    H1 4981   2.245   3.216  17.111  1.8490 -0.7264  0.4738
  328MPD2    H2 4982   2.239   2.801  17.145 -0.4921  0.0055  1.4799
  328MPD2    H3 4983   2.351   2.999  17.166  0.6419 -0.2232 -3.0131
  328MPD2     N 4984   2.018   3.254  17.011  0.2941 -0.0157 -0.4526
  328MPD2    H5 4985   2.102   3.310  17.001 -0.8366  1.6443 -0.6951
  328MPD2    N1 4986   2.013   2.765  17.012  0.1341  0.5304  0.9149
  328MPD2    H7 4987   2.079   2.691  16.989 -0.9274  0.5727 -2.1811
  329TMC3    C1 4988   1.857   2.614  16.922 -0.2951 -0.5327 -0.3579
  329TMC3    C2 4989   1.733   2.567  16.943  0.4454  0.4319 -0.4574
  329TMC3    C3 4990   1.663   2.492  16.850  0.0219 -0.3919 -0.8997
  329TMC3    C4 4991   1.914   2.602  16.796 -0.2922 -0.1030 -0.6251
  329TMC3    C5 4992   1.843   2.528  16.699  0.4264  0.3989 -0.3017
  329TMC3    C6 4993   1.717   2.475  16.726  0.2783 -1.1074 -0.1988
  329TMC3     C 4994   1.877   2.742  16.993 -0.0812 -0.3716 -0.3791
  329TMC3     O 4995   1.783   2.815  17.026 -0.0156  0.2657 -0.0066
  329TMC3     H 4996   1.689   2.603  17.035 -0.5299 -2.6260  0.2555
  329TMC3    H1 4997   2.000   2.663  16.775 -0.2242  0.0070 -0.0213
  329TMC3    H2 4998   1.664   2.409  16.657  1.0560 -1.9132 -0.0195
  329TMC3    C7 4999   1.908   2.513  16.567 -0.4472 -0.2320 -0.4975
  329TMC3    C8 5000   1.517   2.519  16.845 -0.3392  0.1056  0.1774
  329TMC3    O1 5001   2.022   2.554  16.567 -0.0650  0.1253  0.2919
  329TMC3    O2 5002   1.472   2.534  16.733  0.7386  0.1439  0.2393
  330TMC3    C1 5003   3.736   3.093   9.167 -0.1711 -0.6416 -0.8969
  330TMC3    C2 5004   3.639   3.009   9.110  0.0826 -0.2520 -0.3578
  330TMC3    C3 5005   3.644   2.876   9.143  0.1032  0.0512 -0.0239
  330TMC3    C4 5006   3.830   3.043   9.243 -0.0814 -0.0769 -1.0321
  330TMC3    C5 5007   3.847   2.912   9.258  0.5737 -0.2132 -0.1466
  330TMC3    C6 5008   3.749   2.822   9.220 -0.3242 -0.1687 -0.3703
  330TMC3     C 5009   3.723   3.240   9.167  0.6187 -0.5773 -0.5253
  330TMC3     O 5010   3.823   3.312   9.159  0.0665 -0.0619  0.4350
  330TMC3     H 5011   3.555   3.047   9.053  1.8118  1.0486 -2.0453
  330TMC3    H1 5012   3.897   3.114   9.292 -0.8796 -0.5294  0.7186
  330TMC3    H2 5013   3.770   2.717   9.234  1.2103  0.1547 -0.1833
  330TMC3    C7 5014   3.960   2.872   9.343 -0.8469 -0.1255 -0.0409
  330TMC3    C8 5015   3.532   2.796   9.104  0.5679  0.0113 -0.0393
  330TMC3    O1 5016   3.993   2.754   9.322 -0.1526  0.0146 -0.2632
  330TMC3    O2 5017   3.466   2.830   9.008 -0.1777 -0.0845  0.2168
  331MPD2     C 5018   2.366   1.816  12.809 -0.3696  0.0352 -0.9615
  331MPD2    C1 5019   2.332   1.756  12.693 -0.1401  0.5250 -0.3060
  331MPD2    C2 5020   2.362   1.622  12.669 -0.6337  0.2144  0.2172
  331MPD2    C3 5021   2.426   1.544  12.771 -0.6159  0.5042  0.3693
  331MPD2    C4 5022   2.451   1.611  12.887  0.4092 -0.4002 -0.6361
  331MPD2    C5 5023   2.417   1.745  12.910 -0.9999  0.7451  0.7603
  331MPD2     H 5024   2.344   1.567  12.577 -2.4078 -0.0295  0.7143
  331MPD2    H1 5025   2.484   1.564  12.978  0.9474  0.8000 -0.2087
  331MPD2    H2 5026   2.343   1.921  12.821 -0.5548  0.0669 -1.6320
  331MPD2    H3 5027   2.438   1.791  13.006  0.4132 -0.5000  1.0654
  331MPD2     N 5028   2.436   1.402  12.760  0.4002  0.5707  0.3180
  331MPD2    H5 5029   2.419   1.362  12.668  1.3543  3.8000 -1.2630
  331MPD2    N1 5030   2.262   1.836  12.599  0.1234  0.2565 -0.2015
  331MPD2    H7 5031   2.215   1.917  12.639 -0.7937 -0.0526 -0.6331
  332TMC3    C1 5032   2.418   1.178  12.819  0.1812  0.1006  0.2640
  332TMC3    C2 5033   2.327   1.162  12.716  0.7447  0.5938  0.5866
  332TMC3    C3 5034   2.280   1.037  12.677 -0.4353  0.1939  0.3998
  332TMC3    C4 5035   2.493   1.070  12.865 -0.2708 -0.2721  0.7682
  332TMC3    C5 5036   2.463   0.945  12.811 -0.6833  0.1155  0.1715
  332TMC3    C6 5037   2.349   0.932  12.728 -0.1876 -0.1524 -0.5190
  332TMC3     C 5038   2.463   1.312  12.863 -0.5484 -0.4375 -0.7296
  332TMC3     O 5039   2.508   1.325  12.974 -0.0109 -0.9789  0.4160
  332TMC3     H 5040   2.267   1.246  12.681 -2.7377 -1.2431  2.1214
  332TMC3    H1 5041   2.569   1.095  12.938 -0.1644  2.8175 -0.3860
  332TMC3    H2 5042   2.312   0.835  12.697  2.2792 -1.1928 -0.2347
  332TMC3    C7 5043   2.512   0.831  12.871  0.0720  0.6342 -0.0563
  332TMC3    C8 5044   2.221   1.027  12.540  0.0905 -0.2443  0.9265
  332TMC3    O1 5045   2.444   0.729  12.857 -0.2675  0.1769  0.4315
  332TMC3    O2 5046   2.230   1.125  12.466  0.2093 -0.3235  0.2221
  333MPD2     C 5047   2.071   2.059  11.027  0.0567  0.0140 -0.2281
  333MPD2    C1 5048   2.080   1.977  10.923  1.2037  0.3596 -0.3650
  333MPD2    C2 5049   2.078   1.838  10.947 -0.4054  0.8992 -0.1831
  333MPD2    C3 5050   2.072   1.794  11.076 -0.8991 -0.1565  0.0445
  333MPD2    C4 5051   2.064   1.881  11.179  0.2446  0.7111 -0.1103
  333MPD2    C5 5052   2.051   2.010  11.151 -0.6736  0.1908 -0.1556
  333MPD2     H 5053   2.098   1.765  10.869  1.4735  0.1788  0.9802
  333MPD2    H1 5054   2.079   1.853  11.283 -0.0848  0.4412 -0.1355
  333MPD2    H2 5055   2.077   2.167  11.022  0.7949  0.0845  2.2004
  333MPD2    H3 5056   2.034   2.081  11.231 -0.4381  0.6997 -0.5537
  333MPD2     N 5057   2.101   1.657  11.098 -0.1271 -0.7583  0.2392
  333MPD2    H5 5058   2.143   1.606  11.020  0.9545 -0.3006  0.5141
  333MPD2    N1 5059   2.103   2.034  10.793  0.9687 -0.3223  0.2413
  333MPD2    H7 5060   2.121   2.134  10.797  0.4535 -0.2861  1.4713
  334TMC3    C1 5061   2.159   2.034  10.560 -0.8172 -0.4658 -0.5763
  334TMC3    C2 5062   2.235   1.952  10.476 -0.8068 -0.2613  0.6445
  334TMC3    C3 5063   2.348   1.998  10.413 -0.2452 -0.0712  1.1165
  334TMC3    C4 5064   2.181   2.167  10.565 -0.3059 -0.1882  0.0621
  334TMC3    C5 5065   2.277   2.214  10.480 -0.4079 -0.1532  0.1854
  334TMC3    C6 5066   2.366   2.133  10.414 -0.0973  0.3320 -0.2017
  334TMC3     C 5067   2.118   1.955  10.675 -0.4556 -0.0413  0.5268
  334TMC3     O 5068   2.099   1.838  10.654  0.2199 -0.2546 -0.8307
  334TMC3     H 5069   2.218   1.845  10.476  0.1299 -0.4177  2.1911
  334TMC3    H1 5070   2.122   2.230  10.631 -0.3273  2.6140 -2.6151
  334TMC3    H2 5071   2.447   2.173  10.353 -0.8468  0.7563 -0.9116
  334TMC3    C7 5072   2.313   2.354  10.482  0.3787  0.6996 -0.1062
  334TMC3    C8 5073   2.450   1.911  10.377 -0.0643  0.3403 -0.7111
  334TMC3    O1 5074   2.426   2.385  10.452 -0.0871  0.3145  0.4059
  334TMC3    O2 5075   2.422   1.798  10.340  0.1930  0.1872  0.1342
  335TMC3    C1 5076   2.722   3.474  17.442 -0.2200  0.0620 -0.2827
  335TMC3    C2 5077   2.755   3.356  17.499  0.2961  0.5829  0.3384
  335TMC3    C3 5078   2.882   3.312  17.513  0.0141  0.1619  0.5331
  335TMC3    C4 5079   2.819   3.560  17.388  0.4380 -0.5866  0.1295
  335TMC3    C5 5080   2.948   3.524  17.402 -0.4425 -0.3892  0.1987
  335TMC3    C6 5081   2.977   3.397  17.455  0.0646  0.7143  0.1603
  335TMC3     C 5082   2.587   3.519  17.442 -0.3646  0.0766  0.3209
  335TMC3     O 5083   2.500   3.431  17.445  0.1460 -0.2770  0.1845
  335TMC3     H 5084   2.669   3.311  17.547 -1.4747  2.2309 -1.3572
  335TMC3    H1 5085   2.793   3.648  17.332  0.4059 -1.3333 -1.0272
  335TMC3    H2 5086   3.080   3.366  17.472  1.2523  3.7894 -1.4757
  335TMC3    C7 5087   3.059   3.599  17.350 -0.1083 -0.5779 -0.4762
  335TMC3    C8 5088   2.905   3.172  17.495  0.6785  0.1511  0.6569
  335TMC3    O1 5089   3.166   3.540  17.355 -0.2351  0.4102  0.5388
  335TMC3    O2 5090   3.015   3.139  17.451  0.4253  0.3448 -0.0733
  336MPD2     C 5091   2.313   1.228  16.069  0.6998 -1.1189 -0.3250
  336MPD2    C1 5092   2.292   1.148  15.958  0.3958 -0.2292 -0.1026
  336MPD2    C2 5093   2.301   1.010  15.979 -0.4872  0.4543 -0.2079
  336MPD2    C3 5094   2.331   0.953  16.103  0.1315  0.0875 -0.4116
  336MPD2    C4 5095   2.352   1.043  16.210  0.2315 -0.4258 -0.2191
  336MPD2    C5 5096   2.340   1.176  16.190  0.3625 -0.2927  0.5550
  336MPD2     H 5097   2.276   0.944  15.898 -0.4136  1.0406 -0.7059
  336MPD2    H1 5098   2.370   1.003  16.309 -0.0540  0.8693  0.3572
  336MPD2    H2 5099   2.305   1.336  16.059  1.1729 -1.0895 -0.3620
  336MPD2    H3 5100   2.361   1.241  16.273 -1.0168 -0.0882  0.7468
  336MPD2     N 5101   2.328   0.817  16.129  0.5126  0.2989  0.1992
  336MPD2    H5 5102   2.337   0.791  16.227 -0.2908  0.9413  0.4380
  336MPD2    N1 5103   2.251   1.201  15.831 -0.1950 -0.1908 -0.3966
  336MPD2    H7 5104   2.229   1.139  15.753  0.6055  0.9891 -1.5469
  337TMC3    C1 5105   2.263   1.366  15.662  0.2720 -0.1122 -0.0800
  337TMC3    C2 5106   2.153   1.363  15.583  0.3714  0.5588  0.2199
  337TMC3    C3 5107   2.135   1.461  15.484  0.7630 -0.5610  0.0073
  337TMC3    C4 5108   2.366   1.462  15.643 -0.7274  0.3877  0.5177
  337TMC3    C5 5109   2.339   1.561  15.547  0.7254 -0.3009 -0.0059
  337TMC3    C6 5110   2.232   1.554  15.462 -0.3750  0.8485  1.2436
  337TMC3     C 5111   2.256   1.332  15.805 -0.3792  0.3120 -0.0533
  337TMC3     O 5112   2.294   1.431  15.868 -0.5902  0.2779  0.0439
  337TMC3     H 5113   2.082   1.286  15.613  0.4164 -1.1358 -4.0281
  337TMC3    H1 5114   2.441   1.475  15.721 -0.5216 -1.3536  0.6044
  337TMC3    H2 5115   2.214   1.632  15.388  0.9346  0.2601  0.2926
  337TMC3    C7 5116   2.368   1.694  15.585 -0.8314  0.5481 -0.2327
  337TMC3    C8 5117   2.005   1.523  15.498  0.7248 -0.5962  0.0052
  337TMC3    O1 5118   2.469   1.716  15.647  0.3354  0.2701  0.9295
  337TMC3    O2 5119   2.005   1.631  15.557 -0.0672 -0.4646 -0.1150
  338MPD2     C 5120   3.027   0.334   1.054  0.1405  0.1678  0.6326
  338MPD2    C1 5121   2.910   0.272   1.011  0.2493  0.3779  0.0143
  338MPD2    C2 5122   2.799   0.277   1.097 -0.3150  0.5492  0.0297
  338MPD2    C3 5123   2.807   0.335   1.217 -0.3853  0.6217  1.0206
  338MPD2    C4 5124   2.920   0.396   1.262  0.3792 -0.1920 -0.0381
  338MPD2    C5 5125   3.024   0.397   1.175  0.2938 -0.1613 -0.5223
  338MPD2     H 5126   2.702   0.251   1.056 -1.0001  0.3886  1.7812
  338MPD2    H1 5127   2.937   0.433   1.362 -0.7606  1.6529 -0.5371
  338MPD2    H2 5128   3.120   0.342   0.998 -0.4330  0.7542 -0.2460
  338MPD2    H3 5129   3.117   0.442   1.206  0.5265  0.6348 -2.3539
  338MPD2     N 5130   2.690   0.334   1.302  0.2336  0.0322 -0.0077
  338MPD2    H5 5131   2.611   0.287   1.260 -0.5377 -1.7152  3.4076
  338MPD2    N1 5132   2.898   0.203   0.890  0.0842  0.0744 -0.5496
  338MPD2    H7 5133   2.807   0.164   0.867 -0.4265  1.1638 -0.3629
  339TMC3    C1 5134   2.552   0.362   1.497 -0.1946  0.4102 -0.0446
  339TMC3    C2 5135   2.496   0.483   1.540  0.1195  0.1818 -0.2249
  339TMC3    C3 5136   2.366   0.500   1.518 -0.2158  0.4370 -0.6906
  339TMC3    C4 5137   2.477   0.267   1.433  0.4062 -0.8585  0.0340
  339TMC3    C5 5138   2.340   0.293   1.418 -0.1771  0.1114  0.3565
  339TMC3    C6 5139   2.278   0.407   1.459  0.5358 -0.7355  0.7167
  339TMC3     C 5140   2.673   0.397   1.422  0.0413  0.4205 -0.3104
  339TMC3     O 5141   2.744   0.475   1.480 -0.3806  0.1698  0.3634
  339TMC3     H 5142   2.552   0.570   1.571 -0.6120 -0.6193  3.2568
  339TMC3    H1 5143   2.528   0.180   1.394  0.3920 -1.5497  1.5714
  339TMC3    H2 5144   2.175   0.423   1.429  0.7414  0.4675  0.6454
  339TMC3    C7 5145   2.291   0.224   1.298  0.4705  0.2862  0.0552
  339TMC3    C8 5146   2.309   0.612   1.598 -0.7452 -0.4387  0.2394
  339TMC3    O1 5147   2.382   0.209   1.219  0.5468  0.2266 -0.3980
  339TMC3    O2 5148   2.378   0.661   1.688  0.0539 -0.1594  0.4232
  340MPD2     C 5149   2.048   3.308  10.387  0.2494 -0.1501 -0.1870
  340MPD2    C1 5150   1.960   3.213  10.344 -0.0512  0.1797  0.0756
  340MPD2    C2 5151   2.009   3.092  10.294  0.5290 -0.4564  0.2170
  340MPD2    C3 5152   2.145   3.073  10.281  0.0249 -0.1132 -0.2473
  340MPD2    C4 5153   2.232   3.168  10.336  0.1036 -0.4411  0.0924
  340MPD2    C5 5154   2.181   3.285  10.373  0.5242 -0.7881 -0.3303
  340MPD2     H 5155   1.939   3.013  10.268 -1.6640  1.0771  1.5605
  340MPD2    H1 5156   2.339   3.152  10.329  0.1284 -0.8655  1.5970
  340MPD2    H2 5157   2.015   3.404  10.426 -1.1668 -0.7536  0.1074
  340MPD2    H3 5158   2.249   3.365  10.400 -1.5862  0.0957  2.4002
  340MPD2     N 5159   2.207   2.963  10.217 -0.3625  0.3154 -0.3301
  340MPD2    H5 5160   2.302   2.974  10.185 -0.1505  0.8368  0.4673
  340MPD2    N1 5161   1.821   3.244  10.351  0.2992 -0.0871  0.7586
  340MPD2    H7 5162   1.791   3.320  10.410 -2.4786 -1.1374  0.7153
  341TMC3    C1 5163   1.741   3.132  10.155 -0.5460  0.0549  0.8484
  341TMC3    C2 5164   1.673   3.016  10.124 -0.1414  0.1411  0.4440
  341TMC3    C3 5165   1.705   2.957  10.004 -0.6431  0.6039 -0.3236
  341TMC3    C4 5166   1.833   3.190  10.070 -0.5091  0.6876  0.3866
  341TMC3    C5 5167   1.871   3.112   9.960  0.7396  0.0692  0.0702
  341TMC3    C6 5168   1.809   2.997   9.931 -0.3535  0.4077  0.0483
  341TMC3     C 5169   1.716   3.185  10.287  0.2919 -0.7996  0.6065
  341TMC3     O 5170   1.598   3.211  10.313  0.1566 -0.0810  0.3777
  341TMC3     H 5171   1.606   2.973  10.197  3.0181 -2.7487  1.6333
  341TMC3    H1 5172   1.879   3.284  10.099  0.3726  0.7192 -1.1099
  341TMC3    H2 5173   1.836   2.938   9.844  1.1690  2.4356 -0.8571
  341TMC3    C7 5174   1.953   3.165   9.854  0.2592 -0.5692 -0.0997
  341TMC3    C8 5175   1.670   2.823   9.975  0.2843  0.3049  0.2973
  341TMC3    O1 5176   1.996   3.088   9.767  0.1640  0.4327 -0.4225
  341TMC3    O2 5177   1.630   2.799   9.862  0.3172  0.0942 -0.0094
  342MPD2     C 5178   0.562   1.067   0.173  0.2094  1.2039 -0.0689
  342MPD2    C1 5179   0.672   1.104   0.099 -0.2470 -0.7248  0.1335
  342MPD2    C2 5180   0.745   1.213   0.129  0.1500 -1.3247 -0.1078
  342MPD2    C3 5181   0.719   1.284   0.241  0.6411 -0.0859 -0.4503
  342MPD2    C4 5182   0.603   1.256   0.307  0.3196  0.2351 -0.4693
  342MPD2    C5 5183   0.521   1.150   0.277  0.2255 -0.1587 -0.4030
  342MPD2     H 5184   0.834   1.232   0.070  0.2371 -1.7819 -0.1180
  342MPD2    H1 5185   0.576   1.316   0.393 -0.0579 -2.2709  1.1395
  342MPD2    H2 5186   0.498   0.984   0.147  0.6633 -0.0413  2.8079
  342MPD2    H3 5187   0.447   1.115   0.348 -0.9691 -0.3600 -1.7712
  342MPD2     N 5188   0.796   1.391   0.282 -0.5563  0.1417  0.7764
  342MPD2    H5 5189   0.756   1.441   0.361 -0.3429 -0.6204  1.3731
  342MPD2    N1 5190   0.731   1.022  17.752 -1.2053  0.1980  0.0968
  342MPD2    H7 5191   0.811   1.054  17.699 -1.7024  2.1190  0.4921
  343TMC3    C1 5192   0.752   0.831  17.613  0.0055 -0.1409  0.0824
  343TMC3    C2 5193   0.866   0.880  17.551  0.0268 -0.4838  0.8382
  343TMC3    C3 5194   0.919   0.806  17.445 -0.9514  0.4109  0.1289
  343TMC3    C4 5195   0.696   0.715  17.577  0.3780 -0.0238 -0.5489
  343TMC3    C5 5196   0.745   0.659  17.463  0.6354  0.3571 -0.6883
  343TMC3    C6 5197   0.855   0.698  17.392 -0.6523  0.5593 -0.5657
  343TMC3     C 5198   0.683   0.899  17.722 -0.1384 -0.1130  0.0451
  343TMC3     O 5199   0.593   0.834   0.016  0.1016  0.3461  0.1095
  343TMC3     H 5200   0.908   0.975  17.580 -2.1188  0.7464 -0.1637
  343TMC3    H1 5201   0.603   0.679  17.618  0.0483 -0.2205 -1.4720
  343TMC3    H2 5202   0.895   0.626  17.322  1.4198  2.2945 -1.1394
  343TMC3    C7 5203   0.679   0.543  17.416 -0.0184  0.1624  0.0980
  343TMC3    C8 5204   1.061   0.815  17.422  0.0043 -0.1687 -0.0327
  343TMC3    O1 5205   0.669   0.525  17.297  0.1187  0.1876  0.1412
  343TMC3    O2 5206   1.125   0.872  17.513 -0.0266 -0.7364 -0.4539
  344MPD2     C 5207   0.814   1.360  10.666  0.4487  0.3902  0.4615
  344MPD2    C1 5208   0.874   1.246  10.609  0.8281 -0.3266  0.9919
  344MPD2    C2 5209   0.948   1.259  10.493 -0.7598 -0.4757  0.1681
  344MPD2    C3 5210   0.971   1.380  10.435 -0.2991  0.7054 -0.0022
  344MPD2    C4 5211   0.913   1.493  10.495 -0.7393  0.4301  0.9692
  344MPD2    C5 5212   0.841   1.483  10.608  0.0304 -0.8350 -0.0233
  344MPD2     H 5213   0.986   1.165  10.453 -1.1101 -0.4208 -0.2978
  344MPD2    H1 5214   0.923   1.595  10.461  0.7039 -0.1136 -0.2504
  344MPD2    H2 5215   0.749   1.341  10.751  1.0350 -2.8848  0.1980
  344MPD2    H3 5216   0.796   1.574  10.644  0.2099 -0.2142 -1.3724
  344MPD2     N 5217   1.066   1.408  10.334 -0.5837 -0.2905  0.6548
  344MPD2    H5 5218   1.077   1.505  10.306  1.2363 -0.7278 -0.1790
  344MPD2    N1 5219   0.860   1.112  10.664  0.7067 -0.5833 -0.3667
  344MPD2    H7 5220   0.872   1.036  10.598 -0.6234 -0.9312 -0.2113
  345TMC3    C1 5221   1.264   1.371  10.214  0.9948 -0.4774  0.0802
  345TMC3    C2 5222   1.341   1.437  10.312  0.0793 -0.3726  0.4557
  345TMC3    C3 5223   1.414   1.545  10.269  1.5823  0.1248 -0.5607
  345TMC3    C4 5224   1.252   1.415  10.083 -0.5615 -0.1556 -0.3971
  345TMC3    C5 5225   1.312   1.534  10.063  0.0553  0.2357 -0.7863
  345TMC3    C6 5226   1.396   1.600  10.147  0.5175  0.3114 -0.3701
  345TMC3     C 5227   1.152   1.312  10.279 -0.2040  0.4925  0.4239
  345TMC3     O 5228   1.165   1.193  10.304 -0.6207 -0.1158  0.7986
  345TMC3     H 5229   1.329   1.416  10.418  2.0570 -1.5639  0.4535
  345TMC3    H1 5230   1.193   1.363  10.007  0.4640  0.1620 -1.4119
  345TMC3    H2 5231   1.451   1.691  10.128 -1.8397  2.5821  3.6427
  345TMC3    C7 5232   1.246   1.611   9.961  0.1356 -0.1596  0.6713
  345TMC3    C8 5233   1.454   1.644  10.369  0.1759  0.3048  0.0620
  345TMC3    O1 5234   1.180   1.557   9.876 -0.3977  0.1810 -0.4719
  345TMC3    O2 5235   1.477   1.763  10.343 -0.3246 -0.2688  0.5093
  346MPD2     C 5236   1.108   2.554  14.202 -0.5337 -0.6473  0.0124
  346MPD2    C1 5237   1.230   2.517  14.145  0.1999 -0.0038 -0.1910
  346MPD2    C2 5238   1.335   2.509  14.223 -0.4747 -0.0269 -0.4644
  346MPD2    C3 5239   1.343   2.556  14.351 -0.4479 -0.8309 -0.0490
  346MPD2    C4 5240   1.226   2.615  14.401 -0.4183  0.0426  0.0702
  346MPD2    C5 5241   1.111   2.603  14.331 -0.1613  0.2452 -0.5224
  346MPD2     H 5242   1.418   2.450  14.186 -0.5524 -0.1562 -0.4340
  346MPD2    H1 5243   1.226   2.666  14.497  1.6265  0.3794 -0.0917
  346MPD2    H2 5244   1.015   2.561  14.146 -0.7709 -0.0493  0.4866
  346MPD2    H3 5245   1.012   2.628  14.369  0.5257  0.1316  1.3440
  346MPD2     N 5246   1.458   2.558  14.426 -0.3387 -0.3028  0.2932
  346MPD2    H5 5247   1.546   2.531  14.383 -0.5270 -0.4582  0.0113
  346MPD2    N1 5248   1.246   2.492  14.010 -0.2458  0.5767 -0.2956
  346MPD2    H7 5249   1.337   2.481  13.966  0.8264  0.8239  1.8621
  347TMC3    C1 5250   1.600   2.619  14.590 -0.5364  0.0785 -0.3724
  347TMC3    C2 5251   1.686   2.665  14.494 -0.6821  0.2284  0.0082
  347TMC3    C3 5252   1.820   2.659  14.526  0.1973  0.2770  0.2793
  347TMC3    C4 5253   1.633   2.570  14.709 -0.5407  0.6709  0.1334
  347TMC3    C5 5254   1.763   2.559  14.734 -0.6556 -0.5132 -0.5955
  347TMC3    C6 5255   1.858   2.603  14.650 -0.3890 -0.3772 -0.6683
  347TMC3     C 5256   1.465   2.594  14.554  0.1815  0.7540 -0.1154
  347TMC3     O 5257   1.387   2.597  14.648 -0.0140 -0.0267 -0.4760
  347TMC3     H 5258   1.654   2.721  14.406  1.6450  2.7199  0.7712
  347TMC3    H1 5259   1.569   2.556  14.795 -0.3121 -1.1258 -0.0020
  347TMC3    H2 5260   1.960   2.592  14.684 -0.1637 -1.3320 -1.6748
  347TMC3    C7 5261   1.813   2.517  14.867  0.3204 -0.2449 -0.4248
  347TMC3    C8 5262   1.920   2.702  14.430 -0.1239  0.4818  0.4659
  347TMC3    O1 5263   1.877   2.416  14.878 -0.1698  0.2267  0.6296
  347TMC3    O2 5264   1.887   2.774  14.335 -0.2756  0.1760  0.0989
  348MPD2     C 5265   4.017   1.708  11.939 -0.1839 -0.3615  0.6012
  348MPD2    C1 5266   4.102   1.717  11.826  1.2334  0.0537  0.4592
  348MPD2    C2 5267   4.085   1.817  11.735  0.3976  0.2301 -0.3617
  348MPD2    C3 5268   3.978   1.901  11.745  0.1968 -0.3966  0.5558
  348MPD2    C4 5269   3.902   1.890  11.860 -0.2627  0.5579 -0.4213
  348MPD2    C5 5270   3.922   1.801  11.961 -0.4018  0.0002  0.4117
  348MPD2     H 5271   4.145   1.826  11.646 -0.0156  0.7583 -0.5837
  348MPD2    H1 5272   3.807   1.943  11.862 -1.6898 -2.0569  0.9806
  348MPD2    H2 5273   4.031   1.621  12.002 -0.8249 -1.4787 -0.7802
  348MPD2    H3 5274   3.865   1.800  12.053  0.1324 -2.6506  0.7272
  348MPD2     N 5275   3.964   2.000  11.642 -0.1900 -0.4374 -0.1467
  348MPD2    H5 5276   4.024   2.003  11.561 -0.1158  0.4574 -0.0538
  348MPD2    N1 5277   4.216   1.633  11.795 -0.0012 -0.4343  0.4413
  348MPD2    H7 5278   4.274   1.668  11.719 -1.8062  1.5704 -0.0027
  349TMC3    C1 5279   4.355   1.458  11.798 -0.3264  0.7533 -0.0785
  349TMC3    C2 5280   4.425   1.358  11.864  0.0210 -0.1040  0.9507
  349TMC3    C3 5281   4.529   1.295  11.800  0.4661  0.4939  0.1386
  349TMC3    C4 5282   4.381   1.492  11.667 -0.1520 -0.0857  0.3659
  349TMC3    C5 5283   4.475   1.412  11.606  0.0221  1.0978 -0.3052
  349TMC3    C6 5284   4.548   1.320  11.669 -0.0664  0.1299 -0.7186
  349TMC3     C 5285   4.246   1.515  11.861  0.0516 -0.3175 -0.5854
  349TMC3     O 5286   4.193   1.451  11.947 -0.2844 -0.7772 -0.0471
  349TMC3     H 5287   4.404   1.337  11.969 -0.0828  2.0573  1.3633
  349TMC3    H1 5288   4.316   1.547  11.599  0.3673  1.1131  0.8344
  349TMC3    H2 5289   4.607   1.253  11.607  3.6765  2.6266  0.1999
  349TMC3    C7 5290   4.483   1.427  11.463 -0.0769 -0.4171 -1.2205
  349TMC3    C8 5291   4.614   1.198  11.867 -0.3368 -1.1178 -0.2911
  349TMC3    O1 5292   4.370   1.436  11.417 -1.2995 -0.2508  0.1675
  349TMC3    O2 5293   4.641   1.104  11.798 -0.3157 -0.0225 -0.3113
  350MPD2     C 5294   2.854   0.185  10.760  0.9826 -0.6778  0.7852
  350MPD2    C1 5295   2.984   0.172  10.708  0.0781 -0.6050 -0.1067
  350MPD2    C2 5296   3.078   0.270  10.748  0.1412  0.0025  0.2033
  350MPD2    C3 5297   3.054   0.368  10.848 -0.5003  0.2089  0.0933
  350MPD2    C4 5298   2.926   0.368  10.891  0.3142 -0.0493  0.6430
  350MPD2    C5 5299   2.828   0.284  10.843 -0.0707  0.8995 -0.4260
  350MPD2     H 5300   3.175   0.265  10.700  0.0915  0.6019  0.0248
  350MPD2    H1 5301   2.903   0.443  10.966  2.4074  0.1706  1.0502
  350MPD2    H2 5302   2.771   0.120  10.735  0.6056  0.0232  0.2348
  350MPD2    H3 5303   2.728   0.282  10.885 -0.0571  1.1477 -0.3828
  350MPD2     N 5304   3.149   0.463  10.904 -0.5154  0.1441  0.2538
  350MPD2    H5 5305   3.114   0.532  10.970  0.9614  1.5032 -0.3646
  350MPD2    N1 5306   3.022   0.085  10.605  0.3469  0.2207 -0.4377
  350MPD2    H7 5307   3.111   0.091  10.557  0.4276  1.0965 -0.1757
  351TMC3    C1 5308   2.994   4.669  10.429 -0.4399 -0.4652 -0.8018
  351TMC3    C2 5309   3.120   4.704  10.384  0.7702  0.1846 -0.3254
  351TMC3    C3 5310   3.165   4.634  10.276  0.2923  0.2751  0.3957
  351TMC3    C4 5311   2.916   4.574  10.372 -0.1054  0.5171 -0.1719
  351TMC3    C5 5312   2.964   4.515  10.262 -0.0697 -0.2368  0.6361
  351TMC3    C6 5313   3.088   4.541  10.211  0.1681 -0.0111  0.2090
  351TMC3     C 5314   2.938   4.731  10.547 -0.7390  0.1284  0.4605
  351TMC3     O 5315   2.831   4.690  10.591  0.3445 -0.9290  0.0552
  351TMC3     H 5316   3.190   0.015  10.450 -3.2510  0.4521  3.7731
  351TMC3    H1 5317   2.810   4.574  10.394 -0.0035  1.2080  0.3227
  351TMC3    H2 5318   3.127   4.473  10.137  1.5424  0.8584  0.1460
  351TMC3    C7 5319   2.898   4.411  10.191  0.4930 -0.2125 -1.2847
  351TMC3    C8 5320   3.294   4.666  10.231 -0.0016  0.0256 -0.3888
  351TMC3    O1 5321   2.917   4.400  10.067  0.0289 -0.1394 -0.9782
  351TMC3    O2 5322   3.345   4.604  10.137  0.0257  0.3072 -0.9627
  352MPD2     C 5323   2.865   2.540   1.215 -0.6853 -0.6883  0.4646
  352MPD2    C1 5324   2.790   2.432   1.259 -0.1163 -0.3930 -0.0942
  352MPD2    C2 5325   2.856   2.311   1.282 -0.0174  0.3133 -0.0387
  352MPD2    C3 5326   2.993   2.291   1.260 -0.0257  0.2030 -0.4151
  352MPD2    C4 5327   3.063   2.407   1.228 -0.2499 -0.1950  0.2222
  352MPD2    C5 5328   2.999   2.524   1.196 -0.0171 -0.2688 -0.3708
  352MPD2     H 5329   2.797   2.231   1.325  0.6000  0.9900  2.0331
  352MPD2    H1 5330   3.171   2.399   1.218 -0.3023 -1.5098  0.6342
  352MPD2    H2 5331   2.828   2.642   1.209  0.9293 -0.2252 -1.8039
  352MPD2    H3 5332   3.065   2.602   1.162 -1.0381  0.5440 -0.4954
  352MPD2     N 5333   3.060   2.170   1.271 -1.0390 -0.1018 -0.0051
  352MPD2    H5 5334   3.159   2.168   1.249 -1.0946 -0.2501 -0.2472
  352MPD2    N1 5335   2.656   2.449   1.293 -0.3316  0.3705  0.7725
  352MPD2    H7 5336   2.624   2.545   1.282 -0.9348  0.0301 -0.4643
  353TMC3    C1 5337   3.076   1.932   1.238 -0.4749 -0.4262  0.0223
  353TMC3    C2 5338   3.154   1.951   1.131  0.1287 -0.2911 -0.3170
  353TMC3    C3 5339   3.159   1.858   1.027  0.2350 -0.0432  0.4148
  353TMC3    C4 5340   3.000   1.818   1.245  0.0601  0.1469  0.0919
  353TMC3    C5 5341   2.992   1.735   1.136 -0.1397  0.1300 -0.1296
  353TMC3    C6 5342   3.073   1.753   1.034  0.1303 -0.1474  0.2347
  353TMC3     C 5343   2.993   2.047   1.286  0.7950  0.2011  0.3622
  353TMC3     O 5344   2.872   2.020   1.300 -0.1998  0.2365  0.0291
  353TMC3     H 5345   3.221   2.035   1.128  1.1036 -1.1040 -1.2593
  353TMC3    H1 5346   2.922   1.801   1.318  0.1698 -0.2462  0.1188
  353TMC3    H2 5347   3.058   1.682   0.953 -2.2331 -1.5386  1.9040
  353TMC3    C7 5348   2.858   1.690   1.100 -0.2967 -0.2114  1.0399
  353TMC3    C8 5349   3.269   1.859   0.934 -1.2304  0.4615  0.3715
  353TMC3    O1 5350   2.843   1.594   1.025  0.4128  0.3415  0.5919
  353TMC3    O2 5351   3.340   1.959   0.936 -0.3931 -0.1282 -0.8128
  354TMC3    C1 5352   3.799   3.187  13.721 -0.0632 -0.3431  0.0321
  354TMC3    C2 5353   3.854   3.302  13.674  0.4565 -0.5922  0.1325
  354TMC3    C3 5354   3.868   3.323  13.538  0.1022  0.4392 -0.2203
  354TMC3    C4 5355   3.758   3.087  13.640  0.4368 -0.0987  0.2668
  354TMC3    C5 5356   3.771   3.112  13.502  0.0636  0.1415 -0.2694
  354TMC3    C6 5357   3.821   3.226  13.456  0.2320  0.0590  0.6381
  354TMC3     C 5358   3.814   3.148  13.864  0.0979  0.0242 -0.1659
  354TMC3     O 5359   3.728   3.066  13.897 -0.8100  0.4248  0.0797
  354TMC3     H 5360   3.898   3.374  13.742  1.1667  0.1669 -1.1416
  354TMC3    H1 5361   3.739   2.989  13.683  0.1263  0.3187  1.0783
  354TMC3    H2 5362   3.818   3.254  13.351  1.3186 -0.7566  0.3993
  354TMC3    C7 5363   3.774   3.001  13.410  0.7003 -0.5007  0.4521
  354TMC3    C8 5364   3.994   3.391  13.495 -0.2872 -0.1843  0.1875
  354TMC3    O1 5365   3.775   2.892  13.463  0.2737 -0.1730  0.1998
  354TMC3    O2 5366   4.095   3.389  13.566  0.0197  0.7678  0.0200
  355MPD2     C 5367   3.736   4.355  11.752  0.1545 -0.2285  0.3423
  355MPD2    C1 5368   3.824   4.330  11.654 -0.3500 -0.4874  0.0125
  355MPD2    C2 5369   3.952   4.370  11.664 -0.3873  0.2816 -0.1643
  355MPD2    C3 5370   3.999   4.429  11.779 -0.1503  0.4726  0.4053
  355MPD2    C4 5371   3.915   4.439  11.889 -0.0719 -0.2489 -0.1304
  355MPD2    C5 5372   3.782   4.399  11.872 -0.1980  0.2999  0.2639
  355MPD2     H 5373   4.022   4.351  11.583 -2.0870  1.2899 -1.8860
  355MPD2    H1 5374   3.953   4.474  11.984  2.3990  3.1661 -2.4160
  355MPD2    H2 5375   3.635   4.315  11.744  0.4820 -0.6306 -1.7927
  355MPD2    H3 5376   3.716   4.411  11.956 -1.9343  2.8216 -1.4522
  355MPD2     N 5377   4.133   4.475  11.797 -0.5006 -0.1338  0.1308
  355MPD2    H5 5378   4.157   4.527  11.882  0.1053 -0.4208  0.1370
  355MPD2    N1 5379   3.780   4.260  11.535  0.4898  0.4494  0.4013
  355MPD2    H7 5380   3.687   4.219  11.538  0.5183  0.2801 -0.7299
  356TMC3    C1 5381   4.344   4.559  11.735  0.9637  0.4601 -1.1740
  356TMC3    C2 5382   4.404   4.624  11.625  0.3036  0.0571  0.0492
  356TMC3    C3 5383   4.526   4.676  11.651 -0.1380  0.0005  0.0013
  356TMC3    C4 5384   4.396   4.552  11.864 -0.0792 -0.0141 -0.0736
  356TMC3    C5 5385   4.513   4.619  11.888 -0.9409 -0.4599 -0.4376
  356TMC3    C6 5386   4.586   4.682  11.778  0.2542 -0.0980  0.4299
  356TMC3     C 5387   4.230   4.474  11.701 -0.4799  0.0730 -0.7496
  356TMC3     O 5388   4.244   4.410  11.595 -0.2876 -0.6684  0.7594
  356TMC3     H 5389   4.354   4.636  11.530 -1.5760  1.0893  1.1524
  356TMC3    H1 5390   4.330   4.520  11.944 -0.1044 -0.9680 -0.4776
  356TMC3    H2 5391   4.681   4.732  11.794 -1.1710  2.2450  1.5303
  356TMC3    C7 5392   4.535   4.629  12.031  0.2639  0.6167  0.0959
  356TMC3    C8 5393   4.594   0.008  11.545 -0.1152  0.1049 -0.0412
  356TMC3    O1 5394   4.492   4.540  12.101 -0.3422 -0.1033 -0.0485
  356TMC3    O2 5395   4.586   4.703  11.432  0.4675 -0.2743 -0.1343
  357MPD2     C 5396   4.489   4.261   0.990  0.3676 -0.2659  0.4657
  357MPD2    C1 5397   4.592   4.199   1.059 -0.2506 -0.7336  0.1933
  357MPD2    C2 5398   4.651   4.275   1.161  0.0038 -1.0103 -0.0441
  357MPD2    C3 5399   4.585   4.394   1.207  0.4168  0.3630 -0.2795
  357MPD2    C4 5400   4.479   4.450   1.133 -0.0282 -0.1088  0.2548
  357MPD2    C5 5401   4.441   4.385   1.020  0.2219 -0.6179 -0.6043
  357MPD2     H 5402   0.005   4.239   1.204 -1.1073 -2.1856  1.3805
  357MPD2    H1 5403   4.433   4.543   1.164 -0.9998 -0.7282  0.6689
  357MPD2    H2 5404   4.441   4.204   0.912  0.5262  1.3586 -0.8054
  357MPD2    H3 5405   4.358   4.418   0.958  0.7300 -0.9916 -1.4913
  357MPD2     N 5406   4.635   4.470   1.313 -0.1712 -0.3557 -0.4945
  357MPD2    H5 5407   4.611   4.568   1.319 -0.4888 -0.5225  0.8465
  357MPD2    N1 5408   4.629   4.070   1.023  0.6591  0.1310  0.1490
  357MPD2    H7 5409   4.591   4.035   0.936  1.7606  0.5601 -0.5029
  358TMC3    C1 5410   0.018   3.869   1.025 -0.1520  0.5029 -0.3298
  358TMC3    C2 5411   4.726   3.862   0.892  0.1801  0.0769 -0.8819
  358TMC3    C3 5412   0.055   3.776   0.820  0.1989  0.7110  0.5080
  358TMC3    C4 5413   0.118   3.793   1.083  0.0374  0.1161  0.0011
  358TMC3    C5 5414   0.189   3.708   1.000  0.5856  0.1175  0.1195
  358TMC3    C6 5415   0.152   3.687   0.867  0.3934 -0.1114 -0.0773
  358TMC3     C 5416   4.717   3.993   1.095 -0.3243 -0.1438 -0.5020
  358TMC3     O 5417   0.024   4.015   1.206  0.2284  0.2212  0.1691
  358TMC3     H 5418   4.660   3.928   0.837  1.1469  0.7569 -1.2475
  358TMC3    H1 5419   0.151   3.805   1.186 -0.8516  1.8483  0.0933
  358TMC3    H2 5420   0.214   3.627   0.801 -1.5795 -1.0275 -1.0986
  358TMC3    C7 5421   0.313   3.658   1.061  0.1858 -0.2887  0.1873
  358TMC3    C8 5422   4.732   3.740   0.695  0.6327 -0.7300 -0.2448
  358TMC3    O1 5423   0.346   3.707   1.167  0.4783 -0.0115 -0.1297
  358TMC3    O2 5424   4.669   3.823   0.626 -0.3952 -0.8936 -0.0002
  359MPD2     C 5425   3.843   2.069  12.418 -0.2173 -0.0920 -0.0508
  359MPD2    C1 5426   3.795   2.110  12.297 -0.1220 -0.0558  0.5027
  359MPD2    C2 5427   3.670   2.165  12.289  0.1320 -0.5791 -0.1286
  359MPD2    C3 5428   3.602   2.178  12.413  0.8218  0.4569  0.0568
  359MPD2    C4 5429   3.650   2.134  12.536  0.3713  0.6560 -0.4924
  359MPD2    C5 5430   3.775   2.076  12.539  0.0387 -0.6092 -0.1182
  359MPD2     H 5431   3.621   2.196  12.198 -1.3992  1.2586  1.2995
  359MPD2    H1 5432   3.585   2.131  12.623 -0.1887  0.0885 -0.9360
  359MPD2    H2 5433   3.940   2.022  12.429 -2.0334 -3.2167  2.6034
  359MPD2    H3 5434   3.806   2.036  12.635 -1.9421 -1.7493  0.0560
  359MPD2     N 5435   3.466   2.222  12.424 -0.2093  0.1124  0.6841
  359MPD2    H5 5436   3.425   2.220  12.517 -1.1097 -0.1890  0.2798
  359MPD2    N1 5437   3.878   2.104  12.186  0.2470  0.4585 -0.4610
  359MPD2    H7 5438   3.838   2.141  12.100  1.7503  0.7820 -1.0302
  360TMC3    C1 5439   4.083   2.087  12.071  0.4743 -0.3113 -0.1825
  360TMC3    C2 5440   4.198   2.020  12.056 -0.4538 -0.2466 -0.4028
  360TMC3    C3 5441   4.286   2.062  11.957 -0.0767 -0.3750  0.0880
  360TMC3    C4 5442   4.062   2.207  12.010 -0.0006 -0.1542 -0.3122
  360TMC3    C5 5443   4.153   2.246  11.911  0.5584 -0.2586  0.1438
  360TMC3    C6 5444   4.265   2.178  11.887  0.4596 -0.2223  0.2793
  360TMC3     C 5445   4.004   2.046  12.177  0.2767  0.7742 -0.3856
  360TMC3     O 5446   4.041   1.957  12.249  0.6464 -0.1714 -0.2671
  360TMC3     H 5447   4.188   1.918  12.090 -0.1684  0.2039  1.0249
  360TMC3    H1 5448   3.978   2.270  12.037 -0.2664 -0.7903  0.3394
  360TMC3    H2 5449   4.332   2.217  11.811  0.6291 -1.7226 -0.3342
  360TMC3    C7 5450   4.126   2.361  11.826  1.0230  0.6668 -0.6004
  360TMC3    C8 5451   4.390   1.966  11.927  0.3713  0.6840  0.4155
  360TMC3    O1 5452   4.219   2.407  11.766  0.7520 -0.6173 -0.7330
  360TMC3    O2 5453   4.410   1.885  12.009 -0.2573 -0.4612  0.1308
  361MPD2     C 5454   1.616   1.727  16.655  0.4728  0.6616  0.2918
  361MPD2    C1 5455   1.623   1.803  16.775  0.2057 -0.2758  0.1547
  361MPD2    C2 5456   1.708   1.754  16.877  0.0988  0.1708 -0.0824
  361MPD2    C3 5457   1.782   1.642  16.850  0.0940 -0.3571  1.4721
  361MPD2    C4 5458   1.755   1.562  16.743 -0.2217 -0.0648  0.5331
  361MPD2    C5 5459   1.667   1.599  16.649  0.1732 -0.3525  0.7511
  361MPD2     H 5460   1.719   1.813  16.968  1.8630  0.4026 -0.4558
  361MPD2    H1 5461   1.816   1.478  16.713 -1.1132 -0.2423 -0.7838
  361MPD2    H2 5462   1.564   1.757  16.564 -3.3431 -1.7572  1.6901
  361MPD2    H3 5463   1.663   1.537  16.560  1.7986  0.2788  0.2425
  361MPD2     N 5464   1.857   1.580  16.949 -0.4468 -0.0873  0.0213
  361MPD2    H5 5465   1.896   1.491  16.921  3.1368  0.7659  2.3423
  361MPD2    N1 5466   1.554   1.921  16.793 -0.1453  0.2566  0.3209
  361MPD2    H7 5467   1.523   1.932  16.889 -2.1188 -1.4452 -0.1061
  362TMC3    C1 5468   1.393   2.088  16.743  0.1460 -0.3872  0.5109
  362TMC3    C2 5469   1.382   2.115  16.877 -0.7332 -0.6071 -0.2325
  362TMC3    C3 5470   1.295   2.212  16.919  0.2862  0.2493  0.8309
  362TMC3    C4 5471   1.326   2.156  16.649  0.0900  0.3061  0.0120
  362TMC3    C5 5472   1.244   2.261  16.691  0.0672  0.1809  0.2629
  362TMC3    C6 5473   1.225   2.294  16.827 -0.3337  0.1991 -0.1594
  362TMC3     C 5474   1.490   2.000  16.701 -1.2914 -0.7293  0.3985
  362TMC3     O 5475   1.512   2.002  16.577  0.7656  0.2726  0.2763
  362TMC3     H 5476   1.439   2.050  16.942  0.8192  0.5314 -0.4505
  362TMC3    H1 5477   1.347   2.159  16.543 -0.0980 -1.5165 -0.0761
  362TMC3    H2 5478   1.161   2.377  16.853 -0.1748  0.2687  0.0198
  362TMC3    C7 5479   1.193   2.350  16.591 -0.8431  0.3096 -0.1916
  362TMC3    C8 5480   1.284   2.242  17.063 -0.4772  0.6074  0.7368
  362TMC3    O1 5481   1.207   2.475  16.613 -0.1342 -0.4274 -0.9267
  362TMC3    O2 5482   1.368   2.185  17.133 -0.3500 -0.0843 -0.4980
  363TMC3    C1 5483   4.544   0.105  10.032 -0.1863 -0.5288  0.3585
  363TMC3    C2 5484   4.480   4.738  10.090 -0.4229 -0.1706  0.1963
  363TMC3    C3 5485   4.351   0.036  10.133 -0.0195 -0.0582  0.0168
  363TMC3    C4 5486   4.485   0.219   9.991  0.7599  0.2586 -0.8737
  363TMC3    C5 5487   4.353   0.238  10.015 -0.0287  0.1334  0.0474
  363TMC3    C6 5488   4.283   0.147  10.092  0.3593 -0.4524  0.4402
  363TMC3     C 5489   4.679   0.065   9.994 -0.4967 -0.8913  0.2179
  363TMC3     O 5490   4.733   4.712  10.049 -0.0148  0.5136 -0.3842
  363TMC3     H 5491   4.536   4.660  10.140  1.5072  0.9679 -0.2028
  363TMC3    H1 5492   4.546   0.302   9.957  1.9604 -0.2200  0.1211
  363TMC3    H2 5493   4.178   0.163  10.115 -0.1153 -1.5549 -0.9306
  363TMC3    C7 5494   4.301   0.370   9.989  0.2008  0.5006 -0.1902
  363TMC3    C8 5495   4.275   4.674  10.200 -0.6885 -0.3197  0.0272
  363TMC3    O1 5496   4.189   0.386  10.032 -0.7630 -0.1246 -0.5384
  363TMC3    O2 5497   4.177   4.704  10.268 -0.2468 -0.4303 -0.3806
  364MPD2     C 5498   2.839   3.723  10.947 -0.6051 -0.8868  0.5075
  364MPD2    C1 5499   2.845   3.720  10.812  0.1051  0.6086 -0.7648
  364MPD2    C2 5500   2.897   3.600  10.752  0.4287 -0.4513 -0.3815
  364MPD2    C3 5501   2.922   3.484  10.830  0.1650  0.7188  0.2721
  364MPD2    C4 5502   2.890   3.487  10.961  0.2196  0.9351  0.1630
  364MPD2    C5 5503   2.852   3.604  11.019  0.2750  0.1670  0.4484
  364MPD2     H 5504   2.919   3.597  10.646  1.3504 -0.7235 -0.1815
  364MPD2    H1 5505   2.889   3.397  11.021  3.9919  0.5584 -0.3462
  364MPD2    H2 5506   2.801   3.815  10.991  0.1506  1.1232 -3.0404
  364MPD2    H3 5507   2.824   3.607  11.123 -3.9015  1.7696 -0.7207
  364MPD2     N 5508   2.985   3.376  10.772  0.5795  0.0527 -0.9305
  364MPD2    H5 5509   3.035   3.317  10.838 -1.4211 -0.7618 -0.1451
  364MPD2    N1 5510   2.814   3.830  10.733  0.1637  0.3012 -0.4645
  364MPD2    H7 5511   2.794   3.920  10.775  1.1637 -0.4469  1.6354
  365TMC3    C1 5512   2.904   3.922  10.534  0.6518  0.4874 -0.8620
  365TMC3    C2 5513   2.920   3.911  10.400  0.3733  0.0156  0.0134
  365TMC3    C3 5514   3.004   4.002  10.350  0.3158  0.5081  0.3891
  365TMC3    C4 5515   2.955   4.026  10.610 -0.1640 -0.3884 -0.0274
  365TMC3    C5 5516   3.020   4.132  10.545 -0.0095  0.1220  0.0751
  365TMC3    C6 5517   3.037   4.117  10.413 -0.3447  0.1864 -0.4414
  365TMC3     C 5518   2.827   3.827  10.598  0.3916 -0.2917 -0.0965
  365TMC3     O 5519   2.793   3.735  10.531  0.0731 -0.1410  0.1306
  365TMC3     H 5520   2.883   3.824  10.346 -3.5313  2.1241 -0.6745
  365TMC3    H1 5521   2.963   4.024  10.718 -3.1514  1.5226  0.2275
  365TMC3    H2 5522   3.088   4.196  10.360 -2.9075  2.0962 -0.0888
  365TMC3    C7 5523   3.061   4.260  10.609 -0.0610 -0.0434  0.5823
  365TMC3    C8 5524   3.052   3.988  10.212 -0.0240  0.1389  0.5009
  365TMC3    O1 5525   3.119   4.342  10.543 -0.9158  0.6288 -0.2225
  365TMC3    O2 5526   3.132   4.076  10.172  0.0870 -0.1296  0.0897
  366MPD2     C 5527   2.085   4.627  15.013  0.1801 -0.0442 -0.2678
  366MPD2    C1 5528   2.167   4.701  15.094  0.2804  0.1283 -0.7178
  366MPD2    C2 5529   2.289   4.648  15.127  0.3049 -0.0100 -0.3976
  366MPD2    C3 5530   2.344   4.530  15.076  0.1841  1.0779  0.2015
  366MPD2    C4 5531   2.260   4.461  14.992 -0.2346 -0.0766  0.7895
  366MPD2    C5 5532   2.137   4.510  14.964  0.4533 -0.3466  0.0460
  366MPD2     H 5533   2.348   4.705  15.198  0.2123  2.3644 -2.2351
  366MPD2    H1 5534   2.293   4.367  14.949  1.5684 -0.1164  2.2627
  366MPD2    H2 5535   1.983   4.653  14.990 -0.4161 -2.3341 -0.1704
  366MPD2    H3 5536   2.063   4.466  14.898 -0.6953  0.9650  0.4329
  366MPD2     N 5537   2.462   4.463  15.112 -0.0461 -0.0413 -0.6047
  366MPD2    H5 5538   2.462   4.370  15.072 -1.6676  0.0778 -0.8987
  366MPD2    N1 5539   2.126   0.085  15.145  0.6780  0.2733  0.2902
  366MPD2    H7 5540   2.198   0.135  15.196  0.7049  0.9254 -0.3756
  367TMC3    C1 5541   1.987   0.274  15.192  0.0038  0.7561  1.2673
  367TMC3    C2 5542   2.103   0.346  15.225  0.1515 -0.0691  0.1058
  367TMC3    C3 5543   2.076   0.462  15.303 -0.2739 -0.2589 -0.1879
  367TMC3    C4 5544   1.860   0.318  15.210  0.2014 -0.2910 -0.5745
  367TMC3    C5 5545   1.843   0.436  15.271 -0.1548 -0.6840  0.3163
  367TMC3    C6 5546   1.949   0.505  15.322  0.8823  0.4500  0.0505
  367TMC3     C 5547   2.003   0.149  15.128  0.2179 -0.2644  0.4273
  367TMC3     O 5548   1.900   0.109  15.066  0.0273 -0.0817 -0.3719
  367TMC3     H 5549   2.205   0.313  15.206 -0.5222 -0.0218 -3.6536
  367TMC3    H1 5550   1.782   0.255  15.169 -1.9260  0.5063  2.2177
  367TMC3    H2 5551   1.935   0.598  15.376  1.5114  0.4474  0.2205
  367TMC3    C7 5552   1.721   0.513  15.259  0.4916  0.3303 -0.0277
  367TMC3    C8 5553   2.180   0.533  15.358  0.0162  0.1078 -0.6582
  367TMC3    O1 5554   1.723   0.632  15.294  0.0204  0.1669 -0.0802
  367TMC3    O2 5555   2.278   0.470  15.400 -0.5850 -0.4701 -0.3717
  368MPD2     C 5556   2.277   1.632  13.302 -0.5843  0.3385 -0.7056
  368MPD2    C1 5557   2.346   1.753  13.299  0.1447 -0.1016  0.2419
  368MPD2    C2 5558   2.481   1.753  13.286 -0.1207  0.3852 -0.1366
  368MPD2    C3 5559   2.549   1.640  13.256 -0.1020 -0.7742  0.5417
  368MPD2    C4 5560   2.478   1.522  13.252  0.0551 -0.4249  0.2939
  368MPD2    C5 5561   2.345   1.521  13.283  0.0912 -0.4474  0.0430
  368MPD2     H 5562   2.534   1.847  13.285 -0.8898  0.8044 -2.3776
  368MPD2    H1 5563   2.538   1.432  13.243 -1.5589 -1.6483  1.7698
  368MPD2    H2 5564   2.169   1.631  13.306 -0.5655 -1.8419 -0.6141
  368MPD2    H3 5565   2.296   1.427  13.263  0.2184 -0.2619 -1.1297
  368MPD2     N 5566   2.694   1.639  13.236  0.2428 -0.1191 -0.2388
  368MPD2    H5 5567   2.724   1.548  13.202  1.5750  0.0279  0.5579
  368MPD2    N1 5568   2.269   1.874  13.290  0.1103 -0.9017  0.4355
  368MPD2    H7 5569   2.168   1.863  13.282  0.3685 -1.8696 -1.5483
  369TMC3    C1 5570   2.221   2.090  13.213  0.1281 -0.9210 -0.5204
  369TMC3    C2 5571   2.265   2.215  13.178 -0.3814 -0.2735  0.0604
  369TMC3    C3 5572   2.185   2.298  13.104  0.4650 -0.2835  0.0022
  369TMC3    C4 5573   2.099   2.044  13.163 -0.0609  0.1996  0.3551
  369TMC3    C5 5574   2.015   2.135  13.107 -0.1096 -0.0725  0.1264
  369TMC3    C6 5575   2.059   2.259  13.075 -0.4202 -0.7869 -0.3107
  369TMC3     C 5576   2.322   1.997  13.255  0.2276  0.2438 -0.3044
  369TMC3     O 5577   2.435   2.037  13.228 -0.0707 -0.5578  0.5444
  369TMC3     H 5578   2.363   2.246  13.213 -0.8830  2.3285 -0.8662
  369TMC3    H1 5579   2.063   1.942  13.172  0.0242  0.1318 -0.0603
  369TMC3    H2 5580   1.991   2.320  13.018 -0.3041 -1.3292 -1.0365
  369TMC3    C7 5581   1.875   2.106  13.114  0.1914  0.6822 -0.3965
  369TMC3    C8 5582   2.247   2.341  12.982  0.4253  0.3412 -0.1360
  369TMC3    O1 5583   1.847   1.990  13.127  0.2066  0.2941  0.4304
  369TMC3    O2 5584   2.196   2.422  12.909  0.2330  0.0752 -0.1069
  370TMC3    C1 5585   2.740   2.763  16.282  0.6233  0.4727 -0.3774
  370TMC3    C2 5586   2.650   2.718  16.382  0.2920 -0.0709 -0.0974
  370TMC3    C3 5587   2.592   2.596  16.360 -0.3243 -0.3552  0.1143
  370TMC3    C4 5588   2.773   2.684  16.173  0.0058 -0.2360 -0.0420
  370TMC3    C5 5589   2.704   2.567  16.158  0.3674 -0.5683  0.3970
  370TMC3    C6 5590   2.614   2.520  16.250 -0.1148  0.0122 -0.0787
  370TMC3     C 5591   2.829   2.865  16.341 -0.9164  0.0894  0.3168
  370TMC3     O 5592   2.823   2.879  16.462  0.3907  0.0412 -0.1134
  370TMC3     H 5593   2.629   2.781  16.467 -1.8077 -0.1521 -0.5509
  370TMC3    H1 5594   2.856   2.715  16.110 -1.4454  0.0816 -1.8175
  370TMC3    H2 5595   2.560   2.426  16.243  1.6844 -1.1573  1.7173
  370TMC3    C7 5596   2.715   2.504  16.023 -0.1523  0.0321  0.4350
  370TMC3    C8 5597   2.544   2.532  16.483 -0.7142  0.0348  0.6396
  370TMC3    O1 5598   2.756   2.576  15.931  0.1153  0.1534 -0.4085
  370TMC3    O2 5599   2.439   2.469  16.480 -0.3863 -0.4387 -0.3633
  371TMC3    C1 5600   3.832   1.070  15.482 -0.4947 -0.3466 -0.1606
  371TMC3    C2 5601   3.801   1.058  15.615  0.3668 -0.2204 -0.8190
  371TMC3    C3 5602   3.742   1.168  15.668  0.1926 -0.5671 -0.3823
  371TMC3    C4 5603   3.803   1.178  15.402 -0.4514  0.7236 -0.0793
  371TMC3    C5 5604   3.741   1.284  15.461 -0.3373  1.0380 -0.8725
  371TMC3    C6 5605   3.711   1.282  15.592 -0.7775 -0.4599  0.5035
  371TMC3     C 5606   3.894   0.962  15.409  0.5944  0.0975  0.5791
  371TMC3     O 5607   3.952   0.988  15.307 -0.2211  0.2969 -0.2352
  371TMC3     H 5608   3.839   0.985  15.686  0.4954  0.9934  0.3435
  371TMC3    H1 5609   3.799   1.168  15.294  1.5328 -2.6800  0.1852
  371TMC3    H2 5610   3.698   1.382  15.633  0.3700  0.2892 -0.9763
  371TMC3    C7 5611   3.720   1.409  15.393 -0.0499  1.2958  0.3276
  371TMC3    C8 5612   3.713   1.162  15.808  0.1235 -0.0582 -0.5640
  371TMC3    O1 5613   3.624   1.484  15.425 -0.2295  0.6483 -0.1492
  371TMC3    O2 5614   3.774   1.077  15.876 -0.3829 -0.1465 -0.0202
  372MPD2     C 5615   2.942   1.711  13.558 -0.2047  0.6525  0.6991
  372MPD2    C1 5616   3.025   1.604  13.558 -0.2484 -0.5092  0.0763
  372MPD2    C2 5617   2.977   1.478  13.586 -0.6184 -0.0344  0.0140
  372MPD2    C3 5618   2.848   1.464  13.634  0.0845  0.0962  0.6232
  372MPD2    C4 5619   2.762   1.569  13.638  0.0293  0.1635  0.3502
  372MPD2    C5 5620   2.810   1.691  13.598 -0.5266  0.2315 -0.3214
  372MPD2     H 5621   3.040   1.390  13.575 -0.4584  0.1386 -0.4846
  372MPD2    H1 5622   2.663   1.551  13.680 -0.6875  0.5366 -1.1888
  372MPD2    H2 5623   2.994   1.804  13.538 -2.7822  1.8221 -0.5205
  372MPD2    H3 5624   2.749   1.781  13.601  1.3807  1.4738  0.7833
  372MPD2     N 5625   2.809   1.335  13.681  0.0940  0.4677  0.1105
  372MPD2    H5 5626   2.877   1.261  13.665 -1.1221 -0.4775 -0.6377
  372MPD2    N1 5627   3.164   1.608  13.521  0.6863  0.1282 -0.0306
  372MPD2    H7 5628   3.223   1.529  13.547  0.4815  0.5531  1.7104
  373TMC3    C1 5629   2.689   1.168  13.792  0.0847  0.6372 -0.1949
  373TMC3    C2 5630   2.635   1.145  13.918 -0.8396  0.2968  0.7671
  373TMC3    C3 5631   2.656   1.021  13.962  0.9020 -0.3560  0.3209
  373TMC3    C4 5632   2.753   1.076  13.713  0.7728  0.7265 -0.4544
  373TMC3    C5 5633   2.753   0.953  13.759  0.7324  0.1147 -0.3408
  373TMC3    C6 5634   2.711   0.917  13.888 -0.1126 -0.4224 -0.3845
  373TMC3     C 5635   2.700   1.311  13.764  0.0372 -0.3928 -0.1452
  373TMC3     O 5636   2.636   1.399  13.825 -0.0646 -0.3306 -0.1062
  373TMC3     H 5637   2.604   1.223  13.987 -1.7849  0.7160 -0.1192
  373TMC3    H1 5638   2.795   1.104  13.617  1.1917  1.2925 -0.1077
  373TMC3    H2 5639   2.709   0.819  13.934 -1.3605  0.9553  2.5328
  373TMC3    C7 5640   2.851   0.869  13.687  0.1246 -0.0130  0.8694
  373TMC3    C8 5641   2.741   1.017  14.083 -0.0699 -0.1070  0.5582
  373TMC3    O1 5642   2.929   0.929  13.610  0.4971  0.6033 -0.3072
  373TMC3    O2 5643   2.835   0.939  14.080 -0.5197  0.0809 -0.6601
  374TMC3    C1 5644   3.298   2.744   9.591 -0.5491  0.4695  0.3591
  374TMC3    C2 5645   3.398   2.781   9.667 -0.2850 -0.0588 -0.4167
  374TMC3    C3 5646   3.489   2.869   9.619  0.6511  0.0588  0.1612
  374TMC3    C4 5647   3.263   2.808   9.477 -0.0236 -0.1923 -0.7788
  374TMC3    C5 5648   3.350   2.907   9.438  0.1414  0.4078 -0.7029
  374TMC3    C6 5649   3.476   2.922   9.493 -0.2483 -0.2830 -0.9772
  374TMC3     C 5650   3.189   2.668   9.631  0.0827  0.0039 -0.5429
  374TMC3     O 5651   3.116   2.607   9.553  0.1325 -0.1537 -0.3291
  374TMC3     H 5652   3.414   2.719   9.755  0.9574  0.8272 -0.0167
  374TMC3    H1 5653   3.175   2.775   9.423 -1.6234  1.0220  1.0781
  374TMC3    H2 5654   3.545   2.992   9.448  2.0710 -2.2619 -0.4670
  374TMC3    C7 5655   3.315   2.993   9.325  0.1082 -0.7846 -0.1162
  374TMC3    C8 5656   3.619   2.894   9.686 -0.4263 -0.7032 -0.8157
  374TMC3    O1 5657   3.401   3.058   9.266  0.1447  0.2653  0.0337
  374TMC3    O2 5658   3.690   2.976   9.630 -0.2143 -0.4791 -0.7847
  375MPD2     C 5659   4.181   3.770  16.598 -0.2795  0.0368 -0.1644
  375MPD2    C1 5660   4.124   3.657  16.654  1.2104 -1.1755 -0.6227
  375MPD2    C2 5661   4.205   3.546  16.679  0.5782  0.1672  0.4034
  375MPD2    C3 5662   4.337   3.545  16.638  0.5202  1.0222  0.1688
  375MPD2    C4 5663   4.401   3.660  16.595  0.2230  0.5282  0.0598
  375MPD2    C5 5664   4.321   3.773  16.579 -0.2436 -0.2459 -1.2001
  375MPD2     H 5665   4.163   3.460  16.729 -1.7729  0.4200 -1.1736
  375MPD2    H1 5666   4.507   3.659  16.572  0.2981 -0.6959  0.4791
  375MPD2    H2 5667   4.124   3.857  16.565  0.5929  0.6375 -0.0809
  375MPD2    H3 5668   4.367   3.867  16.552 -0.2761  0.2742  0.5638
  375MPD2     N 5669   4.419   3.428  16.644 -0.0160 -0.0065  0.0807
  375MPD2    H5 5670   4.515   3.433  16.612 -0.4532 -1.0496 -1.3668
  375MPD2    N1 5671   3.986   3.642  16.677  0.2403 -0.6488 -0.4490
  375MPD2    H7 5672   3.952   3.558  16.721 -1.9683 -0.1284 -1.1585
  376TMC3    C1 5673   4.469   3.190  16.658 -0.1033  0.0103  0.2975
  376TMC3    C2 5674   4.576   3.210  16.738  0.1754 -0.1346  0.2249
  376TMC3    C3 5675   4.667   3.109  16.749  0.4837 -0.5122 -0.0498
  376TMC3    C4 5676   4.458   3.082  16.574 -0.4500  0.0447 -0.5351
  376TMC3    C5 5677   4.551   2.987  16.581 -0.7729  0.7146 -0.3226
  376TMC3    C6 5678   4.650   2.996  16.676 -0.1586 -0.4535  0.4190
  376TMC3     C 5679   4.370   3.298  16.646 -0.4714 -0.1621  0.0466
  376TMC3     O 5680   4.254   3.272  16.644 -0.3058 -0.0213 -0.2350
  376TMC3     H 5681   4.580   3.304  16.793 -1.6688  0.1228 -0.0674
  376TMC3    H1 5682   4.374   3.068  16.506  1.0509 -0.7875 -2.2168
  376TMC3    H2 5683   4.723   2.916  16.677  2.4600  1.9286 -1.0865
  376TMC3    C7 5684   4.553   2.889  16.486 -0.1289  0.1594 -0.3613
  376TMC3    C8 5685   0.065   3.147  16.784 -0.6022  0.2304  0.0652
  376TMC3    O1 5686   4.606   2.782  16.519 -0.6261 -0.1744 -0.2066
  376TMC3    O2 5687   0.091   3.267  16.793  0.9990  0.0286  0.2700
  377MPD2     C 5688   1.430   2.645  12.845  0.3997  0.3522  0.1558
  377MPD2    C1 5689   1.516   2.548  12.883 -0.1411 -1.3219  0.1226
  377MPD2    C2 5690   1.469   2.447  12.968 -0.2708 -0.7431  1.0587
  377MPD2    C3 5691   1.329   2.442  12.997  0.4420  0.1369  0.2926
  377MPD2    C4 5692   1.244   2.535  12.947 -0.0473  0.1577 -0.1866
  377MPD2    C5 5693   1.299   2.636  12.872  0.3588  0.2510 -0.7666
  377MPD2     H 5694   1.539   2.380  13.016  1.4178  1.0580  1.0670
  377MPD2    H1 5695   1.138   2.525  12.966  0.0097 -2.5125 -1.2707
  377MPD2    H2 5696   1.469   2.726  12.784 -1.0476  0.5419 -0.5178
  377MPD2    H3 5697   1.231   2.718  12.851  0.9533  1.1623  0.8332
  377MPD2     N 5698   1.282   2.331  13.064  0.6927  0.2940 -0.9150
  377MPD2    H5 5699   1.183   2.325  13.084  0.7647  0.8227 -0.4020
  377MPD2    N1 5700   1.653   2.569  12.855 -0.1754  0.4717  0.1644
  377MPD2    H7 5701   1.675   2.653  12.802  0.7362  0.0296 -0.1565
  378TMC3    C1 5702   1.924   2.711  12.693  0.3285  0.0857  0.0217
  378TMC3    C2 5703   1.884   2.663  12.811 -0.2813  0.7470  0.1137
  378TMC3    C3 5704   1.874   2.532  12.826 -0.5964  0.1432  0.1641
  378TMC3    C4 5705   1.985   2.627  12.601 -0.4927  0.0479 -0.0002
  378TMC3    C5 5706   1.985   2.492  12.624 -0.0707 -0.6201 -0.1636
  378TMC3    C6 5707   1.924   2.444  12.736 -0.4064 -0.6539 -0.8878
  378TMC3     C 5708   1.824   2.793  12.632  0.2212 -0.4693  0.0775
  378TMC3     O 5709   1.723   2.812  12.699  0.6229 -0.3374  0.0659
  378TMC3     H 5710   1.836   2.731  12.881  0.3729 -0.9505  2.1877
  378TMC3    H1 5711   2.033   2.661  12.510  0.6199 -1.1583  0.1333
  378TMC3    H2 5712   1.906   2.339  12.751 -0.8739 -0.5756 -0.8895
  378TMC3    C7 5713   2.084   2.399  12.573  0.3282  0.5138 -0.5887
  378TMC3    C8 5714   1.760   2.491  12.892 -1.0342  0.1365  0.4083
  378TMC3    O1 5715   2.107   2.301  12.643 -0.8498 -0.5109 -0.2931
  378TMC3    O2 5716   1.763   2.381  12.943  0.8599 -0.0641  0.5664
  379MPD2     C 5717   2.806   1.104  16.413  0.2308 -0.3606  0.1008
  379MPD2    C1 5718   2.798   0.973  16.372  0.5746  0.6497 -0.0885
  379MPD2    C2 5719   2.851   0.876  16.455  1.0294  0.4067  0.6514
  379MPD2    C3 5720   2.915   0.909  16.579 -0.0935  0.5905 -0.1747
  379MPD2    C4 5721   2.941   1.038  16.606 -0.2186 -0.0098 -0.3046
  379MPD2    C5 5722   2.881   1.133  16.522  0.7860  0.4978 -0.0775
  379MPD2     H 5723   2.839   0.770  16.437  2.9894  0.1414  0.8521
  379MPD2    H1 5724   2.990   1.073  16.696  0.7138  1.8848 -1.5703
  379MPD2    H2 5725   2.773   1.176  16.339 -0.1913 -1.0104 -0.3470
  379MPD2    H3 5726   2.896   1.238  16.545 -0.0196  0.3816  0.9455
  379MPD2     N 5727   2.963   0.825  16.680  0.2683  0.4154 -0.7575
  379MPD2    H5 5728   3.014   0.864  16.758 -0.4490  1.1130 -0.6335
  379MPD2    N1 5729   2.733   0.951  16.250  0.3736  0.3208  0.9238
  379MPD2    H7 5730   2.711   1.035  16.196  0.3209 -0.7206 -0.6661
  380TMC3    C1 5731   2.720   0.817  16.059 -0.3213  0.0576  1.4802
  380TMC3    C2 5732   2.792   0.714  16.006  0.6467 -0.3106  0.1687
  380TMC3    C3 5733   2.766   0.674  15.877  0.5056 -0.5178  0.3272
  380TMC3    C4 5734   2.641   0.891  15.979  0.1487  0.1495 -0.6000
  380TMC3    C5 5735   2.644   0.869  15.841  0.8784 -0.2870  0.9452
  380TMC3    C6 5736   2.693   0.748  15.797 -0.0505 -0.5794  0.8896
  380TMC3     C 5737   2.715   0.825  16.200  0.3098  0.7380  0.1306
  380TMC3     O 5738   2.705   0.715  16.258  0.6266  0.1292  0.5828
  380TMC3     H 5739   2.850   0.654  16.075  0.4062 -0.1410  0.5162
  380TMC3    H1 5740   2.582   0.977  16.010  0.0071  0.6596 -2.2741
  380TMC3    H2 5741   2.684   0.712  15.695  1.5003  0.1444  0.4860
  380TMC3    C7 5742   2.528   0.918  15.763  0.1567 -0.5257  0.0202
  380TMC3    C8 5743   2.878   0.615  15.803 -0.1075 -0.0941  0.4738
  380TMC3    O1 5744   2.520   1.041  15.756  0.5599 -0.4172  0.1703
  380TMC3    O2 5745   2.875   0.624  15.681 -0.1627 -0.4779 -0.3047
  381TMC3    C1 5746   2.199   2.047  16.221 -0.4172 -0.5396  0.3098
  381TMC3    C2 5747   2.328   2.076  16.236 -0.1844 -0.3955  0.1347
  381TMC3    C3 5748   2.374   2.144  16.345 -0.2336  0.4688 -0.3067
  381TMC3    C4 5749   2.106   2.092  16.317 -0.3724 -0.9644 -0.1220
  381TMC3    C5 5750   2.153   2.164  16.422 -0.1402  0.2298  0.7167
  381TMC3    C6 5751   2.290   2.192  16.443 -0.0473  0.2420  0.7425
  381TMC3     C 5752   2.158   1.956  16.116 -0.8181  0.3108 -0.0933
  381TMC3     O 5753   2.251   1.896  16.056 -0.1870  1.1075  0.2338
  381TMC3     H 5754   2.393   2.025  16.166  1.0492  1.3098  0.0342
  381TMC3    H1 5755   2.000   2.071  16.313 -0.7741  1.0386  0.3020
  381TMC3    H2 5756   2.325   2.254  16.525 -1.3665  0.3226  1.2502
  381TMC3    C7 5757   2.076   2.138  16.544 -0.7081  0.0496  0.1258
  381TMC3    C8 5758   2.512   2.178  16.356 -0.3543 -0.5752  0.2450
  381TMC3    O1 5759   1.992   2.048  16.532  0.3658  0.1513 -0.0667
  381TMC3    O2 5760   2.574   2.193  16.247  0.2186  0.1007 -0.2880
  382MPD2     C 5761   2.390   4.027  17.124 -0.0742  0.1374 -0.0423
  382MPD2    C1 5762   2.283   4.043  17.211  0.8544 -0.5633 -0.4834
  382MPD2    C2 5763   2.206   3.931  17.236 -0.4310  0.1694 -0.1639
  382MPD2    C3 5764   2.237   3.798  17.182  0.0097 -0.2900  0.4611
  382MPD2    C4 5765   2.352   3.790  17.101 -0.4219 -0.5714 -0.1896
  382MPD2    C5 5766   2.423   3.904  17.075  0.5323 -0.8492  0.0875
  382MPD2     H 5767   2.118   3.942  17.297  1.5658 -0.2693  2.7709
  382MPD2    H1 5768   2.378   3.696  17.053 -0.5989 -0.6375 -0.1597
  382MPD2    H2 5769   2.460   4.110  17.114  0.6383 -0.3333  1.0521
  382MPD2    H3 5770   2.509   3.894  17.010 -0.8416  2.2539 -2.1859
  382MPD2     N 5771   2.152   3.689  17.210 -0.6808  0.6289 -0.1764
  382MPD2    H5 5772   2.178   3.602  17.165 -0.9081  2.3559 -3.6306
  382MPD2    N1 5773   2.235   4.160  17.269 -0.1762  0.2060 -0.1979
  382MPD2    H7 5774   2.156   4.154  17.332  0.2552 -1.1874  0.2312
  383TMC3    C1 5775   1.951   3.568  17.262  0.0615 -1.1915 -0.9940
  383TMC3    C2 5776   1.817   3.571  17.241 -0.0887  0.1929  0.1604
  383TMC3    C3 5777   1.755   3.446  17.264 -0.0044 -0.0294  0.2755
  383TMC3    C4 5778   2.027   3.460  17.296  0.4033  0.7604  0.3201
  383TMC3    C5 5779   1.956   3.348  17.321 -0.8416 -0.5246 -0.1132
  383TMC3    C6 5780   1.820   3.331  17.297 -0.8022 -0.0955  0.0264
  383TMC3     C 5781   2.020   3.698  17.262  0.1011 -0.2549 -0.3710
  383TMC3     O 5782   1.948   3.794  17.286 -0.3814 -0.1108 -0.2906
  383TMC3     H 5783   1.768   3.665  17.219  0.8028  0.1579 -1.9954
  383TMC3    H1 5784   2.126   3.473  17.339 -0.4367  1.4868  2.0771
  383TMC3    H2 5785   1.759   3.248  17.330 -1.4517  0.0799 -0.7156
  383TMC3    C7 5786   2.012   3.272  17.434 -0.2296  0.3666  0.1601
  383TMC3    C8 5787   1.617   3.441  17.220 -0.6487 -0.0689 -0.0500
  383TMC3    O1 5788   2.100   3.319  17.509 -0.0631 -0.2613 -0.0570
  383TMC3    O2 5789   1.576   3.550  17.183  0.2292 -0.5988  0.3868
  384MPD2     C 5790   2.945   0.862  12.202  1.1451 -0.0943  0.0426
  384MPD2    C1 5791   3.003   0.790  12.312 -0.2707 -0.7518 -0.6472
  384MPD2    C2 5792   3.135   0.745  12.303 -0.4884  0.4425  0.3826
  384MPD2    C3 5793   3.213   0.765  12.189  0.3655 -0.4690  0.9464
  384MPD2    C4 5794   3.159   0.832  12.086  0.8516  0.8887  0.1522
  384MPD2    C5 5795   3.025   0.879  12.086  0.0791 -0.6082 -0.4535
  384MPD2     H 5796   3.182   0.704  12.391 -1.8728  0.8724  1.3184
  384MPD2    H1 5797   3.213   0.857  11.995 -0.3232  1.5326 -0.3722
  384MPD2    H2 5798   2.841   0.892  12.205  1.9401  2.8232 -1.5998
  384MPD2    H3 5799   2.994   0.919  11.990  0.6457  0.9989  0.0301
  384MPD2     N 5800   3.331   0.693  12.178 -0.7393 -0.2983  0.1520
  384MPD2    H5 5801   3.358   0.638  12.259 -1.1058 -0.3583  0.2347
  384MPD2    N1 5802   2.933   0.748  12.432 -0.3800 -0.3877  0.4896
  384MPD2    H7 5803   2.976   0.689  12.502 -1.3114 -1.1000  0.4705
  385TMC3    C1 5804   3.492   0.576  12.079  0.1745  0.0597  0.2853
  385TMC3    C2 5805   3.478   0.493  11.975  0.4362  0.3937  0.6420
  385TMC3    C3 5806   3.458   0.362  11.999 -0.6609  0.4796 -0.5276
  385TMC3    C4 5807   3.501   0.531  12.208  0.2661  0.5673 -0.6211
  385TMC3    C5 5808   3.489   0.393  12.226 -0.0220  0.3590 -0.5085
  385TMC3    C6 5809   3.469   0.311  12.117  0.4809 -0.0134 -0.6749
  385TMC3     C 5810   3.411   0.696  12.063  0.6018  0.5395  0.6083
  385TMC3     O 5811   3.395   0.742  11.953 -0.3248 -0.2774  0.1539
  385TMC3     H 5812   3.450   0.529  11.877 -0.9334 -1.3921  0.3645
  385TMC3    H1 5813   3.528   0.602  12.285  0.2022  2.2843 -2.1893
  385TMC3    H2 5814   3.464   0.203  12.125 -0.7115  0.0139 -1.0095
  385TMC3    C7 5815   3.393   0.377  12.330  0.3038  0.1603  0.3725
  385TMC3    C8 5816   3.482   0.276  11.881  0.0326  0.1718  0.0525
  385TMC3    O1 5817   3.344   0.486  12.361  0.4486 -0.5427  0.1786
  385TMC3    O2 5818   3.560   0.321  11.802 -0.1826  0.2379 -0.0958
  386TMC3    C1 5819   3.306   2.356  11.590  0.0512  0.5216  1.0060
  386TMC3    C2 5820   3.278   2.402  11.468 -0.5062 -0.4297  0.3902
  386TMC3    C3 5821   3.180   2.498  11.459 -0.2560 -0.1150 -0.1489
  386TMC3    C4 5822   3.247   2.407  11.701  0.2641  0.0426  0.0151
  386TMC3    C5 5823   3.160   2.515  11.682  1.3664 -0.1814 -0.0662
  386TMC3    C6 5824   3.128   2.565  11.566 -0.7603  0.2204  0.1976
  386TMC3     C 5825   3.383   2.234  11.595 -0.0873  0.8361 -0.3730
  386TMC3     O 5826   3.424   2.193  11.483  0.6170  0.4648  0.6777
  386TMC3     H 5827   3.320   2.359  11.377  1.0879  0.2798  0.7946
  386TMC3    H1 5828   3.257   2.360  11.797  1.7274 -1.5123 -0.9148
  386TMC3    H2 5829   3.048   2.638  11.563 -0.0122  0.9773 -1.2732
  386TMC3    C7 5830   3.085   2.569  11.802  0.1895  0.0547  0.1454
  386TMC3    C8 5831   3.117   2.536  11.332  0.6755  0.1842  0.5189
  386TMC3    O1 5832   2.973   2.620  11.789 -0.4065 -0.7544  0.1443
  386TMC3    O2 5833   3.002   2.583  11.341  0.0881  0.1349  0.6416
  387MPD2     C 5834   0.776   3.008  10.235  0.0677 -0.3598  0.1536
  387MPD2    C1 5835   0.882   2.945  10.294  0.2664 -0.0719  0.2954
  387MPD2    C2 5836   0.970   2.874  10.219 -0.3739 -1.2298  0.6667
  387MPD2    C3 5837   0.971   2.876  10.084  0.0876 -0.4403  0.3210
  387MPD2    C4 5838   0.862   2.935  10.015  0.1626 -0.3718  0.1691
  387MPD2    C5 5839   0.773   3.001  10.095  0.7464  0.6360  0.1898
  387MPD2     H 5840   1.057   2.837  10.273  0.0990  1.7465  1.9611
  387MPD2    H1 5841   0.849   2.942   9.908 -0.5983  1.1521  0.3598
  387MPD2    H2 5842   0.713   3.084  10.280  1.4294  1.3568 -0.8795
  387MPD2    H3 5843   0.687   3.046  10.046 -0.1069 -0.7055  0.4157
  387MPD2     N 5844   1.082   2.803  10.028  0.5225 -1.1363  0.2004
  387MPD2    H5 5845   1.151   2.774  10.097  0.3492 -3.4792 -0.6062
  387MPD2    N1 5846   0.899   2.956  10.435  0.0732  0.1357 -0.1468
  387MPD2    H7 5847   0.986   2.913  10.463 -0.2195  0.9126  1.9519
  388TMC3    C1 5848   0.876   2.997  10.664 -0.4085 -0.2836 -0.9837
  388TMC3    C2 5849   0.851   3.087  10.764  0.6287 -0.3864 -0.0778
  388TMC3    C3 5850   0.933   3.096  10.875 -0.3691  0.6567  0.2266
  388TMC3    C4 5851   0.977   2.903  10.681  0.2859  0.4616  0.4021
  388TMC3    C5 5852   1.058   2.914  10.792 -0.0184 -0.4484 -0.8188
  388TMC3    C6 5853   1.037   3.003  10.892 -0.5601 -0.2750 -0.3314
  388TMC3     C 5854   0.824   3.025  10.528  0.5519 -0.0084  0.3540
  388TMC3     O 5855   0.719   3.090  10.525 -0.3384  0.0223 -0.1993
  388TMC3     H 5856   0.772   3.159  10.747 -1.2849 -2.0839  1.5576
  388TMC3    H1 5857   0.974   2.819  10.613  0.7815 -0.5185  1.6002
  388TMC3    H2 5858   1.109   3.023  10.971  3.3071 -1.2583 -3.5787
  388TMC3    C7 5859   1.187   2.850  10.781  0.1613 -0.3875  0.0750
  388TMC3    C8 5860   0.894   3.177  10.992 -0.8398  0.3641 -0.5065
  388TMC3    O1 5861   1.262   2.830  10.875 -0.0602  0.0171  0.1954
  388TMC3    O2 5862   0.968   3.159  11.090 -0.0034  0.0569  0.0139
  389MPD2     C 5863   0.276   1.222  11.202 -0.4443  0.0278 -0.7427
  389MPD2    C1 5864   0.191   1.149  11.123  0.3102  0.1258  0.2707
  389MPD2    C2 5865   0.101   1.061  11.180  0.7351 -0.4513  0.1752
  389MPD2    C3 5866   0.101   1.030  11.311 -0.2336 -0.4797 -0.0264
  389MPD2    C4 5867   0.196   1.094  11.387  0.2023  0.2317  0.4216
  389MPD2    C5 5868   0.278   1.193  11.331 -0.2861  0.4902 -0.0268
  389MPD2     H 5869   0.025   1.012  11.120  0.8129 -0.6752  0.2597
  389MPD2    H1 5870   0.206   1.063  11.491 -1.1892 -2.9074 -0.3962
  389MPD2    H2 5871   0.343   1.300  11.168  0.2956  0.3736  1.4917
  389MPD2    H3 5872   0.355   1.243  11.387  0.2706  0.2628 -0.5945
  389MPD2     N 5873   0.023   0.933  11.368  0.4973  0.0627  0.2906
  389MPD2    H5 5874   0.031   0.931  11.469  1.2532 -2.4522  0.1706
  389MPD2    N1 5875   0.183   1.199  10.991  0.5180 -0.1706  0.1706
  389MPD2    H7 5876   0.247   1.273  10.968  0.8733 -0.2649  0.8537
  390TMC3    C1 5877   4.621   0.755  11.405  0.4496 -0.2308  0.5962
  390TMC3    C2 5878   4.538   0.655  11.351 -0.7289  0.5250 -0.0835
  390TMC3    C3 5879   4.477   0.579  11.450 -0.0169  0.3504  0.7948
  390TMC3    C4 5880   4.633   0.779  11.534  0.5434 -0.3392  1.0665
  390TMC3    C5 5881   4.573   0.696  11.625  0.0772  0.2511  0.0726
  390TMC3    C6 5882   4.494   0.595  11.584 -0.0154  0.0420  0.0032
  390TMC3     C 5883   4.694   0.834  11.306  0.3472  0.6238 -0.2052
  390TMC3     O 5884   4.691   0.807  11.185 -0.4047  0.4749 -0.7344
  390TMC3     H 5885   4.535   0.642  11.244  0.9345 -0.1250 -0.0485
  390TMC3    H1 5886   4.696   0.854  11.580 -2.0556  1.7338  1.2310
  390TMC3    H2 5887   4.445   0.531  11.656  1.0732 -0.1162  0.6055
  390TMC3    C7 5888   4.608   0.703  11.769  0.1411 -0.0124  0.9816
  390TMC3    C8 5889   4.374   0.487  11.411  0.1617 -0.3388 -0.6761
  390TMC3    O1 5890   4.710   0.759  11.804  0.1592  0.1757  0.7293
  390TMC3    O2 5891   4.386   0.429  11.304  0.0507 -0.1713  0.2827
  391MPD2     C 5892   3.472   2.155  11.109  0.6762  0.0239  0.4962
  391MPD2    C1 5893   3.543   2.272  11.140  0.2096  0.8970  0.2032
  391MPD2    C2 5894   3.568   2.362  11.039 -0.2446 -0.4197 -0.4202
  391MPD2    C3 5895   3.554   2.321  10.906 -0.0994  0.5137 -0.4551
  391MPD2    C4 5896   3.492   2.206  10.873  1.1029 -0.3022  0.4483
  391MPD2    C5 5897   3.440   2.131  10.978  0.5663 -0.0596 -0.0298
  391MPD2     H 5898   3.609   2.461  11.057 -0.8183 -0.0014 -1.4542
  391MPD2    H1 5899   3.489   2.175  10.770  0.3751  1.3960 -0.0467
  391MPD2    H2 5900   3.456   2.072  11.177 -1.2299 -1.2942 -1.5580
  391MPD2    H3 5901   3.394   2.035  10.962  0.0609 -0.0709  1.4784
  391MPD2     N 5902   3.621   2.401  10.806 -0.4981  0.5356 -0.2718
  391MPD2    H5 5903   3.664   2.482  10.849  2.0125 -1.2302  0.5371
  391MPD2    N1 5904   3.570   2.297  11.279  0.3395  0.0118 -0.0549
  391MPD2    H7 5905   3.556   2.223  11.347 -0.1041 -0.4429 -0.6373
  392TMC3    C1 5906   3.712   2.484  10.607  0.4363 -0.0718  0.4789
  392TMC3    C2 5907   3.702   2.469  10.468 -0.0662 -0.7063 -0.5898
  392TMC3    C3 5908   3.738   2.584  10.396 -0.1098  0.3217 -0.1517
  392TMC3    C4 5909   3.765   2.594  10.672  0.1514 -0.1549  0.2386
  392TMC3    C5 5910   3.804   2.700  10.594  0.4496 -0.1381 -0.4551
  392TMC3    C6 5911   3.792   2.693  10.451  0.2237  0.1127 -0.1648
  392TMC3     C 5912   3.656   2.369  10.673  0.1564  0.0494 -0.2944
  392TMC3     O 5913   3.626   2.270  10.606  0.8191 -0.0031  0.0281
  392TMC3     H 5914   3.676   2.381  10.411 -1.1209 -0.5421 -0.3605
  392TMC3    H1 5915   3.788   2.592  10.777  0.7662  1.9847  0.1499
  392TMC3    H2 5916   3.824   2.782  10.397  0.9850 -0.5573 -0.8216
  392TMC3    C7 5917   3.913   2.779  10.654  0.0240  0.0030 -0.7456
  392TMC3    C8 5918   3.730   2.577  10.246 -0.8808 -0.7055  0.4432
  392TMC3    O1 5919   3.975   2.730  10.751 -0.3397  0.1887 -0.5830
  392TMC3    O2 5920   3.631   2.522  10.197 -0.1356 -0.1314 -0.0526
  393TMC3    C1 5921   2.875   0.982  10.886  0.5429  0.2695 -0.4890
  393TMC3    C2 5922   2.857   0.872  10.967  0.4599  0.0433 -0.0186
  393TMC3    C3 5923   2.831   0.894  11.104  0.3418 -0.2090  0.1148
  393TMC3    C4 5924   2.861   1.110  10.937 -0.6874 -0.3459  1.1173
  393TMC3    C5 5925   2.827   1.125  11.063  0.0987  0.4491  0.0372
  393TMC3    C6 5926   2.811   1.017  11.152 -0.7195 -0.5857  0.8695
  393TMC3     C 5927   2.932   0.978  10.755  0.7138 -0.4799  0.0087
  393TMC3     O 5928   2.889   0.901  10.672  0.5355  0.1642  0.0196
  393TMC3     H 5929   2.884   0.774  10.930 -1.4471 -0.7546  0.6748
  393TMC3    H1 5930   2.873   1.203  10.882  1.0697 -1.2513 -0.0271
  393TMC3    H2 5931   2.778   1.046  11.252  0.9887 -0.2174  1.3264
  393TMC3    C7 5932   2.830   1.258  11.128 -0.7414  0.0142 -0.2187
  393TMC3    C8 5933   2.878   0.791  11.197 -0.1633 -0.1307 -0.1144
  393TMC3    O1 5934   2.723   1.297  11.176  0.0590  0.5669  0.7723
  393TMC3    O2 5935   2.851   0.673  11.176  0.5539 -0.4670 -0.4443
  394TMC3    C1 5936   0.105   1.217  10.755 -0.3969 -0.0263  0.0801
  394TMC3    C2 5937   0.012   1.184  10.653  0.7931  0.3184 -0.0436
  394TMC3    C3 5938   0.032   1.238  10.526  0.7116 -0.7138 -0.4058
  394TMC3    C4 5939   0.215   1.290  10.723 -0.2789 -0.7267  0.0139
  394TMC3    C5 5940   0.234   1.340  10.597 -0.2197  0.0636 -0.3257
  394TMC3    C6 5941   0.148   1.312  10.507 -0.3888  0.1873 -0.2270
  394TMC3     C 5942   0.093   1.158  10.889 -0.0787 -0.0809  0.1835
  394TMC3     O 5943   0.004   1.069  10.891 -0.0040  0.3125 -0.3974
  394TMC3     H 5944   4.655   1.140  10.678  0.9864 -0.6390 -1.0068
  394TMC3    H1 5945   0.301   1.292  10.788 -1.1113 -3.8487  1.2353
  394TMC3    H2 5946   0.169   1.340  10.405 -0.8340 -2.3359 -1.0058
  394TMC3    C7 5947   0.371   1.382  10.554  0.1998 -0.1421  1.0231
  394TMC3    C8 5948   4.706   1.180  10.412  0.4767  0.0978  0.4633
  394TMC3    O1 5949   0.373   1.496  10.517 -0.6272 -0.4554 -0.4050
  394TMC3    O2 5950   4.675   1.242  10.309 -0.4713  0.1814  0.1009
  395TMC3    C1 5951   0.290   3.042  15.074  0.4769  0.3664  0.8655
  395TMC3    C2 5952   0.189   3.121  15.097 -0.1576 -0.2851  0.6791
  395TMC3    C3 5953   0.187   3.240  15.031 -0.6095  0.5986  0.3632
  395TMC3    C4 5954   0.389   3.076  14.983 -0.0884  0.4513 -0.2211
  395TMC3    C5 5955   0.391   3.203  14.926 -0.0780  0.2291  0.3297
  395TMC3    C6 5956   0.291   3.288  14.955 -0.5967  0.5780  0.0472
  395TMC3     C 5957   0.299   2.912  15.136 -0.4101  0.8236  0.2212
  395TMC3     O 5958   0.372   2.835  15.074 -0.1795  0.0994  0.3260
  395TMC3     H 5959   0.107   3.097  15.163 -1.6055  0.9007 -0.7029
  395TMC3    H1 5960   0.473   3.008  14.973  1.3712  1.9915  1.5269
  395TMC3    H2 5961   0.297   3.388  14.916 -0.6880  0.5494 -0.0401
  395TMC3    C7 5962   0.517   3.268  14.873  0.0026 -0.2621  0.1788
  395TMC3    C8 5963   0.077   3.330  15.043 -0.6661 -0.1246  0.2428
  395TMC3    O1 5964   0.531   3.387  14.894  0.2157 -0.0580  0.2451
  395TMC3    O2 5965   0.100   3.450  15.018 -0.7460 -0.3018  0.4121
  396MPD2     C 5966   4.725   3.840  16.770  0.0742 -0.7955 -0.2003
  396MPD2    C1 5967   0.065   3.909  16.853 -0.5920  0.6688 -0.2594
  396MPD2    C2 5968   0.100   4.042  16.819 -0.4721  0.5588 -0.6954
  396MPD2    C3 5969   0.045   4.103  16.709  1.0700  0.0328 -0.4453
  396MPD2    C4 5970   4.687   4.034  16.641 -0.0229 -0.0494  0.0229
  396MPD2    C5 5971   4.668   3.906  16.665  0.3771 -0.2576  0.4170
  396MPD2     H 5972   0.161   4.104  16.884 -2.2130 -1.3799  2.8095
  396MPD2    H1 5973   4.625   4.070  16.559 -0.6783  0.3154  0.6722
  396MPD2    H2 5974   4.695   3.738  16.789 -0.6113 -0.1289  2.3358
  396MPD2    H3 5975   4.593   3.857  16.605  0.0419 -2.3482  2.5195
  396MPD2     N 5976   0.089   4.236  16.671 -0.1271 -0.1815  0.5590
  396MPD2    H5 5977   0.150   4.284  16.736  0.7746  1.4656 -1.5278
  396MPD2    N1 5978   0.099   3.843  16.974 -0.2814 -0.6336  0.1747
  396MPD2    H7 5979   0.062   3.749  16.979 -1.6949 -0.1189 -0.8759
  397TMC3    C1 5980   0.163   3.806  17.192 -0.0369 -0.2000  0.4440
  397TMC3    C2 5981   0.283   3.785  17.253  0.2961  0.1762 -0.1201
  397TMC3    C3 5982   0.330   3.658  17.265 -0.1986  0.1763 -0.7848
  397TMC3    C4 5983   0.083   3.696  17.172 -0.0716  0.9060 -0.6493
  397TMC3    C5 5984   0.125   3.576  17.214 -0.1169  0.3017 -0.5021
  397TMC3    C6 5985   0.250   3.547  17.257 -0.0592  0.5763 -0.0039
  397TMC3     C 5986   0.176   3.892  17.076 -0.0625 -0.1099  0.5752
  397TMC3     O 5987   0.253   3.986  17.072  0.2142  0.5417  0.5163
  397TMC3     H 5988   0.360   3.861  17.252 -1.5029  2.0005  0.6744
  397TMC3    H1 5989   4.717   3.709  17.147 -0.3918 -2.6692 -1.0657
  397TMC3    H2 5990   0.284   3.447  17.282  1.6411  1.0608 -0.3931
  397TMC3    C7 5991   0.027   3.507  17.285 -0.5609  0.1854 -0.0360
  397TMC3    C8 5992   0.448   3.637  17.356  0.2069 -0.2687 -0.8846
  397TMC3    O1 5993   4.648   3.500  17.250  0.2867 -0.5576  0.5306
  397TMC3    O2 5994   0.435   3.545  17.435 -0.8747  0.1572  0.0259
  398MPD2     C 5995   3.098   1.008   0.159  0.4222  0.1471 -0.0419
  398MPD2    C1 5996   3.186   0.905   0.154  0.2061 -0.3862  0.2800
  398MPD2    C2 5997   3.315   0.924   0.094  0.0928  0.4100  0.6144
  398MPD2    C3 5998   3.350   1.054   0.049  0.1082  0.7815 -0.6145
  398MPD2    C4 5999   3.264   1.162   0.070  0.3193 -0.1524 -0.8206
  398MPD2    C5 6000   3.135   1.132   0.117 -0.1839 -0.2784 -0.2115
  398MPD2     H 6001   3.372   0.836   0.067  1.8792  1.7120  0.1452
  398MPD2    H1 6002   3.296   1.263   0.047 -1.0627 -0.0096 -2.1585
  398MPD2    H2 6003   2.997   0.989   0.193  0.6049 -0.7839 -0.0050
  398MPD2    H3 6004   3.053   1.202   0.112  0.7114  0.4389 -4.9336
  398MPD2     N 6005   3.475   1.067  17.753  0.2518 -0.7885  0.2357
  398MPD2    H5 6006   3.534   0.986  17.736  0.6310 -0.9446  2.3420
  398MPD2    N1 6007   3.148   0.781   0.221 -0.8961  0.0464  0.2073
  398MPD2    H7 6008   3.059   0.788   0.270 -0.1475 -0.8361  1.6639
  399TMC3    C1 6009   3.137   0.548   0.277  0.6576 -0.0712  0.2914
  399TMC3    C2 6010   3.101   0.572   0.408  0.6324 -1.0424 -0.1264
  399TMC3    C3 6011   3.062   0.471   0.487 -0.3264  0.3427  0.0517
  399TMC3    C4 6012   3.138   0.425   0.217 -0.1931  0.3035  0.5602
  399TMC3    C5 6013   3.097   0.325   0.304  0.0495  0.0060 -0.1664
  399TMC3    C6 6014   3.056   0.344   0.436  0.0566 -0.2404 -0.2701
  399TMC3     C 6015   3.199   0.655   0.202  0.0513 -0.5124  0.0526
  399TMC3     O 6016   3.295   0.620   0.133 -0.6290  0.1664  0.2208
  399TMC3     H 6017   3.113   0.672   0.450 -3.8524 -1.3607  1.9418
  399TMC3    H1 6018   3.173   0.419   0.115  2.5857  0.3508  1.5326
  399TMC3    H2 6019   3.009   0.267   0.495  1.4844 -0.6943  0.2760
  399TMC3    C7 6020   3.139   0.189   0.279 -0.3337 -0.0819 -0.3262
  399TMC3    C8 6021   2.981   0.510   0.600 -0.0891 -0.6247  0.5810
  399TMC3    O1 6022   3.088   0.098   0.348 -0.0977 -0.3097  0.0550
  399TMC3    O2 6023   2.893   0.433   0.636  0.2869 -0.1704  0.1717
  400TMC3    C1 6024   1.866   3.395  16.893 -0.7911 -0.0069 -0.2553
  400TMC3    C2 6025   1.742   3.404  16.848  0.2773 -0.0388  0.2000
  400TMC3    C3 6026   1.686   3.526  16.839  0.4499  0.7269  0.1268
  400TMC3    C4 6027   1.939   3.510  16.924  0.3085 -0.5419  0.0515
  400TMC3    C5 6028   1.875   3.629  16.916 -0.0410 -0.0175  0.1699
  400TMC3    C6 6029   1.750   3.645  16.860  0.8037 -0.1371 -0.1458
  400TMC3     C 6030   1.884   3.273  16.967  0.5979  0.5236 -0.3549
  400TMC3     O 6031   1.780   3.220  17.001  0.3739 -0.0368 -0.5144
  400TMC3     H 6032   1.692   3.310  16.828 -1.0615  0.4289  1.3336
  400TMC3    H1 6033   2.035   3.514  16.975 -0.1357 -0.4764  0.8810
  400TMC3    H2 6034   1.693   3.737  16.860 -2.6259 -2.2544  0.6094
  400TMC3    C7 6035   1.969   3.744  16.916  0.6532  0.2186 -0.2859
  400TMC3    C8 6036   1.548   3.531  16.797 -0.3226  0.6644  0.3604
  400TMC3    O1 6037   2.088   3.723  16.901 -0.0912 -0.0487 -0.3161
  400TMC3    O2 6038   1.480   3.627  16.821  0.3172 -0.3784  0.6608
  401MPD2     C 6039   0.004   2.721   1.257  0.0287 -0.1318 -0.5949
  401MPD2    C1 6040   0.056   2.606   1.201  0.4575  0.4121 -0.1252
  401MPD2    C2 6041   4.720   2.533   1.113 -0.4200 -0.0123 -0.1827
  401MPD2    C3 6042   4.592   2.574   1.087  0.2609 -0.6670 -0.6167
  401MPD2    C4 6043   4.531   2.678   1.151  1.2194 -0.8286  0.3341
  401MPD2    C5 6044   4.613   2.753   1.241 -1.0325 -0.0674  0.0622
  401MPD2     H 6045   0.034   2.452   1.064 -0.5390 -1.0470  1.3793
  401MPD2    H1 6046   4.425   2.701   1.145  1.5734  0.6628 -0.0395
  401MPD2    H2 6047   0.060   2.786   1.323  1.1606 -2.3243  0.6308
  401MPD2    H3 6048   4.569   2.839   1.290  2.5100  1.3963  0.6834
  401MPD2     N 6049   4.520   2.495   1.005 -0.0954 -0.5335 -0.1609
  401MPD2    H5 6050   4.562   2.406   0.981  1.3476  0.2411 -0.4576
  401MPD2    N1 6051   0.186   2.564   1.216 -0.3974 -0.0518 -0.2612
  401MPD2    H7 6052   0.208   2.477   1.167 -3.2114 -0.7901 -0.2496
  402TMC3    C1 6053   4.366   2.414   0.847 -0.0909  0.7596 -0.1946
  402TMC3    C2 6054   4.364   2.303   0.920 -0.2324  0.2927 -0.1395
  402TMC3    C3 6055   4.380   2.178   0.850  0.4307 -0.9515  0.0992
  402TMC3    C4 6056   4.377   2.422   0.714  0.0993 -0.0085 -0.4744
  402TMC3    C5 6057   4.396   2.301   0.651  0.4182 -0.2143  0.4016
  402TMC3    C6 6058   4.400   2.178   0.716 -0.2316 -0.4795 -0.3416
  402TMC3     C 6059   4.421   2.533   0.918 -0.1109 -0.6188  0.4780
  402TMC3     O 6060   4.389   2.645   0.892 -0.0971 -0.9233  0.4946
  402TMC3     H 6061   4.350   2.316   1.027 -1.3292  1.6905 -0.4581
  402TMC3    H1 6062   4.400   2.512   0.659  1.5617  1.3892  2.4147
  402TMC3    H2 6063   4.394   2.081   0.668  1.4196 -1.4390  1.3908
  402TMC3    C7 6064   4.455   2.307   0.513  0.1886 -0.1593 -0.8157
  402TMC3    C8 6065   4.418   2.053   0.923  0.0213 -0.5809  0.3208
  402TMC3    O1 6066   4.430   2.411   0.449 -0.1385 -0.8261  0.2407
  402TMC3    O2 6067   4.490   1.973   0.860 -0.1947  0.4299  0.3831
  403MPD2     C 6068   2.928   4.445  13.051  0.4870  0.5272 -0.1084
  403MPD2    C1 6069   2.868   4.489  13.163 -0.5380 -0.5377 -0.2477
  403MPD2    C2 6070   2.943   4.551  13.258 -0.3853 -0.1544  0.5675
  403MPD2    C3 6071   3.081   4.559  13.243  0.6434 -0.2340  0.7666
  403MPD2    C4 6072   3.142   4.495  13.134 -0.6500  0.3022 -0.0320
  403MPD2    C5 6073   3.064   4.439  13.044  0.5270  0.1419 -0.1054
  403MPD2     H 6074   2.890   4.595  13.340  1.6648  2.8607  0.2728
  403MPD2    H1 6075   3.250   4.496  13.129 -0.6025 -0.8514  0.9305
  403MPD2    H2 6076   2.871   4.418  12.963 -0.6203  1.8534  0.2086
  403MPD2    H3 6077   3.098   4.410  12.945  1.8625  0.4258  0.2704
  403MPD2     N 6078   3.161   4.598  13.353 -0.0310  0.8786 -0.6849
  403MPD2    H5 6079   3.255   4.562  13.365 -0.0571  1.0381  0.0144
  403MPD2    N1 6080   2.729   4.461  13.181 -0.0483  0.2441  0.2050
  403MPD2    H7 6081   2.689   4.398  13.112  0.6025 -0.6845  0.6732
  404TMC3    C1 6082   2.555   4.379  13.308  0.1498 -1.0046  0.5660
  404TMC3    C2 6083   2.600   4.291  13.404 -0.3869 -0.6559  0.0733
  404TMC3    C3 6084   2.618   4.162  13.375 -0.6092  0.1999 -0.4947
  404TMC3    C4 6085   2.513   4.330  13.188  0.0831  0.0564  0.5412
  404TMC3    C5 6086   2.520   4.189  13.177  0.1942  0.0230  0.2263
  404TMC3    C6 6087   2.573   4.099  13.266  1.2513  0.7608 -0.3438
  404TMC3     C 6088   2.650   4.487  13.289  0.2927 -0.3946 -0.2359
  404TMC3     O 6089   2.662   4.569  13.381  0.2142  0.1257  0.3669
  404TMC3     H 6090   2.653   4.337  13.487  0.7611 -0.1634 -0.9320
  404TMC3    H1 6091   2.482   4.395  13.107 -2.6762  0.5959  2.0072
  404TMC3    H2 6092   2.581   3.994  13.244 -1.2678  0.8199 -1.4905
  404TMC3    C7 6093   2.473   4.135  13.056  0.6344  0.6700 -0.1209
  404TMC3    C8 6094   2.701   4.079  13.461  0.2350 -1.0238 -0.2329
  404TMC3    O1 6095   2.533   4.034  13.016  0.2949  0.7845 -0.1703
  404TMC3    O2 6096   2.733   3.970  13.414  0.6550 -0.3658  0.0908
  405MPD2     C 6097   3.249   0.972  14.788  0.3673 -0.1020 -0.3698
  405MPD2    C1 6098   3.152   0.885  14.739 -0.4209 -0.4009 -0.2138
  405MPD2    C2 6099   3.020   0.923  14.737  1.2159  0.1272  1.3119
  405MPD2    C3 6100   2.978   1.047  14.778 -0.2050 -0.1751 -0.1874
  405MPD2    C4 6101   3.071   1.139  14.816 -0.2447  0.2342 -0.4438
  405MPD2    C5 6102   3.207   1.096  14.829  0.1903  0.6222 -0.6782
  405MPD2     H 6103   2.940   0.855  14.711  0.3980  1.4576  0.3528
  405MPD2    H1 6104   3.055   1.240  14.854  1.8571 -0.3123  1.8439
  405MPD2    H2 6105   3.357   0.965  14.786  0.4619  0.8423  1.1607
  405MPD2    H3 6106   3.281   1.171  14.856  0.6799 -0.3342  0.6177
  405MPD2     N 6107   2.843   1.075  14.780  0.0338 -0.0566  0.7148
  405MPD2    H5 6108   2.785   1.011  14.727  0.9726 -1.7181  1.6884
  405MPD2    N1 6109   3.183   0.756  14.692  0.2923  0.0776 -0.1788
  405MPD2    H7 6110   3.282   0.735  14.702  0.1658 -0.6249 -0.4117
  406TMC3    C1 6111   2.432   1.247  14.809  0.0519 -0.6021  0.1526
  406TMC3    C2 6112   2.386   1.119  14.791 -0.3252  0.2698  0.0250
  406TMC3    C3 6113   2.471   1.010  14.805  0.2687  0.3580 -0.3231
  406TMC3    C4 6114   2.561   1.271  14.833  0.9447 -0.5888  0.3659
  406TMC3    C5 6115   2.640   1.159  14.847 -0.0027 -0.0892 -0.3043
  406TMC3    C6 6116   2.601   1.028  14.838  0.7377 -0.7418  1.0132
  406TMC3     C 6117   2.372   1.356  14.740 -0.1369  0.1910 -0.0486
  406TMC3     O 6118   2.355   1.468  14.792  0.4555  0.3971 -0.2036
  406TMC3     H 6119   2.282   1.103  14.765 -0.8093  0.0978  2.0140
  406TMC3    H1 6120   2.600   1.372  14.821 -0.2727 -0.3572 -1.5924
  406TMC3    H2 6121   2.669   0.946  14.858 -0.7291 -2.0853  0.5179
  406TMC3    C7 6122   2.780   1.184  14.832 -1.1678  0.9165 -0.3544
  406TMC3    C8 6123   2.421   0.876  14.766 -0.0115 -0.4612  0.1941
  406TMC3    O1 6124   2.822   1.282  14.890 -0.2943 -0.0832 -0.0922
  406TMC3    O2 6125   2.302   0.851  14.777 -0.4829 -0.3961 -0.0290
  407MPD2     C 6126   0.224   2.461   9.853 -0.4092  0.0090  0.2154
  407MPD2    C1 6127   0.311   2.533   9.932  0.6019  0.5176 -0.1031
  407MPD2    C2 6128   0.277   2.577  10.056  0.1859 -0.4790  0.5799
  407MPD2    C3 6129   0.146   2.546  10.106  0.2518 -0.3929  0.4573
  407MPD2    C4 6130   0.051   2.485  10.016 -0.2511  0.0306 -0.0735
  407MPD2    C5 6131   0.093   2.437   9.893  0.1583  0.0919  0.4330
  407MPD2     H 6132   0.341   2.645  10.111  1.5039 -0.9597 -0.3536
  407MPD2    H1 6133   4.686   2.480  10.046  0.1289 -0.8582  1.0710
  407MPD2    H2 6134   0.255   2.433   9.753 -0.5643  1.9052 -0.3730
  407MPD2    H3 6135   0.021   2.394   9.824  0.3205  0.3480  0.1031
  407MPD2     N 6136   0.099   2.591  10.233 -0.1817 -0.5046 -0.2233
  407MPD2    H5 6137   4.738   2.578  10.242 -0.0934 -1.2963 -0.3994
  407MPD2    N1 6138   0.443   2.574   9.891 -0.8143 -0.5901  0.1068
  407MPD2    H7 6139   0.501   2.625   9.957 -0.0058 -0.6546 -0.5642
  408TMC3    C1 6140   0.593   2.628   9.711 -0.4931  0.2370  0.0431
  408TMC3    C2 6141   0.668   2.587   9.603 -0.1883 -1.2015 -0.6915
  408TMC3    C3 6142   0.743   2.678   9.544  0.4931 -0.4153 -0.2653
  408TMC3    C4 6143   0.589   2.758   9.755 -0.7819  0.7050 -0.2966
  408TMC3    C5 6144   0.666   2.841   9.689 -0.0748 -0.1266 -1.0622
  408TMC3    C6 6145   0.752   2.811   9.592 -1.1445  0.3494 -0.3755
  408TMC3     C 6146   0.513   2.526   9.779  0.2763 -0.2943  0.2583
  408TMC3     O 6147   0.488   2.421   9.721 -0.3948  0.3855 -0.5480
  408TMC3     H 6148   0.666   2.486   9.564  1.3324 -1.1035 -1.0125
  408TMC3    H1 6149   0.536   2.788   9.845 -0.7168 -1.1518  0.3651
  408TMC3    H2 6150   0.799   2.888   9.533 -0.0868  1.9561  2.5245
  408TMC3    C7 6151   0.641   2.979   9.719  0.6064  0.5069  0.3130
  408TMC3    C8 6152   0.862   2.643   9.476 -0.3450  0.1596  0.1661
  408TMC3    O1 6153   0.709   3.067   9.673  0.4354  0.3484  0.4133
  408TMC3    O2 6154   0.845   2.545   9.405 -0.2241  0.4324 -0.1578
  409MPD2     C 6155   0.301   3.155  17.148  0.1716  0.1042 -0.0669
  409MPD2    C1 6156   0.425   3.137  17.176  0.1708  0.3453  0.1808
  409MPD2    C2 6157   0.516   3.235  17.138  0.2870 -1.0178 -0.1278
  409MPD2    C3 6158   0.477   3.348  17.069 -0.0645  0.1053  0.5438
  409MPD2    C4 6159   0.350   3.358  17.029  0.2172  0.0127 -0.2219
  409MPD2    C5 6160   0.260   3.261  17.072  0.2255 -0.2073 -0.4642
  409MPD2     H 6161   0.622   3.220  17.158  0.7121  1.5271 -0.5138
  409MPD2    H1 6162   0.316   3.432  16.957  3.4002  1.1813 -0.5388
  409MPD2    H2 6163   0.232   3.076  17.177 -1.6684  2.0227  0.7107
  409MPD2    H3 6164   0.156   3.254  17.044 -0.5883  0.1851  2.4406
  409MPD2     N 6165   0.571   3.449  17.016 -0.3166 -0.6624 -0.2536
  409MPD2    H5 6166   0.540   3.515  16.945 -1.9326  0.6704  1.6966
  409MPD2    N1 6167   0.478   3.019  17.235 -0.2037 -0.2978 -0.2200
  409MPD2    H7 6168   0.573   3.027  17.271 -0.3922  0.5721  0.0899
  410TMC3    C1 6169   0.781   3.556  17.001  0.5006  0.0831 -0.3158
  410TMC3    C2 6170   0.895   3.575  17.066 -0.1063 -0.1671  0.4411
  410TMC3    C3 6171   1.002   3.638  16.998  0.1683  0.3339  0.2337
  410TMC3    C4 6172   0.767   3.573  16.868  0.7169  0.3263  0.2352
  410TMC3    C5 6173   0.868   3.642  16.808  0.4908 -0.0601  0.1960
  410TMC3    C6 6174   0.976   3.689  16.871 -0.0339  0.3499  0.6107
  410TMC3     C 6175   0.695   3.460  17.065  0.4934 -0.4915  0.8267
  410TMC3     O 6176   0.737   3.417  17.174 -0.1155 -0.0578  0.5467
  410TMC3     H 6177   0.916   3.533  17.165  0.0386 -1.7521 -0.2523
  410TMC3    H1 6178   0.673   3.557  16.817  0.3311 -0.6314  1.2344
  410TMC3    H2 6179   1.057   3.741  16.821 -0.9356  0.5070 -0.7148
  410TMC3    C7 6180   0.837   3.701  16.683  0.3553  0.8248  0.2226
  410TMC3    C8 6181   1.126   3.575  17.019 -0.7103  0.2495 -0.3186
  410TMC3    O1 6182   0.802   3.622  16.592  0.1493  0.7513  0.1742
  410TMC3    O2 6183   1.225   3.639  17.012  0.7798  0.2635 -0.1203
  411MPD2     C 6184   1.175   3.941  14.513  0.1453  0.1908 -0.2666
  411MPD2    C1 6185   1.050   3.950  14.578 -0.5838  0.5139 -0.2064
  411MPD2    C2 6186   0.962   3.845  14.577 -0.8138 -0.4361 -0.2695
  411MPD2    C3 6187   0.995   3.730  14.508 -0.6575  0.1144 -0.3552
  411MPD2    C4 6188   1.118   3.721  14.438  0.3544 -0.5901  0.0712
  411MPD2    C5 6189   1.210   3.821  14.451 -0.2588 -0.2934 -0.4548
  411MPD2     H 6190   0.865   3.853  14.624 -0.2182 -2.5303  1.3661
  411MPD2    H1 6191   1.152   3.628  14.394  0.6706  1.1140 -3.2924
  411MPD2    H2 6192   1.236   4.029  14.498  1.9173 -0.7666  1.3957
  411MPD2    H3 6193   1.307   3.803  14.407  0.2840  0.8763  0.2573
  411MPD2     N 6194   0.908   3.626  14.491 -0.0832  0.4371  0.6826
  411MPD2    H5 6195   0.937   3.545  14.436  1.0588  0.8731  0.6515
  411MPD2    N1 6196   1.013   4.082  14.620 -0.0201  0.3141 -0.0877
  411MPD2    H7 6197   1.059   4.157  14.569 -0.1532  0.4330 -0.0355
  412TMC3    C1 6198   0.685   3.524  14.477  0.2411  0.4999  0.9285
  412TMC3    C2 6199   0.566   3.518  14.553 -0.7969 -0.0770 -0.0665
  412TMC3    C3 6200   0.498   3.399  14.545 -0.9865 -0.0200  0.2152
  412TMC3    C4 6201   0.732   3.427  14.393  0.4662 -0.2153  0.2464
  412TMC3    C5 6202   0.650   3.317  14.371  0.2038  0.3694  0.8064
  412TMC3    C6 6203   0.538   3.305  14.452  0.2299  0.0549  0.1307
  412TMC3     C 6204   0.774   3.627  14.531 -0.1629  0.2756  0.3458
  412TMC3     O 6205   0.716   3.703  14.606 -0.8896 -0.3964  0.0283
  412TMC3     H 6206   0.521   3.598  14.610  0.2742  1.0031 -0.7309
  412TMC3    H1 6207   0.821   3.441  14.333  0.6264  1.2678  0.8339
  412TMC3    H2 6208   0.471   3.221  14.433 -0.3647  0.4526  0.4608
  412TMC3    C7 6209   0.598   3.305  14.234  0.1197 -0.3071  0.2894
  412TMC3    C8 6210   0.354   3.419  14.534  0.3380  0.0317  0.0310
  412TMC3    O1 6211   0.510   3.387  14.209  0.1704 -0.2523  0.1691
  412TMC3    O2 6212   0.287   3.428  14.633  1.1755 -0.0726 -0.1707
  413MPD2     C 6213   2.522   2.246  15.510 -0.2989  0.0950 -0.0728
  413MPD2    C1 6214   2.444   2.161  15.435  0.4015 -0.3192  0.4998
  413MPD2    C2 6215   2.487   2.028  15.426  0.3754  0.9976 -0.0975
  413MPD2    C3 6216   2.607   1.986  15.481  0.5510 -0.0418 -0.0423
  413MPD2    C4 6217   2.690   2.077  15.545 -0.1771 -0.3633  0.1696
  413MPD2    C5 6218   2.639   2.203  15.567  0.5390  0.5775 -0.6369
  413MPD2     H 6219   2.423   1.959  15.372  0.9390 -0.0691  0.5907
  413MPD2    H1 6220   2.788   2.052  15.583  0.0229  0.7171  0.3543
  413MPD2    H2 6221   2.499   2.351  15.528 -1.4792 -0.1252 -0.3264
  413MPD2    H3 6222   2.706   2.271  15.618  0.3406  1.2038 -1.2120
  413MPD2     N 6223   2.636   1.848  15.447  0.7613 -0.2704 -0.0358
  413MPD2    H5 6224   2.570   1.816  15.377 -2.2279  2.9875  1.2735
  413MPD2    N1 6225   2.319   2.207  15.379 -0.6100  0.4509  0.2024
  413MPD2    H7 6226   2.268   2.287  15.414 -2.0160 -0.4390  0.1664
  414TMC3    C1 6227   2.749   1.655  15.392 -0.0154 -0.2181  0.4721
  414TMC3    C2 6228   2.867   1.591  15.381 -0.2495  0.1460  0.0770
  414TMC3    C3 6229   2.877   1.500  15.267  0.9680  0.6007  1.6338
  414TMC3    C4 6230   2.641   1.622  15.309  0.0972  0.2498 -0.0064
  414TMC3    C5 6231   2.657   1.536  15.202 -0.6093  0.2753 -0.4514
  414TMC3    C6 6232   2.772   1.467  15.187 -0.2687 -0.4227 -0.2444
  414TMC3     C 6233   2.744   1.780  15.463  0.2865  0.5699  0.1016
  414TMC3     O 6234   2.837   1.808  15.534 -0.2952  0.0420 -0.0926
  414TMC3     H 6235   2.953   1.633  15.431 -0.8999  0.4033  0.9591
  414TMC3    H1 6236   2.540   1.657  15.325  0.0741  0.0079  0.3947
  414TMC3    H2 6237   2.790   1.406  15.099 -1.9212  0.7582 -1.4168
  414TMC3    C7 6238   2.558   1.532  15.091  0.1995 -0.3762  0.1947
  414TMC3    C8 6239   2.997   1.421  15.256 -0.2051 -0.7158 -0.2806
  414TMC3    O1 6240   2.444   1.507  15.120  0.1582  0.0838 -0.2749
  414TMC3    O2 6241   2.996   1.334  15.169  0.3734 -0.4449 -0.3707
  415TMC3    C1 6242   2.715   0.356  10.503  0.3373 -0.9666  0.1103
  415TMC3    C2 6243   2.842   0.401  10.504  0.4035 -0.0357 -0.2932
  415TMC3    C3 6244   2.926   0.342  10.407  0.1797 -0.1070 -0.5605
  415TMC3    C4 6245   2.666   0.268  10.406  0.1887 -0.0394  0.1694
  415TMC3    C5 6246   2.753   0.216  10.313 -0.6921 -0.5513  0.2024
  415TMC3    C6 6247   2.885   0.242  10.317  0.0430  0.5913 -1.0220
  415TMC3     C 6248   2.623   0.405  10.603  0.1595  0.1354  0.2828
  415TMC3     O 6249   2.545   0.318  10.631 -0.1154  0.8580 -0.7094
  415TMC3     H 6250   2.881   0.463  10.585  2.0180 -1.1326 -0.2277
  415TMC3    H1 6251   2.559   0.257  10.395 -0.1206 -0.1016  3.3791
  415TMC3    H2 6252   2.960   0.206  10.247  0.3656  0.5970 -0.6800
  415TMC3    C7 6253   2.716   0.090  10.254 -0.3255 -0.0782 -0.5039
  415TMC3    C8 6254   3.069   0.363  10.414 -0.3323 -0.2132 -0.1433
  415TMC3    O1 6255   2.782   0.043  10.159  0.0650 -1.1029 -0.7540
  415TMC3    O2 6256   3.153   0.278  10.390 -0.2877 -0.1126 -0.5087
  416MPD2     C 6257   4.566   3.426  11.439  0.0557  1.1142 -0.8044
  416MPD2    C1 6258   4.424   3.438  11.435 -0.8303 -0.4319 -0.1143
  416MPD2    C2 6259   4.354   3.330  11.383 -0.1865  0.3257 -0.0202
  416MPD2    C3 6260   4.419   3.226  11.321  0.1492  0.4162  0.1981
  416MPD2    C4 6261   4.557   3.216  11.328  0.6644  0.7812  0.7859
  416MPD2    C5 6262   4.627   3.317  11.381 -0.4007  0.0613 -0.0408
  416MPD2     H 6263   4.246   3.325  11.387 -0.3336  4.0934 -0.1201
  416MPD2    H1 6264   4.610   3.143  11.268  1.1084  0.3807  1.6687
  416MPD2    H2 6265   4.630   3.500  11.487  0.7355  0.3557 -0.5400
  416MPD2    H3 6266   4.735   3.312  11.367 -0.3384  1.1563  0.0765
  416MPD2     N 6267   4.333   3.127  11.262 -0.1846 -0.0321 -0.1682
  416MPD2    H5 6268   4.233   3.131  11.276 -0.1532 -1.9947  0.6537
  416MPD2    N1 6269   4.351   3.535  11.508  0.0885 -0.6043  0.2062
  416MPD2    H7 6270   4.410   3.592  11.568 -1.2476  1.2661 -0.2665
  417TMC3    C1 6271   4.155   3.662  11.581 -0.4170 -0.1902  0.1819
  417TMC3    C2 6272   4.200   3.679  11.714 -0.2651 -0.1528  0.6852
  417TMC3    C3 6273   4.116   3.744  11.798 -1.2944  0.8095  0.0145
  417TMC3    C4 6274   4.041   3.720  11.534  0.1711  0.4138 -0.8759
  417TMC3    C5 6275   3.970   3.793  11.613 -0.1239  0.3155 -0.4807
  417TMC3    C6 6276   4.016   3.816  11.744  0.1222  0.8905  0.0053
  417TMC3     C 6277   4.215   3.560  11.494 -0.0599  0.0492 -0.3749
  417TMC3     O 6278   4.137   3.521  11.409  0.6962 -0.3109 -0.2987
  417TMC3     H 6279   4.286   3.623  11.749  1.3728  1.4858 -0.7017
  417TMC3    H1 6280   4.004   3.701  11.434  1.8716 -1.2581 -1.1981
  417TMC3    H2 6281   3.965   3.884  11.811 -1.4070  0.5212 -0.7847
  417TMC3    C7 6282   3.850   3.853  11.556 -0.8364 -0.2633 -0.3090
  417TMC3    C8 6283   4.122   3.738  11.941 -0.3610 -0.4878 -0.2187
  417TMC3    O1 6284   3.835   3.836  11.434  0.2349  0.5744  0.1263
  417TMC3    O2 6285   4.054   3.819  12.003 -0.0859 -0.5879  0.0016
  418TMC3    C1 6286   3.861   1.172  17.592  0.2993 -0.1488  0.4673
  418TMC3    C2 6287   3.744   1.219  17.626  0.1499  0.3173 -0.6901
  418TMC3    C3 6288   3.679   1.156  17.727  0.4411 -0.1369 -1.1991
  418TMC3    C4 6289   3.918   1.065  17.653  0.0804 -0.4617 -1.1846
  418TMC3    C5 6290   3.844   1.005  17.750 -0.6456  0.5386  0.2147
  418TMC3    C6 6291   3.724   1.047   0.035  0.5267 -0.2056  0.3078
  418TMC3     C 6292   3.909   1.209  17.456  0.6382  0.0947 -0.0087
  418TMC3     O 6293   3.877   1.323  17.421 -0.0001  0.2580  0.3074
  418TMC3     H 6294   3.695   1.298  17.569  0.6755  0.6890 -0.6368
  418TMC3    H1 6295   4.011   1.025  17.613  0.4791  0.5190 -1.2420
  418TMC3    H2 6296   3.670   0.996   0.114 -1.1513  1.4982  0.2706
  418TMC3    C7 6297   3.861   0.863   0.026  0.2130  0.1201 -0.0934
  418TMC3    C8 6298   3.541   1.187  17.735  0.0668 -0.0059 -0.3268
  418TMC3    O1 6299   3.761   0.791   0.031  0.1114  0.1124  0.3180
  418TMC3    O2 6300   3.496   1.295  17.703 -0.3086  0.0518 -0.0783
  419MPD2     C 6301   2.113   3.699  12.177  0.6011  0.5191  0.2740
  419MPD2    C1 6302   2.029   3.814  12.186 -0.7624 -0.1491  0.3089
  419MPD2    C2 6303   1.986   3.844  12.312  0.5024  0.0176  0.0305
  419MPD2    C3 6304   2.031   3.782  12.428 -0.3296  0.0783  0.1625
  419MPD2    C4 6305   2.116   3.675  12.416  0.2723  0.0777  0.2418
  419MPD2    C5 6306   2.157   3.640  12.295  0.2487  0.9447 -0.1241
  419MPD2     H 6307   1.917   3.927  12.312 -0.7470 -1.0061 -1.9473
  419MPD2    H1 6308   2.155   3.622  12.502  0.9556  0.9701  0.4744
  419MPD2    H2 6309   2.156   3.660  12.085 -0.1521  1.8712 -0.6358
  419MPD2    H3 6310   2.233   3.562  12.297 -1.1969 -0.4891 -1.3063
  419MPD2     N 6311   1.988   3.814  12.563  0.8261  0.1157  0.3337
  419MPD2    H5 6312   2.021   3.745  12.630 -0.7558  1.8906  2.9378
  419MPD2    N1 6313   1.982   3.891  12.075  0.1978  0.7063 -0.0278
  419MPD2    H7 6314   1.904   3.954  12.092  0.2135  0.8882 -0.6229
  420TMC3    C1 6315   1.845   3.906  12.723 -0.3704 -0.8084  0.3343
  420TMC3    C2 6316   1.727   3.974  12.742  0.3098  0.0342 -0.7180
  420TMC3    C3 6317   1.690   4.034  12.859  0.2951 -0.0341  0.8907
  420TMC3    C4 6318   1.919   3.896  12.827 -0.8544  0.6274 -0.0243
  420TMC3    C5 6319   1.886   3.956  12.947 -0.7317  0.0960  0.4655
  420TMC3    C6 6320   1.766   4.014  12.970  0.6601  0.0078  0.0001
  420TMC3     C 6321   1.900   3.915  12.596  0.2229 -0.6895 -0.6517
  420TMC3     O 6322   1.855   4.006  12.527  0.1671  0.4730 -0.2589
  420TMC3     H 6323   1.667   3.996  12.655  1.3535  2.4572 -0.8233
  420TMC3    H1 6324   2.025   3.873  12.814 -0.6929  0.5284  1.5349
  420TMC3    H2 6325   1.748   4.050  13.071 -0.0356  0.0618 -0.1411
  420TMC3    C7 6326   1.950   3.900  13.065  1.2549  0.8663  0.0567
  420TMC3    C8 6327   1.567   4.106  12.863 -0.0370  0.5239 -0.1954
  420TMC3    O1 6328   1.989   3.785  13.050  0.0866  0.7188 -0.1441
  420TMC3    O2 6329   1.509   4.121  12.757 -0.0419  0.1328  0.0461
  421TMC3    C1 6330   3.191   4.664  13.580  0.2768  0.0571  0.1034
  421TMC3    C2 6331   3.142   0.001  13.682  0.0718  0.5475  0.1055
  421TMC3    C3 6332   3.183   4.712  13.806 -0.8805 -0.3742 -0.3061
  421TMC3    C4 6333   3.275   4.562  13.604  0.1914  0.0125 -0.0876
  421TMC3    C5 6334   3.312   4.531  13.730  0.0590  0.9206 -0.1793
  421TMC3    C6 6335   3.270   4.608  13.835  0.6679 -0.6791  0.0199
  421TMC3     C 6336   3.109   4.673  13.457  0.3350  0.3263  0.3453
  421TMC3     O 6337   3.012   0.005  13.458  0.2105 -0.1231  0.2534
  421TMC3     H 6338   3.067   0.077  13.665  0.2588  0.6278 -0.3672
  421TMC3    H1 6339   3.318   4.504  13.523  0.6809 -1.6547  1.3403
  421TMC3    H2 6340   3.307   4.585  13.934  2.5201  0.4181 -0.4048
  421TMC3    C7 6341   3.434   4.459  13.763  0.2122 -0.3933 -0.4211
  421TMC3    C8 6342   3.185   0.083  13.896 -0.3950  0.0602  0.3245
  421TMC3    O1 6343   3.478   4.479  13.876  0.1092  0.3202  0.1192
  421TMC3    O2 6344   3.165   0.192  13.850  0.1422 -0.4136  0.4517
  422TMC3    C1 6345   0.678   1.707  12.830  0.2316  0.1450 -0.1346
  422TMC3    C2 6346   0.654   1.749  12.960 -0.3665 -0.2036  0.8666
  422TMC3    C3 6347   0.521   1.779  12.985 -0.0731  0.9859  0.1944
  422TMC3    C4 6348   0.592   1.720  12.727 -0.5463  0.2792 -0.0367
  422TMC3    C5 6349   0.463   1.751  12.754 -0.6077 -0.6659 -0.1191
  422TMC3    C6 6350   0.427   1.790  12.882  0.6969 -0.7569  0.0308
  422TMC3     C 6351   0.797   1.631  12.804 -1.0323  0.0301 -0.3121
  422TMC3     O 6352   0.855   1.584  12.904 -0.0097  0.0835  0.4528
  422TMC3     H 6353   0.724   1.742  13.042  1.9104  0.9315 -0.9818
  422TMC3    H1 6354   0.614   1.683  12.628  0.4607 -1.5623  0.8492
  422TMC3    H2 6355   0.330   1.838  12.895  1.3263  1.0121 -1.7534
  422TMC3    C7 6356   0.359   1.712  12.662  0.0494  0.0459  0.7098
  422TMC3    C8 6357   0.505   1.872  13.089 -0.0486 -0.3011  0.2428
  422TMC3    O1 6358   0.379   1.721  12.541  0.5695 -0.0440  0.5660
  422TMC3    O2 6359   0.612   1.921  13.126  0.1355  0.2246  0.9884
  423MPD2     C 6360   1.908   2.130   1.033 -0.1234 -1.0892  0.2605
  423MPD2    C1 6361   2.034   2.167   0.988 -0.3216 -0.5661  0.3284
  423MPD2    C2 6362   2.069   2.156   0.866  0.1135 -0.3349 -0.8685
  423MPD2    C3 6363   1.980   2.103   0.774  0.0074  0.6945  0.1319
  423MPD2    C4 6364   1.866   2.047   0.813 -0.6845 -0.0001 -0.6821
  423MPD2    C5 6365   1.821   2.080   0.943  0.2462  0.1062 -0.2152
  423MPD2     H 6366   2.171   2.188   0.852 -1.0654  3.1366 -1.5249
  423MPD2    H1 6367   1.802   2.000   0.739 -0.5706 -1.8054  0.3453
  423MPD2    H2 6368   1.874   2.125   1.136 -0.5029 -1.1911  0.1297
  423MPD2    H3 6369   1.729   2.032   0.975 -0.1772 -0.7166 -2.7211
  423MPD2     N 6370   2.018   2.095   0.633 -0.2541 -0.3274 -0.1085
  423MPD2    H5 6371   1.958   2.031   0.582 -0.6582 -0.1777  0.1782
  423MPD2    N1 6372   2.127   2.235   1.074 -0.7036 -0.8462  0.8206
  423MPD2    H7 6373   2.219   2.260   1.039 -0.3128 -0.6648  1.9996
  424TMC3    C1 6374   2.200   2.363   1.256  0.3927  0.2302 -0.1137
  424TMC3    C2 6375   2.333   2.328   1.241 -0.3875 -0.1663 -0.0862
  424TMC3    C3 6376   2.429   2.399   1.307 -0.2674  1.4675 -0.3940
  424TMC3    C4 6377   2.159   2.456   1.346  0.0622  0.4968  0.4590
  424TMC3    C5 6378   2.263   2.535   1.404 -0.1496 -0.1193  0.0176
  424TMC3    C6 6379   2.394   2.507   1.386  0.0362  0.0990  0.5023
  424TMC3     C 6380   2.100   2.273   1.203  1.0650 -0.1079  0.5417
  424TMC3     O 6381   2.003   2.256   1.274  0.0142  0.1134  0.1804
  424TMC3     H 6382   2.368   2.251   1.174 -0.6809 -0.9614  0.6781
  424TMC3    H1 6383   2.053   2.479   1.353 -0.3395 -1.2097 -0.0451
  424TMC3    H2 6384   2.472   2.552   1.447  0.5280  0.3073 -0.2731
  424TMC3    C7 6385   2.228   2.650   1.484  0.2724  0.2693  1.0526
  424TMC3    C8 6386   2.564   2.355   1.299 -0.3279  0.1028 -0.3109
  424TMC3    O1 6387   2.315   2.703   1.551 -0.2509 -0.1424 -0.3195
  424TMC3    O2 6388   2.576   2.235   1.285  0.3132  0.3196  0.2390
  425MPD2     C 6389   1.590   1.716  17.557 -0.0857  0.9999  0.0830
  425MPD2    C1 6390   1.522   1.598  17.584  0.2261 -0.4268 -0.6985
  425MPD2    C2 6391   1.461   1.575  17.700 -0.0278 -0.4893  0.0127
  425MPD2    C3 6392   1.424   1.681   0.027  0.5355  1.3344 -0.7571
  425MPD2    C4 6393   1.474   1.804  17.751 -0.5045 -0.2605 -0.1869
  425MPD2    C5 6394   1.559   1.813  17.643  0.0415 -0.6081  0.1825
  425MPD2     H 6395   1.415   1.477  17.714 -0.1036 -0.7375 -2.0024
  425MPD2    H1 6396   1.453   1.893   0.055  0.2414  0.3056 -0.7915
  425MPD2    H2 6397   1.662   1.743  17.481 -1.4896 -2.1474 -2.3701
  425MPD2    H3 6398   1.600   1.909  17.614  1.2196 -1.2966 -0.4405
  425MPD2     N 6399   1.335   1.660   0.128  0.2656 -0.4329  0.0779
  425MPD2    H5 6400   1.293   1.567   0.123 -1.2803  0.1922  1.8278
  425MPD2    N1 6401   1.536   1.482  17.503  0.3021 -0.0578 -0.1805
  425MPD2    H7 6402   1.512   1.394  17.547  0.3000  1.2305  2.3957
  426TMC3    C1 6403   1.626   1.358  17.324  0.1828  0.3001  0.0130
  426TMC3    C2 6404   1.609   1.334  17.193  0.1096 -0.2456  0.4474
  426TMC3    C3 6405   1.632   1.205  17.145 -0.4978  0.3669 -0.7770
  426TMC3    C4 6406   1.655   1.258  17.413 -0.0007 -0.1883  0.0399
  426TMC3    C5 6407   1.682   1.137  17.353  0.4647 -0.0244 -0.5047
  426TMC3    C6 6408   1.674   1.105  17.221  0.1431 -0.0031  0.6836
  426TMC3     C 6409   1.583   1.485  17.372 -0.1333 -0.6801  0.0555
  426TMC3     O 6410   1.598   1.578  17.293 -0.3328  0.0074 -0.4011
  426TMC3     H 6411   1.600   1.417  17.124  1.6324 -1.4478 -1.1925
  426TMC3    H1 6412   1.674   1.273  17.518  3.5731 -0.9120 -0.5176
  426TMC3    H2 6413   1.709   1.010  17.182 -3.6538 -0.6040 -1.2421
  426TMC3    C7 6414   1.691   1.018  17.432  0.0090  0.3057  0.2605
  426TMC3    C8 6415   1.648   1.187  17.006  0.0785  0.0470 -0.7218
  426TMC3    O1 6416   1.767   0.929  17.391  0.0471  0.2586  0.2278
  426TMC3    O2 6417   1.737   1.112  16.969  0.0979  0.3240 -0.3063
  427MPD2     C 6418   4.697   3.850  14.972  0.1122 -0.5663 -0.3463
  427MPD2    C1 6419   4.641   3.842  15.094  0.5033  0.6866 -0.0866
  427MPD2    C2 6420   4.506   3.858  15.110  0.1027  0.0861  0.1062
  427MPD2    C3 6421   4.422   3.887  15.003 -0.3303  0.0867  0.0798
  427MPD2    C4 6422   4.487   3.902  14.879  0.0129  0.3639 -0.7104
  427MPD2    C5 6423   4.619   3.871  14.866  0.2058 -0.1844  0.3950
  427MPD2     H 6424   4.466   3.861  15.211 -1.0345 -1.3532 -0.2970
  427MPD2    H1 6425   4.425   3.913  14.791 -1.3237 -3.3564 -0.2359
  427MPD2    H2 6426   0.062   3.853  14.941  0.7683 -1.1016  1.8160
  427MPD2    H3 6427   4.664   3.879  14.768 -3.4531 -3.8741 -1.5972
  427MPD2     N 6428   4.283   3.909  15.008 -0.5443  0.4840 -0.0881
  427MPD2    H5 6429   4.246   3.959  14.927 -1.1317  0.5259  0.2039
  427MPD2    N1 6430   4.736   3.820  15.196  0.3805 -0.0219 -0.1028
  427MPD2    H7 6431   0.090   3.813  15.157  0.4905 -0.8635  0.3226
  428TMC3    C1 6432   0.088   3.717  15.382 -0.2848  0.9275 -0.5338
  428TMC3    C2 6433   0.077   3.611  15.468  0.0650  0.1012 -0.3863
  428TMC3    C3 6434   0.181   3.580  15.551  0.1067  0.0942 -0.1207
  428TMC3    C4 6435   0.213   3.781  15.365  0.0969 -0.9304  0.2743
  428TMC3    C5 6436   0.314   3.738  15.447 -0.4234 -0.0172 -0.2527
  428TMC3    C6 6437   0.298   3.645  15.541  0.2030  0.1060 -0.2139
  428TMC3     C 6438   4.709   3.759  15.314 -0.9394 -0.4498  0.1609
  428TMC3     O 6439   4.600   3.722  15.357  0.2355  0.1219  0.6021
  428TMC3     H 6440   4.720   3.564  15.487 -0.5691  0.5612 -2.4919
  428TMC3    H1 6441   0.228   3.869  15.303  0.3458 -0.9035  0.3716
  428TMC3    H2 6442   0.386   3.620  15.600  0.8613 -3.6432 -2.7565
  428TMC3    C7 6443   0.444   3.800  15.444  0.4153 -0.3021 -0.4578
  428TMC3    C8 6444   0.169   3.467  15.644  0.2211  0.4356  0.3005
  428TMC3    O1 6445   0.495   3.833  15.548 -0.4274 -0.6956  0.2480
  428TMC3    O2 6446   0.076   3.390  15.619 -0.4278  0.6715 -0.6093
  429MPD2     C 6447   1.013   4.093  17.631  0.4046 -0.2797 -0.2145
  429MPD2    C1 6448   1.130   4.023  17.621 -0.2491  0.1044  0.4409
  429MPD2    C2 6449   1.241   4.081  17.567 -0.2034 -0.4545  0.6787
  429MPD2    C3 6450   1.245   4.219  17.525 -0.5250  0.1921 -0.0266
  429MPD2    C4 6451   1.126   4.286  17.540 -0.0351  0.7072  0.6024
  429MPD2    C5 6452   1.010   4.225  17.589 -0.0818 -0.5141 -0.2567
  429MPD2     H 6453   1.334   4.024  17.565 -0.1868 -0.5534  3.7155
  429MPD2    H1 6454   1.117   4.384  17.496 -1.6652  0.9337  1.4816
  429MPD2    H2 6455   0.924   4.056  17.681 -0.0085  0.7342 -0.1953
  429MPD2    H3 6456   0.917   4.280  17.578  0.8199  0.5247 -2.8206
  429MPD2     N 6457   1.369   4.283  17.480 -0.4733 -0.1833  0.0745
  429MPD2    H5 6458   1.447   4.219  17.473  0.5301  0.7976  2.0904
  429MPD2    N1 6459   1.150   3.887  17.648  0.2427 -0.1871 -0.3576
  429MPD2    H7 6460   1.246   3.855  17.640  0.6111  0.7254  0.3763
  430TMC3    C1 6461   1.506   4.449  17.398 -0.1654  0.1729 -0.7461
  430TMC3    C2 6462   1.494   4.565  17.322 -0.3402 -0.0525 -0.0378
  430TMC3    C3 6463   1.570   4.574  17.208  0.4481  0.3436  0.3209
  430TMC3    C4 6464   1.593   4.355  17.364 -0.5986  0.1199 -0.3382
  430TMC3    C5 6465   1.667   4.375  17.255  0.0813  0.0421 -0.7525
  430TMC3    C6 6466   1.659   4.477  17.167 -0.1250  0.1157  0.4412
  430TMC3     C 6467   1.375   4.417  17.456  0.5686  0.5610 -0.1106
  430TMC3     O 6468   1.292   4.502  17.489  0.2811  0.1620  0.0009
  430TMC3     H 6469   1.397   4.612  17.333  0.7911  2.3012 -0.0982
  430TMC3    H1 6470   1.621   4.281  17.438  0.6690  0.3354 -0.6152
  430TMC3    H2 6471   1.702   4.475  17.068 -0.7367 -0.8043  0.1929
  430TMC3    C7 6472   1.734   4.258  17.213  0.8315 -0.7718 -0.1555
  430TMC3    C8 6473   1.492   4.620  17.088  0.9582  0.0991  0.1053
  430TMC3    O1 6474   1.689   4.153  17.265  0.1595  0.1076  0.2711
  430TMC3    O2 6475   1.467   4.535  17.000  0.6037 -0.1133  1.0894
  431MPD2     C 6476   1.472   4.026  12.401  0.3947 -0.0277  0.1515
  431MPD2    C1 6477   1.533   4.138  12.355 -0.2609  0.0607 -0.1982
  431MPD2    C2 6478   1.582   4.146  12.229 -0.5755  0.3285  0.4110
  431MPD2    C3 6479   1.574   4.037  12.146  0.2545  0.0924 -0.0963
  431MPD2    C4 6480   1.515   3.921  12.199  0.1164 -0.4502 -0.1635
  431MPD2    C5 6481   1.464   3.913  12.321  0.2450 -0.2552  0.5336
  431MPD2     H 6482   1.630   4.238  12.198 -0.7543 -0.0605 -1.0079
  431MPD2    H1 6483   1.511   3.831  12.139 -3.5190 -1.1303  1.0803
  431MPD2    H2 6484   1.435   4.030  12.503 -0.4759 -0.5157 -0.1496
  431MPD2    H3 6485   1.410   3.825  12.355  1.0737 -1.0551 -0.2026
  431MPD2     N 6486   1.628   4.027  12.010 -0.0517  0.3851 -0.3069
  431MPD2    H5 6487   1.635   3.933  11.974 -1.9832 -0.0809  0.4903
  431MPD2    N1 6488   1.550   4.242  12.446  0.3520  0.6355  0.2137
  431MPD2    H7 6489   1.518   4.236  12.543  0.5762  0.6341  0.2870
  432TMC3    C1 6490   1.796   4.116  11.873 -0.8065  0.4036  0.8085
  432TMC3    C2 6491   1.877   4.228  11.860  0.0233  0.4588  0.1132
  432TMC3    C3 6492   2.010   4.199  11.865  0.3090  0.1899  0.1068
  432TMC3    C4 6493   1.839   3.988  11.867 -0.2771  0.5228  0.6021
  432TMC3    C5 6494   1.974   3.971  11.858  0.2792 -0.2086  0.0517
  432TMC3    C6 6495   2.062   4.070  11.842 -0.1029 -0.1815  0.4682
  432TMC3     C 6496   1.670   4.137  11.936  0.3187  0.0253 -0.6799
  432TMC3     O 6497   1.637   4.256  11.956  0.2641  0.4513  0.0150
  432TMC3     H 6498   1.838   4.329  11.855 -2.5499 -0.4881  1.0469
  432TMC3    H1 6499   1.775   3.901  11.873  1.2339 -0.5196  1.3073
  432TMC3    H2 6500   2.168   4.052  11.842 -0.1341 -0.3589  2.7455
  432TMC3    C7 6501   2.024   3.863  11.942  0.3823 -0.4087  0.1408
  432TMC3    C8 6502   2.110   4.312  11.863  0.1676 -0.7297  0.9002
  432TMC3    O1 6503   2.106   3.795  11.888 -0.5334 -0.3536  0.3918
  432TMC3    O2 6504   2.061   4.425  11.860 -0.1789 -0.5087 -0.4311
  433MPD2     C 6505   0.122   2.442  10.546  0.0101 -0.5210 -0.3082
  433MPD2    C1 6506   0.242   2.456  10.619  0.2828 -0.2138  1.1598
  433MPD2    C2 6507   0.234   2.455  10.758  0.1967 -0.4692  0.4203
  433MPD2    C3 6508   0.114   2.426  10.825  0.2515  0.1439 -0.4244
  433MPD2    C4 6509   0.000   2.409  10.747 -0.4486 -0.2658  0.1351
  433MPD2    C5 6510   0.004   2.426  10.610  0.1871 -0.4270  0.1281
  433MPD2     H 6511   0.321   2.453  10.822  1.8823  1.2239 -1.7817
  433MPD2    H1 6512   4.641   2.396  10.792 -1.0644  0.9291 -0.8845
  433MPD2    H2 6513   0.119   2.442  10.438 -0.6444  0.1228 -0.2917
  433MPD2    H3 6514   4.653   2.403  10.555 -1.8641 -0.7610  3.5689
  433MPD2     N 6515   0.119   2.389  10.969 -0.4539 -0.4488 -0.0731
  433MPD2    H5 6516   0.196   2.419  11.028 -1.1117  0.0452  0.5439
  433MPD2    N1 6517   0.365   2.465  10.551 -0.8055  0.3653  0.2746
  433MPD2    H7 6518   0.364   2.445  10.452 -1.4132  2.3525 -0.1362
  434TMC3    C1 6519   0.592   2.463  10.523 -0.2443 -0.4506  0.4570
  434TMC3    C2 6520   0.684   2.397  10.589 -0.4409  0.1076  0.6070
  434TMC3    C3 6521   0.745   2.286  10.533  0.8029 -0.0588 -0.3931
  434TMC3    C4 6522   0.576   2.448  10.383 -0.0621  0.2332  0.3604
  434TMC3    C5 6523   0.647   2.347  10.328 -0.7359 -0.0788 -0.7874
  434TMC3    C6 6524   0.726   2.264  10.405  0.7872  0.7394 -0.8286
  434TMC3     C 6525   0.484   2.492  10.615 -0.4981 -0.1014  0.4938
  434TMC3     O 6526   0.507   2.513  10.731  0.4897 -0.3959  0.2932
  434TMC3     H 6527   0.705   2.420  10.692  1.4736 -1.2951  0.5311
  434TMC3    H1 6528   0.501   2.508  10.332  0.6488 -0.5856 -1.6227
  434TMC3    H2 6529   0.796   2.195  10.361 -2.9764 -2.5199 -1.6723
  434TMC3    C7 6530   0.613   2.316  10.191  0.2208  1.0937  0.4091
  434TMC3    C8 6531   0.847   2.229  10.624  0.4300  0.1948 -0.2175
  434TMC3    O1 6532   0.580   2.409  10.119 -0.1244  0.0433 -0.1562
  434TMC3    O2 6533   0.878   2.289  10.727  0.4747  0.5664 -0.1405
  435MPD2     C 6534   3.045   2.733  15.571  0.5081 -0.7067 -0.0613
  435MPD2    C1 6535   2.965   2.718  15.685 -0.1506 -0.8474  0.3593
  435MPD2    C2 6536   3.010   2.636  15.789  0.2220 -0.1759 -0.1592
  435MPD2    C3 6537   3.133   2.579  15.780  0.6931 -0.2827  0.0482
  435MPD2    C4 6538   3.211   2.600  15.668  0.7760 -0.0330 -0.5424
  435MPD2    C5 6539   3.168   2.672  15.566  0.4796  0.2583  0.3978
  435MPD2     H 6540   2.952   2.631  15.881 -0.8095  1.4104 -0.7243
  435MPD2    H1 6541   3.305   2.552  15.641  0.8300  0.3191 -0.9810
  435MPD2    H2 6542   3.017   2.786  15.481 -0.7422  1.0347  1.3830
  435MPD2    H3 6543   3.223   2.682  15.472 -0.4984  1.6198 -0.0237
  435MPD2     N 6544   3.166   2.498  15.893  0.8908 -0.6397  0.0970
  435MPD2    H5 6545   3.119   2.503  15.982 -1.0489  0.0441 -0.9535
  435MPD2    N1 6546   2.837   2.768  15.713  0.4445  0.1223 -0.9160
  435MPD2    H7 6547   2.784   2.728  15.791  0.8419 -2.4850 -1.9700
  436TMC3    C1 6548   2.453   2.868  15.815  0.1612  0.4884  0.4355
  436TMC3    C2 6549   2.565   2.807  15.762 -0.3597  0.4349 -0.8353
  436TMC3    C3 6550   2.637   2.885  15.674  0.4546  0.1908  0.2693
  436TMC3    C4 6551   2.402   2.987  15.777  0.1309  0.9548 -0.0456
  436TMC3    C5 6552   2.471   3.049  15.688 -0.5930  0.2899  0.2036
  436TMC3    C6 6553   2.585   3.003  15.628  0.3740 -0.6350 -0.6022
  436TMC3     C 6554   2.410   2.814  15.943  0.0452  0.9782  0.3012
  436TMC3     O 6555   2.469   2.710  15.973  0.1908  0.3694 -0.3751
  436TMC3     H 6556   2.612   2.717  15.800 -0.5501  1.4910  1.9409
  436TMC3    H1 6557   2.315   3.040  15.813 -0.3586  1.1936 -1.6047
  436TMC3    H2 6558   2.634   3.060  15.550 -1.2815 -1.1926 -2.0660
  436TMC3    C7 6559   2.423   3.167  15.634  0.7299  0.7483 -0.0207
  436TMC3    C8 6560   2.773   2.854  15.633  0.0679 -0.2751  0.1863
  436TMC3    O1 6561   2.503   3.250  15.590  0.2962  0.2534 -0.2302
  436TMC3    O2 6562   2.815   2.896  15.528 -0.4279 -0.3127 -0.2466
  437TMC3    C1 6563   0.907   4.491  13.351 -0.1179  0.8163 -0.4192
  437TMC3    C2 6564   0.779   4.498  13.316 -0.0368 -0.0687 -0.1757
  437TMC3    C3 6565   0.732   4.601  13.235 -0.8955 -0.2021  0.4755
  437TMC3    C4 6566   1.003   4.566  13.289  0.1705 -0.3869  0.6260
  437TMC3    C5 6567   0.959   4.665  13.203  0.4544  0.5327 -0.0505
  437TMC3    C6 6568   0.823   4.684  13.177 -0.8132 -0.4909 -0.4747
  437TMC3     C 6569   0.949   4.368  13.415 -0.0500  0.4291 -0.2166
  437TMC3     O 6570   1.026   4.379  13.505  0.3739  0.3420 -0.1643
  437TMC3     H 6571   0.709   4.424  13.353  0.2657  0.2877  1.1411
  437TMC3    H1 6572   1.104   4.550  13.323  0.7254  2.5732  0.3421
  437TMC3    H2 6573   0.797   0.009  13.093 -1.6019  0.9527  0.8546
  437TMC3    C7 6574   1.056   0.016  13.140 -0.4540  0.2810  0.1587
  437TMC3    C8 6575   0.591   4.622  13.221  0.1556 -0.1810 -0.6747
  437TMC3    O1 6576   1.004   0.113  13.093  0.0809  0.0142 -0.1341
  437TMC3    O2 6577   0.511   4.534  13.259 -0.6038  0.1582 -0.0800
  438MPD2     C 6578   4.210   1.047  16.338 -0.1818 -0.1960  0.1523
  438MPD2    C1 6579   4.256   0.946  16.424 -0.5029 -0.7281  0.4707
  438MPD2    C2 6580   4.166   0.900  16.516 -0.5383 -0.2689  0.4601
  438MPD2    C3 6581   4.042   0.961  16.533 -0.2690 -0.6384  0.6673
  438MPD2    C4 6582   4.006   1.070  16.452  1.0150 -0.5947 -0.0624
  438MPD2    C5 6583   4.085   1.105  16.354 -0.3720  0.4819  0.0243
  438MPD2     H 6584   4.201   0.816  16.574 -1.1639  1.1990  2.9696
  438MPD2    H1 6585   3.908   1.115  16.462  0.6916 -0.9642 -1.5123
  438MPD2    H2 6586   4.271   1.082  16.256 -0.1951 -2.0050 -0.6330
  438MPD2    H3 6587   4.053   1.178  16.281  1.3205  0.6390 -0.5557
  438MPD2     N 6588   3.944   0.927  16.625  0.5825  0.0569  0.2415
  438MPD2    H5 6589   3.871   0.994  16.646  1.4991  1.5256 -1.2883
  438MPD2    N1 6590   4.380   0.881  16.403 -0.0972 -0.2845  0.0123
  438MPD2    H7 6591   4.403   0.807  16.468 -1.6567 -0.7668  0.0173
  439TMC3    C1 6592   4.543   0.777  16.268 -0.7109  0.3568 -0.3151
  439TMC3    C2 6593   4.544   0.732  16.141 -0.8782 -0.2832  0.9687
  439TMC3    C3 6594   4.595   0.609  16.113  0.6935 -0.1798  0.4574
  439TMC3    C4 6595   4.579   0.694  16.373 -0.4566  0.1562 -0.2567
  439TMC3    C5 6596   4.614   0.562  16.344 -0.4820  0.2387  0.4325
  439TMC3    C6 6597   4.621   0.519  16.217  0.4685 -0.2997  0.3276
  439TMC3     C 6598   4.459   0.891  16.288 -0.1004  0.0627 -0.3410
  439TMC3     O 6599   4.440   0.962  16.190 -0.5759  0.2713 -0.2056
  439TMC3     H 6600   4.517   0.801  16.062  1.2485 -0.2287  0.2796
  439TMC3    H1 6601   4.579   0.724  16.477  2.0798 -0.0219 -0.2039
  439TMC3    H2 6602   4.673   0.427  16.188  0.8189  0.4159 -1.3602
  439TMC3    C7 6603   4.640   0.457  16.445 -0.0978 -0.8148 -0.3537
  439TMC3    C8 6604   4.564   0.548  15.984  0.2018 -0.6542 -0.0554
  439TMC3    O1 6605   4.687   0.492  16.548 -0.2939 -0.1006  0.1607
  439TMC3    O2 6606   4.615   0.442  15.970 -0.5327 -0.6075 -0.4930
  440MPD2     C 6607   2.685   0.652  15.012  0.7610 -0.3149  0.2472
  440MPD2    C1 6608   2.733   0.772  15.059  0.4479  0.0568  0.3592
  440MPD2    C2 6609   2.873   0.784  15.055  0.2657  0.7574 -0.5627
  440MPD2    C3 6610   2.957   0.685  15.017 -0.8463  0.1724 -0.0444
  440MPD2    C4 6611   2.902   0.559  14.981  0.2211  0.6172  0.4544
  440MPD2    C5 6612   2.768   0.545  14.980  0.1797  0.4256 -1.0355
  440MPD2     H 6613   2.918   0.881  15.076  1.5572  0.0364  0.0602
  440MPD2    H1 6614   2.956   0.467  14.965 -1.6774 -0.3500 -0.3634
  440MPD2    H2 6615   2.579   0.628  15.012  0.5100  0.7073  2.9901
  440MPD2    H3 6616   2.722   0.448  14.965  0.1731  0.5102 -1.5596
  440MPD2     N 6617   3.094   0.694  15.025 -0.1686 -0.3246 -0.5406
  440MPD2    H5 6618   3.139   0.609  14.993  0.2190 -0.6504  0.8573
  440MPD2    N1 6619   2.654   0.883  15.106 -0.5597  0.3371  0.0949
  440MPD2    H7 6620   2.707   0.964  15.137 -2.2160  1.7778 -0.8260
  441TMC3    C1 6621   3.303   0.743  15.108 -0.3520 -0.5867 -0.0085
  441TMC3    C2 6622   3.384   0.847  15.137 -0.2503  0.6093  0.4749
  441TMC3    C3 6623   3.445   0.847  15.262  0.3709 -0.7596  0.0763
  441TMC3    C4 6624   3.289   0.640  15.195 -0.1217  0.1783  0.2793
  441TMC3    C5 6625   3.358   0.632  15.314  0.6266 -0.2849 -0.3768
  441TMC3    C6 6626   3.440   0.742  15.351 -0.6257  0.6594 -0.7805
  441TMC3     C 6627   3.177   0.799  15.069  0.0643 -0.3726 -0.3321
  441TMC3     O 6628   3.153   0.908  15.115  0.5756  0.1311 -0.3671
  441TMC3     H 6629   3.396   0.931  15.069 -3.1373  1.4055  0.9504
  441TMC3    H1 6630   3.217   0.560  15.182  1.1271 -0.7845 -0.7073
  441TMC3    H2 6631   3.475   0.757  15.453  0.3781  1.5754 -1.2555
  441TMC3    C7 6632   3.275   0.582  15.421 -0.7227  0.6222 -0.1536
  441TMC3    C8 6633   3.471   0.965  15.323 -0.1258 -0.2958  0.2856
  441TMC3    O1 6634   3.154   0.596  15.420  0.6220  0.3781 -1.2211
  441TMC3    O2 6635   3.554   0.968  15.413 -0.6654  0.3929  0.6371
  442MPD2     C 6636   1.440   0.766  16.810 -0.2324 -0.6236 -0.5505
  442MPD2    C1 6637   1.321   0.830  16.781 -0.5053  0.0012  0.3470
  442MPD2    C2 6638   1.250   0.803  16.670 -0.1366  0.0468 -0.2274
  442MPD2    C3 6639   1.292   0.700  16.585 -0.1846 -0.7435 -0.7105
  442MPD2    C4 6640   1.407   0.631  16.608  0.2616  0.3736 -0.2843
  442MPD2    C5 6641   1.479   0.670  16.726 -0.3009 -0.4568 -0.5431
  442MPD2     H 6642   1.169   0.872  16.649  0.2737  0.7585  0.5680
  442MPD2    H1 6643   1.432   0.538  16.558 -3.1039  0.1259 -1.5036
  442MPD2    H2 6644   1.490   0.773  16.906 -0.7043 -0.1964 -0.3347
  442MPD2    H3 6645   1.554   0.597  16.756  0.7038  0.9620  0.3670
  442MPD2     N 6646   1.223   0.657  16.465 -0.5650  0.3660 -0.4271
  442MPD2    H5 6647   1.271   0.582  16.417 -2.3896 -0.5923 -0.7445
  442MPD2    N1 6648   1.284   0.937  16.858 -0.6362  0.6136  0.9639
  442MPD2    H7 6649   1.193   0.975  16.832 -0.3139 -0.2630 -1.3907
  443TMC3    C1 6650   1.282   1.102  17.023 -1.3324  0.2284  0.0787
  443TMC3    C2 6651   1.263   1.202  16.937 -0.4457 -0.6463  0.1046
  443TMC3    C3 6652   1.188   1.306  16.981  1.1630 -0.4955 -0.1142
  443TMC3    C4 6653   1.234   1.099  17.146 -0.1079 -0.0083 -0.2058
  443TMC3    C5 6654   1.160   1.205  17.187  0.3945  0.5734 -0.5837
  443TMC3    C6 6655   1.139   1.312  17.104  0.8597  0.4663 -0.3373
  443TMC3     C 6656   1.348   0.989  16.969  0.2496  0.0776 -0.3156
  443TMC3     O 6657   1.442   0.949  17.037  0.2218 -0.0665  0.1238
  443TMC3     H 6658   1.271   1.189  16.830  1.4783  0.7290  0.0837
  443TMC3    H1 6659   1.212   1.004  17.193 -0.7831 -0.2680 -1.0536
  443TMC3    H2 6660   1.066   1.388  17.130  0.3476 -0.4898  1.0020
  443TMC3    C7 6661   1.039   1.174  17.253  0.1309 -0.8102  0.2486
  443TMC3    C8 6662   1.112   1.364  16.872  0.6443  0.3361  0.1357
  443TMC3    O1 6663   1.020   1.230  17.362 -0.2361  0.3746  0.2769
  443TMC3    O2 6664   1.028   1.295  16.822  0.1091  0.0125 -0.2201
  444MPD2     C 6665   1.336   0.787  17.336  0.5548  0.3866 -0.6265
  444MPD2    C1 6666   1.230   0.742  17.258  0.5861  0.5992 -0.4950
  444MPD2    C2 6667   1.258   0.654  17.148  0.4500  0.1563  0.1909
  444MPD2    C3 6668   1.387   0.611  17.127  0.1999  0.2333  0.5237
  444MPD2    C4 6669   1.493   0.667  17.197 -0.8368 -0.5361  0.0999
  444MPD2    C5 6670   1.465   0.751  17.301  0.0899 -0.0010  0.7846
  444MPD2     H 6671   1.177   0.612  17.089 -0.6465  1.3919  0.7821
  444MPD2    H1 6672   1.596   0.642  17.175 -1.1335 -0.4586 -1.3230
  444MPD2    H2 6673   1.330   0.871  17.404  0.2093  0.5331 -0.8316
  444MPD2    H3 6674   1.553   0.795  17.346 -0.1539 -0.7406  1.9845
  444MPD2     N 6675   1.419   0.508  17.034 -0.3606 -0.0638  0.0258
  444MPD2    H5 6676   1.344   0.485  16.970  1.7656  0.7959 -2.7538
  444MPD2    N1 6677   1.099   0.763  17.302  0.7489 -0.1259 -0.5298
  444MPD2    H7 6678   1.026   0.716  17.250 -0.5276 -1.0995  2.1430
  445TMC3    C1 6679   1.552   0.355  16.920  0.1795  0.1397 -0.1417
  445TMC3    C2 6680   1.449   0.310  16.844 -0.3476 -0.3586 -0.0926
  445TMC3    C3 6681   1.476   0.250  16.718  0.4839  0.3290 -0.3777
  445TMC3    C4 6682   1.680   0.322  16.887 -0.4260  0.0285  0.2076
  445TMC3    C5 6683   1.708   0.284  16.763 -0.5516 -0.3390  0.0897
  445TMC3    C6 6684   1.605   0.244  16.676  0.4166 -0.8753 -0.5377
  445TMC3     C 6685   1.539   0.443  17.030 -1.0809  0.0037 -0.8911
  445TMC3     O 6686   1.618   0.436  17.127 -0.2132 -0.2656 -0.1292
  445TMC3     H 6687   1.346   0.322  16.877  0.4151 -0.8614  2.5055
  445TMC3    H1 6688   1.755   0.356  16.957 -1.3542  0.5843  0.9327
  445TMC3    H2 6689   1.625   0.233  16.570 -0.1154  0.5224 -0.7731
  445TMC3    C7 6690   1.830   0.298  16.699  0.7035  0.1819 -0.1515
  445TMC3    C8 6691   1.372   0.244  16.620 -0.5418  0.2664 -0.0472
  445TMC3    O1 6692   1.833   0.295  16.577 -0.6118 -0.4770  0.2361
  445TMC3    O2 6693   1.287   0.335  16.618  0.1543  0.5880  0.3462
  446MPD2     C 6694   0.237   2.071  10.417 -0.0648  0.1324 -0.0774
  446MPD2    C1 6695   0.159   2.105  10.524 -0.3893 -0.7464  0.8534
  446MPD2    C2 6696   0.213   2.141  10.646 -0.3955 -0.0442  0.5809
  446MPD2    C3 6697   0.353   2.127  10.661  0.1849  0.5344  0.7119
  446MPD2    C4 6698   0.432   2.096  10.554  1.0049  0.1915  0.0280
  446MPD2    C5 6699   0.371   2.071  10.437  0.6773 -0.1273  0.3723
  446MPD2     H 6700   0.153   2.137  10.735 -1.5516 -0.5661 -0.2229
  446MPD2    H1 6701   0.540   2.084  10.562  0.7462 -0.8190  1.8333
  446MPD2    H2 6702   0.198   2.050  10.318 -1.1827 -0.2826  0.4551
  446MPD2    H3 6703   0.426   2.040  10.349  1.6599 -1.2276  1.3874
  446MPD2     N 6704   0.404   2.149  10.792  0.1058 -0.3810  0.5800
  446MPD2    H5 6705   0.339   2.199  10.853  2.7101  0.9907  2.2125
  446MPD2    N1 6706   0.017   2.109  10.502 -0.2262 -0.1676 -0.4270
  446MPD2    H7 6707   4.692   2.119  10.580 -1.9152 -0.2775 -1.7919
  447TMC3    C1 6708   0.560   2.190  10.973 -0.1278  0.0574  0.2567
  447TMC3    C2 6709   0.485   2.309  10.990  0.0473  0.3496 -1.1393
  447TMC3    C3 6710   0.546   2.416  11.065 -0.1142  0.2028  0.4535
  447TMC3    C4 6711   0.686   2.181  11.020 -0.1341  0.0768  0.0373
  447TMC3    C5 6712   0.743   2.290  11.091 -0.3963  0.0882 -0.1698
  447TMC3    C6 6713   0.671   2.405  11.115 -0.1229  1.2243 -0.1508
  447TMC3     C 6714   0.526   2.117  10.846 -0.0889  0.0480  0.1581
  447TMC3     O 6715   0.613   2.052  10.792  0.2334 -0.7033  0.0424
  447TMC3     H 6716   0.390   2.327  10.942 -1.2359 -0.1046  1.2415
  447TMC3    H1 6717   0.739   2.089  10.997  2.4991  1.4295  0.6872
  447TMC3    H2 6718   0.705   2.480  11.186 -0.2239  0.5775  0.5792
  447TMC3    C7 6719   0.885   2.279  11.122  1.1821 -0.4513  0.7290
  447TMC3    C8 6720   0.470   2.541  11.074 -0.0840  0.1961 -0.6147
  447TMC3    O1 6721   0.937   2.169  11.088  0.0099 -0.0870  0.1798
  447TMC3    O2 6722   0.352   2.514  11.072  0.4315  0.3702 -0.2933
  448TMC3    C1 6723   4.131   2.412  16.935 -0.1183 -1.3125 -0.0224
  448TMC3    C2 6724   4.106   2.322  16.833 -0.2637  0.5437 -0.1419
  448TMC3    C3 6725   4.091   2.191  16.868 -0.0189  0.7943  0.1012
  448TMC3    C4 6726   4.132   2.372  17.066 -0.3957  0.1041  0.0007
  448TMC3    C5 6727   4.117   2.237  17.100  0.4345 -0.1864 -0.4423
  448TMC3    C6 6728   4.094   2.143  16.999 -0.0934  0.2663 -0.5854
  448TMC3     C 6729   4.177   2.540  16.909 -0.3092 -0.1308 -0.1917
  448TMC3     O 6730   4.200   2.616  17.007 -0.4601 -0.4837  0.1742
  448TMC3     H 6731   4.100   2.348  16.728  1.0563  0.2823 -0.2816
  448TMC3    H1 6732   4.162   2.439  17.145  0.1253  2.2457 -1.9869
  448TMC3    H2 6733   4.096   2.035  17.012 -0.7276  0.4919  1.4607
  448TMC3    C7 6734   4.177   2.194  17.216  0.1732 -0.3655  0.3201
  448TMC3    C8 6735   4.110   2.086  16.762  0.5074  0.0365 -0.4579
  448TMC3    O1 6736   4.230   2.280  17.280  0.7462 -0.8233  0.2017
  448TMC3    O2 6737   4.154   1.983  16.809 -0.4494  0.3127  0.5995
  449MPD2     C 6738   0.439   0.524  14.100  0.2873  0.7058 -0.7552
  449MPD2    C1 6739   0.302   0.540  14.070  0.1171  0.1890  0.2611
  449MPD2    C2 6740   0.214   0.438  14.099  0.4774  0.0170 -0.6850
  449MPD2    C3 6741   0.255   0.322  14.166  0.1341 -0.0849  0.0984
  449MPD2    C4 6742   0.388   0.305  14.187 -0.9572 -0.2677 -0.3446
  449MPD2    C5 6743   0.482   0.404  14.155 -0.0966 -0.1905 -0.2243
  449MPD2     H 6744   0.111   0.445  14.067 -0.3280 -0.3504  1.8317
  449MPD2    H1 6745   0.431   0.210  14.218 -0.4953 -0.1001 -0.4824
  449MPD2    H2 6746   0.509   0.593  14.056  1.8011  0.1193  0.7070
  449MPD2    H3 6747   0.587   0.382  14.175 -0.1784  0.1759  0.5890
  449MPD2     N 6748   0.151   0.243  14.208  0.1505  0.3821  0.4498
  449MPD2    H5 6749   0.057   0.276  14.189 -0.6327 -2.5988 -0.8077
  449MPD2    N1 6750   0.247   0.650  13.998 -0.1030  0.4596  0.5758
  449MPD2    H7 6751   0.148   0.649  13.977 -0.5954  2.6270  2.7736
  450TMC3    C1 6752   0.225   0.835  13.879  0.2473 -0.7025  0.0802
  450TMC3    C2 6753   0.270   0.831  13.745 -0.3865  0.7078  0.9011
  450TMC3    C3 6754   0.180   0.814  13.645  0.4105 -0.0641  0.5904
  450TMC3    C4 6755   0.090   0.835  13.900  0.6187 -0.8887 -0.4008
  450TMC3    C5 6756   0.010   0.799  13.795 -0.7694  0.4001  0.7662
  450TMC3    C6 6757   0.052   0.799  13.665 -0.2086 -0.3503 -0.1561
  450TMC3     C 6758   0.313   0.758  13.953 -0.2021  0.6544 -0.1727
  450TMC3     O 6759   0.428   0.793  13.967 -0.3720  0.4063  0.4960
  450TMC3     H 6760   0.374   0.854  13.723 -1.1153  2.7693 -0.3160
  450TMC3    H1 6761   0.042   0.836  13.997 -0.3535 -0.4178 -0.8928
  450TMC3    H2 6762   4.738   0.744  13.589  1.4813  0.3850 -1.8529
  450TMC3    C7 6763   4.669   0.684  13.839 -0.1984  1.0502  0.1905
  450TMC3    C8 6764   0.223   0.780  13.512 -0.3239 -0.0410  0.2318
  450TMC3    O1 6765   4.712   0.622  13.936 -0.4391 -0.5581  0.5233
  450TMC3    O2 6766   0.139   0.807  13.430  0.5252 -0.2911 -0.3227
  451MPD2     C 6767   1.907   3.476   1.251 -0.2097 -0.6277  0.5605
  451MPD2    C1 6768   1.901   3.441   1.115 -0.2226  0.0182  0.5071
  451MPD2    C2 6769   2.015   3.436   1.040  0.7092 -0.0784 -0.1010
  451MPD2    C3 6770   2.141   3.462   1.096 -0.0452 -0.3141  0.4918
  451MPD2    C4 6771   2.147   3.495   1.233 -0.1672 -0.6617 -0.0263
  451MPD2    C5 6772   2.029   3.504   1.303 -0.3033  0.5739 -0.3023
  451MPD2     H 6773   2.006   3.410   0.935 -1.3490 -2.0000  0.5571
  451MPD2    H1 6774   2.245   3.507   1.277  0.3134 -1.1940 -0.9710
  451MPD2    H2 6775   1.820   3.482   1.316 -0.4276  1.0795  0.0964
  451MPD2    H3 6776   2.033   3.524   1.409 -0.1853 -1.2285  0.0421
  451MPD2     N 6777   2.251   3.471   1.014  0.0764  0.1496 -0.4075
  451MPD2    H5 6778   2.231   3.460   0.915 -3.4758 -2.1016  0.5515
  451MPD2    N1 6779   1.770   3.458   1.065 -0.2366  0.0354  0.9958
  451MPD2    H7 6780   1.705   3.488   1.137 -0.8608  1.1168 -0.0161
  452TMC3    C1 6781   2.467   3.500   0.927 -0.2265 -0.2237 -0.2970
  452TMC3    C2 6782   2.420   3.428   0.821  0.4094  0.7311  0.6346
  452TMC3    C3 6783   2.447   3.468   0.695  0.4307 -0.4713 -0.0781
  452TMC3    C4 6784   2.547   3.613   0.911  0.2590  0.3559  0.2949
  452TMC3    C5 6785   2.572   3.646   0.783  0.4708  0.8706  0.0772
  452TMC3    C6 6786   2.528   3.574   0.672  0.3261 -0.3988 -0.2031
  452TMC3     C 6787   2.386   3.491   1.048  0.2651 -0.4918 -0.1714
  452TMC3     O 6788   2.441   3.533   1.150 -0.1935  0.1838  0.0607
  452TMC3     H 6789   2.359   3.341   0.845 -1.7237  2.4001  1.3185
  452TMC3    H1 6790   2.605   3.655   0.992 -2.4266  1.5379  1.6165
  452TMC3    H2 6791   2.544   3.611   0.571  1.5743  0.7394  0.4215
  452TMC3    C7 6792   2.669   3.751   0.761 -0.1050 -0.0276 -0.3451
  452TMC3    C8 6793   2.370   3.418   0.584 -0.5497 -0.2177  0.1171
  452TMC3    O1 6794   2.737   3.724   0.664 -0.2798  0.1419  1.0252
  452TMC3    O2 6795   2.267   3.361   0.619  0.0772  0.2403 -0.0163
  453TMC3    C1 6796   2.663   1.197  12.174  0.0731  0.5152  0.3924
  453TMC3    C2 6797   2.601   1.079  12.189 -0.5600  0.3736  0.2305
  453TMC3    C3 6798   2.479   1.067  12.121 -0.4711 -0.4671 -0.0610
  453TMC3    C4 6799   2.614   1.306  12.110  0.4318 -1.1049 -0.9586
  453TMC3    C5 6800   2.489   1.285  12.062 -0.1404 -0.5595 -0.3039
  453TMC3    C6 6801   2.408   1.177  12.070  0.9444  0.4233 -0.0461
  453TMC3     C 6802   2.804   1.209  12.212  0.0679  0.2196  0.3326
  453TMC3     O 6803   2.879   1.295  12.161 -0.0724 -0.2249  0.4405
  453TMC3     H 6804   2.657   0.992  12.222 -1.0944 -0.3870 -0.8475
  453TMC3    H1 6805   2.670   1.398  12.096 -0.3395 -0.4650  0.1817
  453TMC3    H2 6806   2.312   1.164  12.022 -0.4328  1.3015  2.4730
  453TMC3    C7 6807   2.418   1.394  11.998  0.1891 -0.6247 -0.3408
  453TMC3    C8 6808   2.414   0.936  12.110  0.6224 -0.1688  0.5676
  453TMC3    O1 6809   2.325   1.362  11.918 -0.1095 -0.1504  0.4077
  453TMC3    O2 6810   2.312   0.936  12.048  0.2315  0.5863 -0.0316
  454MPD2     C 6811   1.974   1.010  16.007  0.8630 -0.2855 -0.1282
  454MPD2    C1 6812   1.974   0.870  16.022 -0.6941 -0.5702  0.5486
  454MPD2    C2 6813   1.982   0.812  16.146 -0.7888  0.1960  0.0294
  454MPD2    C3 6814   1.964   0.888  16.258  0.2107 -0.3007 -0.9030
  454MPD2    C4 6815   1.950   1.023  16.247 -0.6190 -0.5440 -0.4620
  454MPD2    C5 6816   1.976   1.080  16.123 -0.2802 -0.2178  0.7218
  454MPD2     H 6817   1.993   0.704  16.151  2.1010  0.3742 -1.9966
  454MPD2    H1 6818   1.938   1.093  16.328  2.7804  0.1248 -0.5367
  454MPD2    H2 6819   1.993   1.068  15.918 -0.3349  1.6473  0.8615
  454MPD2    H3 6820   1.994   1.187  16.119 -0.6810 -0.1628  0.3777
  454MPD2     N 6821   1.951   0.834  16.387 -0.2599 -0.6414  0.7465
  454MPD2    H5 6822   1.907   0.887  16.461 -0.8464 -1.3951  0.9413
  454MPD2    N1 6823   1.995   0.784  15.910 -0.0200  0.1997  0.6243
  454MPD2    H7 6824   1.990   0.684  15.927  3.4163 -0.3019 -1.3273
  455TMC3    C1 6825   1.860   0.653  16.484  0.0067  0.6033 -0.4972
  455TMC3    C2 6826   1.768   0.756  16.507  0.2310  0.6844  0.3405
  455TMC3    C3 6827   1.664   0.779  16.424 -0.1743 -0.2803  0.1744
  455TMC3    C4 6828   1.815   0.549  16.404  0.1972 -0.5579 -0.3138
  455TMC3    C5 6829   1.696   0.560  16.340 -0.2876 -0.7190  0.0566
  455TMC3    C6 6830   1.619   0.676  16.345 -0.1951 -0.5422  0.5757
  455TMC3     C 6831   1.977   0.702  16.417  0.0101  0.1798 -0.1891
  455TMC3     O 6832   2.034   0.621  16.345 -0.5010 -0.0159  0.4088
  455TMC3     H 6833   1.800   0.824  16.585  1.1766  1.0623 -0.3615
  455TMC3    H1 6834   1.886   0.471  16.378  2.4264  0.6687  2.0875
  455TMC3    H2 6835   1.524   0.692  16.294 -0.1105  0.1873  0.6545
  455TMC3    C7 6836   1.644   0.445  16.274 -0.1082 -0.5683  0.6146
  455TMC3    C8 6837   1.571   0.895  16.437  0.1979  0.0895  0.0888
  455TMC3    O1 6838   1.576   0.469  16.173 -0.2970  0.2342 -0.3652
  455TMC3    O2 6839   1.486   0.915  16.350 -0.1502  0.3041  0.1198
  456MPD2     C 6840   4.359   1.089  15.659  0.4309 -0.7346 -0.4926
  456MPD2    C1 6841   4.464   1.041  15.740  0.3393 -0.1338  0.3270
  456MPD2    C2 6842   4.483   1.088  15.870 -0.1081  0.7015  0.2623
  456MPD2    C3 6843   4.384   1.177  15.921 -0.2700 -0.7975  0.3154
  456MPD2    C4 6844   4.270   1.210  15.852  1.0483 -0.3426 -0.4359
  456MPD2    C5 6845   4.253   1.157  15.722  0.1557 -0.3094  0.5388
  456MPD2     H 6846   4.577   1.066  15.919 -0.3335 -0.3297  0.2289
  456MPD2    H1 6847   4.184   1.259  15.897  3.0605  1.9596  0.9153
  456MPD2    H2 6848   4.332   1.053  15.561  1.2525 -1.4131 -0.4695
  456MPD2    H3 6849   4.161   1.173  15.667  2.2408 -0.0888 -2.8548
  456MPD2     N 6850   4.405   1.222  16.055 -0.2865 -0.4343 -0.4624
  456MPD2    H5 6851   4.483   1.180  16.104 -1.2685 -1.0008  0.6389
  456MPD2    N1 6852   4.545   0.949  15.678 -0.2181 -0.4394 -0.0729
  456MPD2    H7 6853   4.530   0.934  15.579  1.2496  1.5685 -0.6100
  457TMC3    C1 6854   4.385   1.368  16.240  0.1410 -0.2918 -1.2837
  457TMC3    C2 6855   4.349   1.490  16.282  0.1479  0.1970 -0.0835
  457TMC3    C3 6856   4.384   1.538  16.407  0.0223 -0.0513 -1.0993
  457TMC3    C4 6857   4.465   1.292  16.314 -0.4224  0.5479  0.0746
  457TMC3    C5 6858   4.497   1.334  16.436 -0.1092 -0.9169  0.2628
  457TMC3    C6 6859   4.447   1.457  16.491 -1.1860  0.1186 -0.3462
  457TMC3     C 6860   4.339   1.329  16.110 -0.1540 -0.0470  0.2589
  457TMC3     O 6861   4.240   1.391  16.076  0.4170  0.0580 -0.0928
  457TMC3     H 6862   4.298   1.554  16.211  2.4923  0.5010 -1.4900
  457TMC3    H1 6863   4.499   1.193  16.282 -1.6265 -0.3123  1.4717
  457TMC3    H2 6864   4.476   1.491  16.590 -0.4670 -1.0924 -0.1482
  457TMC3    C7 6865   4.555   1.246  16.536  0.1447 -0.0608 -0.2611
  457TMC3    C8 6866   4.323   1.661  16.456  0.1461 -0.6029  0.4146
  457TMC3    O1 6867   4.507   1.247  16.651 -1.1293 -0.1536 -0.0518
  457TMC3    O2 6868   4.319   1.665  16.576  0.1133  0.0383 -0.6726
  458MPD2     C 6869   1.483   0.163  12.909 -0.7691  0.9059  0.3329
  458MPD2    C1 6870   1.520   0.075  13.004  0.1987 -0.2046 -0.1551
  458MPD2    C2 6871   1.420   0.023  13.083 -0.1397  0.4478  0.0206
  458MPD2    C3 6872   1.285   0.045  13.057  0.1254 -0.2534 -0.2669
  458MPD2    C4 6873   1.261   0.131  12.959  0.5336  0.2673  0.0748
  458MPD2    C5 6874   1.356   0.180  12.876  0.0569 -0.2390 -0.2341
  458MPD2     H 6875   1.453   4.709  13.172  1.4650  0.4678 -0.5673
  458MPD2    H1 6876   1.158   0.160  12.944 -0.6725 -3.6292  0.8517
  458MPD2    H2 6877   1.553   0.210  12.840 -0.5940  0.0558 -0.0587
  458MPD2    H3 6878   1.323   0.245  12.796  1.1054  1.3756  0.6642
  458MPD2     N 6879   1.188   4.722  13.140 -0.1553 -0.1048  0.1091
  458MPD2    H5 6880   1.215   4.638  13.190  1.0716 -0.5736 -1.3347
  458MPD2    N1 6881   1.662   0.059  13.016  0.2173 -0.3120  0.0601
  458MPD2    H7 6882   1.713   0.110  12.944  1.0241 -2.2296 -0.7050
  459TMC3    C1 6883   1.867   4.686  13.070 -0.0163 -0.1581 -0.6178
  459TMC3    C2 6884   1.928   0.027  12.974  0.1333 -0.4467 -0.0657
  459TMC3    C3 6885   2.066   0.026  12.963 -0.5413 -0.3620  0.2265
  459TMC3    C4 6886   1.942   4.606  13.154  0.4898 -0.1528  0.4558
  459TMC3    C5 6887   2.074   4.600  13.135  1.5147 -0.3572  0.8588
  459TMC3    C6 6888   2.139   4.681  13.045  0.3012 -0.2206  0.1644
  459TMC3     C 6889   1.727   4.712  13.105 -0.0558  0.0515 -0.0933
  459TMC3     O 6890   1.685   4.629  13.187 -0.1035 -0.0652 -0.3538
  459TMC3     H 6891   1.867   0.079  12.901 -2.3105 -1.9388  0.9360
  459TMC3    H1 6892   1.904   4.543  13.234 -2.3775  1.0828  0.0581
  459TMC3    H2 6893   2.248   4.686  13.040  0.3394  2.2258  3.2237
  459TMC3    C7 6894   2.149   4.503  13.212  0.3225  0.2080 -0.1969
  459TMC3    C8 6895   2.133   0.124  12.881 -0.9554 -0.0373 -0.2274
  459TMC3    O1 6896   2.219   4.415  13.161 -0.1844  0.1564  0.1355
  459TMC3    O2 6897   2.255   0.124  12.894 -0.1206  0.2535 -0.5789
  460MPD2     C 6898   0.539   2.902  11.044 -0.2760  0.4274 -0.0091
  460MPD2    C1 6899   0.477   2.785  11.023 -0.3334 -0.9783 -0.0010
  460MPD2    C2 6900   0.367   2.781  10.937  0.0687 -0.4296 -0.0230
  460MPD2    C3 6901   0.332   2.893  10.866  0.6464 -0.8280  0.4614
  460MPD2    C4 6902   0.397   3.007  10.889 -0.4460 -0.6006  0.3879
  460MPD2    C5 6903   0.499   3.017  10.986 -0.1688  0.2604 -0.0930
  460MPD2     H 6904   0.317   2.690  10.906 -3.9845  1.3105  1.4389
  460MPD2    H1 6905   0.392   3.099  10.832  1.7203 -0.0309  1.1202
  460MPD2    H2 6906   0.630   2.906  11.101 -1.5299 -1.0288  2.0760
  460MPD2    H3 6907   0.545   3.115  10.995 -0.6622  0.4872 -0.0785
  460MPD2     N 6908   0.241   2.875  10.762 -0.7540  0.4397 -0.1893
  460MPD2    H5 6909   0.201   2.783  10.749 -2.7660  0.9024  2.7567
  460MPD2    N1 6910   0.534   2.665  11.073  0.2309 -0.8282 -0.2219
  460MPD2    H7 6911   0.630   2.665  11.106 -0.1503 -0.1077  0.8765
  461TMC3    C1 6912   0.120   2.915  10.577  0.1598  0.1781  1.0956
  461TMC3    C2 6913   0.151   2.792  10.524 -0.4314  0.5313  0.4924
  461TMC3    C3 6914   0.089   2.749  10.411  0.0053  0.2450 -0.2104
  461TMC3    C4 6915   0.040   3.005  10.511  0.1918  0.0340  0.1804
  461TMC3    C5 6916   4.725   2.963  10.386  0.1528  0.1919  0.4216
  461TMC3    C6 6917   0.007   2.833  10.343  0.4297  0.6141  0.2354
  461TMC3     C 6918   0.202   2.970  10.673  0.1018  0.6296 -0.1965
  461TMC3     O 6919   0.210   3.090  10.680 -0.0029  0.1510 -0.2121
  461TMC3     H 6920   0.236   2.736  10.562 -1.8964 -0.7340  1.9141
  461TMC3    H1 6921   0.011   3.099  10.556 -0.9092  0.3053 -1.0980
  461TMC3    H2 6922   4.705   2.797  10.249 -0.8592  2.7662 -0.0173
  461TMC3    C7 6923   4.672   3.069  10.304 -0.6490 -0.0830  0.2545
  461TMC3    C8 6924   0.166   2.665  10.322  1.0509 -0.4374  0.3070
  461TMC3    O1 6925   4.669   3.180  10.346  0.1195 -0.0426  0.2172
  461TMC3    O2 6926   0.285   2.691  10.326  0.0865 -0.1256 -0.2583
  462TMC3    C1 6927   1.193   3.103  17.541  0.2713 -0.3096 -0.1838
  462TMC3    C2 6928   1.098   3.044  17.461  0.3589  0.2149 -0.0799
  462TMC3    C3 6929   1.107   2.908  17.464  0.2241 -0.3108  0.3809
  462TMC3    C4 6930   1.275   3.046  17.630  1.0276  0.0614 -0.0498
  462TMC3    C5 6931   1.273   2.912  17.634 -0.0347  0.6867 -1.0928
  462TMC3    C6 6932   1.187   2.837  17.551 -0.0500  0.5570 -0.1145
  462TMC3     C 6933   1.220   3.250  17.521 -0.0447  0.2995 -0.3233
  462TMC3     O 6934   1.325   3.293  17.566 -0.5045 -0.0652  0.1472
  462TMC3     H 6935   1.058   3.098  17.376 -3.6283 -0.0500  1.6340
  462TMC3    H1 6936   1.345   3.108  17.685  0.3933  0.3720  0.4107
  462TMC3    H2 6937   1.199   2.730  17.542  0.6726  0.3393  3.3743
  462TMC3    C7 6938   1.353   2.834  17.721  0.2891  0.3579  0.2750
  462TMC3    C8 6939   1.093   2.854  17.329 -0.2570 -0.6019 -0.5565
  462TMC3    O1 6940   1.311   2.719  17.751 -0.0313  0.0940  0.1205
  462TMC3    O2 6941   1.008   2.916  17.264  0.5706  0.0436  0.6089
  463MPD2     C 6942   2.931   1.661   1.620  0.0547 -0.0149 -0.3033
  463MPD2    C1 6943   2.846   1.762   1.584  0.0966  0.2722 -0.0196
  463MPD2    C2 6944   2.889   1.896   1.597  0.1189 -0.1419 -0.3745
  463MPD2    C3 6945   3.021   1.929   1.621 -0.2062 -0.1813  0.0017
  463MPD2    C4 6946   3.105   1.822   1.643 -0.4323  0.8373  0.1091
  463MPD2    C5 6947   3.058   1.690   1.645 -0.5942  1.1958 -1.1444
  463MPD2     H 6948   2.812   1.970   1.583  0.7093  0.7730  1.3321
  463MPD2    H1 6949   3.211   1.828   1.661 -0.2044 -3.5247  0.3723
  463MPD2    H2 6950   2.909   1.555   1.616 -1.7741  0.4387 -2.4765
  463MPD2    H3 6951   3.126   1.606   1.651 -2.2853 -0.2513 -2.0938
  463MPD2     N 6952   3.071   2.063   1.630  0.2143  0.0774  0.0285
  463MPD2    H5 6953   3.168   2.085   1.652  0.0810  0.9514 -0.2472
  463MPD2    N1 6954   2.710   1.744   1.552 -0.6454  0.7610  0.1040
  463MPD2    H7 6955   2.647   1.821   1.533 -1.4004 -0.4093 -2.1169
  464TMC3    C1 6956   2.514   1.638   1.482 -0.6321  0.5211 -0.2703
  464TMC3    C2 6957   2.446   1.753   1.514  0.4313 -0.1308 -0.0296
  464TMC3    C3 6958   2.331   1.781   1.442 -0.1691 -0.0693  0.2569
  464TMC3    C4 6959   2.476   1.558   1.379  0.0302 -0.5551 -0.5100
  464TMC3    C5 6960   2.356   1.590   1.314  0.4397 -0.2659  0.6266
  464TMC3    C6 6961   2.280   1.698   1.343  0.0026 -0.4497 -0.0682
  464TMC3     C 6962   2.653   1.619   1.531 -0.2427  0.3654 -0.3632
  464TMC3     O 6963   2.701   1.504   1.533 -0.1791  0.5927 -0.2488
  464TMC3     H 6964   2.478   1.824   1.589  0.8277 -1.0942  0.7125
  464TMC3    H1 6965   2.526   1.464   1.358 -0.2585 -0.6147 -0.9325
  464TMC3    H2 6966   2.189   1.726   1.291 -1.3812 -2.5938  1.1761
  464TMC3    C7 6967   2.300   1.479   1.233  0.2415 -0.1696  0.0170
  464TMC3    C8 6968   2.260   1.904   1.459  0.2275  0.4724  0.6224
  464TMC3    O1 6969   2.383   1.398   1.191  0.1352 -0.1173 -0.3265
  464TMC3    O2 6970   2.138   1.901   1.445 -0.9870  0.5201  0.4973
  465MPD2     C 6971   3.011   1.182  17.085 -0.0086  0.8851 -0.5081
  465MPD2    C1 6972   2.931   1.077  17.102  0.2043 -0.2431  0.3762
  465MPD2    C2 6973   2.831   1.056  17.011  0.3450 -0.4283 -0.2561
  465MPD2    C3 6974   2.805   1.153  16.918 -1.3980  0.0608 -0.2043
  465MPD2    C4 6975   2.882   1.266  16.905  0.2819  0.4400  0.9393
  465MPD2    C5 6976   2.984   1.280  16.988 -0.5138 -0.1302 -0.0657
  465MPD2     H 6977   2.780   0.961  17.006  2.2799 -1.3606 -2.1892
  465MPD2    H1 6978   2.880   1.327  16.815  1.7603  0.1498  0.7127
  465MPD2    H2 6979   3.098   1.203  17.147  0.2340 -0.0293 -0.5368
  465MPD2    H3 6980   3.036   1.375  16.988 -0.8851  0.0764 -1.3613
  465MPD2     N 6981   2.699   1.117  16.828  0.0270 -0.4135  0.1840
  465MPD2    H5 6982   2.665   1.023  16.844 -2.8155  1.1938  3.5894
  465MPD2    N1 6983   2.963   1.000  17.216 -0.6731 -0.1133  0.3567
  465MPD2    H7 6984   3.041   1.026  17.276 -1.0155 -2.8590  1.9917
  466TMC3    C1 6985   2.424   0.944  16.590 -0.2330  0.6776 -0.0261
  466TMC3    C2 6986   2.324   1.027  16.552 -0.1086 -0.5195  0.0545
  466TMC3    C3 6987   2.328   1.162  16.573  0.0083 -0.0884 -0.0681
  466TMC3    C4 6988   2.525   1.004  16.653  0.3240  0.8602 -0.3173
  466TMC3    C5 6989   2.528   1.140  16.676  0.3353 -0.6396  0.7616
  466TMC3    C6 6990   2.428   1.226  16.641  0.0483  0.2096 -0.2242
  466TMC3     C 6991   2.429   0.802  16.541  0.0811 -0.1566  0.0860
  466TMC3     O 6992   2.376   0.788  16.434  0.2834  0.1146  0.2763
  466TMC3     H 6993   2.239   0.993  16.494 -1.3574  1.7088  0.5516
  466TMC3    H1 6994   2.613   0.945  16.676 -1.1930 -0.2592  2.6910
  466TMC3    H2 6995   2.428   1.331  16.670 -0.2570  0.3570 -0.7638
  466TMC3    C7 6996   2.635   1.206  16.749  0.5106 -0.4625 -0.7321
  466TMC3    C8 6997   2.205   1.238  16.538 -0.0459  0.0242 -0.5229
  466TMC3    O1 6998   2.640   1.326  16.738  0.6317 -0.7472  0.3487
  466TMC3    O2 6999   2.122   1.189  16.461  0.2116  0.2274 -0.0939
  467TMC3    C1 7000   4.248   3.813  13.621  1.0615 -0.2894  0.1010
  467TMC3    C2 7001   4.202   3.796  13.494 -0.7099  0.1060 -0.5272
  467TMC3    C3 7002   4.070   3.809  13.471 -0.2920  0.0301 -0.4700
  467TMC3    C4 7003   4.164   3.841  13.725 -0.8130  0.5798 -0.5940
  467TMC3    C5 7004   4.030   3.850  13.695  0.0109 -0.0105  0.0238
  467TMC3    C6 7005   3.979   3.816  13.577 -0.4387 -0.1121 -0.4900
  467TMC3     C 7006   4.387   3.859  13.643  0.2874  0.2546 -0.7722
  467TMC3     O 7007   4.435   3.864  13.755  0.3968 -0.6202  0.3488
  467TMC3     H 7008   4.274   3.756  13.423 -0.0359  0.1416  0.1317
  467TMC3    H1 7009   4.205   3.871  13.820  0.0935 -1.9184 -0.1906
  467TMC3    H2 7010   3.873   3.830  13.554 -0.2151 -2.2181 -2.7622
  467TMC3    C7 7011   3.933   3.857  13.800  0.0493  0.8571 -0.1682
  467TMC3    C8 7012   4.046   3.909  13.371  0.1351  0.1197 -0.2948
  467TMC3    O1 7013   3.828   3.802  13.777 -0.2737 -0.3464  0.4918
  467TMC3    O2 7014   3.976   4.004  13.406 -0.3801  0.2831 -0.2424
  468MPD2     C 7015   2.227   2.867  10.557 -0.5745  0.5396 -0.3275
  468MPD2    C1 7016   2.346   2.794  10.573 -0.2613 -0.2729  0.0779
  468MPD2    C2 7017   2.346   2.657  10.557  0.5000 -0.2937  0.0574
  468MPD2    C3 7018   2.222   2.589  10.532  0.1808  0.3369  0.5097
  468MPD2    C4 7019   2.105   2.661  10.515 -0.0076 -0.1225 -0.7397
  468MPD2    C5 7020   2.114   2.798  10.525 -0.5341  0.0572 -0.7879
  468MPD2     H 7021   2.440   2.606  10.572  1.0860  0.9194  0.5154
  468MPD2    H1 7022   2.011   2.615  10.488 -0.4474  0.0211  0.5780
  468MPD2    H2 7023   2.215   2.975  10.567 -1.2655  0.2180  2.3767
  468MPD2    H3 7024   2.022   2.856  10.522 -1.5451 -1.4961  0.1146
  468MPD2     N 7025   2.211   2.443  10.509  0.3769 -0.5216 -0.5381
  468MPD2    H5 7026   2.116   2.410  10.497  0.9005 -2.1748 -0.1553
  468MPD2    N1 7027   2.462   2.854  10.616  0.0886  0.0211  0.1135
  468MPD2    H7 7028   2.547   2.800  10.627  0.3601  0.1962 -1.1396
  469TMC3    C1 7029   2.613   3.010  10.692  0.3654 -0.3569 -0.0217
  469TMC3    C2 7030   2.702   2.907  10.689  0.1731 -0.4446 -0.2341
  469TMC3    C3 7031   2.806   2.913  10.776 -0.4932  0.1038  0.0258
  469TMC3    C4 7032   2.621   3.110  10.791 -0.1590  0.0691 -0.1296
  469TMC3    C5 7033   2.712   3.106  10.890  0.0241  0.5744  0.0902
  469TMC3    C6 7034   2.810   3.007  10.874 -0.4216 -0.0310 -0.0225
  469TMC3     C 7035   2.480   2.991  10.648  0.1659  0.1553  0.1708
  469TMC3     O 7036   2.403   3.090  10.665 -0.4289  0.1078  0.1754
  469TMC3     H 7037   2.707   2.833  10.609 -1.4862  0.5574 -1.2723
  469TMC3    H1 7038   2.542   3.184  10.798  0.7404  1.0264 -0.0760
  469TMC3    H2 7039   2.893   3.006  10.945 -1.5978  1.2550  1.3761
  469TMC3    C7 7040   2.709   3.195  11.001 -0.3831  0.7482 -0.6333
  469TMC3    C8 7041   2.917   2.817  10.761 -0.4602 -0.0231 -0.1409
  469TMC3    O1 7042   2.662   3.303  10.969  0.4570 -0.0139 -0.0442
  469TMC3    O2 7043   2.962   2.780  10.652  0.3360  0.1296  0.1727
  470TMC3    C1 7044   0.627   3.227   0.324  0.2086 -0.2213  0.8999
  470TMC3    C2 7045   0.670   3.358   0.305  0.2660  0.2603 -0.0187
  470TMC3    C3 7046   0.787   3.390   0.372  0.4234 -0.5861  0.2024
  470TMC3    C4 7047   0.706   3.135   0.399  0.2517  0.0848 -0.7002
  470TMC3    C5 7048   0.819   3.179   0.459 -0.9079  1.0568 -0.7681
  470TMC3    C6 7049   0.866   3.306   0.441 -0.0449  0.3000  0.2222
  470TMC3     C 7050   0.502   3.178   0.261  0.4023 -1.1172 -0.3871
  470TMC3     O 7051   0.464   3.070   0.303  0.7317 -0.5622 -0.3899
  470TMC3     H 7052   0.608   3.428   0.250 -0.3863 -0.0306  0.3347
  470TMC3    H1 7053   0.662   3.036   0.407  0.7353 -0.1646 -1.1473
  470TMC3    H2 7054   0.935   3.350   0.511  1.5876 -1.5650 -0.1827
  470TMC3    C7 7055   0.841   3.104   0.587  0.0911  0.2870  0.1440
  470TMC3    C8 7056   0.789   3.528   0.407 -0.0982 -0.2860 -0.2815
  470TMC3    O1 7057   0.769   3.009   0.607  0.7369  0.7220  0.5682
  470TMC3    O2 7058   0.802   3.551   0.526 -0.0713  0.5519  0.0860
  471MPD2     C 7059   1.111   0.150  16.900 -0.5858 -0.2198 -0.7728
  471MPD2    C1 7060   1.155   0.030  16.859  0.8165  0.1851  0.9383
  471MPD2    C2 7061   1.268   4.721  16.925 -0.1628  0.3923 -0.2601
  471MPD2    C3 7062   1.320   0.047  17.034  0.9433  0.5119 -0.0520
  471MPD2    C4 7063   1.279   0.170  17.072 -0.6697 -0.0978  0.0816
  471MPD2    C5 7064   1.172   0.214  17.006 -0.2065 -0.5906 -0.3088
  471MPD2     H 7065   1.298   4.624  16.887  1.5700  0.6959  0.3478
  471MPD2    H1 7066   1.329   0.232  17.147  0.4602 -0.4232 -0.4054
  471MPD2    H2 7067   1.026   0.197  16.851  0.1934  0.8800 -1.0502
  471MPD2    H3 7068   1.133   0.306  17.049 -2.5056 -1.0781 -1.3439
  471MPD2     N 7069   1.422   4.733  17.117 -0.1292 -0.4306  0.3930
  471MPD2    H5 7070   1.440   0.037  17.207  0.0101  1.9755 -0.7708
  471MPD2    N1 7071   1.101   4.702  16.745  0.0291  0.0639 -0.7931
  471MPD2    H7 7072   1.145   4.612  16.727 -3.5865 -1.9304  0.2669
  472TMC3    C1 7073   0.960   4.667  16.555  0.0053 -0.9212 -0.5716
  472TMC3    C2 7074   0.855   4.707  16.481 -0.6978  0.1808 -0.4974
  472TMC3    C3 7075   0.817   4.622  16.381  0.2553  0.7425 -0.1440
  472TMC3    C4 7076   1.032   4.556  16.531 -0.6927 -0.0669  0.2874
  472TMC3    C5 7077   0.983   4.471  16.437 -0.0272 -0.0696  0.2009
  472TMC3    C6 7078   0.882   4.509  16.355 -0.6389 -0.6534 -0.2788
  472TMC3     C 7079   1.002   0.017  16.665 -0.0515 -0.5021  0.0487
  472TMC3     O 7080   0.955   0.127  16.656 -0.5268  0.1487 -0.2536
  472TMC3     H 7081   0.795   0.053  16.512 -1.2982  0.3479 -2.0885
  472TMC3    H1 7082   1.129   4.530  16.570 -0.2960 -0.5098 -0.9978
  472TMC3    H2 7083   0.865   4.442  16.272  3.3841 -0.6172 -1.1500
  472TMC3    C7 7084   0.970   4.339  16.498 -0.4541  0.2549 -0.0542
  472TMC3    C8 7085   0.685   4.586  16.405  0.0115  0.3414 -0.2529
  472TMC3    O1 7086   1.054   4.306  16.580 -0.6411 -0.2336 -0.3898
  472TMC3    O2 7087   0.665   4.541  16.519  0.5809  0.2400  0.3595
  473MPD2     C 7088   0.761   1.346  13.789  0.1908  0.5892 -0.1083
  473MPD2    C1 7089   0.697   1.438  13.709  0.1598  0.2268 -0.2434
  473MPD2    C2 7090   0.730   1.573  13.708  0.3826  0.2169  0.9174
  473MPD2    C3 7091   0.811   1.619  13.812  0.2852 -0.1364  0.6024
  473MPD2    C4 7092   0.866   1.533  13.901 -0.4577 -0.1562  0.1747
  473MPD2    C5 7093   0.836   1.398  13.894 -0.3554 -0.2464  0.8969
  473MPD2     H 7094   0.677   1.638  13.640  2.3241 -0.8137 -1.5840
  473MPD2    H1 7095   0.923   1.576  13.983  1.1522  0.7266 -1.4212
  473MPD2    H2 7096   0.723   1.244  13.792  1.2274  0.1969 -0.4433
  473MPD2    H3 7097   0.865   1.329  13.972  1.6944  1.0838  1.3280
  473MPD2     N 7098   0.837   1.758  13.842 -0.5454  0.2057 -0.5447
  473MPD2    H5 7099   0.898   1.793  13.915 -0.9896 -0.1622 -0.0024
  473MPD2    N1 7100   0.592   1.394  13.624 -0.2115 -0.0049  0.3354
  473MPD2    H7 7101   0.542   1.462  13.566 -0.2406 -0.4594 -0.1676
  474TMC3    C1 7102   0.819   1.989  13.833  0.7612 -0.6580  0.4528
  474TMC3    C2 7103   0.772   2.098  13.766  0.2976 -0.5926 -0.4080
  474TMC3    C3 7104   0.797   2.228  13.810 -0.0234  0.3455  0.4766
  474TMC3    C4 7105   0.872   1.999  13.955  0.4352 -0.0145 -0.9876
  474TMC3    C5 7106   0.892   2.128  14.001  0.0940  0.0063 -0.1827
  474TMC3    C6 7107   0.860   2.245  13.935 -0.2521  0.2155  0.0335
  474TMC3     C 7108   0.768   1.859  13.790 -0.2003 -0.3130 -0.2441
  474TMC3     O 7109   0.677   1.856  13.713 -0.8783 -0.3294 -0.2414
  474TMC3     H 7110   0.735   2.085  13.665  1.4513 -0.2129 -0.8852
  474TMC3    H1 7111   0.905   1.913  14.013 -1.3583 -0.5397 -0.7651
  474TMC3    H2 7112   0.904   2.337  13.973  0.9058 -0.3860  0.1238
  474TMC3    C7 7113   0.996   2.126  14.096  0.5548 -0.2179  0.1229
  474TMC3    C8 7114   0.720   2.334  13.748  0.2837  0.5257  0.0230
  474TMC3    O1 7115   1.084   2.045  14.079  0.1817 -0.0415 -0.9045
  474TMC3    O2 7116   0.631   2.307  13.665  0.8133  0.1702 -0.0363
  475MPD2     C 7117   3.337   1.281  10.995 -0.2770  0.4980 -0.2979
  475MPD2    C1 7118   3.265   1.172  11.032 -0.6881 -0.1101 -0.4090
  475MPD2    C2 7119   3.133   1.188  11.073 -0.0644 -0.5316  0.6369
  475MPD2    C3 7120   3.074   1.312  11.075 -0.3717  0.4677 -0.6045
  475MPD2    C4 7121   3.154   1.427  11.045  0.0870  0.2877  0.3330
  475MPD2    C5 7122   3.286   1.410  11.001  0.4545  0.7317  0.0301
  475MPD2     H 7123   3.068   1.107  11.107 -0.4974 -0.2275  0.5256
  475MPD2    H1 7124   3.114   1.527  11.038  2.9488  1.1523 -3.4597
  475MPD2    H2 7125   3.442   1.276  10.969 -0.0083 -1.0866  1.0525
  475MPD2    H3 7126   3.347   1.500  10.993 -0.6869  1.5433  0.3568
  475MPD2     N 7127   2.937   1.343  11.106 -0.5117  0.1025 -0.4458
  475MPD2    H5 7128   2.922   1.442  11.116 -0.1610  0.1970 -0.8331
  475MPD2    N1 7129   3.328   1.046  11.021  0.1032  0.9687  0.0040
  475MPD2    H7 7130   3.426   1.050  10.993 -0.5390  0.8409 -2.2993
  476TMC3    C1 7131   3.340   0.794  11.026 -0.3103 -0.4267 -0.2480
  476TMC3    C2 7132   3.271   0.680  10.999 -0.6723 -0.0664  0.7486
  476TMC3    C3 7133   3.349   0.572  10.944 -0.1078  0.5753  0.2961
  476TMC3    C4 7134   3.476   0.802  11.016 -0.3359 -0.3537  0.2738
  476TMC3    C5 7135   3.544   0.695  10.968 -0.3189 -0.4852 -0.3986
  476TMC3    C6 7136   3.481   0.584  10.918  0.5483  0.0229  0.8625
  476TMC3     C 7137   3.268   0.919  11.044 -0.1456  0.1617  0.5579
  476TMC3     O 7138   3.146   0.904  11.044 -0.1503 -0.3319 -0.1541
  476TMC3     H 7139   3.163   0.682  11.008 -0.7749  1.8412 -0.9585
  476TMC3    H1 7140   3.522   0.901  11.016 -1.4946  0.1869  0.4860
  476TMC3    H2 7141   3.550   0.503  10.901 -1.2921 -1.4509  0.4421
  476TMC3    C7 7142   3.686   0.706  10.950 -0.3785 -0.0708  0.4086
  476TMC3    C8 7143   3.278   0.462  10.875 -0.1032 -0.0797 -1.7462
  476TMC3    O1 7144   3.730   0.668  10.841  0.1299 -0.0532 -0.7132
  476TMC3    O2 7145   3.345   0.368  10.830  0.0134 -0.1652 -0.1903
  477MPD2     C 7146   1.558   1.980  11.776 -0.0567 -0.5939  0.9064
  477MPD2    C1 7147   1.489   1.875  11.716 -0.0992 -0.3834  0.3888
  477MPD2    C2 7148   1.495   1.745  11.767 -0.2605  0.0568  0.2831
  477MPD2    C3 7149   1.570   1.720  11.879 -0.2115 -0.2925 -0.2539
  477MPD2    C4 7150   1.648   1.827  11.927  0.6071  0.0477 -0.1701
  477MPD2    C5 7151   1.634   1.953  11.883 -0.3443  0.3172 -0.3968
  477MPD2     H 7152   1.446   1.656  11.727  2.3323 -1.8722  1.3822
  477MPD2    H1 7153   1.708   1.823  12.017  0.5699  2.0831 -0.0625
  477MPD2    H2 7154   1.557   2.085  11.749 -0.5587 -0.5856  0.9553
  477MPD2    H3 7155   1.694   2.031  11.929  1.9400 -0.7574 -1.5526
  477MPD2     N 7156   1.575   1.586  11.933  0.2218 -0.1296  0.1574
  477MPD2    H5 7157   1.509   1.522  11.889 -1.0303  0.3316  1.3536
  477MPD2    N1 7158   1.419   1.899  11.598 -0.0117  0.2640 -0.9157
  477MPD2    H7 7159   1.421   1.997  11.572  1.3320  0.8679  1.4109
  478TMC3    C1 7160   1.275   1.885  11.409  0.0638 -0.2412  0.5358
  478TMC3    C2 7161   1.203   2.001  11.453 -0.0775  0.2447  0.0526
  478TMC3    C3 7162   1.091   2.032  11.384 -0.1453 -0.0198  0.0226
  478TMC3    C4 7163   1.251   1.829  11.287 -0.2393  0.0640 -0.2907
  478TMC3    C5 7164   1.148   1.875  11.217 -0.1591  0.5418 -0.4691
  478TMC3    C6 7165   1.063   1.969  11.265  0.1881  0.2462  0.1466
  478TMC3     C 7166   1.360   1.813  11.500 -0.1543 -0.2322 -1.0905
  478TMC3     O 7167   1.378   1.696  11.482 -0.2681 -0.3964 -0.0519
  478TMC3     H 7168   1.210   2.038  11.555  0.8447  0.8325 -0.2263
  478TMC3    H1 7169   1.317   1.749  11.253  0.1815  0.2846  0.0122
  478TMC3    H2 7170   0.966   1.977  11.216 -0.2222 -0.5347  0.8232
  478TMC3    C7 7171   1.119   1.821  11.084  0.1389 -0.5250 -0.3783
  478TMC3    C8 7172   1.010   2.136  11.444  0.2050 -0.1801  0.1258
  478TMC3    O1 7173   1.157   1.707  11.058 -0.4965  0.0163  0.4670
  478TMC3    O2 7174   1.064   2.220  11.512 -0.0843  0.2092  0.3595
  479MPD2     C 7175   0.596   3.937  15.135 -1.3368 -0.3303 -0.4225
  479MPD2    C1 7176   0.580   3.920  15.266  0.0600  0.5523  0.9306
  479MPD2    C2 7177   0.667   3.985  15.356 -0.7171 -0.0034  0.5167
  479MPD2    C3 7178   0.763   4.074  15.301 -0.2958 -0.0884 -0.1408
  479MPD2    C4 7179   0.770   4.097  15.167 -0.0308 -0.0942  0.6020
  479MPD2    C5 7180   0.692   4.023  15.084 -0.4181  0.2803  0.5729
  479MPD2     H 7181   0.662   3.962  15.461 -2.9438 -0.4748  0.3010
  479MPD2    H1 7182   0.830   4.180  15.132 -0.8808  0.8403  1.3234
  479MPD2    H2 7183   0.539   3.875  15.067 -4.3828  0.6188  1.2391
  479MPD2    H3 7184   0.697   4.054  14.981 -0.2049  1.4910  0.9445
  479MPD2     N 7185   0.851   4.158  15.373  0.4731 -0.2612 -0.3179
  479MPD2    H5 7186   0.936   4.184  15.325  0.8529 -0.1061  0.4383
  479MPD2    N1 7187   0.477   3.833  15.313  0.2430 -0.8159 -0.5668
  479MPD2    H7 7188   0.413   3.801  15.240 -2.8744 -0.5607  2.0487
  480TMC3    C1 7189   0.602   4.059  15.742  0.0779  0.2050 -0.3349
  480TMC3    C2 7190   0.483   4.093  15.678 -0.2872 -0.3277 -0.7813
  480TMC3    C3 7191   0.484   4.181  15.571 -0.2070 -0.4557 -0.3147
  480TMC3    C4 7192   0.716   4.111  15.693  0.4464  0.4595  0.4955
  480TMC3    C5 7193   0.714   4.180  15.584 -0.8068  0.1862 -0.7592
  480TMC3    C6 7194   0.602   4.226  15.519  0.4249 -0.4061  0.3426
  480TMC3     C 7195   0.613   4.000  15.871 -0.3734 -0.1941  0.1088
  480TMC3     O 7196   0.715   3.938  15.896 -1.2845  0.3216 -0.0250
  480TMC3     H 7197   0.389   4.045  15.699 -0.2352 -1.3756 -2.8779
  480TMC3    H1 7198   0.809   4.086  15.743 -0.0420  0.2186  1.2727
  480TMC3    H2 7199   0.609   4.297  15.438  1.9992  0.2887  1.1015
  480TMC3    C7 7200   0.844   4.165  15.511  0.3810 -0.2200  0.3472
  480TMC3    C8 7201   0.372   4.161  15.480 -0.5751 -0.3066 -0.1577
  480TMC3    O1 7202   0.943   4.182  15.582 -0.2116  0.4431  0.8902
  480TMC3    O2 7203   0.277   4.082  15.499 -0.0386 -0.0584  0.3687
  481MPD2     C 7204   2.412   3.467  14.139  0.0173  0.5319  0.6863
  481MPD2    C1 7205   2.337   3.358  14.098  0.7010 -0.2605 -0.2508
  481MPD2    C2 7206   2.304   3.252  14.187  0.2671  0.5305 -0.2460
  481MPD2    C3 7207   2.342   3.274  14.320 -0.0432 -0.1946 -0.2123
  481MPD2    C4 7208   2.426   3.377  14.356 -0.6754  0.0545 -0.5620
  481MPD2    C5 7209   2.469   3.467  14.259 -0.2678  0.4956 -0.6201
  481MPD2     H 7210   2.255   3.161  14.153  1.0087  0.5507 -1.3758
  481MPD2    H1 7211   2.466   3.396  14.455 -1.9069  1.1913 -0.2871
  481MPD2    H2 7212   2.419   3.561  14.085  2.7102 -0.4672 -0.6934
  481MPD2    H3 7213   2.538   3.542  14.294 -0.1221  0.2471 -0.3823
  481MPD2     N 7214   2.315   3.188  14.427 -1.2761  0.1852 -0.4175
  481MPD2    H5 7215   2.351   3.221  14.516 -0.2854 -1.7400 -0.1067
  481MPD2    N1 7216   2.305   3.359  13.957 -0.9598 -0.3751 -0.2928
  481MPD2    H7 7217   2.305   3.446  13.906  3.5539 -0.8154 -1.0308
  482TMC3    C1 7218   2.170   3.306  13.778  0.0219 -0.0161  0.1751
  482TMC3    C2 7219   2.054   3.242  13.748  0.3032 -0.6056 -0.9045
  482TMC3    C3 7220   1.945   3.301  13.683 -0.6911 -0.0555  0.5405
  482TMC3    C4 7221   2.180   3.436  13.752  0.3885  0.2453  0.4256
  482TMC3    C5 7222   2.079   3.492  13.681 -0.5402  0.3909  0.4580
  482TMC3    C6 7223   1.958   3.436  13.650 -0.0280  0.3280 -0.6232
  482TMC3     C 7224   2.236   3.252  13.894  0.2640 -0.3515 -0.2523
  482TMC3     O 7225   2.206   3.140  13.939  0.5686 -0.0382  0.0944
  482TMC3     H 7226   2.046   3.141  13.788  0.9146  1.5014  4.4072
  482TMC3    H1 7227   2.277   3.483  13.745  0.2090  0.3224 -1.5484
  482TMC3    H2 7228   1.881   3.490  13.595 -1.7319 -1.4976 -0.0501
  482TMC3    C7 7229   2.088   3.637  13.662  0.2732 -0.2124  0.7083
  482TMC3    C8 7230   1.826   3.216  13.673 -0.4016  0.0029 -0.8707
  482TMC3    O1 7231   2.158   3.697  13.747 -0.3396 -0.1610 -0.3918
  482TMC3    O2 7232   1.837   3.102  13.710  0.0661 -0.1127 -0.2240
  483TMC3    C1 7233   0.408   2.554   1.292  0.3716 -0.5573 -1.0724
  483TMC3    C2 7234   0.517   2.626   1.331  0.0273  0.4683  0.6982
  483TMC3    C3 7235   0.635   2.557   1.339 -0.3117 -0.2930 -0.2511
  483TMC3    C4 7236   0.413   2.415   1.275  0.3316 -0.1772  0.1246
  483TMC3    C5 7237   0.537   2.356   1.280  0.6683  0.6305 -0.4090
  483TMC3    C6 7238   0.649   2.428   1.311 -0.1856 -0.2245  0.4646
  483TMC3     C 7239   0.285   2.631   1.277  0.0131  0.2023 -0.1780
  483TMC3     O 7240   0.282   2.742   1.323  0.3246 -0.5056 -0.1729
  483TMC3     H 7241   0.508   2.728   1.367 -0.4798  0.4069  0.7470
  483TMC3    H1 7242   0.327   2.349   1.273  0.0060  0.3152 -1.4300
  483TMC3    H2 7243   0.750   2.389   1.298 -0.9173 -1.6880 -0.8315
  483TMC3    C7 7244   0.558   2.223   1.225 -0.2852  0.6994  0.1976
  483TMC3    C8 7245   0.747   2.644   1.313 -0.5485 -0.6732 -0.1467
  483TMC3    O1 7246   0.648   2.169   1.286 -0.9042 -0.2434 -0.2625
  483TMC3    O2 7247   0.731   2.727   1.225 -0.0670  0.1788  0.2518
  484MPD2     C 7248   2.013   0.367  12.630 -1.6353  0.2335  0.2589
  484MPD2    C1 7249   2.110   0.298  12.701 -0.3330  0.2135  0.0061
  484MPD2    C2 7250   2.241   0.341  12.695 -0.1460 -0.0480 -0.1032
  484MPD2    C3 7251   2.279   0.451  12.617 -0.0600  0.3680 -0.0221
  484MPD2    C4 7252   2.184   0.509  12.544  0.0157  0.7710  0.4579
  484MPD2    C5 7253   2.050   0.467  12.544 -0.7551 -0.4450 -0.1673
  484MPD2     H 7254   2.325   0.295  12.745 -0.1150 -0.8492 -0.8876
  484MPD2    H1 7255   2.210   0.584  12.471 -2.1395  1.3081  0.2364
  484MPD2    H2 7256   1.908   0.338  12.632 -1.0906 -1.7861 -0.5381
  484MPD2    H3 7257   1.979   0.507  12.473  0.6792  0.1283 -1.2907
  484MPD2     N 7258   2.407   0.506  12.601  0.4182  0.0329  0.0213
  484MPD2    H5 7259   2.416   0.593  12.550 -1.7981 -0.8453 -1.8696
  484MPD2    N1 7260   2.060   0.209  12.800 -0.6235  0.4643 -0.5240
  484MPD2    H7 7261   1.959   0.198  12.799 -0.5512 -0.3218  0.5132
  485TMC3    C1 7262   2.648   0.525  12.617 -0.5830 -0.5391 -0.7358
  485TMC3    C2 7263   2.763   0.476  12.679  1.0345 -0.2780 -0.0537
  485TMC3    C3 7264   2.873   0.555  12.693  0.1381  0.4560  0.6015
  485TMC3    C4 7265   2.641   0.654  12.570 -0.9468 -0.3829 -0.2542
  485TMC3    C5 7266   2.755   0.728  12.586 -0.1407 -0.1755  0.5608
  485TMC3    C6 7267   2.864   0.684  12.658 -0.3382 -0.3912 -0.1765
  485TMC3     C 7268   2.526   0.447  12.646  0.2831  0.5914  0.2906
  485TMC3     O 7269   2.549   0.347  12.707 -0.0151  0.0020 -0.0146
  485TMC3     H 7270   2.763   0.372  12.709  0.8533 -1.1001 -2.9055
  485TMC3    H1 7271   2.561   0.690  12.507 -0.7442  1.5260  0.5709
  485TMC3    H2 7272   2.950   0.746  12.681 -1.6288  0.7720  1.5094
  485TMC3    C7 7273   2.804   0.787  12.462  0.0297 -0.5808 -0.2264
  485TMC3    C8 7274   3.005   0.492  12.676 -0.7308 -0.2413  0.3245
  485TMC3    O1 7275   2.723   0.847  12.392  0.6443 -0.2308  0.4609
  485TMC3    O2 7276   3.081   0.565  12.609  0.1074 -0.2712  0.2101
  486MPD2     C 7277   4.594   3.744  12.654  0.1266  0.3190 -0.1507
  486MPD2    C1 7278   4.463   3.716  12.688  0.4577  0.0812  0.4323
  486MPD2    C2 7279   4.375   3.818  12.700  0.7457  0.3704  0.5410
  486MPD2    C3 7280   4.399   3.950  12.658 -0.0196  0.4701 -0.0160
  486MPD2    C4 7281   4.523   3.977  12.609  0.1971 -0.5137 -0.2633
  486MPD2    C5 7282   4.619   3.875  12.616 -0.5988 -0.4994 -0.0711
  486MPD2     H 7283   4.270   3.802  12.723  1.0457  0.0287  1.6677
  486MPD2    H1 7284   4.561   4.075  12.583 -0.7819 -0.1009 -0.1391
  486MPD2    H2 7285   4.672   3.668  12.657  0.9584  1.3358  3.2988
  486MPD2    H3 7286   4.720   3.902  12.588 -1.5429  1.2126 -1.8136
  486MPD2     N 7287   4.302   4.052  12.668 -0.1721  0.2329 -0.5361
  486MPD2    H5 7288   4.332   4.139  12.625 -0.1375  0.8676  0.7683
  486MPD2    N1 7289   4.442   3.576  12.719  0.3151  0.2690 -0.4294
  486MPD2    H7 7290   4.518   3.511  12.702  0.1945  0.1477 -0.4964
  487TMC3    C1 7291   4.331   3.378  12.773  0.2894  0.8967  0.1688
  487TMC3    C2 7292   4.221   3.307  12.757 -0.3975  0.8062  0.3514
  487TMC3    C3 7293   4.219   3.171  12.789 -0.4285  0.3863 -0.0505
  487TMC3    C4 7294   4.455   3.326  12.816 -0.4836 -0.4403  0.2863
  487TMC3    C5 7295   4.444   3.201  12.873  0.1331 -0.2650 -0.1720
  487TMC3    C6 7296   4.338   3.122  12.843  0.8129 -0.1473  0.3208
  487TMC3     C 7297   4.324   3.526  12.751  0.3533 -0.0275  1.5444
  487TMC3     O 7298   4.213   3.580  12.738  0.0147  0.3602  0.0454
  487TMC3     H 7299   4.130   3.349  12.716  0.3847  1.9464 -0.2059
  487TMC3    H1 7300   4.542   3.382  12.846 -1.6724  0.6217  1.7792
  487TMC3    H2 7301   4.339   3.023  12.888  2.2843 -0.6215 -0.7574
  487TMC3    C7 7302   4.471   3.207  13.017  0.2677 -0.2534 -0.2938
  487TMC3    C8 7303   4.101   3.140  12.869  0.2870  0.3138 -0.5642
  487TMC3    O1 7304   4.549   3.290  13.058 -0.0972  0.1827  0.3752
  487TMC3    O2 7305   4.044   3.232  12.920 -0.2001 -0.2213 -0.7208
  488MPD2     C 7306   0.491   0.785  16.170  0.2293  0.5302 -0.8865
  488MPD2    C1 7307   0.562   0.847  16.270  0.2515  0.0407  0.5275
  488MPD2    C2 7308   0.553   0.807  16.398  0.5738 -0.1782  0.0412
  488MPD2    C3 7309   0.472   0.699  16.433  0.3741 -0.1423  0.1210
  488MPD2    C4 7310   0.391   0.646  16.329 -0.4981  0.4463 -0.5971
  488MPD2    C5 7311   0.403   0.684  16.198  0.8340  0.2779  0.3611
  488MPD2     H 7312   0.614   0.846  16.478  2.6884 -2.3099 -0.5271
  488MPD2    H1 7313   0.324   0.564  16.348 -2.3427  1.8939 -0.8418
  488MPD2    H2 7314   0.511   0.805  16.066  1.1505 -0.7589 -0.9581
  488MPD2    H3 7315   0.343   0.642  16.118  1.3446 -0.8959  0.5869
  488MPD2     N 7316   0.464   0.668  16.571  0.1576 -0.3157 -0.3228
  488MPD2    H5 7317   0.516   0.720  16.641  0.7361 -0.9275 -0.2926
  488MPD2    N1 7318   0.669   0.939  16.242 -0.4823 -0.7177 -0.0727
  488MPD2    H7 7319   0.732   0.966  16.317 -2.0495 -2.4707  1.9072
  489TMC3    C1 7320   0.436   0.538  16.763 -0.0602 -0.6170  0.3640
  489TMC3    C2 7321   0.535   0.624  16.818  0.4064  0.5792  0.3218
  489TMC3    C3 7322   0.532   0.639  16.958  0.1770  0.3263  0.5051
  489TMC3    C4 7323   0.332   0.494  16.835 -0.4050  0.9902 -0.3964
  489TMC3    C5 7324   0.331   0.521  16.972 -0.8229 -0.1662  0.5943
  489TMC3    C6 7325   0.432   0.589  17.036  0.3222  0.0789  0.1118
  489TMC3     C 7326   0.410   0.554  16.623 -0.1771 -0.3232  0.0577
  489TMC3     O 7327   0.342   0.465  16.570  0.5233  0.3546  0.2369
  489TMC3     H 7328   0.617   0.662  16.758 -0.8011  1.0304 -1.0382
  489TMC3    H1 7329   0.270   0.417  16.792 -1.2148  1.3421  0.1234
  489TMC3    H2 7330   0.445   0.593  17.143  0.5094 -0.7797  0.1229
  489TMC3    C7 7331   0.235   0.452  17.068 -0.0927 -0.4520  0.3175
  489TMC3    C8 7332   0.631   0.735  17.013 -0.1626 -0.0096 -0.6442
  489TMC3    O1 7333   0.274   0.444  17.183 -0.1261 -0.2907  0.0304
  489TMC3    O2 7334   0.693   0.795  16.924  0.2979 -0.5074 -0.8127
  490MPD2     C 7335   1.145   0.471  17.514  0.1786  0.4476  1.4399
  490MPD2    C1 7336   1.153   0.337  17.549  0.7181 -0.1625  0.0829
  490MPD2    C2 7337   1.210   0.306  17.667  0.2672  0.2084 -0.1935
  490MPD2    C3 7338   1.285   0.401  17.736 -0.0352 -0.5960 -0.0881
  490MPD2    C4 7339   1.282   0.534  17.699  0.5233  0.0800 -0.2473
  490MPD2    C5 7340   1.213   0.570  17.586 -0.5410  0.5406  0.3841
  490MPD2     H 7341   1.215   0.205  17.705  1.4412 -0.1711 -1.3694
  490MPD2    H1 7342   1.344   0.608  17.749  1.4312 -1.6072  1.1305
  490MPD2    H2 7343   1.091   0.512  17.429  1.0453  1.6373  1.4725
  490MPD2    H3 7344   1.210   0.674  17.555 -3.0854 -0.3790 -2.4856
  490MPD2     N 7345   1.359   0.366   0.094 -0.4000 -0.5942 -0.6937
  490MPD2    H5 7346   1.401   0.445   0.142  2.1893 -1.9880 -0.7067
  490MPD2    N1 7347   1.091   0.239  17.466 -0.0520 -0.0156 -0.3805
  490MPD2    H7 7348   1.083   0.150  17.515 -0.9857  0.2604 -0.0423
  491TMC3    C1 7349   0.967   0.130  17.290 -0.3509 -0.1977 -0.7762
  491TMC3    C2 7350   1.032   0.011  17.323 -0.2843  0.1598  0.1572
  491TMC3    C3 7351   0.985   4.634  17.260  0.4663 -0.9298 -0.2819
  491TMC3    C4 7352   0.885   0.139  17.179 -0.0369  0.6233  0.0966
  491TMC3    C5 7353   0.861   0.023  17.108 -0.4483  0.0003 -0.6675
  491TMC3    C6 7354   0.909   4.637  17.151  0.5512 -0.7542 -0.5421
  491TMC3     C 7355   1.014   0.255  17.354  0.2986 -0.0837  0.0446
  491TMC3     O 7356   1.002   0.357  17.287  0.6065 -0.0714  0.0877
  491TMC3     H 7357   1.105   0.010  17.402  2.4284  1.7526 -2.3489
  491TMC3    H1 7358   0.832   0.232  17.158  0.5769  1.6830  3.2492
  491TMC3    H2 7359   0.878   4.545  17.104 -0.3590  0.0932 -1.6071
  491TMC3    C7 7360   0.777   0.021  16.990 -0.2492 -0.1577  0.0325
  491TMC3    C8 7361   0.930   4.540  17.369 -0.0640  0.2141  0.0071
  491TMC3    O1 7362   0.758   4.644  16.955 -0.1812  0.3939 -0.7217
  491TMC3    O2 7363   0.915   4.597  17.476 -0.4704 -0.3026  0.0614
  492MPD2     C 7364   1.022   0.836  11.398 -0.7555  0.0280  0.4433
  492MPD2    C1 7365   0.935   0.763  11.318 -0.3267  0.1441  0.2377
  492MPD2    C2 7366   0.834   0.686  11.379 -0.5086 -0.4388  0.3008
  492MPD2    C3 7367   0.828   0.674  11.518  0.1116 -0.0142 -0.1423
  492MPD2    C4 7368   0.928   0.737  11.592  0.3041  0.1132 -0.0614
  492MPD2    C5 7369   1.015   0.821  11.535 -0.2570 -0.5742  0.0206
  492MPD2     H 7370   0.760   0.631  11.322 -0.7811  0.9694 -0.6975
  492MPD2    H1 7371   0.915   0.744  11.700 -1.4086 -2.4573 -0.1058
  492MPD2    H2 7372   1.093   0.908  11.360 -0.0038  0.1020  1.9695
  492MPD2    H3 7373   1.072   0.885  11.602 -2.0778  0.1549  0.8716
  492MPD2     N 7374   0.719   0.614  11.589  0.5711 -0.1472  0.6716
  492MPD2    H5 7375   0.719   0.648  11.685 -1.0990  2.1622 -0.1449
  492MPD2    N1 7376   0.949   0.784  11.176 -0.0112  0.5454  0.2696
  492MPD2    H7 7377   1.023   0.843  11.140 -1.3010  1.6383 -0.5993
  493TMC3    C1 7378   0.890   0.761  10.944  0.0609  0.1451  0.3812
  493TMC3    C2 7379   0.872   0.895  10.929  0.5053 -0.1254  0.4565
  493TMC3    C3 7380   0.820   0.943  10.814 -0.1579 -0.0599  0.8327
  493TMC3    C4 7381   0.843   0.675  10.853  0.0778  0.2152 -0.4592
  493TMC3    C5 7382   0.775   0.727  10.745  0.3037 -0.2833 -0.3267
  493TMC3    C6 7383   0.782   0.860  10.714  0.0993  0.3624  0.1774
  493TMC3     C 7384   0.869   0.722  11.081  0.3692  0.0304  0.3512
  493TMC3     O 7385   0.777   0.641  11.086 -0.0131  0.2470  0.3066
  493TMC3     H 7386   0.904   0.967  11.003  0.7564  1.0307 -0.7871
  493TMC3    H1 7387   0.851   0.569  10.876 -1.4752  0.3978  0.9539
  493TMC3    H2 7388   0.733   0.893  10.623  0.7194  2.1181  0.4791
  493TMC3    C7 7389   0.655   0.658  10.716 -0.8596  0.4693  0.2599
  493TMC3    C8 7390   0.813   1.084  10.792 -0.5083 -0.0017  0.2357
  493TMC3    O1 7391   0.587   0.685  10.621  0.1819  0.0149 -0.3771
  493TMC3    O2 7392   0.815   1.156  10.889  0.1218 -0.1145  0.4062
  494TMC3    C1 7393   1.608   2.259   0.625  0.1098  0.7136  0.0439
  494TMC3    C2 7394   1.572   2.134   0.579 -0.4750  0.3076  0.3108
  494TMC3    C3 7395   1.623   2.089   0.460 -0.1651 -0.1334 -0.7149
  494TMC3    C4 7396   1.692   2.349   0.560  0.5540  0.3200 -0.4180
  494TMC3    C5 7397   1.740   2.299   0.446 -0.7884  0.2073 -0.0505
  494TMC3    C6 7398   1.702   2.177   0.391  0.0028  0.2817 -0.1139
  494TMC3     C 7399   1.592   2.285   0.764  0.4496 -0.0548 -0.1128
  494TMC3     O 7400   1.673   2.370   0.806 -0.1505 -0.4948 -0.9503
  494TMC3     H 7401   1.514   2.073   0.647  1.1964 -0.5195  1.0060
  494TMC3    H1 7402   1.714   2.452   0.587 -1.1934  0.2841  1.0757
  494TMC3    H2 7403   1.739   2.133   0.299  1.9842 -0.0218  0.8241
  494TMC3    C7 7404   1.814   2.380   0.351 -0.1412 -0.3219  0.8486
  494TMC3    C8 7405   1.686   1.960   0.464  0.7176 -0.0468  0.8993
  494TMC3    O1 7406   1.809   2.340   0.238 -0.3229 -0.7194  0.0963
  494TMC3    O2 7407   1.808   1.945   0.457  0.4919 -0.2589  0.0655
  495TMC3    C1 7408   0.855   4.240  14.679 -0.8911 -0.4153 -0.0580
  495TMC3    C2 7409   0.793   4.251  14.559  1.3097 -0.0518 -0.1783
  495TMC3    C3 7410   0.664   4.298  14.553 -0.2603  0.5692  0.1460
  495TMC3    C4 7411   0.796   4.284  14.792  0.9854 -0.1979 -0.0312
  495TMC3    C5 7412   0.671   4.327  14.785 -0.0407  0.4293 -0.9770
  495TMC3    C6 7413   0.611   4.350  14.666  0.4515 -0.1890 -0.0005
  495TMC3     C 7414   0.905   4.108  14.696 -0.9743 -0.1193  0.0102
  495TMC3     O 7415   0.834   4.033  14.758 -0.1372  0.2196 -0.4954
  495TMC3     H 7416   0.821   4.192  14.472  1.7490  1.6828 -1.2166
  495TMC3    H1 7417   0.846   4.263  14.885  2.5847 -3.1773 -1.5708
  495TMC3    H2 7418   0.511   4.392  14.672 -0.5209 -2.7601  1.6772
  495TMC3    C7 7419   0.594   4.335  14.903  0.3175  0.5525  0.6082
  495TMC3    C8 7420   0.565   4.207  14.498 -0.1075  0.0338  0.5583
  495TMC3    O1 7421   0.653   4.378  15.002 -0.9649 -0.3069  0.2080
  495TMC3    O2 7422   0.455   4.190  14.552  0.0592  0.0815  0.0157
  496MPD2     C 7423   2.219   4.041  15.318 -0.2905  0.7173  0.0926
  496MPD2    C1 7424   2.310   3.956  15.363 -0.9355 -0.6710 -0.4784
  496MPD2    C2 7425   2.293   3.867  15.468 -0.0391  0.6974 -0.9137
  496MPD2    C3 7426   2.168   3.853  15.514 -0.4343  0.8284  0.0106
  496MPD2    C4 7427   2.068   3.942  15.464 -0.3415 -0.5887  0.1257
  496MPD2    C5 7428   2.090   4.038  15.367  0.0623  0.5354 -0.1022
  496MPD2     H 7429   2.382   3.826  15.514 -1.0854 -0.8034 -0.2123
  496MPD2    H1 7430   1.967   3.949  15.503  0.2308  2.8068  0.9762
  496MPD2    H2 7431   2.244   4.119  15.247 -0.0394 -0.2585 -0.8811
  496MPD2    H3 7432   2.018   4.112  15.333 -0.4516 -0.6952 -1.6704
  496MPD2     N 7433   2.126   3.762  15.618  0.0917 -0.7977 -0.0956
  496MPD2    H5 7434   2.028   3.767  15.646  0.0773  0.0857 -0.3098
  496MPD2    N1 7435   2.444   3.959  15.324 -0.1656  0.1936 -0.3209
  496MPD2    H7 7436   2.497   3.891  15.378 -0.8009 -0.8558 -1.0350
  497TMC3    C1 7437   2.150   3.583  15.771 -0.1504 -0.1326 -0.1500
  497TMC3    C2 7438   2.022   3.542  15.736  0.1009 -0.6714 -0.5701
  497TMC3    C3 7439   1.989   3.413  15.770  0.3909  0.5326 -0.3723
  497TMC3    C4 7440   2.235   3.507  15.840  0.4372  0.5574 -0.0916
  497TMC3    C5 7441   2.192   3.390  15.892  0.6407 -0.3963  0.7336
  497TMC3    C6 7442   2.072   3.336  15.848 -0.0631 -0.0497  0.3416
  497TMC3     C 7443   2.212   3.690  15.690  0.5219 -0.6374  0.3935
  497TMC3     O 7444   2.332   3.690  15.694  0.6616 -0.3022  0.0789
  497TMC3     H 7445   1.959   3.584  15.659  1.7336  0.0892 -1.4906
  497TMC3    H1 7446   2.331   3.545  15.873  0.7882 -1.6878  1.4458
  497TMC3    H2 7447   2.050   3.233  15.874  0.3925 -0.5341 -1.1730
  497TMC3    C7 7448   2.289   3.307  15.967 -0.2513 -0.2537  0.6402
  497TMC3    C8 7449   1.864   3.354  15.727  0.1819  0.2622  0.2375
  497TMC3    O1 7450   2.263   3.186  15.977 -0.5742 -0.4591 -0.0254
  497TMC3    O2 7451   1.779   3.436  15.693  0.0788  0.4684  0.8241
  498MPD2     C 7452   3.447   0.675  10.549 -0.3119 -0.0969 -0.6517
  498MPD2    C1 7453   3.346   0.751  10.500 -0.5156  0.3557  0.7667
  498MPD2    C2 7454   3.235   0.691  10.454 -0.9135 -0.7208 -0.3664
  498MPD2    C3 7455   3.216   0.556  10.456  0.7199  0.3542 -0.2642
  498MPD2    C4 7456   3.319   0.476  10.502 -0.1479 -0.6476  0.5427
  498MPD2    C5 7457   3.431   0.541  10.557 -0.2973  0.2350 -0.3916
  498MPD2     H 7458   3.153   0.747  10.409 -0.4058  0.7034  0.4742
  498MPD2    H1 7459   3.316   0.367  10.495 -0.0356 -0.5789 -0.7166
  498MPD2    H2 7460   3.542   0.715  10.584  0.1910 -0.6815 -1.3781
  498MPD2    H3 7461   3.507   0.474  10.594  1.0883  2.0418 -0.0249
  498MPD2     N 7462   3.092   0.499  10.413  0.2205  0.4611  0.2691
  498MPD2    H5 7463   3.008   0.553  10.396  0.4680  1.1620  1.2706
  498MPD2    N1 7464   3.355   0.888  10.474  0.0851  0.5395  0.8472
  498MPD2    H7 7465   3.285   0.927  10.412  0.7794 -2.1194 -1.5607
  499TMC3    C1 7466   3.464   1.093  10.419 -0.2378  0.1886 -0.0701
  499TMC3    C2 7467   3.555   1.182  10.454 -0.6303  0.1677 -0.0098
  499TMC3    C3 7468   3.573   1.298  10.379 -0.0406  0.4066 -0.1513
  499TMC3    C4 7469   3.380   1.111  10.310 -0.4788 -0.2014  0.2437
  499TMC3    C5 7470   3.388   1.238  10.242 -0.5479  0.4575  0.3607
  499TMC3    C6 7471   3.486   1.329  10.274  0.4054 -0.9282  0.3030
  499TMC3     C 7472   3.466   0.972  10.503 -0.3411  0.2581  0.3064
  499TMC3     O 7473   3.559   0.953  10.579  0.0054 -0.1227  0.3693
  499TMC3     H 7474   3.622   1.172  10.539 -1.5979  0.7549  0.8365
  499TMC3    H1 7475   3.349   1.023  10.255  1.0186  0.7406 -2.1090
  499TMC3    H2 7476   3.510   1.414  10.212 -1.9180 -0.4372  0.0702
  499TMC3    C7 7477   3.310   1.268  10.124  0.2974 -0.2217  0.8391
  499TMC3    C8 7478   3.698   1.372  10.380  0.1889  0.0117  0.1029
  499TMC3    O1 7479   3.332   1.366  10.053  0.0782 -0.5722 -0.6800
  499TMC3    O2 7480   3.748   1.411  10.273  0.1386 -0.5845  0.1770
  500MPD2     C 7481   4.506   1.823   9.882  0.7241  0.1405  0.6998
  500MPD2    C1 7482   4.466   1.761  10.004  1.2335 -0.4732 -0.0341
  500MPD2    C2 7483   4.338   1.748  10.048 -0.3664  0.0718  0.4222
  500MPD2    C3 7484   4.242   1.809   9.970  0.2386  0.2048 -0.3853
  500MPD2    C4 7485   4.280   1.877   9.855 -0.2776 -0.2682  0.0173
  500MPD2    C5 7486   4.410   1.887   9.816  0.4422 -0.6571 -0.5637
  500MPD2     H 7487   4.313   1.699  10.141  2.9343 -1.1001  0.6750
  500MPD2    H1 7488   4.206   1.935   9.799  0.1950 -0.1730 -0.5052
  500MPD2    H2 7489   4.606   1.826   9.840  0.5591 -1.6156  0.1967
  500MPD2    H3 7490   4.422   1.944   9.725 -0.3826 -0.8036 -0.7654
  500MPD2     N 7491   4.105   1.801   9.997 -0.5040  0.8138 -0.2467
  500MPD2    H5 7492   4.046   1.843   9.926 -0.0710 -1.0825 -1.7339
  500MPD2    N1 7493   4.567   1.709  10.088 -0.2777 -0.2801 -0.4025
  500MPD2    H7 7494   4.537   1.673  10.178  0.2417  1.1650  0.3435
  501TMC3    C1 7495   0.036   1.663  10.172 -0.1462 -0.3312 -0.3789
  501TMC3    C2 7496   0.168   1.637  10.139 -0.3349  0.6103 -1.2728
  501TMC3    C3 7497   0.273   1.650  10.223 -0.2014  0.0452  0.2710
  501TMC3    C4 7498   0.014   1.706  10.299 -0.0823  0.2484 -0.7628
  501TMC3    C5 7499   0.122   1.720  10.385 -0.6828  0.4700 -0.1332
  501TMC3    C6 7500   0.254   1.690  10.348  0.0094  0.1336 -0.1157
  501TMC3     C 7501   4.701   1.727  10.068  0.3749 -0.5540 -0.2241
  501TMC3     O 7502   0.027   1.761   9.968 -0.0784 -0.2388 -0.4187
  501TMC3     H 7503   0.198   1.599  10.042 -0.3222  1.6608 -1.6770
  501TMC3    H1 7504   4.651   1.715  10.336  0.4784 -2.7561  1.5756
  501TMC3    H2 7505   0.339   1.700  10.415  0.2655  0.6902 -0.5326
  501TMC3    C7 7506   0.107   1.762  10.521 -0.1894 -0.4296 -0.0191
  501TMC3    C8 7507   0.391   1.712  10.165  0.1842 -0.6295  0.6181
  501TMC3    O1 7508   4.738   1.814  10.550 -0.0468  0.4308 -0.4872
  501TMC3    O2 7509   0.500   1.705  10.223  0.0733 -0.1125  0.0034
  502TMC3    C1 7510   0.053   4.716  14.616  0.1033 -0.7026  0.5193
  502TMC3    C2 7511   0.086   0.106  14.621 -0.6058  0.2039 -0.5529
  502TMC3    C3 7512   4.734   0.204  14.635 -0.4856 -0.0437 -0.1175
  502TMC3    C4 7513   4.668   4.676  14.646  0.4908  0.5843  0.1681
  502TMC3    C5 7514   4.574   0.034  14.671  0.2228 -0.0830  0.5727
  502TMC3    C6 7515   4.604   0.166  14.664  0.5373 -0.6517 -0.6927
  502TMC3     C 7516   0.146   4.633  14.686 -0.4129 -0.3179  0.2635
  502TMC3     O 7517   0.261   4.617  14.645  0.1963  0.0696  0.5413
  502TMC3     H 7518   0.192   0.127  14.613 -0.2496 -1.3781  0.0347
  502TMC3    H1 7519   4.638   4.572  14.647  0.5070  0.5575 -2.3765
  502TMC3    H2 7520   4.537   0.237  14.713  2.6667 -0.3610  1.7785
  502TMC3    C7 7521   4.501   4.734  14.791  0.0091  0.0839 -0.0373
  502TMC3    C8 7522   0.033   0.320  14.708 -0.0684 -0.2545  0.5775
  502TMC3    O1 7523   4.556   4.646  14.851  0.0869 -0.2191 -0.5459
  502TMC3    O2 7524   4.706   0.420  14.697 -0.2504  1.0977  0.5859
  503MPD2     C 7525   2.119   0.900  17.048 -0.0981 -0.4213 -0.6017
  503MPD2    C1 7526   2.134   0.944  17.177 -0.6365 -0.1158 -0.8459
  503MPD2    C2 7527   2.146   0.843  17.272  0.9494  0.3840 -0.3051
  503MPD2    C3 7528   2.155   0.708  17.252 -0.1749 -0.5194 -0.2924
  503MPD2    C4 7529   2.145   0.675  17.116 -0.5161  0.4478 -0.8596
  503MPD2    C5 7530   2.115   0.765  17.021 -0.0666  0.5220  0.0215
  503MPD2     H 7531   2.163   0.873  17.375 -2.3388 -3.0415  1.2330
  503MPD2    H1 7532   2.163   0.572  17.086 -1.5140  0.3957 -1.2887
  503MPD2    H2 7533   2.104   0.957  16.957  0.5902 -0.6056 -0.8331
  503MPD2    H3 7534   2.080   0.732  16.924  1.3043  1.5225 -0.8124
  503MPD2     N 7535   2.196   0.623  17.356  0.2657 -0.1845  0.8628
  503MPD2    H5 7536   2.225   0.669  17.442  3.4893 -1.5568  0.5127
  503MPD2    N1 7537   2.102   1.074  17.220 -0.0768  0.7170  0.5560
  503MPD2    H7 7538   2.088   1.092  17.319  1.5667  0.9947  0.7492
  504TMC3    C1 7539   2.269   0.435  17.472  0.1280 -0.5187 -0.1498
  504TMC3    C2 7540   2.232   0.324  17.538  0.1405 -0.5790 -1.0690
  504TMC3    C3 7541   2.331   0.252  17.598  0.4410  0.5784 -0.0522
  504TMC3    C4 7542   2.396   0.482  17.459 -0.6300 -0.5328 -0.3547
  504TMC3    C5 7543   2.493   0.392  17.499 -0.1061 -0.2430 -0.7942
  504TMC3    C6 7544   2.465   0.278  17.573  0.0051  0.8216 -0.1354
  504TMC3     C 7545   2.189   0.486  17.361 -0.4609  0.3321  0.1909
  504TMC3     O 7546   2.126   0.409  17.286 -0.5910  0.1917  0.4919
  504TMC3     H 7547   2.128   0.294  17.543 -0.6814  2.4902  0.2093
  504TMC3    H1 7548   2.429   0.571  17.406 -0.5706 -1.8740 -2.5624
  504TMC3    H2 7549   2.544   0.207  17.597 -2.2515 -1.9591 -0.9994
  504TMC3    C7 7550   2.615   0.405  17.415  0.5271  0.3824  0.2242
  504TMC3    C8 7551   2.287   0.159  17.694  0.2167  0.0413 -1.1723
  504TMC3    O1 7552   2.599   0.452  17.307 -0.0018 -0.3319  0.3910
  504TMC3    O2 7553   2.177   0.112  17.677  0.3074  0.2361  0.5907
  505MPD2     C 7554   1.728   4.580  10.736 -0.7010  0.3729 -0.2260
  505MPD2    C1 7555   1.842   4.544  10.795  0.6602 -0.3722 -0.0917
  505MPD2    C2 7556   1.905   4.632  10.880  0.5907  0.2323 -0.6956
  505MPD2    C3 7557   1.844   0.013  10.909  0.7097 -0.1336 -0.0232
  505MPD2    C4 7558   1.729   0.055  10.849 -0.7697 -0.2574  0.0153
  505MPD2    C5 7559   1.672   4.705  10.753  0.4044  0.2310 -0.6962
  505MPD2     H 7560   2.000   4.600  10.922 -0.1984 -0.9421  0.1863
  505MPD2    H1 7561   1.690   0.155  10.868 -0.3187 -0.4503  1.8975
  505MPD2    H2 7562   1.685   4.515  10.661 -0.3856  0.9920 -0.9441
  505MPD2    H3 7563   1.583   4.736  10.698  0.2156  0.9773  0.0307
  505MPD2     N 7564   1.906   0.108  10.996 -0.3338  0.8204 -0.1694
  505MPD2    H5 7565   1.861   0.199  11.003  1.4984  1.7832 -0.8843
  505MPD2    N1 7566   1.892   4.416  10.764 -0.3211  0.5412  0.0207
  505MPD2    H7 7567   1.861   4.378  10.675 -0.0448  0.3476  0.0073
  506TMC3    C1 7568   2.050   4.242  10.766 -0.2106 -0.7768 -0.3093
  506TMC3    C2 7569   2.090   4.286  10.646 -0.3699 -0.6005 -0.3222
  506TMC3    C3 7570   2.214   4.256  10.615 -0.9465 -0.3726  0.9580
  506TMC3    C4 7571   2.128   4.165  10.843 -0.5214 -0.0208  0.0521
  506TMC3    C5 7572   2.257   4.131  10.814 -0.2981 -0.2709 -0.2032
  506TMC3    C6 7573   2.300   4.180  10.691  0.6230  0.0178 -0.0636
  506TMC3     C 7574   1.984   4.350  10.837  0.3731 -0.0863  0.1970
  506TMC3     O 7575   2.033   4.375  10.949 -0.4636 -0.3036  0.2330
  506TMC3     H 7576   2.032   4.350  10.581 -0.1065  1.5414  1.5519
  506TMC3    H1 7577   2.082   4.134  10.936 -1.0614  2.3943  0.5906
  506TMC3    H2 7578   2.394   4.145  10.649  1.6705  1.2751  1.2310
  506TMC3    C7 7579   2.351   4.169  10.910 -0.3961  0.2407 -0.6860
  506TMC3    C8 7580   2.266   4.290  10.485  0.0831  0.0951  0.6751
  506TMC3    O1 7581   2.465   4.129  10.908 -0.4178  0.1251  0.2752
  506TMC3    O2 7582   2.243   4.214  10.395 -0.4065 -0.0743  0.3615
  507TMC3    C1 7583   3.156   0.373  14.785  0.0769  0.4953  0.0286
  507TMC3    C2 7584   3.084   0.289  14.705  0.0080 -1.2895 -0.2146
  507TMC3    C3 7585   3.025   0.342  14.597 -0.1634  0.5593 -0.3560
  507TMC3    C4 7586   3.193   0.498  14.734 -0.0070 -0.4513  0.0069
  507TMC3    C5 7587   3.146   0.536  14.614  0.0432  0.5811 -0.4523
  507TMC3    C6 7588   3.064   0.459  14.543  0.7200 -0.9702 -0.1709
  507TMC3     C 7589   3.180   0.340  14.924  0.1759 -0.1098  0.5993
  507TMC3     O 7590   3.251   0.421  14.982  0.0399 -0.9008  0.1027
  507TMC3     H 7591   3.030   0.207  14.751 -1.1076 -0.0569  0.6538
  507TMC3    H1 7592   3.267   0.559  14.784  0.2026  0.6938 -1.7199
  507TMC3    H2 7593   3.023   0.488  14.446  3.2157 -0.7251 -1.1642
  507TMC3    C7 7594   3.100   0.675  14.622 -0.0392 -0.4907  0.8667
  507TMC3    C8 7595   2.880   0.331  14.603 -0.3549  0.5978 -0.5634
  507TMC3    O1 7596   2.994   0.689  14.565 -0.1318 -0.1101  0.2545
  507TMC3    O2 7597   2.830   0.223  14.625 -0.2942 -0.1494  0.1588
  508MPD2     C 7598   4.439   2.719  16.275  0.5103 -0.3390  0.4105
  508MPD2    C1 7599   4.451   2.855  16.258 -0.0244 -0.0487  0.8272
  508MPD2    C2 7600   4.419   2.919  16.142 -0.2761 -0.6298 -0.0020
  508MPD2    C3 7601   4.362   2.851  16.034  0.3251  0.2468  0.1262
  508MPD2    C4 7602   4.356   2.712  16.045  0.0014 -0.5590  0.1438
  508MPD2    C5 7603   4.383   2.650  16.166 -0.0536 -0.4666  0.2161
  508MPD2     H 7604   4.434   3.026  16.143 -0.0726 -0.6650  0.7970
  508MPD2    H1 7605   4.308   2.656  15.965  0.9943  0.5004 -1.2108
  508MPD2    H2 7606   4.468   2.663  16.363  0.2253 -2.1216 -0.6170
  508MPD2    H3 7607   4.373   2.542  16.173 -1.7907 -0.4213 -1.5972
  508MPD2     N 7608   4.322   2.920  15.918 -0.2099 -0.9517  0.6112
  508MPD2    H5 7609   4.360   3.014  15.919 -2.3189 -0.0948 -2.3462
  508MPD2    N1 7610   4.507   2.938  16.363 -0.0217 -0.6457 -0.4478
  508MPD2    H7 7611   4.490   3.037  16.349  1.0613 -0.0447  2.6446
  509TMC3    C1 7612   4.097   3.181  15.676  0.2907  1.1479  0.5522
  509TMC3    C2 7613   4.212   3.258  15.671 -0.1737  0.3284  0.6917
  509TMC3    C3 7614   4.333   3.189  15.691 -0.6543 -0.2827 -0.5051
  509TMC3    C4 7615   4.096   3.044  15.710  0.2290 -0.3099 -0.0023
  509TMC3    C5 7616   4.220   2.985  15.723 -0.5245 -0.3986 -0.2552
  509TMC3    C6 7617   4.337   3.053  15.715  0.1532 -0.7198  0.1487
  509TMC3     C 7618   3.969   3.236  15.635 -0.3197  0.8696  0.7266
  509TMC3     O 7619   3.866   3.177  15.673 -0.1774  0.7328 -0.2056
  509TMC3     H 7620   4.212   3.363  15.644 -0.2574  0.3540  0.7925
  509TMC3    H1 7621   4.011   2.977  15.711 -0.3055  0.3638  0.2666
  509TMC3    H2 7622   4.433   3.002  15.709  0.0968 -0.7613 -0.4053
  509TMC3    C7 7623   4.232   2.879  15.817 -0.2235 -1.2207  0.8191
  509TMC3    C8 7624   4.426   3.259  15.779  0.4358 -0.1192 -0.4660
  509TMC3    O1 7625   4.137   2.798  15.827  0.3722  0.3099 -0.1301
  509TMC3    O2 7626   4.441   3.196  15.882 -0.0830 -0.4086  0.3326
  510MPD2     C 7627   2.049   4.424  14.611 -0.3066 -0.8954  0.9714
  510MPD2    C1 7628   2.067   4.294  14.644 -0.5758  0.0657  0.8472
  510MPD2    C2 7629   2.196   4.230  14.629 -0.3099 -0.4094 -0.1428
  510MPD2    C3 7630   2.285   4.277  14.536 -0.3365 -0.2844  0.4604
  510MPD2    C4 7631   2.254   4.400  14.478 -0.6802  0.3129  0.5976
  510MPD2    C5 7632   2.135   4.469  14.517  0.3475  0.0789  0.1888
  510MPD2     H 7633   2.204   4.133  14.678  0.7925  0.3337  1.1117
  510MPD2    H1 7634   2.325   4.440  14.406 -2.1344 -0.5249 -1.3132
  510MPD2    H2 7635   1.956   4.477  14.625 -1.0902 -1.7136 -1.0656
  510MPD2    H3 7636   2.117   4.566  14.471 -0.5805  0.1928  0.7773
  510MPD2     N 7637   2.411   4.215  14.512  0.3862  0.3882 -0.5131
  510MPD2    H5 7638   2.429   4.132  14.567  0.5413  0.9927  0.3464
  510MPD2    N1 7639   1.971   4.233  14.727  0.0165 -0.5023 -0.2864
  510MPD2    H7 7640   1.895   4.293  14.757 -0.2890 -0.0554 -1.9930
  511TMC3    C1 7641   1.839   4.067  14.829 -0.0406  0.0669 -0.3561
  511TMC3    C2 7642   1.778   4.143  14.923  0.3427 -0.1048  0.4678
  511TMC3    C3 7643   1.663   4.095  14.981 -0.2057  0.2734 -0.4182
  511TMC3    C4 7644   1.787   3.952  14.782  0.4375  0.5944  0.3024
  511TMC3    C5 7645   1.687   3.897  14.862  1.1870  0.2911 -0.4574
  511TMC3    C6 7646   1.609   3.974  14.949 -0.2504  0.0570 -0.1682
  511TMC3     C 7647   1.969   4.105  14.772  0.3552 -0.1014  0.8337
  511TMC3     O 7648   2.039   4.008  14.739  0.2946 -0.4775 -0.3264
  511TMC3     H 7649   1.825   4.234  14.958 -1.3590  1.4212 -1.2312
  511TMC3    H1 7650   1.848   3.892  14.716 -0.0558  0.4260  0.0041
  511TMC3    H2 7651   1.522   3.926  14.990  1.6617 -2.3129  1.1376
  511TMC3    C7 7652   1.651   3.766  14.823 -0.4768 -0.2486  0.7341
  511TMC3    C8 7653   1.612   4.176  15.094  0.6969 -0.2589  0.2433
  511TMC3    O1 7654   1.689   3.731  14.712 -0.3427 -0.8566 -0.0390
  511TMC3    O2 7655   1.653   4.291  15.106 -0.0998  0.7222 -0.0986
  512TMC3    C1 7656   1.074   3.818  13.007  0.1050  0.9652  0.7247
  512TMC3    C2 7657   1.165   3.777  13.091  0.0804  0.3235  0.5951
  512TMC3    C3 7658   1.134   3.664  13.166  0.0932 -1.0124 -0.2265
  512TMC3    C4 7659   0.962   3.744  12.971  0.4171 -0.1668  0.7077
  512TMC3    C5 7660   0.956   3.618  13.020 -0.1304  0.2227  0.0668
  512TMC3    C6 7661   1.035   3.575  13.124 -0.2670  0.1608 -0.3491
  512TMC3     C 7662   1.121   3.913  12.908 -0.8405  0.0710  0.1140
  512TMC3     O 7663   1.239   3.900  12.886 -0.6146 -0.0310 -0.0821
  512TMC3     H 7664   1.232   3.858  13.120  0.8995 -0.2693  0.3727
  512TMC3    H1 7665   0.901   3.787  12.892 -2.3067  0.0660  2.9395
  512TMC3    H2 7666   1.018   3.488  13.186 -1.1719 -1.9399 -3.4969
  512TMC3    C7 7667   0.861   3.530  12.952  0.2998  0.1233 -1.1257
  512TMC3    C8 7668   1.167   3.661  13.307  0.0742  0.8596  0.1147
  512TMC3    O1 7669   0.812   3.567  12.848 -0.1916  0.2157 -0.1005
  512TMC3    O2 7670   1.124   3.575  13.378  1.0220  0.2033 -0.3642
  513MPD2     C 7671   2.300   3.334  12.794  0.8674 -0.5466 -0.0509
  513MPD2    C1 7672   2.401   3.263  12.750  0.1542  0.4538  0.4268
  513MPD2    C2 7673   2.484   3.203  12.846 -0.8487 -0.0303  0.6197
  513MPD2    C3 7674   2.470   3.213  12.981  0.5034 -0.0579  0.7999
  513MPD2    C4 7675   2.362   3.287  13.022  0.4711  0.0323 -0.5946
  513MPD2    C5 7676   2.276   3.343  12.932 -0.7364  0.1649 -0.4939
  513MPD2     H 7677   2.576   3.149  12.822 -0.9928 -0.4592  1.0177
  513MPD2    H1 7678   2.335   3.295  13.127 -0.1919 -0.6401 -0.7182
  513MPD2    H2 7679   2.228   3.380  12.729  1.6945 -1.6933 -1.7848
  513MPD2    H3 7680   2.187   3.388  12.973  0.4271  2.2719 -0.2818
  513MPD2     N 7681   2.558   3.139  13.062 -0.0227  0.1705 -0.3276
  513MPD2    H5 7682   2.623   3.088  13.003 -0.8315  0.3011 -1.3181
  513MPD2    N1 7683   2.435   3.254  12.613 -0.1765 -0.1049 -0.1697
  513MPD2    H7 7684   2.515   3.194  12.594  0.4720  1.4923 -2.4365
  514TMC3    C1 7685   2.444   3.286  12.389  0.2178  1.5888 -0.3535
  514TMC3    C2 7686   2.512   3.388  12.329  0.2835  0.0652 -0.0999
  514TMC3    C3 7687   2.642   3.368  12.296 -0.5587  0.5922 -0.0833
  514TMC3    C4 7688   2.510   3.166  12.410 -0.0022  0.0460 -0.5617
  514TMC3    C5 7689   2.639   3.148  12.371  0.5948  0.1538 -0.2870
  514TMC3    C6 7690   2.712   3.256  12.328 -0.0872 -0.4296 -0.2922
  514TMC3     C 7691   2.386   3.325  12.514 -0.6730  0.2236  0.1589
  514TMC3     O 7692   2.333   3.435  12.519  0.0027 -0.3074  0.1095
  514TMC3     H 7693   2.457   3.476  12.298  0.6175 -0.1811 -1.3609
  514TMC3    H1 7694   2.453   3.079  12.440  0.1289 -0.3312 -1.4057
  514TMC3    H2 7695   2.819   3.254  12.312 -0.1977  3.1642 -1.3556
  514TMC3    C7 7696   2.702   3.061  12.466 -0.5683  0.2530  0.3211
  514TMC3    C8 7697   2.701   3.465  12.210  0.2177  0.7559 -0.2918
  514TMC3    O1 7698   2.637   3.041  12.569  0.0808 -1.0769  0.5106
  514TMC3    O2 7699   2.633   3.566  12.186  0.6662  0.2973  0.1444
  515MPD2     C 7700   0.471   1.249  15.047 -0.5764 -0.3387 -0.5005
  515MPD2    C1 7701   0.526   1.125  15.039  0.4754 -0.4768 -0.0067
  515MPD2    C2 7702   0.656   1.110  15.087  0.0686  0.3192  0.0288
  515MPD2    C3 7703   0.729   1.223  15.117  0.1335  0.2219  0.0719
  515MPD2    C4 7704   0.677   1.353  15.098  0.3394  0.0704  0.2257
  515MPD2    C5 7705   0.541   1.361  15.070  0.9395  0.2306 -0.2393
  515MPD2     H 7706   0.703   1.013  15.089 -1.1512 -0.3029 -1.3452
  515MPD2    H1 7707   0.732   1.445  15.115 -0.5112  0.4515  0.9106
  515MPD2    H2 7708   0.365   1.264  15.029 -0.7908 -1.4390 -0.2139
  515MPD2    H3 7709   0.500   1.460  15.056 -0.0789  0.1276  1.9959
  515MPD2     N 7710   0.867   1.221  15.154 -0.1141  0.1586  0.2677
  515MPD2    H5 7711   0.921   1.307  15.149  2.0730 -1.3143 -1.4558
  515MPD2    N1 7712   0.447   1.009  14.998 -0.2151 -0.2294 -0.3965
  515MPD2    H7 7713   0.494   0.920  15.008 -1.4524 -1.1291 -2.7031
  516TMC3    C1 7714   0.297   0.885  14.847 -0.0896  0.0922 -0.3272
  516TMC3    C2 7715   0.187   0.894  14.756 -0.5535 -0.4655 -0.7325
  516TMC3    C3 7716   0.161   0.777  14.690  0.4071 -0.2555  0.2428
  516TMC3    C4 7717   0.376   0.779  14.857 -0.1038  0.2709  0.2107
  516TMC3    C5 7718   0.335   0.665  14.788 -0.0863  0.1743  0.1196
  516TMC3    C6 7719   0.226   0.664  14.707  0.1758 -0.0216  0.7596
  516TMC3     C 7720   0.325   1.005  14.926 -0.0258 -1.1228 -0.9764
  516TMC3     O 7721   0.250   1.101  14.905 -0.5243 -0.2088 -0.3321
  516TMC3     H 7722   0.130   0.986  14.747 -0.6613 -0.4439  0.2429
  516TMC3    H1 7723   0.456   0.765  14.929  0.8469 -1.0612 -1.0997
  516TMC3    H2 7724   0.170   0.579  14.669 -1.6532  2.0516 -1.2138
  516TMC3    C7 7725   0.409   0.541  14.811 -0.0259  0.3499  0.2461
  516TMC3    C8 7726   0.058   0.779  14.585  0.1362 -0.5470  0.2712
  516TMC3    O1 7727   0.487   0.536  14.905 -0.6697  0.1865  0.4161
  516TMC3    O2 7728   0.000   0.677  14.551 -0.5275  0.1013  0.1462
  517MPD2     C 7729   0.801   2.079   0.637 -0.0340  0.1383 -0.2986
  517MPD2    C1 7730   0.938   2.057   0.624  0.2030  0.2322 -0.6184
  517MPD2    C2 7731   1.027   2.159   0.641  0.2923  0.3877  0.5353
  517MPD2    C3 7732   0.991   2.283   0.688 -0.5108  0.4262  0.3883
  517MPD2    C4 7733   0.855   2.296   0.721 -0.2557  0.0724 -0.0214
  517MPD2    C5 7734   0.761   2.199   0.689 -0.5721  0.4670 -0.5149
  517MPD2     H 7735   1.132   2.135   0.624 -0.4256 -1.4707 -1.2924
  517MPD2    H1 7736   0.818   2.393   0.753 -2.0583 -0.3991 -0.6479
  517MPD2    H2 7737   0.720   2.011   0.616  0.3561 -1.0242  2.0233
  517MPD2    H3 7738   0.657   2.222   0.711 -0.7919 -2.5112  1.5861
  517MPD2     N 7739   1.077   2.389   0.706  0.2817 -0.0920 -0.2244
  517MPD2    H5 7740   1.043   2.448   0.781 -0.0906  0.7975 -1.0893
  517MPD2    N1 7741   0.985   1.949   0.538 -0.0106 -0.1379  0.3478
  517MPD2    H7 7742   1.075   1.959   0.492 -0.3587  1.9623  0.1437
  518TMC3    C1 7743   0.973   1.754   0.402  0.1622  0.6297 -0.2561
  518TMC3    C2 7744   0.912   1.631   0.377 -0.1346  0.4087  0.0505
  518TMC3    C3 7745   0.979   1.545   0.288 -0.5994  0.2193  0.2465
  518TMC3    C4 7746   1.100   1.778   0.360 -0.0960 -0.1397  0.0477
  518TMC3    C5 7747   1.155   1.703   0.272  0.2499  0.8281 -0.5268
  518TMC3    C6 7748   1.104   1.580   0.240  0.5438 -0.3097  0.0516
  518TMC3     C 7749   0.906   1.845   0.500  0.0524 -0.3106  0.3596
  518TMC3     O 7750   0.798   1.808   0.555 -0.2077  0.4185 -0.2891
  518TMC3     H 7751   0.811   1.621   0.414 -1.0511 -0.2071 -2.6089
  518TMC3    H1 7752   1.138   1.879   0.371  1.5959 -0.9983  2.1095
  518TMC3    H2 7753   1.143   1.513   0.164  0.1278 -0.4248 -0.0609
  518TMC3    C7 7754   1.283   1.750   0.217  0.5413  0.6666 -0.2927
  518TMC3    C8 7755   0.921   1.416   0.241  0.0285 -0.2653 -0.5195
  518TMC3    O1 7756   1.336   1.848   0.265  0.1374  0.5519 -1.0451
  518TMC3    O2 7757   0.993   1.356   0.165 -0.0488 -0.4000  0.1085
  519MPD2     C 7758   2.297   0.345  14.381 -0.1449 -0.8816 -0.0589
  519MPD2    C1 7759   2.224   0.402  14.276 -0.3223 -0.4207 -0.1848
  519MPD2    C2 7760   2.277   0.406  14.142  0.3753 -0.1590  0.2723
  519MPD2    C3 7761   2.402   0.343  14.119 -0.4734 -0.2778 -0.4795
  519MPD2    C4 7762   2.473   0.289  14.226 -0.4671 -0.0074  0.0476
  519MPD2    C5 7763   2.424   0.295  14.355  0.2307  0.1598  1.1963
  519MPD2     H 7764   2.224   0.459  14.064 -1.1224  1.1394  2.1992
  519MPD2    H1 7765   2.573   0.250  14.211 -0.8165  0.3484 -3.2999
  519MPD2    H2 7766   2.274   0.354  14.487 -1.0139 -1.7181 -0.1771
  519MPD2    H3 7767   2.493   0.267  14.434  0.7710 -1.7366  0.0562
  519MPD2     N 7768   2.471   0.323  13.994 -0.4641  0.1444 -0.0501
  519MPD2    H5 7769   2.558   0.272  13.992 -0.0529  0.7724  1.4387
  519MPD2    N1 7770   2.098   0.467  14.307 -0.1699  0.2676  0.3380
  519MPD2    H7 7771   2.086   0.461  14.407 -1.3552 -0.4267  0.1483
  520TMC3    C1 7772   2.492   0.266  13.765 -0.4862  0.4678 -0.0366
  520TMC3    C2 7773   2.425   0.251  13.650  0.0803  0.3924  0.2078
  520TMC3    C3 7774   2.435   0.132  13.582  0.1304 -0.2199 -0.3159
  520TMC3    C4 7775   2.590   0.176  13.802 -0.3496 -0.0342  0.1646
  520TMC3    C5 7776   2.609   0.063  13.720  0.2687  0.4726 -0.0321
  520TMC3    C6 7777   2.536   0.035  13.611  0.8341 -0.1945 -0.1617
  520TMC3     C 7778   2.420   0.346  13.867  0.3305  0.7996 -0.5203
  520TMC3     O 7779   2.315   0.402  13.834 -0.4328 -0.4361 -0.0441
  520TMC3     H 7780   2.354   0.328  13.620  1.6631  1.2997 -1.2178
  520TMC3    H1 7781   2.646   0.190  13.894  1.2800 -0.5299 -0.7421
  520TMC3    H2 7782   2.541   4.694  13.538 -0.5036  0.1241 -0.6062
  520TMC3    C7 7783   2.700   4.707  13.772 -0.0653  0.5065 -0.1371
  520TMC3    C8 7784   2.329   0.098  13.490 -0.0175 -0.1770  0.0882
  520TMC3    O1 7785   2.720   4.711  13.891 -0.3372 -1.1133 -0.5865
  520TMC3    O2 7786   2.371   0.056  13.383 -0.0363 -0.3368 -0.2065
  521MPD2     C 7787   3.052   3.919  17.186  0.5149  0.6430  0.2675
  521MPD2    C1 7788   3.099   3.792  17.212 -0.3327 -0.5905  0.0406
  521MPD2    C2 7789   3.215   3.746  17.146  0.2998  0.3399 -0.6100
  521MPD2    C3 7790   3.283   3.822  17.052  0.4852 -0.3889 -1.2409
  521MPD2    C4 7791   3.228   3.944  17.022  0.6581 -0.0104 -0.0453
  521MPD2    C5 7792   3.123   3.993  17.088 -0.5485 -0.3714  0.4280
  521MPD2     H 7793   3.247   3.646  17.170 -2.8896 -0.6780 -0.6687
  521MPD2    H1 7794   3.278   4.003  16.946 -0.7199  1.2509  0.0370
  521MPD2    H2 7795   2.960   3.961  17.227 -1.8704 -3.4418 -0.9089
  521MPD2    H3 7796   3.098   4.097  17.072 -0.9779 -0.2226  2.0914
  521MPD2     N 7797   3.392   3.772  16.986 -0.0425 -0.2231 -0.2214
  521MPD2    H5 7798   3.411   3.675  17.011  0.0512 -0.0412  0.4251
  521MPD2    N1 7799   3.027   3.723  17.301  0.5272 -0.5076 -0.0508
  521MPD2    H7 7800   2.946   3.771  17.339  0.0328 -0.6726 -0.8785
  522TMC3    C1 7801   3.575   3.730  16.852 -0.3929 -0.4109  0.6124
  522TMC3    C2 7802   3.686   3.779  16.795 -0.0556  0.3273 -0.2486
  522TMC3    C3 7803   3.763   3.695  16.725 -0.0736  0.2617 -0.5197
  522TMC3    C4 7804   3.529   3.602  16.833  0.1909  0.1733 -0.2407
  522TMC3    C5 7805   3.621   3.517  16.772 -0.5077  0.6491  0.2336
  522TMC3    C6 7806   3.736   3.558  16.714  0.1907  0.3095  0.3156
  522TMC3     C 7807   3.474   3.827  16.891  0.5315 -0.2597  0.4531
  522TMC3     O 7808   3.477   3.940  16.840  1.3914  0.8288 -0.4254
  522TMC3     H 7809   3.706   3.886  16.794 -0.0669  0.3500  1.6352
  522TMC3    H1 7810   3.425   3.573  16.834  0.8283 -2.1570  0.4958
  522TMC3    H2 7811   3.798   3.487  16.661  1.7862  2.0512 -0.1697
  522TMC3    C7 7812   3.581   3.380  16.749 -0.0842  0.1174  0.1721
  522TMC3    C8 7813   3.892   3.746  16.682  0.2169  0.3588  0.2557
  522TMC3    O1 7814   3.646   3.325  16.659  0.5220 -0.5619  0.4736
  522TMC3    O2 7815   3.898   3.865  16.670 -0.3734  0.0953 -0.2455
  523MPD2     C 7816   4.637   3.032   9.940  0.1150  0.0678  0.3041
  523MPD2    C1 7817   4.628   3.107  10.058 -0.3441  0.1724  0.3328
  523MPD2    C2 7818   4.602   3.243  10.060  0.8817 -0.2245 -0.1380
  523MPD2    C3 7819   4.571   3.305   9.935  0.5357  0.3476 -0.0669
  523MPD2    C4 7820   4.568   3.232   9.821 -0.7807  0.3410  0.4830
  523MPD2    C5 7821   4.600   3.095   9.823  0.5121  0.3622 -0.3870
  523MPD2     H 7822   4.619   3.303  10.149  0.8851  0.4508 -0.5983
  523MPD2    H1 7823   4.550   3.283   9.728 -0.7314 -0.7526 -0.1212
  523MPD2    H2 7824   4.649   2.925   9.934  0.9598  0.1703  0.2677
  523MPD2    H3 7825   4.596   3.028   9.738  0.5791  1.5993 -1.3694
  523MPD2     N 7826   4.524   3.440   9.921  0.0700 -0.3411 -0.9661
  523MPD2    H5 7827   4.491   3.469   9.830  0.2311  2.8027 -0.0383
  523MPD2    N1 7828   4.657   3.030  10.174 -0.5625  0.4767 -0.1821
  523MPD2    H7 7829   4.679   2.932  10.157  0.3926  0.5903  0.3839
  524TMC3    C1 7830   4.478   3.666   9.982 -0.5957  0.0218  0.3875
  524TMC3    C2 7831   4.474   3.698   9.846 -0.2983 -0.1289 -0.3776
  524TMC3    C3 7832   4.405   3.813   9.817 -0.0559  0.2838 -0.3543
  524TMC3    C4 7833   4.424   3.744  10.083 -0.4911 -0.2976 -0.8005
  524TMC3    C5 7834   4.363   3.864  10.044  0.0402  0.4718  0.5201
  524TMC3    C6 7835   4.346   3.898   9.914  0.0617 -0.8185 -0.8554
  524TMC3     C 7836   4.542   3.539  10.016  0.3298 -0.3866  0.6799
  524TMC3     O 7837   4.584   3.531  10.129 -0.1212 -0.4760 -0.1935
  524TMC3     H 7838   4.554   3.656   9.786  0.8012  0.6361  0.5422
  524TMC3    H1 7839   4.429   3.712  10.187 -0.8965 -1.7713 -1.2325
  524TMC3    H2 7840   4.291   3.983   9.876  2.1417  0.2131 -1.5947
  524TMC3    C7 7841   4.311   3.949  10.148  0.8923 -0.0786  0.4777
  524TMC3    C8 7842   4.362   3.845   9.682 -0.1957  0.9633 -0.3942
  524TMC3    O1 7843   4.248   3.892  10.238 -1.3912  0.1123  0.0860
  524TMC3    O2 7844   4.343   3.965   9.666 -0.1674  0.3175  0.5034
  525MPD2     C 7845   4.280   4.658  14.453  0.0474 -0.2178  0.0087
  525MPD2    C1 7846   4.155   4.678  14.516  0.3720 -0.0538  0.1945
  525MPD2    C2 7847   4.093   0.058  14.489 -0.3589 -0.2359 -0.8109
  525MPD2    C3 7848   4.153   0.154  14.404  0.2527 -0.8051 -0.4830
  525MPD2    C4 7849   4.278   0.129  14.351  0.1817  0.9677 -0.1531
  525MPD2    C5 7850   4.341   0.013  14.377 -0.8024 -0.0975  0.0003
  525MPD2     H 7851   3.997   0.085  14.532 -0.6559 -1.5639 -0.6260
  525MPD2    H1 7852   4.329   0.203  14.291 -1.5090  2.1508 -0.1322
  525MPD2    H2 7853   4.343   4.573  14.477 -0.9852 -0.7591  0.8090
  525MPD2    H3 7854   4.428   4.725  14.317 -1.7211  0.6851 -1.6970
  525MPD2     N 7855   4.103   0.284  14.383  0.1569 -0.0234  0.1613
  525MPD2    H5 7856   4.156   0.343  14.319  0.3278 -0.5834 -0.2122
  525MPD2    N1 7857   4.104   4.589  14.610  0.2979 -0.2334  0.4159
  525MPD2    H7 7858   4.157   4.504  14.628  0.3731 -0.2325  0.1871
  526TMC3    C1 7859   3.978   4.507  14.789  0.6107  0.5479  0.4406
  526TMC3    C2 7860   3.864   4.456  14.823 -0.6398  1.1865 -0.1474
  526TMC3    C3 7861   3.868   4.346  14.913 -0.3997  0.1977  0.2387
  526TMC3    C4 7862   4.095   4.465  14.846  0.3652 -0.4621 -0.1808
  526TMC3    C5 7863   4.098   4.359  14.934  1.1119  0.3592 -0.4154
  526TMC3    C6 7864   3.981   4.295  14.958  0.4570  0.3273  0.1513
  526TMC3     C 7865   3.984   4.600  14.681 -0.4312  0.0380  0.2034
  526TMC3     O 7866   3.896   4.692  14.688  0.0345  0.6428 -0.2716
  526TMC3     H 7867   3.770   4.485  14.776 -1.6232 -1.4474  0.1584
  526TMC3    H1 7868   4.191   4.516  14.842  0.9413 -1.5069  0.2071
  526TMC3    H2 7869   3.978   4.202  15.014 -0.6743 -0.5467 -1.3585
  526TMC3    C7 7870   4.210   4.280  14.932 -0.4960 -0.6137 -0.3299
  526TMC3    C8 7871   3.787   4.362  15.030  0.4476 -0.4189  0.6425
  526TMC3    O1 7872   4.197   4.161  14.906  0.2056  0.0810  0.0218
  526TMC3    O2 7873   3.838   4.326  15.135 -0.5698  0.0459 -0.5307
  527MPD2     C 7874   1.941   3.078   1.559 -0.4452 -0.0208 -0.4299
  527MPD2    C1 7875   1.880   2.998   1.463  0.0550 -0.2277 -0.0493
  527MPD2    C2 7876   1.937   2.878   1.436 -0.1632 -0.0608 -0.4317
  527MPD2    C3 7877   2.059   2.831   1.487 -0.5516  0.1843  0.4748
  527MPD2    C4 7878   2.113   2.908   1.588 -0.2363 -0.5365  0.3585
  527MPD2    C5 7879   2.051   3.028   1.624 -0.4481 -0.0672  0.0945
  527MPD2     H 7880   1.894   2.823   1.354 -2.5798  0.7731  0.2795
  527MPD2    H1 7881   2.213   2.897   1.626 -0.2756 -0.4242  0.4944
  527MPD2    H2 7882   1.904   3.180   1.563  0.0539  0.0720  1.9069
  527MPD2    H3 7883   2.110   3.095   1.686  0.9363 -1.0553 -0.1717
  527MPD2     N 7884   2.115   2.711   1.433 -0.5296 -0.0879  0.3242
  527MPD2    H5 7885   2.068   2.662   1.357 -2.5629 -0.2366  1.6608
  527MPD2    N1 7886   1.764   3.035   1.390  0.5295 -0.6875  0.3009
  527MPD2    H7 7887   1.722   2.969   1.325  0.7836 -2.2779  1.7492
  528TMC3    C1 7888   1.564   3.141   1.335 -0.1312 -0.4374 -0.3095
  528TMC3    C2 7889   1.558   3.140   1.202  0.1982  0.6745 -0.7716
  528TMC3    C3 7890   1.450   3.091   1.132  0.5714 -0.1717  0.1289
  528TMC3    C4 7891   1.457   3.098   1.411 -0.1767 -0.0716  0.7551
  528TMC3    C5 7892   1.350   3.054   1.340  0.4913 -0.2681  0.1839
  528TMC3    C6 7893   1.339   3.050   1.205 -0.1054 -0.7028 -0.2293
  528TMC3     C 7894   1.691   3.151   1.407 -0.3887 -0.2339 -0.4328
  528TMC3     O 7895   1.701   3.232   1.499 -0.7598  0.2289  0.3654
  528TMC3     H 7896   1.640   3.183   1.146  1.1666  0.7215  0.6728
  528TMC3    H1 7897   1.470   3.096   1.518  0.2777  0.0368  0.7046
  528TMC3    H2 7898   1.252   3.012   1.152  1.1667  1.3805 -3.8129
  528TMC3    C7 7899   1.242   3.004   1.414  0.5416 -0.5718  0.2312
  528TMC3    C8 7900   1.453   3.109   0.992  0.0359  0.1634 -0.3663
  528TMC3    O1 7901   1.132   3.018   1.360  0.1613  0.8084 -0.6953
  528TMC3    O2 7902   1.552   3.163   0.936  0.1257  0.1544 -0.2645
  529MPD2     C 7903   4.440   1.683   0.557  0.0918  0.5954  0.0747
  529MPD2    C1 7904   4.423   1.543   0.553  0.8578 -1.2003  0.5183
  529MPD2    C2 7905   4.341   1.486   0.458 -0.3653  0.5372  0.2323
  529MPD2    C3 7906   4.278   1.568   0.372  0.7119 -0.3513  0.3272
  529MPD2    C4 7907   4.305   1.704   0.367  0.2698  0.4679  1.0835
  529MPD2    C5 7908   4.386   1.760   0.461  0.5597  0.9757 -0.0979
  529MPD2     H 7909   4.321   1.379   0.455  0.3199  0.3916  0.6494
  529MPD2    H1 7910   4.265   1.765   0.287  0.5618 -2.3049 -1.1841
  529MPD2    H2 7911   4.507   1.743   0.617  0.7098 -0.6462  0.6190
  529MPD2    H3 7912   4.396   1.867   0.456 -0.8052  1.2224  2.2655
  529MPD2     N 7913   4.186   1.517   0.276 -0.1195 -0.8642  0.1413
  529MPD2    H5 7914   4.135   1.577   0.211  0.8533 -0.3282 -0.1263
  529MPD2    N1 7915   4.483   1.465   0.654 -0.3920  0.2414  0.3707
  529MPD2    H7 7916   4.468   1.364   0.648  1.6596 -0.1156  1.0434
  530TMC3    C1 7917   4.612   1.398   0.839 -0.2827  0.2390 -0.1275
  530TMC3    C2 7918   4.680   1.424   0.950  0.0634  0.6180  0.8816
  530TMC3    C3 7919   4.712   1.318   1.027  0.1727 -0.0958 -1.2139
  530TMC3    C4 7920   4.593   1.265   0.787  0.1703  0.4499 -0.3318
  530TMC3    C5 7921   4.631   1.163   0.867 -1.0022  0.2896  1.0301
  530TMC3    C6 7922   4.678   1.191   0.992  0.5876  0.2627 -0.2415
  530TMC3     C 7923   4.552   1.504   0.765 -0.5910  0.1741  0.8378
  530TMC3     O 7924   4.583   1.617   0.800  0.0277  0.0820 -0.6727
  530TMC3     H 7925   4.713   1.527   0.965  0.1736  0.8311 -0.7361
  530TMC3    H1 7926   4.551   1.236   0.692 -1.2114  5.0478 -1.1274
  530TMC3    H2 7927   4.706   1.112   1.062  2.5217  0.0685 -1.2218
  530TMC3    C7 7928   4.566   1.028   0.839  0.6285 -0.1701 -0.4174
  530TMC3    C8 7929   0.065   1.334   1.141  0.0739  0.0051  0.4170
  530TMC3    O1 7930   4.475   1.019   0.758 -0.1875 -0.6903  0.6778
  530TMC3    O2 7931   0.057   1.435   1.209 -0.0132  0.1780 -0.0457
  531MPD2     C 7932   3.115   2.929  12.710  0.2359  0.5193  0.7281
  531MPD2    C1 7933   2.991   2.961  12.761 -0.0073 -0.7637 -0.1403
  531MPD2    C2 7934   2.894   3.003  12.672 -0.3014  0.9131  1.1882
  531MPD2    C3 7935   2.927   3.015  12.541 -0.8291  0.5654  0.4417
  531MPD2    C4 7936   3.055   2.981  12.494 -0.4858  0.3320 -0.2771
  531MPD2    C5 7937   3.145   2.941  12.587 -0.8496  0.3016 -0.4927
  531MPD2     H 7938   2.798   3.028  12.714 -0.6470  1.0681  0.3023
  531MPD2    H1 7939   3.086   2.981  12.390  1.3987  1.7573  0.2907
  531MPD2    H2 7940   3.198   2.909  12.776 -1.3947 -3.7397  1.5198
  531MPD2    H3 7941   3.244   2.920  12.550 -0.6991  1.0283 -0.5135
  531MPD2     N 7942   2.832   3.054  12.446 -0.0696  0.2598  0.0198
  531MPD2    H5 7943   2.870   3.081  12.357  0.3941 -1.7698 -0.4112
  531MPD2    N1 7944   2.966   2.945  12.898  0.1620  0.2749 -0.1763
  531MPD2    H7 7945   3.045   2.933  12.961  0.1982  4.4037  0.5371
  532TMC3    C1 7946   2.854   2.970  13.097 -0.5069  0.0453 -0.0461
  532TMC3    C2 7947   2.729   2.981  13.150 -0.2017  0.5010  0.2383
  532TMC3    C3 7948   2.692   3.074  13.243  0.0888  0.0048  0.0690
  532TMC3    C4 7949   2.950   3.049  13.141 -0.3216  0.5781 -0.3871
  532TMC3    C5 7950   2.924   3.131  13.247  0.6962 -0.1951  0.5627
  532TMC3    C6 7951   2.798   3.143  13.299  0.1711 -0.5037  0.9741
  532TMC3     C 7952   2.843   2.953  12.957 -0.5779  0.2866 -0.1431
  532TMC3     O 7953   2.732   2.944  12.907  0.0625  0.1077  0.4304
  532TMC3     H 7954   2.655   2.912  13.112  1.8298 -0.9294 -1.1758
  532TMC3    H1 7955   3.044   3.047  13.087  0.9137 -2.8002  1.8845
  532TMC3    H2 7956   2.780   3.222  13.371  0.8456 -0.6221  1.2744
  532TMC3    C7 7957   3.031   3.174  13.322 -0.2602 -0.1928  0.6500
  532TMC3    C8 7958   2.588   3.156  13.198  0.0453  0.0374 -0.2985
  532TMC3    O1 7959   3.032   3.289  13.366  0.1154 -0.3338 -0.1591
  532TMC3    O2 7960   2.541   3.237  13.274 -0.1149  0.2370  0.5448
  533TMC3    C1 7961   4.000   0.486  14.421 -0.2487  0.1014 -0.3856
  533TMC3    C2 7962   4.118   0.549  14.454 -0.2797 -0.0113  0.2846
  533TMC3    C3 7963   4.110   0.683  14.503  0.0083  0.3876 -0.0603
  533TMC3    C4 7964   3.879   0.549  14.445  0.5469  0.1860 -0.1642
  533TMC3    C5 7965   3.876   0.670  14.508  0.2146 -0.1634 -0.2852
  533TMC3    C6 7966   3.988   0.743  14.535  0.1092 -0.0325  0.1281
  533TMC3     C 7967   3.993   0.343  14.433  0.2661 -0.4596  0.3521
  533TMC3     O 7968   3.896   0.312  14.502  0.3887 -0.4839 -0.0983
  533TMC3     H 7969   4.218   0.508  14.444 -0.9694 -1.5748 -0.0733
  533TMC3    H1 7970   3.792   0.489  14.420  0.5187 -1.0988  2.9511
  533TMC3    H2 7971   3.982   0.848  14.565  0.5364 -0.4815  1.7663
  533TMC3    C7 7972   3.785   0.657  14.627 -0.1463 -0.2399  0.1222
  533TMC3    C8 7973   4.236   0.750  14.536  0.4666 -1.1619  0.3244
  533TMC3    O1 7974   3.694   0.577  14.617  0.0569  0.4583 -0.4970
  533TMC3    O2 7975   4.336   0.678  14.561  0.1972  0.2694 -0.4162
  534MPD2     C 7976   2.157   1.273   1.087 -0.5811 -0.1841 -0.4533
  534MPD2    C1 7977   2.090   1.383   1.143 -0.1311 -0.6128  0.6678
  534MPD2    C2 7978   1.954   1.396   1.128  0.7833  0.0812  0.2480
  534MPD2    C3 7979   1.882   1.296   1.062  0.2153 -0.4944  0.0586
  534MPD2    C4 7980   1.949   1.182   1.009 -0.2232  0.5480  0.1722
  534MPD2    C5 7981   2.080   1.167   1.031  0.0466  0.2642 -0.3969
  534MPD2     H 7982   1.910   1.481   1.179  0.7111  0.8397 -1.0920
  534MPD2    H1 7983   1.894   1.109   0.950 -0.4230 -0.0140  1.0541
  534MPD2    H2 7984   2.264   1.257   1.081 -0.2706  2.0135 -0.7828
  534MPD2    H3 7985   2.130   1.079   0.994  0.5041 -0.0526  0.9849
  534MPD2     N 7986   1.745   1.300   1.033 -0.4549 -0.1388 -0.4853
  534MPD2    H5 7987   1.700   1.213   1.006 -2.1150 -0.1575  2.3016
  534MPD2    N1 7988   2.163   1.483   1.211 -0.2426 -0.5200  0.3732
  534MPD2    H7 7989   2.110   1.551   1.264  0.3479  0.0193  0.2717
  535TMC3    C1 7990   1.533   1.381   0.986  0.3873  0.4050 -0.0011
  535TMC3    C2 7991   1.427   1.446   1.047  0.3057  0.4774  0.3048
  535TMC3    C3 7992   1.299   1.408   1.009 -0.3534 -0.3212  0.7051
  535TMC3    C4 7993   1.515   1.289   0.884 -0.1455 -0.6083  0.3279
  535TMC3    C5 7994   1.385   1.277   0.842 -0.4844 -0.0472  0.5798
  535TMC3    C6 7995   1.271   1.330   0.903  0.8423 -0.3768 -0.0811
  535TMC3     C 7996   1.661   1.408   1.042  0.6174 -0.6765  0.2388
  535TMC3     O 7997   1.676   1.523   1.080  0.6470 -0.4613 -0.1948
  535TMC3     H 7998   1.449   1.516   1.127  0.2193  3.2793 -2.1017
  535TMC3    H1 7999   1.594   1.256   0.817  0.0264 -0.4017  0.4280
  535TMC3    H2 8000   1.178   1.312   0.851  0.2899  0.9058  0.4534
  535TMC3    C7 8001   1.374   1.189   0.724  0.3481  0.0318  0.3032
  535TMC3    C8 8002   1.184   1.463   1.076 -0.1619  0.4168  0.3343
  535TMC3    O1 8003   1.450   1.094   0.712  0.0266 -0.1208 -0.2666
  535TMC3    O2 8004   1.075   1.429   1.034 -0.1780  0.0969 -0.5107
  536MPD2     C 8005   0.176   0.258  16.134 -0.3996  0.3052 -0.3580
  536MPD2    C1 8006   0.145   0.128  16.139 -0.1158 -0.0215 -0.1866
  536MPD2    C2 8007   0.107   0.067  16.022 -0.5962 -0.4907  0.3540
  536MPD2    C3 8008   0.102   0.140  15.899 -0.2529 -0.7033 -0.1728
  536MPD2    C4 8009   0.148   0.269  15.904  0.8304  0.5866 -0.9286
  536MPD2    C5 8010   0.189   0.328  16.017 -0.2507  0.1423  0.0501
  536MPD2     H 8011   0.101   4.698  16.014  0.4030 -0.7327  2.8114
  536MPD2    H1 8012   0.144   0.330  15.814 -1.1775 -0.7797 -1.7561
  536MPD2    H2 8013   0.212   0.310  16.222 -1.4032 -0.8903  0.7710
  536MPD2    H3 8014   0.216   0.433  16.022  0.4356  0.0001 -0.6422
  536MPD2     N 8015   0.054   0.088  15.774 -0.3407  0.2236 -0.4556
  536MPD2    H5 8016   0.052   0.155  15.698 -2.3618 -1.5716 -1.9974
  536MPD2    N1 8017   0.148   0.053  16.257  0.3042  0.3501  0.3109
  536MPD2    H7 8018   0.183   0.100  16.340  3.4188  3.4585 -2.7338
  537TMC3    C1 8019   0.144   4.589  16.386 -0.4741 -1.7399  0.0962
  537TMC3    C2 8020   0.252   4.643  16.453  0.0628 -0.7660  0.2881
  537TMC3    C3 8021   0.292   4.576  16.561  0.6666 -0.5307 -0.1397
  537TMC3    C4 8022   0.063   4.490  16.435  0.0647  0.2283  0.0345
  537TMC3    C5 8023   0.104   4.434  16.548 -0.0092  0.7931  0.0198
  537TMC3    C6 8024   0.214   4.475  16.612  0.3818 -0.5674  0.0246
  537TMC3     C 8025   0.087   4.663  16.269  0.4754  0.2627 -0.1145
  537TMC3     O 8026   0.006   4.599  16.201 -0.0079 -0.3931 -0.0076
  537TMC3     H 8027   0.319   4.705  16.396  0.9867 -3.6916 -1.8017
  537TMC3    H1 8028   4.706   4.476  16.388 -0.0219 -1.0520  0.5949
  537TMC3    H2 8029   0.262   4.421  16.693 -1.4562 -1.2260  0.6693
  537TMC3    C7 8030   0.058   4.296  16.554 -0.2529 -0.4496  0.3625
  537TMC3    C8 8031   0.393   4.630  16.651 -0.2048 -0.8056 -0.2293
  537TMC3    O1 8032   4.725   4.251  16.467  0.7980  0.0830  0.3015
  537TMC3    O2 8033   0.426   4.570  16.754  0.3423 -0.7563  0.7326
  538TMC3    C1 8034   0.715   3.338  11.660  0.5619  0.1423 -0.0617
  538TMC3    C2 8035   0.850   3.304  11.643  0.2115 -0.5363  0.1600
  538TMC3    C3 8036   0.894   3.263  11.516 -0.4071 -0.3295  0.5266
  538TMC3    C4 8037   0.628   3.337  11.554  0.2420 -0.0310  0.2526
  538TMC3    C5 8038   0.685   3.293  11.438  1.0365 -0.0822  0.1133
  538TMC3    C6 8039   0.813   3.249  11.412 -0.2353  0.5871 -1.3768
  538TMC3     C 8040   0.665   3.386  11.789  0.1782 -0.0667 -0.2088
  538TMC3     O 8041   0.572   3.463  11.769  0.1324  0.1547  0.2898
  538TMC3     H 8042   0.920   3.305  11.726 -0.1801  0.2097  0.4895
  538TMC3    H1 8043   0.522   3.357  11.561 -0.1305 -1.3438 -1.5947
  538TMC3    H2 8044   0.853   3.230  11.313 -1.3271 -2.9140 -1.1578
  538TMC3    C7 8045   0.587   3.269  11.342 -0.4031  0.6548 -0.1115
  538TMC3    C8 8046   1.032   3.226  11.514  0.4478  0.0852 -0.0986
  538TMC3    O1 8047   0.606   3.165  11.281  0.1342 -0.1243 -0.0058
  538TMC3    O2 8048   1.091   3.217  11.621  0.4884 -0.1676  0.1135
  539MPD2     C 8049   0.799   2.353  11.505  0.8827 -0.0114 -0.1533
  539MPD2    C1 8050   0.774   2.226  11.457 -0.2385  0.2020  0.5261
  539MPD2    C2 8051   0.640   2.198  11.421  0.1641 -0.2974 -0.4609
  539MPD2    C3 8052   0.540   2.299  11.424  0.5693 -0.3280 -0.7407
  539MPD2    C4 8053   0.573   2.425  11.476 -0.8757  0.2118  0.2290
  539MPD2    C5 8054   0.705   2.448  11.524 -0.4700 -0.0789 -0.7279
  539MPD2     H 8055   0.619   2.096  11.390  0.6664 -0.7862  0.8087
  539MPD2    H1 8056   0.504   2.508  11.483 -0.7273  0.5210 -1.8912
  539MPD2    H2 8057   0.896   2.368  11.551  1.2168 -1.5467 -0.3638
  539MPD2    H3 8058   0.745   2.545  11.552  0.8725 -1.5546  2.5066
  539MPD2     N 8059   0.412   2.285  11.378 -0.0012 -0.2416 -0.2620
  539MPD2    H5 8060   0.347   2.362  11.393 -0.4803 -1.0033  1.5538
  539MPD2    N1 8061   0.874   2.135  11.425  0.3412  0.1714  0.2185
  539MPD2    H7 8062   0.837   2.054  11.376  0.2148  0.3312  0.0530
  540TMC3    C1 8063   0.230   2.170  11.288 -0.3766 -0.1869 -0.3277
  540TMC3    C2 8064   0.188   2.268  11.202 -1.1518  0.0955 -0.3352
  540TMC3    C3 8065   0.058   2.265  11.170 -0.7565  0.5613 -0.4169
  540TMC3    C4 8066   0.148   2.064  11.325  0.3152  0.1733 -0.4236
  540TMC3    C5 8067   0.019   2.070  11.292 -0.3137  0.7570  0.2666
  540TMC3    C6 8068   4.711   2.163  11.211  0.0956  0.7304  0.0492
  540TMC3     C 8069   0.366   2.166  11.324 -0.0394  0.1892  0.0812
  540TMC3     O 8070   0.406   2.048  11.327 -0.9943 -0.3981 -0.0272
  540TMC3     H 8071   0.244   2.359  11.189 -1.2617  0.0846 -0.9222
  540TMC3    H1 8072   0.196   1.993  11.391 -0.5941  1.0514  1.1764
  540TMC3    H2 8073   4.604   2.163  11.196 -0.1832 -0.4123  2.0398
  540TMC3    C7 8074   4.658   1.987  11.353 -0.9481  0.1728 -0.4820
  540TMC3    C8 8075   0.021   2.318  11.039 -0.1257 -0.1578  0.0721
  540TMC3    O1 8076   4.547   2.038  11.361  0.0001  0.8840  0.9266
  540TMC3    O2 8077   4.657   2.271  10.987  0.3655 -0.4558 -0.2321
  541MPD2     C 8078   4.210   3.492  13.300  0.0054  0.0128  0.4641
  541MPD2    C1 8079   4.070   3.491  13.283 -0.1860  0.1192  0.0327
  541MPD2    C2 8080   4.021   3.544  13.162 -0.2278  0.2144  0.7916
  541MPD2    C3 8081   4.099   3.596  13.061  0.3091 -0.2959 -0.7936
  541MPD2    C4 8082   4.236   3.598  13.085 -0.1143 -0.6771 -0.1439
  541MPD2    C5 8083   4.283   3.540  13.200  0.2320  0.2933 -0.7199
  541MPD2     H 8084   3.914   3.543  13.146 -0.4474  3.4577  1.8619
  541MPD2    H1 8085   4.312   3.627  13.013  1.3908  0.0410  1.7583
  541MPD2    H2 8086   4.262   3.448  13.384  1.0935  1.3656  0.5076
  541MPD2    H3 8087   4.391   3.531  13.201 -0.0089 -2.5696 -2.0345
  541MPD2     N 8088   4.044   3.647  12.942 -0.0513 -0.4442 -0.0077
  541MPD2    H5 8089   4.108   3.666  12.866  0.5758  1.1433  0.9318
  541MPD2    N1 8090   3.972   3.439  13.372 -0.1334 -0.2368  0.3861
  541MPD2    H7 8091   3.874   3.460  13.354  1.0793  2.3303 -3.2374
  542TMC3    C1 8092   3.881   3.759  12.806  0.1465 -0.3457  0.1997
  542TMC3    C2 8093   3.953   3.726  12.695 -0.4530 -0.3898  0.4110
  542TMC3    C3 8094   3.944   3.814  12.594 -0.0931  0.9254 -0.3127
  542TMC3    C4 8095   3.803   3.868  12.808  0.2067 -0.3741 -0.3062
  542TMC3    C5 8096   3.791   3.954  12.708  0.5138 -0.0505 -0.6326
  542TMC3    C6 8097   3.877   3.926  12.605  0.3320  0.2756  0.1519
  542TMC3     C 8098   3.908   3.681  12.922  0.4121  0.3245 -0.0102
  542TMC3     O 8099   3.811   3.649  12.988  0.0670  0.1029  0.1904
  542TMC3     H 8100   3.998   3.627  12.690  0.3667 -0.0837  1.7113
  542TMC3    H1 8101   3.728   3.864  12.886 -1.6938  3.4326 -1.9689
  542TMC3    H2 8102   3.880   3.994  12.520  1.2064 -1.0771 -0.8925
  542TMC3    C7 8103   3.666   4.000  12.662 -0.1449 -0.0639 -0.3772
  542TMC3    C8 8104   4.015   3.792  12.469 -0.0219 -0.5000  0.8461
  542TMC3    O1 8105   3.621   4.092  12.727  0.5179 -0.0872 -0.1237
  542TMC3    O2 8106   3.975   3.854  12.370  0.5617 -0.0057 -0.0522
  543TMC3    C1 8107   3.832   0.789  16.782  0.2639 -0.3786  0.3364
  543TMC3    C2 8108   3.840   0.687  16.872 -0.6679  0.0117  0.3326
  543TMC3    C3 8109   3.736   0.641  16.938  0.4502 -1.1361  0.0117
  543TMC3    C4 8110   3.712   0.844  16.754  0.1141  0.0757 -0.3335
  543TMC3    C5 8111   3.602   0.798  16.823 -0.0331  0.0267  0.1209
  543TMC3    C6 8112   3.612   0.699  16.917  0.2628 -0.0754 -0.2739
  543TMC3     C 8113   3.948   0.806  16.702 -0.2593 -0.8001  0.1732
  543TMC3     O 8114   4.041   0.726  16.714 -0.0846 -0.0817  0.4606
  543TMC3     H 8115   3.937   0.639  16.884 -0.4739  0.4069  0.3401
  543TMC3    H1 8116   3.715   0.928  16.686 -2.9501 -0.3706 -0.9809
  543TMC3    H2 8117   3.528   0.670  16.980 -1.8071 -0.8028 -3.3368
  543TMC3    C7 8118   3.481   0.882  16.824 -0.6233 -1.1227  0.4919
  543TMC3    C8 8119   3.746   0.516  17.016 -0.5735  0.3608 -0.5791
  543TMC3    O1 8120   3.396   0.886  16.918  0.4880  0.2401 -0.2349
  543TMC3    O2 8121   3.836   0.440  16.982  0.6689  0.7525  0.1859
  544MPD2     C 8122   3.575   0.197  17.383 -0.9874  0.3112 -0.3462
  544MPD2    C1 8123   3.651   0.169  17.273  0.0327 -0.6092  1.7681
  544MPD2    C2 8124   3.674   0.273  17.177 -0.4247  0.2835 -1.1179
  544MPD2    C3 8125   3.618   0.400  17.191  0.1670  0.0046 -0.2174
  544MPD2    C4 8126   3.526   0.415  17.293  0.7535  0.1759 -0.3287
  544MPD2    C5 8127   3.502   0.318  17.380 -0.3165  0.4835  0.3385
  544MPD2     H 8128   3.738   0.254  17.091 -0.4263  1.0920 -1.2995
  544MPD2    H1 8129   3.488   0.516  17.307  0.6490 -0.2719  2.5659
  544MPD2    H2 8130   3.555   0.112  17.448 -0.3568  0.6817  0.3198
  544MPD2    H3 8131   3.424   0.336  17.453  1.2393 -0.5349  2.2685
  544MPD2     N 8132   3.643   0.507  17.106  0.4198  0.5876  0.2477
  544MPD2    H5 8133   3.587   0.591  17.123 -0.9623 -0.4171  0.6591
  544MPD2    N1 8134   3.685   0.033  17.263 -0.4432 -0.1372 -0.3366
  544MPD2    H7 8135   3.651   4.711  17.337  1.3898  1.0586  1.4983
  545TMC3    C1 8136   3.749   4.571  17.161  0.3760 -0.1950  0.0605
  545TMC3    C2 8137   3.781   4.512  17.037  0.0581 -0.1400  0.9741
  545TMC3    C3 8138   3.826   4.382  17.032 -0.0880  0.0646  0.9814
  545TMC3    C4 8139   3.746   4.494  17.273  0.0083  0.6739  0.3122
  545TMC3    C5 8140   3.786   4.368  17.257 -0.3251  0.4868 -0.3766
  545TMC3    C6 8141   3.819   4.303  17.142  0.5625  0.4594  0.2576
  545TMC3     C 8142   3.754   4.716  17.157  0.2826 -0.4735  0.2640
  545TMC3     O 8143   3.793   0.028  17.052 -0.7100  0.6425 -0.7795
  545TMC3     H 8144   3.752   4.569  16.950  1.1229 -0.2150  0.5631
  545TMC3    H1 8145   3.708   4.538  17.365 -1.8251 -1.4819  0.6009
  545TMC3    H2 8146   3.835   4.195  17.142 -4.0828 -0.2049  0.3080
  545TMC3    C7 8147   3.755   4.283  17.369  0.1522  0.3955 -0.2516
  545TMC3    C8 8148   3.862   4.318  16.910  0.1726 -0.1373 -0.0510
  545TMC3    O1 8149   3.674   4.320  17.451 -0.2195  0.1936 -0.1220
  545TMC3    O2 8150   3.863   4.193  16.910  0.0137  0.1052  0.2762
  546MPD2     C 8151   0.608   0.037  17.471 -0.8913  0.2288  0.2486
  546MPD2    C1 8152   0.582   0.123  17.367  0.4208 -0.0387 -0.0903
  546MPD2    C2 8153   0.588   0.261  17.383  0.0898  0.3550  0.3848
  546MPD2    C3 8154   0.653   0.311  17.495 -0.5480 -0.0302  0.2207
  546MPD2    C4 8155   0.680   0.220  17.598 -0.1968 -1.0963 -0.1456
  546MPD2    C5 8156   0.649   0.085  17.592  0.0564 -0.4165  0.7090
  546MPD2     H 8157   0.551   0.315  17.297 -0.5880 -2.2649 -0.9774
  546MPD2    H1 8158   0.719   0.255  17.692 -1.3329 -1.0326  0.3073
  546MPD2    H2 8159   0.602   4.668  17.463 -2.1537  0.5312 -2.8024
  546MPD2    H3 8160   0.671   0.017  17.673 -1.0749 -2.3245 -0.6079
  546MPD2     N 8161   0.689   0.441  17.513  0.2543 -0.4335 -0.3827
  546MPD2    H5 8162   0.736   0.453  17.603  0.4472 -2.2832 -0.2386
  546MPD2    N1 8163   0.535   0.053  17.247  0.2439  0.5728 -0.9243
  546MPD2    H7 8164   0.531   4.690  17.245  0.7698  0.4841  2.2808
  547TMC3    C1 8165   0.367   0.046  17.087  0.1689 -0.7902  0.4433
  547TMC3    C2 8166   0.311   0.099  16.974  0.6140  0.7525  0.7769
  547TMC3    C3 8167   0.179   0.093  16.953  0.9044  0.7221  0.3254
  547TMC3    C4 8168   0.290   4.708  17.171  0.0694  0.6915 -0.1137
  547TMC3    C5 8169   0.153   4.714  17.150  0.1056 -0.4798 -0.6662
  547TMC3    C6 8170   0.098   0.017  17.034 -0.3590  0.0170 -0.8117
  547TMC3     C 8171   0.484   0.117  17.133  0.6647 -0.3156 -0.0724
  547TMC3     O 8172   0.510   0.227  17.086  0.2782  0.3090  0.6488
  547TMC3     H 8173   0.383   0.150  16.911  0.9781 -1.0982 -0.2801
  547TMC3    H1 8174   0.329   4.679  17.268 -1.6585 -2.0941 -0.2642
  547TMC3    H2 8175   4.729   0.033  17.038  0.0100  1.5723  3.2430
  547TMC3    C7 8176   0.070   4.644  17.249 -0.2155  0.1670  0.4999
  547TMC3    C8 8177   0.127   0.122  16.821 -0.7892  0.2813  0.0055
  547TMC3    O1 8178   0.122   4.630  17.360  0.2145 -0.0983 -0.0068
  547TMC3    O2 8179   0.207   0.179  16.749 -0.2579  0.2343 -0.5016
  548MPD2     C 8180   4.600   0.666  13.139  0.0820  0.0580  0.1278
  548MPD2    C1 8181   4.529   0.608  13.035 -0.1206 -0.9423 -0.4440
  548MPD2    C2 8182   4.606   0.578  12.918  0.4927 -0.6012 -1.3577
  548MPD2    C3 8183   4.739   0.608  12.903  0.1940  0.1436 -0.3860
  548MPD2    C4 8184   0.064   0.671  13.002 -0.6676 -0.1961 -0.7484
  548MPD2    C5 8185   4.735   0.691  13.124 -0.3374  0.1301  0.7421
  548MPD2     H 8186   4.554   0.535  12.833 -2.9046 -2.9601  1.9352
  548MPD2    H1 8187   0.169   0.696  12.997 -0.9249  0.8312 -1.2114
  548MPD2    H2 8188   4.546   0.681  13.231 -0.1341 -0.6405  0.1143
  548MPD2    H3 8189   0.053   0.744  13.200 -2.3949  2.6628  0.5083
  548MPD2     N 8190   0.061   0.587  12.779 -0.4636 -0.6150  0.2710
  548MPD2    H5 8191   0.004   0.536  12.712 -0.8300 -0.6364  0.5988
  548MPD2    N1 8192   4.391   0.595  13.047 -0.1954  0.3954  0.5755
  548MPD2    H7 8193   4.348   0.656  13.115 -1.5211 -1.4508  1.4118
  549TMC3    C1 8194   4.180   0.523  12.970  0.3222 -0.2460 -0.9824
  549TMC3    C2 8195   4.149   0.644  12.910 -0.2575 -0.2251  0.7033
  549TMC3    C3 8196   4.022   0.652  12.852  0.4994 -0.0230  0.7921
  549TMC3    C4 8197   4.100   0.413  12.972  0.5661 -0.5507 -0.5195
  549TMC3    C5 8198   3.985   0.427  12.905  0.8074  0.2197 -0.3476
  549TMC3    C6 8199   3.935   0.547  12.860  0.6952 -0.1639 -0.1023
  549TMC3     C 8200   4.324   0.499  12.976  0.1492  0.1866  0.0401
  549TMC3     O 8201   4.369   0.393  12.929 -0.2721 -0.1808 -0.0211
  549TMC3     H 8202   4.198   0.740  12.920  0.0138 -0.6041  3.0693
  549TMC3    H1 8203   4.122   0.321  13.025  1.0693 -1.0414 -1.5794
  549TMC3    H2 8204   3.841   0.552  12.806 -0.5055 -2.6172  1.7467
  549TMC3    C7 8205   3.882   0.342  12.965 -0.2037  0.5969  0.8081
  549TMC3    C8 8206   3.993   0.767  12.763 -0.6411  0.4772 -0.0089
  549TMC3    O1 8207   3.778   0.392  13.007  0.2839  0.2642  0.0024
  549TMC3    O2 8208   3.879   0.778  12.719  0.2796 -0.1297  0.3402
  550TMC3    C1 8209   3.818   3.434  12.132  0.9630  1.3217  0.2254
  550TMC3    C2 8210   3.809   3.422  12.262 -0.3324  0.0709  0.4891
  550TMC3    C3 8211   3.788   3.530  12.343 -0.4594  0.3307 -0.2438
  550TMC3    C4 8212   3.805   3.561  12.074 -0.7068  0.1928 -0.2769
  550TMC3    C5 8213   3.780   3.664  12.150 -0.8164  0.4459  0.6042
  550TMC3    C6 8214   3.783   3.651  12.287  0.7613  0.0148 -0.2864
  550TMC3     C 8215   3.812   3.320  12.041 -0.6532 -0.1838  0.1576
  550TMC3     O 8216   3.894   3.233  12.065  0.0342  0.1100 -0.5976
  550TMC3     H 8217   3.821   3.324  12.307 -0.0200  1.1258  2.6846
  550TMC3    H1 8218   3.800   3.567  11.966 -0.3956 -1.3045 -0.3814
  550TMC3    H2 8219   3.753   3.731  12.353  0.2224  0.3414 -0.9245
  550TMC3    C7 8220   3.739   3.788  12.098 -0.0381  0.0774  0.6946
  550TMC3    C8 8221   3.714   3.521  12.467  0.3443  0.4363  0.4243
  550TMC3    O1 8222   3.673   3.788  11.992  0.0865 -0.2301  0.2244
  550TMC3    O2 8223   3.723   3.620  12.539 -0.0318 -0.5656 -0.2833
  551TMC3    C1 8224   1.002   1.222  13.419  0.1442  0.7856  0.3852
  551TMC3    C2 8225   1.102   1.143  13.375  0.9022 -0.4638 -0.2440
  551TMC3    C3 8226   1.216   1.129  13.456  0.7895 -0.4854 -0.0803
  551TMC3    C4 8227   0.995   1.279  13.542 -0.2819 -0.2558 -0.1875
  551TMC3    C5 8228   1.092   1.239  13.627 -0.0625  0.8576 -0.1738
  551TMC3    C6 8229   1.206   1.180  13.581  0.1751  0.0857 -0.1772
  551TMC3     C 8230   0.898   1.258  13.324  0.1115  0.7835 -0.2681
  551TMC3     O 8231   0.912   1.210  13.213 -0.1878 -0.5054  0.0721
  551TMC3     H 8232   1.108   1.102  13.275  0.0181  2.6429 -1.5478
  551TMC3    H1 8233   0.912   1.336  13.581  0.8911  0.0087  1.9072
  551TMC3    H2 8234   1.295   1.177  13.644  0.4999 -1.1566 -0.7047
  551TMC3    C7 8235   1.127   1.312  13.747  0.5452  1.4892  0.3380
  551TMC3    C8 8236   1.335   1.168  13.388 -0.0446 -0.2196  0.5150
  551TMC3    O1 8237   1.155   1.258  13.856  0.1857 -0.1513  0.4678
  551TMC3    O2 8238   1.387   1.093  13.306  0.2870 -0.0884  0.4540
  552MPD2     C 8239   3.120   3.469  13.782 -0.2966  0.7818  0.6507
  552MPD2    C1 8240   3.143   3.356  13.848  0.0129 -0.6635  0.1740
  552MPD2    C2 8241   3.244   3.362  13.945 -0.0578 -0.3484  0.3566
  552MPD2    C3 8242   3.327   3.469  13.961  0.4040  0.0198 -0.6530
  552MPD2    C4 8243   3.301   3.586  13.888 -0.7064 -0.3630 -0.8470
  552MPD2    C5 8244   3.187   3.583  13.810 -0.8288  0.1713  0.7275
  552MPD2     H 8245   3.252   3.267  13.998 -1.1705 -0.5442  0.1753
  552MPD2    H1 8246   3.352   3.682  13.892  0.9213 -1.1840 -2.1137
  552MPD2    H2 8247   3.036   3.485  13.715 -0.4615 -2.4451  0.0783
  552MPD2    H3 8248   3.156   3.678  13.769  0.3163 -0.5975 -1.8757
  552MPD2     N 8249   3.433   3.478  14.051 -0.4626  0.2415 -0.0023
  552MPD2    H5 8250   3.476   3.570  14.060 -0.6591  0.5256 -1.8533
  552MPD2    N1 8251   3.056   3.246  13.842 -0.4067 -0.1711  0.0164
  552MPD2    H7 8252   3.069   3.172  13.910  0.0786 -2.2562 -2.3897
  553TMC3    C1 8253   2.921   3.078  13.757 -0.1604 -0.1188  0.3139
  553TMC3    C2 8254   2.892   3.007  13.645 -0.5438 -0.3868  0.7436
  553TMC3    C3 8255   2.845   2.873  13.661 -0.0529 -0.9690  0.0996
  553TMC3    C4 8256   2.899   3.029  13.884  0.6810  0.5280 -0.3794
  553TMC3    C5 8257   2.861   2.895  13.890 -0.0953 -0.2461 -0.6740
  553TMC3    C6 8258   2.820   2.826  13.784  1.0743 -0.7017  0.0742
  553TMC3     C 8259   2.964   3.219  13.745  0.3348 -0.2565 -0.1813
  553TMC3     O 8260   2.922   3.287  13.652  0.1610 -0.8914  0.1415
  553TMC3     H 8261   2.930   3.045  13.551  2.7810  0.2211  2.3037
  553TMC3    H1 8262   2.927   3.085  13.972  3.2924 -1.3350 -0.0159
  553TMC3    H2 8263   2.776   2.728  13.799 -0.1052 -0.5872 -2.7070
  553TMC3    C7 8264   2.852   2.835  14.024  0.0849 -0.0565  0.5258
  553TMC3    C8 8265   2.868   2.784  13.555 -0.9945 -0.4522  0.3802
  553TMC3    O1 8266   2.747   2.778  14.054 -0.0076 -1.1706 -0.4653
  553TMC3    O2 8267   2.943   2.827  13.466  0.0478 -0.4357  0.7720
  554TMC3    C1 8268   3.882   2.196  11.528 -0.0338 -0.4823 -0.3392
  554TMC3    C2 8269   3.771   2.255  11.481  0.2077 -0.7654 -0.1345
  554TMC3    C3 8270   3.777   2.356  11.392 -0.0464 -0.3386 -1.0787
  554TMC3    C4 8271   4.002   2.227  11.476  1.0186 -0.3874  0.7753
  554TMC3    C5 8272   4.005   2.334  11.392 -0.8732  0.2033 -0.3058
  554TMC3    C6 8273   3.893   2.387  11.333  0.2381 -0.1149  0.8076
  554TMC3     C 8274   3.878   2.110  11.643 -1.2500  0.6572  0.5358
  554TMC3     O 8275   3.789   2.129  11.720 -0.0472  0.3953 -0.2575
  554TMC3     H 8276   3.676   2.221  11.520  0.3777  1.9033  2.5363
  554TMC3    H1 8277   4.090   2.192  11.529 -0.8869 -1.5921  3.1561
  554TMC3    H2 8278   3.905   2.472  11.267 -0.8544 -0.1692  0.5392
  554TMC3    C7 8279   4.128   2.371  11.334  0.7170 -0.2240 -0.1107
  554TMC3    C8 8280   3.661   2.393  11.306 -0.2413  0.1246 -0.0204
  554TMC3    O1 8281   4.126   2.429  11.227  0.7454  0.1109 -0.2309
  554TMC3    O2 8282   3.677   2.504  11.256 -0.0614 -0.1252 -0.2283
  555TMC3    C1 8283   3.628   2.257  15.004 -0.2143 -0.4163 -0.1963
  555TMC3    C2 8284   3.671   2.343  15.096  0.1118 -0.5868  0.3490
  555TMC3    C3 8285   3.720   2.300  15.218  0.9865 -0.0767 -0.2721
  555TMC3    C4 8286   3.623   2.121  15.032 -0.2107  0.0890  0.4578
  555TMC3    C5 8287   3.649   2.085  15.159 -0.1735  0.9368  0.5470
  555TMC3    C6 8288   3.698   2.169  15.258  0.4612  0.7894 -0.1437
  555TMC3     C 8289   3.559   2.313  14.884  0.0961  0.0050 -0.1460
  555TMC3     O 8290   3.535   2.432  14.876 -0.2957 -0.4920  0.2974
  555TMC3     H 8291   3.677   2.449  15.073  1.2030 -1.0042 -1.3306
  555TMC3    H1 8292   3.570   2.052  14.967  2.0547 -1.0525 -0.1963
  555TMC3    H2 8293   3.734   2.133  15.353  2.1769  2.8295 -0.0372
  555TMC3    C7 8294   3.667   1.944  15.193 -0.7283 -0.2521  0.0782
  555TMC3    C8 8295   3.797   2.402  15.299  0.8319 -0.0363  0.0169
  555TMC3    O1 8296   3.644   1.911  15.309  0.6536  0.3845  0.3527
  555TMC3    O2 8297   3.818   2.517  15.256  0.0554  0.1620 -0.0403
  556MPD2     C 8298   2.098   3.752  10.838  0.2428 -0.5681  0.2138
  556MPD2    C1 8299   1.986   3.748  10.923  0.1565  0.2203 -0.7875
  556MPD2    C2 8300   1.881   3.664  10.898 -0.0445  0.0919  0.0189
  556MPD2    C3 8301   1.868   3.590  10.779  0.5787 -0.1205  0.3052
  556MPD2    C4 8302   1.977   3.603  10.694 -0.0119  1.3123 -0.0279
  556MPD2    C5 8303   2.088   3.683  10.723  0.2213  0.5218  0.2705
  556MPD2     H 8304   1.802   3.669  10.971  0.0123  1.9861 -0.0389
  556MPD2    H1 8305   1.971   3.565  10.593  0.1482  0.4411  0.2954
  556MPD2    H2 8306   2.181   3.821  10.846 -1.0763  0.7958  2.1353
  556MPD2    H3 8307   2.168   3.688  10.650  0.9847  1.9804  1.2034
  556MPD2     N 8308   1.758   3.508  10.768  0.3382 -0.2983  0.0330
  556MPD2    H5 8309   1.692   3.503  10.846 -1.1395  1.0615 -1.1212
  556MPD2    N1 8310   1.974   3.815  11.043 -0.0996 -0.3914  0.5937
  556MPD2    H7 8311   1.891   3.799  11.099 -0.6658 -1.7268 -0.6114
  557TMC3    C1 8312   1.588   3.382  10.675  0.3751  0.0202  0.8440
  557TMC3    C2 8313   1.508   3.392  10.566  0.5565 -0.3321 -0.0415
  557TMC3    C3 8314   1.374   3.359  10.581  0.5479 -0.0794 -0.2967
  557TMC3    C4 8315   1.536   3.367  10.808  0.4307  0.4792 -0.7115
  557TMC3    C5 8316   1.399   3.335  10.818  0.2197  0.0361  1.0938
  557TMC3    C6 8317   1.323   3.339  10.703 -0.5122 -0.6784 -0.0402
  557TMC3     C 8318   1.711   3.447  10.655 -0.3718 -0.3350 -0.0353
  557TMC3     O 8319   1.766   3.429  10.546  0.1076 -0.0011  0.9432
  557TMC3     H 8320   1.553   3.412  10.470 -3.7196 -0.3957 -2.0366
  557TMC3    H1 8321   1.595   3.368  10.899 -2.1166  1.1349  0.9168
  557TMC3    H2 8322   1.216   3.324  10.718 -0.2864 -1.7689  0.4941
  557TMC3    C7 8323   1.330   3.293  10.940 -0.5161  0.2983 -0.5649
  557TMC3    C8 8324   1.272   3.359  10.477 -0.2638 -0.2031 -0.4013
  557TMC3    O1 8325   1.206   3.302  10.942  0.1470 -0.0154 -0.5918
  557TMC3    O2 8326   1.155   3.342  10.509  0.7139  0.2379  0.2382
  558TMC3    C1 8327   3.903   1.782  10.106 -0.5965 -0.3595 -0.2814
  558TMC3    C2 8328   3.824   1.726  10.201  0.2688 -0.2454  0.2354
  558TMC3    C3 8329   3.691   1.741  10.191 -0.2396  0.3937  0.2111
  558TMC3    C4 8330   3.850   1.872  10.013 -0.5349  0.3744  0.2720
  558TMC3    C5 8331   3.715   1.872   9.996 -0.0505  0.1937  1.1663
  558TMC3    C6 8332   3.631   1.811  10.091  0.2023 -0.3632 -0.9276
  558TMC3     C 8333   4.041   1.754  10.109  0.1164  0.6626 -0.4946
  558TMC3     O 8334   4.087   1.697  10.209 -0.2884 -0.2367  0.7362
  558TMC3     H 8335   3.878   1.681  10.283  4.1661 -0.5364 -2.5094
  558TMC3    H1 8336   3.906   1.932   9.941  0.4100 -1.7078 -0.7224
  558TMC3    H2 8337   3.524   1.823  10.077  0.0074 -1.1602 -0.1505
  558TMC3    C7 8338   3.670   1.942   9.879 -0.1891  0.3869  0.9563
  558TMC3    C8 8339   3.611   1.712  10.309  0.0035 -1.0612  0.2032
  558TMC3    O1 8340   3.730   2.032   9.823 -0.0180 -0.1724 -0.0268
  558TMC3    O2 8341   3.492   1.689  10.280  0.3829  0.3726  0.7629
  559MPD2     C 8342   3.807   2.255  10.020  0.1270 -0.1202  0.3839
  559MPD2    C1 8343   3.789   2.187  10.136 -0.6474 -0.2095  0.4098
  559MPD2    C2 8344   3.892   2.137  10.204  0.5190  0.0905 -0.1115
  559MPD2    C3 8345   4.022   2.152  10.159 -0.0242 -0.6456 -0.5351
  559MPD2    C4 8346   4.037   2.219  10.032 -0.1512 -0.0705 -0.5469
  559MPD2    C5 8347   3.932   2.271   9.967  0.2835 -0.1668  0.0631
  559MPD2     H 8348   3.885   2.077  10.294  0.2457  0.8642  0.3842
  559MPD2    H1 8349   4.131   2.236   9.980  1.7787  0.2784  3.0423
  559MPD2    H2 8350   3.721   2.292   9.965  0.5840 -0.1104 -0.3379
  559MPD2    H3 8351   3.944   2.326   9.874  0.1752 -0.9187 -0.3997
  559MPD2     N 8352   4.133   2.103  10.236  0.0218 -0.5786  0.6576
  559MPD2    H5 8353   4.113   2.069  10.329  0.1938  0.9767  1.2467
  559MPD2    N1 8354   3.650   2.175  10.182 -0.4076 -0.3585 -0.6010
  559MPD2    H7 8355   3.573   2.214  10.128 -0.5292  1.6860  1.0613
  560TMC3    C1 8356   4.358   2.058  10.288 -0.3794 -0.0791 -0.0362
  560TMC3    C2 8357   4.302   1.988  10.393 -0.4136  0.2490 -0.3746
  560TMC3    C3 8358   4.385   1.950  10.497 -0.1977 -1.1245  0.3308
  560TMC3    C4 8359   4.482   2.110  10.289 -0.2716 -0.5803 -0.0095
  560TMC3    C5 8360   4.555   2.072  10.394  0.0820  0.2434  0.9061
  560TMC3    C6 8361   4.510   2.008  10.505  0.1092 -0.1194 -0.2116
  560TMC3     C 8362   4.267   2.120  10.199  0.1042 -0.3421 -0.6891
  560TMC3     O 8363   4.317   2.176  10.099  0.2973 -0.3004 -0.1199
  560TMC3     H 8364   4.201   1.948  10.391 -1.3154  2.4687  0.0804
  560TMC3    H1 8365   4.520   2.168  10.206 -1.2465  1.3731  0.8880
  560TMC3    H2 8366   4.582   1.971  10.578 -0.1901 -0.1515  0.0678
  560TMC3    C7 8367   4.698   2.090  10.380  0.2424  0.1032 -0.2119
  560TMC3    C8 8368   4.354   1.836  10.578 -0.2583  0.7396 -0.1511
  560TMC3    O1 8369   4.737   2.083  10.266 -0.5309  0.4730  0.5746
  560TMC3    O2 8370   4.236   1.807  10.597 -0.5247 -0.1424  0.2050
  561TMC3    C1 8371   2.203   1.297  11.045  0.2219 -0.2698 -0.1526
  561TMC3    C2 8372   2.123   1.196  11.104  0.2677  0.0882  0.1618
  561TMC3    C3 8373   2.045   1.235  11.209 -0.9226 -0.2703 -0.5526
  561TMC3    C4 8374   2.209   1.420  11.102  1.0123  0.0017  0.1673
  561TMC3    C5 8375   2.129   1.453  11.205 -0.5851  0.4410 -0.3871
  561TMC3    C6 8376   2.036   1.362  11.257  0.7074 -0.2490  0.3025
  561TMC3     C 8377   2.310   1.253  10.950  0.0144 -0.1660 -0.1845
  561TMC3     O 8378   2.328   1.131  10.944 -0.1930  0.4869 -0.2545
  561TMC3     H 8379   2.109   1.102  11.052  1.2877  0.9207 -1.5990
  561TMC3    H1 8380   2.287   1.489  11.071  1.0220  0.4351  1.1203
  561TMC3    H2 8381   1.978   1.402  11.340  0.8802 -2.2737  1.3778
  561TMC3    C7 8382   2.089   1.592  11.213  0.4596 -0.5644 -0.4247
  561TMC3    C8 8383   1.944   1.140  11.248 -0.5268 -0.4320  0.7152
  561TMC3    O1 8384   2.028   1.626  11.313  0.2526  0.1383 -0.1709
  561TMC3    O2 8385   1.928   1.044  11.182 -0.1458 -0.3854  0.5776
  562TMC3    C1 8386   3.778   1.987  15.920 -0.3970 -0.1353 -0.1509
  562TMC3    C2 8387   3.735   2.115  15.919 -0.1911 -1.1261 -0.3936
  562TMC3    C3 8388   3.735   2.182  15.799  0.2371 -0.1998  0.8007
  562TMC3    C4 8389   3.831   1.928  15.809 -0.8202  0.4683 -0.1985
  562TMC3    C5 8390   3.838   1.998  15.692 -0.1714 -0.3448  0.2860
  562TMC3    C6 8391   3.785   2.123  15.690 -0.3561  0.5184 -0.2078
  562TMC3     C 8392   3.794   1.915  16.053  0.6025 -0.6089  0.0082
  562TMC3     O 8393   3.734   1.969  16.145 -0.4914 -0.2348 -0.1630
  562TMC3     H 8394   3.699   2.162  16.009 -0.3838 -0.5529 -0.7692
  562TMC3    H1 8395   3.853   1.822  15.804  1.8080  0.9088  2.3174
  562TMC3    H2 8396   3.799   2.182  15.600  2.8722 -0.5757 -0.4216
  562TMC3    C7 8397   3.921   1.960  15.584  0.0933  0.0879 -0.0569
  562TMC3    C8 8398   3.711   2.327  15.793 -0.5191 -0.2374  0.7397
  562TMC3    O1 8399   3.914   2.029  15.484 -0.2601 -0.6326 -0.6109
  562TMC3    O2 8400   3.742   2.383  15.899  0.2006  0.9977 -0.2881
  563MPD2     C 8401   1.720   3.618  16.028  0.9011 -0.0986  0.1067
  563MPD2    C1 8402   1.772   3.745  16.052  0.1678 -0.0908 -0.4185
  563MPD2    C2 8403   1.903   3.745  16.100  0.8362  0.7232  0.3632
  563MPD2    C3 8404   1.969   3.627  16.142 -0.0146  0.3246  0.2168
  563MPD2    C4 8405   1.911   3.505  16.109  1.0293  0.8286 -0.2687
  563MPD2    C5 8406   1.784   3.501  16.052  0.1701 -0.1225  0.0649
  563MPD2     H 8407   1.946   3.844  16.112  0.3444  1.3001 -2.6201
  563MPD2    H1 8408   1.955   3.411  16.141  0.2260  0.9072  1.1052
  563MPD2    H2 8409   1.626   3.622  15.974  1.7739  0.0120 -1.4076
  563MPD2    H3 8410   1.729   3.411  16.027  1.9384 -1.3374  0.6270
  563MPD2     N 8411   2.089   3.632  16.210 -0.2298 -0.5006  0.0894
  563MPD2    H5 8412   2.116   3.722  16.248  0.2495  0.2413 -2.0537
  563MPD2    N1 8413   1.686   3.847  16.023  0.0791 -0.4227 -0.8667
  563MPD2    H7 8414   1.589   3.820  16.011 -0.5757  1.4605  0.1838
  564TMC3    C1 8415   1.593   4.042  16.047 -0.2950 -0.2100 -0.3141
  564TMC3    C2 8416   1.494   3.995  15.967 -0.6957  0.4594 -0.8533
  564TMC3    C3 8417   1.368   3.977  16.014  0.6832 -0.0923 -0.2627
  564TMC3    C4 8418   1.567   4.077  16.179 -0.1682 -0.1277  0.0494
  564TMC3    C5 8419   1.452   4.033  16.226 -0.8903 -0.1321 -0.7186
  564TMC3    C6 8420   1.348   3.992  16.148  0.3806 -0.6879  0.6673
  564TMC3     C 8421   1.721   3.978  16.027 -0.3130 -0.0358 -0.4790
  564TMC3     O 8422   1.826   4.045  16.038  0.0218  0.7542  0.3323
  564TMC3     H 8423   1.518   3.979  15.862  2.2605 -1.3151  0.1107
  564TMC3    H1 8424   1.652   4.121  16.231  0.8000 -0.6479 -1.0812
  564TMC3    H2 8425   1.255   3.963  16.195  1.2167 -1.8827  1.5836
  564TMC3    C7 8426   1.480   3.932  16.326 -0.1180 -0.1129 -0.3520
  564TMC3    C8 8427   1.305   3.845  15.978  0.4276 -0.0927  0.0893
  564TMC3    O1 8428   1.585   3.938  16.387  0.0165 -0.7753 -0.1985
  564TMC3    O2 8429   1.239   3.788  16.064 -0.0999 -0.6222  0.5836
  565TMC3    C1 8430   1.182   0.570   9.934  0.4939  0.3168  0.1877
  565TMC3    C2 8431   1.205   0.468  10.020  0.0008  0.3589 -0.0304
  565TMC3    C3 8432   1.120   0.361  10.032 -0.4895 -0.1425  0.1225
  565TMC3    C4 8433   1.073   0.566   9.852 -0.3311  0.2225  0.3758
  565TMC3    C5 8434   0.991   0.457   9.866 -0.0403  0.0464 -0.2865
  565TMC3    C6 8435   1.016   0.355   9.948 -0.3940 -0.2853 -0.0878
  565TMC3     C 8436   1.292   0.651   9.889 -0.1155 -0.1772 -0.1689
  565TMC3     O 8437   1.288   0.695   9.778  0.5266  0.0275 -0.0264
  565TMC3     H 8438   1.298   0.453  10.074  0.6593 -0.4450 -1.3992
  565TMC3    H1 8439   1.057   0.643   9.778  0.3203 -0.5395 -0.5641
  565TMC3    H2 8440   0.933   0.292   9.978  1.6205 -3.9775 -2.2464
  565TMC3    C7 8441   0.901   0.433   9.762 -0.1649 -0.3606  0.3045
  565TMC3    C8 8442   1.145   0.256  10.128 -0.4395  1.0512  0.0910
  565TMC3    O1 8443   0.851   0.529   9.704 -0.3459 -0.6612 -0.3157
  565TMC3    O2 8444   1.210   0.282  10.229  0.0162 -0.4071 -0.0765
  566MPD2     C 8445   2.943   1.251  14.492 -0.6595 -0.1670 -0.8701
  566MPD2    C1 8446   2.996   1.144  14.417  0.0446 -0.4560  0.2804
  566MPD2    C2 8447   2.910   1.091  14.317 -0.2866 -0.1725  0.2493
  566MPD2    C3 8448   2.782   1.142  14.291  0.6305  0.2121  0.1365
  566MPD2    C4 8449   2.738   1.253  14.367  0.0059  0.9493 -0.0669
  566MPD2    C5 8450   2.819   1.302  14.468  0.7239 -0.3288 -0.0791
  566MPD2     H 8451   2.937   0.995  14.274 -0.6644  0.0790 -0.5446
  566MPD2    H1 8452   2.641   1.299  14.350 -0.5102  0.2386  0.9595
  566MPD2    H2 8453   3.004   1.299  14.568  1.4405 -1.0440 -1.9999
  566MPD2    H3 8454   2.790   1.392  14.522  2.9492  0.3476  0.0012
  566MPD2     N 8455   2.697   1.099  14.181  0.6280 -0.4747 -0.0792
  566MPD2    H5 8456   2.606   1.142  14.173  1.6284  1.6331 -0.0288
  566MPD2    N1 8457   3.121   1.096  14.444  0.1697  0.2686 -0.2407
  566MPD2    H7 8458   3.177   1.141  14.516 -1.7234 -0.6218  1.7989
  567TMC3    C1 8459   3.333   1.047  14.357 -0.7090  0.0878 -0.6114
  567TMC3    C2 8460   3.372   1.087  14.233 -0.0285 -0.0953  0.0582
  567TMC3    C3 8461   3.450   1.199  14.221 -0.1557 -0.1962 -0.3525
  567TMC3    C4 8462   3.374   1.104  14.470 -0.2300 -0.3918  0.4583
  567TMC3    C5 8463   3.455   1.211  14.459 -0.6484 -0.5258 -0.3419
  567TMC3    C6 8464   3.491   1.266  14.336 -1.0977 -0.7724 -0.2098
  567TMC3     C 8465   3.191   1.012  14.357  0.6933  0.6877 -0.2993
  567TMC3     O 8466   3.154   0.952  14.258 -0.4296 -0.4378  0.3353
  567TMC3     H 8467   3.356   1.028  14.144 -0.7460  1.1172 -0.6215
  567TMC3    H1 8468   3.358   1.050  14.563  0.8189 -0.6900  0.4645
  567TMC3    H2 8469   3.555   1.353  14.338 -1.6628 -0.3379 -1.2442
  567TMC3    C7 8470   3.511   1.275  14.574 -0.2579 -0.1935 -0.1144
  567TMC3    C8 8471   3.486   1.253  14.094  0.3114 -0.1998 -1.2440
  567TMC3    O1 8472   3.534   1.397  14.572 -0.0953  0.2677  0.2041
  567TMC3    O2 8473   3.410   1.234  13.998 -0.3133  0.2567  0.1622
  568MPD2     C 8474   1.044   2.276  16.261  0.5250  0.5635  0.5128
  568MPD2    C1 8475   1.099   2.351  16.359  0.1723  0.7749 -0.5992
  568MPD2    C2 8476   1.108   2.484  16.339 -0.2704  0.3991 -0.4729
  568MPD2    C3 8477   1.073   2.544  16.220  0.7733  0.4635  0.1166
  568MPD2    C4 8478   1.011   2.463  16.124  0.1524 -0.2187 -0.3692
  568MPD2    C5 8479   1.005   2.330  16.142 -0.5129  0.3925 -0.6474
  568MPD2     H 8480   1.163   2.551  16.404  0.5100 -2.1137  1.4098
  568MPD2    H1 8481   0.981   2.486  16.022  0.7519  0.1643 -0.4577
  568MPD2    H2 8482   1.023   2.170  16.264  0.0894  0.6132 -0.6056
  568MPD2    H3 8483   0.959   2.271  16.063  0.3068 -1.1366  0.0375
  568MPD2     N 8484   1.105   2.673  16.196  0.0310 -0.3404  0.3251
  568MPD2    H5 8485   1.150   2.721  16.274  1.5254  0.3241 -0.9660
  568MPD2    N1 8486   1.145   2.285  16.478  0.2478 -0.1239  0.0879
  568MPD2    H7 8487   1.131   2.185  16.487 -1.2261  0.1484  0.8411
  569TMC3    C1 8488   1.112   2.891  16.097  0.3301 -0.6045  0.2842
  569TMC3    C2 8489   1.099   2.942  16.221 -0.1678 -0.2647  0.1273
  569TMC3    C3 8490   1.133   3.075  16.233 -0.3912 -0.0450 -0.5866
  569TMC3    C4 8491   1.164   2.968  15.992  0.1069  0.0523 -0.2951
  569TMC3    C5 8492   1.198   3.099  16.016 -0.5310  0.7658  0.0499
  569TMC3    C6 8493   1.187   3.157  16.141 -0.7479 -0.6255  0.5652
  569TMC3     C 8494   1.085   2.751  16.083  0.6953 -0.4317  0.6699
  569TMC3     O 8495   1.067   2.726  15.967  0.3206 -0.2550  0.3676
  569TMC3     H 8496   1.043   2.886  16.295 -2.5574 -1.5279 -2.6371
  569TMC3    H1 8497   1.184   2.918  15.898  0.5189  1.4559 -0.9629
  569TMC3    H2 8498   1.214   3.260  16.164 -0.4594 -0.5295 -0.1987
  569TMC3    C7 8499   1.251   3.181  15.904  0.1128  0.0364 -0.2706
  569TMC3    C8 8500   1.138   3.117  16.372  0.4046  0.3692 -0.2182
  569TMC3    O1 8501   1.266   3.122  15.801 -0.2639  0.0264 -0.0112
  569TMC3    O2 8502   1.066   3.064  16.455  0.8239  0.0576  0.3451
  570TMC3    C1 8503   0.799   1.104  16.128 -0.0563  0.4307 -0.0358
  570TMC3    C2 8504   0.847   1.147  16.008  0.6863 -1.0237 -0.3056
  570TMC3    C3 8505   0.905   1.273  16.018  0.4381  0.0134 -0.6249
  570TMC3    C4 8506   0.805   1.176  16.242 -0.5645  0.0722  0.7422
  570TMC3    C5 8507   0.864   1.301  16.243  0.8114  0.0295 -0.4665
  570TMC3    C6 8508   0.913   1.356  16.125 -0.3856  0.3430  0.0500
  570TMC3     C 8509   0.708   0.990  16.118 -0.1613 -0.1645  0.2070
  570TMC3     O 8510   0.670   0.957  16.003 -0.4712 -0.2731 -0.1957
  570TMC3     H 8511   0.859   1.070  15.932  1.4644 -3.4427  2.2602
  570TMC3    H1 8512   0.775   1.139  16.339  0.4230 -0.0363  1.0104
  570TMC3    H2 8513   0.943   1.459  16.107 -1.1120  0.7395  1.1332
  570TMC3    C7 8514   0.915   1.352  16.372  0.0778 -0.8065  0.0304
  570TMC3    C8 8515   0.916   1.344  15.892 -0.1319 -0.1036  0.8567
  570TMC3    O1 8516   0.903   1.276  16.467 -0.7369 -0.5783 -0.1614
  570TMC3    O2 8517   0.992   1.435  15.904  0.2645  0.3262  0.6785
  571MPD2     C 8518   2.885   2.246   0.141 -0.3711  0.2677  0.1066
  571MPD2    C1 8519   2.842   2.326   0.242  0.5780  0.1076  0.0305
  571MPD2    C2 8520   2.836   2.460   0.213 -0.6222  0.4427 -0.6947
  571MPD2    C3 8521   2.884   2.511   0.094  0.0869 -0.5170 -0.5319
  571MPD2    C4 8522   2.929   2.423  17.751  0.3582 -0.1792 -0.6452
  571MPD2    C5 8523   2.930   2.288   0.019 -0.4865 -0.2217  0.7082
  571MPD2     H 8524   2.811   2.537   0.286  1.4009  0.8375 -0.4008
  571MPD2    H1 8525   2.978   2.470  17.666  0.4418  0.7622 -0.0810
  571MPD2    H2 8526   2.873   2.139   0.152 -1.8857  0.6248  2.0800
  571MPD2    H3 8527   2.993   2.224  17.712  1.0314  1.3456  0.6411
  571MPD2     N 8528   2.887   2.655   0.086  0.3359  0.7124 -0.1180
  571MPD2    H5 8529   2.844   2.703   0.165 -1.3126  0.8154 -1.0848
  571MPD2    N1 8530   2.775   2.268   0.355  0.8649  0.4825  0.1100
  571MPD2    H7 8531   2.770   2.166   0.361  0.4000  0.4257 -1.1641
  572TMC3    C1 8532   2.921   2.875   0.006 -0.1719  0.2331  0.0008
  572TMC3    C2 8533   2.816   2.905   0.094 -0.4988  0.2417 -0.4169
  572TMC3    C3 8534   2.831   3.020   0.172  0.5757 -0.5472  0.0210
  572TMC3    C4 8535   3.030   2.963  17.739  0.1725 -1.4443 -0.3970
  572TMC3    C5 8536   3.025   3.080   0.063  0.4569 -0.0557 -0.1205
  572TMC3    C6 8537   2.934   3.107   0.165 -0.2326 -0.1913  0.0771
  572TMC3     C 8538   2.961   2.732  17.747 -0.6011  0.1020  0.3102
  572TMC3     O 8539   3.062   2.693  17.683  0.1486 -0.0259  0.0995
  572TMC3     H 8540   2.740   2.830   0.114  0.9265 -0.9348  0.6632
  572TMC3    H1 8541   3.100   2.943  17.659  1.4741 -0.8058  0.5972
  572TMC3    H2 8542   2.928   3.205   0.211  1.7919 -1.2873  2.6721
  572TMC3    C7 8543   3.116   3.179   0.032 -0.4290  0.1515  0.0972
  572TMC3    C8 8544   2.734   3.052   0.272 -0.1357  0.6864  0.1106
  572TMC3    O1 8545   3.081   3.293   0.050  0.7024 -0.2332  0.1801
  572TMC3    O2 8546   2.615   3.022   0.249  0.0585 -0.1066 -0.4309
  573MPD2     C 8547   4.595   3.404   0.631 -0.5457  0.5926  0.4253
  573MPD2    C1 8548   4.640   3.528   0.594 -0.7162  0.3103 -0.0051
  573MPD2    C2 8549   4.601   3.565   0.467  0.0496  0.5618 -0.4185
  573MPD2    C3 8550   4.514   3.492   0.391 -0.5661  0.0644 -0.5887
  573MPD2    C4 8551   4.459   3.373   0.434 -0.6456 -0.1957  0.1014
  573MPD2    C5 8552   4.514   3.329   0.550  0.5162  0.1221  0.0364
  573MPD2     H 8553   4.636   3.664   0.440  0.1282  0.3121 -1.2372
  573MPD2    H1 8554   4.396   3.306   0.376 -1.9763 -0.7189  2.1519
  573MPD2    H2 8555   4.633   3.359   0.722  3.7193  2.1043 -0.6035
  573MPD2    H3 8556   4.489   3.228   0.581  1.2729  0.6704  2.4894
  573MPD2     N 8557   4.478   3.530   0.258 -0.5454 -0.6963  0.1792
  573MPD2    H5 8558   4.421   3.465   0.204 -1.0445 -0.6200  0.6092
  573MPD2    N1 8559   4.712   3.603   0.688 -0.3727  0.5987 -0.0182
  573MPD2    H7 8560   0.012   3.547   0.763  1.5861  0.0926 -1.4267
  574TMC3    C1 8561   4.483   3.644   0.056  1.0997 -0.8438  0.9094
  574TMC3    C2 8562   4.347   3.650   0.049 -0.2626  0.4325 -0.3429
  574TMC3    C3 8563   4.296   3.730  17.702 -0.2787  0.8264 -0.4773
  574TMC3    C4 8564   4.564   3.690  17.705 -0.7097 -0.5478 -0.2718
  574TMC3    C5 8565   4.512   3.765  17.607 -0.3459 -0.3898  0.4761
  574TMC3    C6 8566   4.376   3.785  17.600 -0.0507  0.5571  0.1161
  574TMC3     C 8567   4.535   3.639   0.191 -0.2334 -0.2596  0.1033
  574TMC3     O 8568   4.621   3.721   0.224 -0.3203  0.4377 -0.6738
  574TMC3     H 8569   4.283   3.626   0.133  0.5876 -0.3362  0.0755
  574TMC3    H1 8570   4.670   3.683  17.725 -1.0210 -1.8987  0.9031
  574TMC3    H2 8571   4.335   3.853  17.526 -0.4075 -1.2136 -1.3272
  574TMC3    C7 8572   4.598   3.842  17.517 -0.0204 -0.2892 -0.3586
  574TMC3    C8 8573   4.158   3.789  17.712 -0.1568  0.6859  0.5096
  574TMC3    O1 8574   4.708   3.875  17.562  0.5987  0.0789  0.1953
  574TMC3    O2 8575   4.115   3.780   0.069 -0.5386 -0.6834  0.1408
  575TMC3    C1 8576   1.196   0.072  10.971  0.2477 -0.0480 -1.0979
  575TMC3    C2 8577   1.086   0.023  11.036  0.2724  0.3530 -0.6204
  575TMC3    C3 8578   0.988   4.692  10.966  0.0520 -0.7560  0.2799
  575TMC3    C4 8579   1.203   0.068  10.837  0.3441 -0.4470 -0.9758
  575TMC3    C5 8580   1.096   0.012  10.768  0.5844  0.3035  0.5515
  575TMC3    C6 8581   0.997   4.689  10.830  0.5142 -0.8001 -0.6973
  575TMC3     C 8582   1.307   0.144  11.041 -0.1855 -0.2545 -0.7712
  575TMC3     O 8583   1.400   0.180  10.967  0.4794  1.0424 -0.0705
  575TMC3     H 8584   1.072   0.033  11.144  0.9066  0.6673 -0.5657
  575TMC3    H1 8585   1.274   0.127  10.780 -0.6042  3.8094  2.2783
  575TMC3    H2 8586   0.918   4.647  10.769 -1.8137  0.2236  1.6636
  575TMC3    C7 8587   1.081   0.048  10.627 -0.5372  0.0481 -0.1299
  575TMC3    C8 8588   0.868   4.647  11.026 -0.9612 -0.6628 -0.3570
  575TMC3    O1 8589   1.149   0.139  10.582 -0.0084 -0.0944 -0.1768
  575TMC3    O2 8590   0.784   4.607  10.948 -0.0823  0.4152  0.4452
  576MPD2     C 8591   1.542   1.104  12.644  0.5192  0.0260  0.1922
  576MPD2    C1 8592   1.530   1.235  12.594 -0.2086 -0.8583  0.3786
  576MPD2    C2 8593   1.469   1.330  12.668 -0.1513 -0.4934  0.6023
  576MPD2    C3 8594   1.415   1.297  12.790  0.1804 -0.1787 -0.3399
  576MPD2    C4 8595   1.430   1.168  12.840 -0.3998 -0.0783 -0.1409
  576MPD2    C5 8596   1.487   1.073  12.767  0.9887  0.4521  0.2026
  576MPD2     H 8597   1.461   1.430  12.629  0.6199 -0.4233  0.6298
  576MPD2    H1 8598   1.404   1.130  12.938 -0.8625  0.9620  0.1387
  576MPD2    H2 8599   1.587   1.023  12.589  0.7298  2.1420 -2.7649
  576MPD2    H3 8600   1.507   0.971  12.798  0.5887  0.7842  1.5576
  576MPD2     N 8601   1.352   1.398  12.867 -0.2662 -0.5055  0.4324
  576MPD2    H5 8602   1.355   1.494  12.836  2.0312 -0.4425  0.8694
  576MPD2    N1 8603   1.576   1.266  12.455  0.4468 -0.2057  0.1510
  576MPD2    H7 8604   1.545   1.353  12.413 -1.6990 -1.9624 -1.9307
  577TMC3    C1 8605   1.677   1.237  12.242  0.2353 -0.8191 -0.4302
  577TMC3    C2 8606   1.664   1.144  12.143 -0.4354  0.1620 -0.8287
  577TMC3    C3 8607   1.641   1.189  12.018 -0.6013  0.1095 -0.3585
  577TMC3    C4 8608   1.659   1.372  12.217  0.0222  0.4155 -0.8220
  577TMC3    C5 8609   1.628   1.410  12.086 -0.7235  0.0145 -0.2879
  577TMC3    C6 8610   1.609   1.319  11.992  0.2614 -0.2570  1.1812
  577TMC3     C 8611   1.655   1.184  12.376 -0.0658  0.1698  0.1157
  577TMC3     O 8612   1.714   1.077  12.400  0.9406 -0.2217  0.0241
  577TMC3     H 8613   1.671   1.036  12.154 -1.5171  0.1577 -0.2078
  577TMC3    H1 8614   1.675   1.442  12.298 -0.4023  0.0494 -0.4154
  577TMC3    H2 8615   1.592   1.344  11.887  0.7933 -0.7546  0.9750
  577TMC3    C7 8616   1.637   1.550  12.052  0.4528 -0.4458  0.1497
  577TMC3    C8 8617   1.654   1.095  11.909 -0.5868 -0.4454  0.3891
  577TMC3    O1 8618   1.704   1.621  12.129  0.5727 -0.3799  0.2272
  577TMC3    O2 8619   1.668   0.976  11.938 -0.2358  0.1056 -0.2984
  578MPD2     C 8620   4.457   2.025   1.285 -0.1461  0.3233 -0.7670
  578MPD2    C1 8621   4.493   2.011   1.155  0.6486  0.9557  0.0147
  578MPD2    C2 8622   4.602   1.929   1.115 -0.2170 -0.4976 -0.1313
  578MPD2    C3 8623   4.690   1.884   1.215  0.4430 -0.0564 -0.4688
  578MPD2    C4 8624   4.650   1.902   1.349 -0.0059  0.2685  0.0158
  578MPD2    C5 8625   4.543   1.973   1.381 -0.0173 -0.5201  0.2309
  578MPD2     H 8626   4.627   1.897   1.015 -1.7189  0.4169 -0.7868
  578MPD2    H1 8627   4.693   1.853   1.436 -0.8494 -0.6707 -0.1015
  578MPD2    H2 8628   4.374   2.088   1.315 -0.7629  1.4381 -4.7977
  578MPD2    H3 8629   4.512   1.980   1.484  0.8927  1.0628  0.3991
  578MPD2     N 8630   0.074   1.824   1.172 -0.5598  0.3252 -0.1643
  578MPD2    H5 8631   0.081   1.812   1.072  0.4144 -0.6857  0.0253
  578MPD2    N1 8632   4.400   2.062   1.058  0.4538  0.1901  0.1010
  578MPD2    H7 8633   4.323   2.117   1.095  0.3297  1.1122 -1.5303
  579TMC3    C1 8634   0.283   1.740   1.182 -0.7925  0.0486 -0.6786
  579TMC3    C2 8635   0.402   1.777   1.240  0.5466  0.2593 -0.1202
  579TMC3    C3 8636   0.516   1.749   1.172 -0.4876 -0.2487 -0.4154
  579TMC3    C4 8637   0.270   1.674   1.065  0.5922 -0.2489 -0.2913
  579TMC3    C5 8638   0.392   1.641   1.005 -0.2553  0.2098  0.3005
  579TMC3    C6 8639   0.515   1.683   1.060 -0.1271  0.8237 -0.4476
  579TMC3     C 8640   0.167   1.784   1.261 -0.4068 -0.8362  0.1937
  579TMC3     O 8641   0.177   1.802   1.382 -0.0554  0.7919  0.5821
  579TMC3     H 8642   0.400   1.828   1.335  0.7085  0.6376 -0.3205
  579TMC3    H1 8643   0.175   1.632   1.035 -0.4979  0.9072  1.5094
  579TMC3    H2 8644   0.611   1.670   1.010  0.8024  1.6784  1.1231
  579TMC3    C7 8645   0.389   1.528   0.912  0.0162 -0.2110 -0.7610
  579TMC3    C8 8646   0.636   1.762   1.251  0.0694  0.3178 -0.6329
  579TMC3    O1 8647   0.493   1.464   0.904 -0.3165 -0.2109  0.0490
  579TMC3    O2 8648   0.626   1.830   1.354 -0.3205  0.2380 -0.2690
  580TMC3    C1 8649   3.914   0.651  12.397 -0.1862  0.0577 -0.0832
  580TMC3    C2 8650   4.047   0.684  12.381  0.5256  0.3355 -0.8778
  580TMC3    C3 8651   4.128   0.592  12.445  0.5408 -0.3256 -0.2782
  580TMC3    C4 8652   3.874   0.527  12.427 -0.5751  0.4312 -0.7896
  580TMC3    C5 8653   3.963   0.446  12.483  1.0328 -0.3965  0.5146
  580TMC3    C6 8654   4.088   0.478  12.503  1.3340 -0.6434  0.0310
  580TMC3     C 8655   3.808   0.745  12.338 -0.7389 -0.3075 -0.0168
  580TMC3     O 8656   3.697   0.720  12.377  0.1124 -0.2782 -0.1830
  580TMC3     H 8657   4.072   0.788  12.366 -1.6163  1.1011  0.8133
  580TMC3    H1 8658   3.773   0.488  12.433 -0.7288  0.9083 -0.3567
  580TMC3    H2 8659   4.157   0.406  12.546  1.1071  0.2867  1.9416
  580TMC3    C7 8660   3.942   0.306  12.507 -0.5643  0.6764  0.5057
  580TMC3    C8 8661   4.267   0.599  12.408  0.6149  0.9530 -0.4898
  580TMC3    O1 8662   3.988   0.262  12.612 -0.5868 -0.0173 -0.8001
  580TMC3    O2 8663   4.332   0.524  12.481 -0.3594 -0.7500  0.1443
  581MPD2     C 8664   2.385   0.019  14.618  0.7278 -0.7430 -0.6000
  581MPD2    C1 8665   2.372   0.083  14.745 -0.0268  0.4784 -0.6622
  581MPD2    C2 8666   2.252   0.141  14.779  0.8739  0.5437 -0.3321
  581MPD2    C3 8667   2.151   0.151  14.687  0.0109 -0.7086 -0.6818
  581MPD2    C4 8668   2.170   0.085  14.565  0.3979 -0.0970 -0.0323
  581MPD2    C5 8669   2.291   0.027  14.523 -0.2602  0.8379 -0.1112
  581MPD2     H 8670   2.234   0.172  14.881 -0.9140 -1.8959  0.1053
  581MPD2    H1 8671   2.093   0.079  14.489 -0.4022 -2.1949  0.9477
  581MPD2    H2 8672   2.485   4.719  14.606  0.6401 -0.8505 -0.9563
  581MPD2    H3 8673   2.312   4.709  14.432 -1.0945 -1.0244  0.8568
  581MPD2     N 8674   2.018   0.198  14.732 -0.6727 -0.2571  0.0027
  581MPD2    H5 8675   2.015   0.228  14.828  0.6379 -0.5748  0.1388
  581MPD2    N1 8676   2.477   0.071  14.839  0.0570 -0.0310  0.0123
  581MPD2    H7 8677   2.552   0.006  14.817 -0.7679 -0.7700 -0.6058
  582TMC3    C1 8678   2.599   0.095  15.038  0.2897 -0.1677  0.4222
  582TMC3    C2 8679   2.617   0.171  15.156  0.1969 -0.3507  0.5124
  582TMC3    C3 8680   2.634   0.108  15.276  0.7573 -0.3074  0.0971
  582TMC3    C4 8681   2.600   4.699  15.041  0.5467 -0.2152 -0.1452
  582TMC3    C5 8682   2.602   4.648  15.166 -0.2845  0.4960 -0.2280
  582TMC3    C6 8683   2.636   4.709  15.287 -0.3440  0.5681  0.5607
  582TMC3     C 8684   2.493   0.147  14.953 -0.5538  0.2748 -0.0649
  582TMC3     O 8685   2.428   0.239  15.006 -0.4175 -0.3493  0.1535
  582TMC3     H 8686   2.603   0.278  15.149 -0.3646 -0.4856 -0.4135
  582TMC3    H1 8687   2.578   4.631  14.960  2.1753 -1.4819  0.4752
  582TMC3    H2 8688   2.616   4.666  15.384  1.4651 -1.9307 -0.1722
  582TMC3    C7 8689   2.582   4.505  15.167 -0.3105  0.3153  0.6538
  582TMC3    C8 8690   2.653   0.186  15.394  0.0040 -0.1590 -0.0053
  582TMC3    O1 8691   2.672   4.434  15.207  0.3760  0.4564  0.0741
  582TMC3    O2 8692   2.587   0.286  15.411 -0.1111 -0.4653 -0.6122
  583MPD2     C 8693   1.907   2.150  16.793 -0.2336  0.9232 -0.7860
  583MPD2    C1 8694   2.016   2.238  16.768  0.3096  0.4688  0.4683
  583MPD2    C2 8695   2.063   2.318  16.871 -0.2148  0.0740 -0.1342
  583MPD2    C3 8696   2.005   2.307  16.997 -0.1897  0.1219  0.1410
  583MPD2    C4 8697   1.882   2.240  17.012  0.1329  0.1832 -0.4448
  583MPD2    C5 8698   1.845   2.154  16.917 -0.7170 -0.3795 -0.6912
  583MPD2     H 8699   2.143   2.390  16.859 -0.6171  0.7926  1.4516
  583MPD2    H1 8700   1.829   2.230  17.106 -1.6150  2.2935 -1.2024
  583MPD2    H2 8701   1.867   2.078  16.722  0.0036 -1.0063  1.0241
  583MPD2    H3 8702   1.766   2.082  16.931 -0.9611  0.0177 -0.0002
  583MPD2     N 8703   2.075   2.377  17.103 -0.0116 -0.4807  0.9968
  583MPD2    H5 8704   2.151   2.438  17.073 -1.5040  1.4702  1.2542
  583MPD2    N1 8705   2.094   2.233  16.645 -0.2577  0.2466  0.3455
  583MPD2    H7 8706   2.164   2.305  16.631 -1.4113  1.6636  1.8087
  584TMC3    C1 8707   2.124   2.448  17.328 -0.6396 -0.0705 -0.3233
  584TMC3    C2 8708   2.256   2.489  17.288  0.1994 -0.0998 -0.2378
  584TMC3    C3 8709   2.329   2.556  17.385 -0.8142  0.4033  0.5967
  584TMC3    C4 8710   2.084   2.451  17.460 -0.6434  0.1715  0.2399
  584TMC3    C5 8711   2.154   2.523  17.547 -0.0171 -0.0856  0.1280
  584TMC3    C6 8712   2.284   2.569  17.518  0.5871  0.3432 -1.0801
  584TMC3     C 8713   2.030   2.387  17.232  0.4460  0.2021 -0.1556
  584TMC3     O 8714   1.935   2.323  17.275 -0.5045 -0.4277 -0.3471
  584TMC3     H 8715   2.289   2.473  17.186  1.9592  3.1830 -0.1841
  584TMC3    H1 8716   1.988   2.408  17.484 -0.7933  0.0769 -0.5389
  584TMC3    H2 8717   2.349   2.610  17.595 -1.4087  3.2398 -0.8989
  584TMC3    C7 8718   2.105   2.508  17.682 -0.1662  0.2422  0.4935
  584TMC3    C8 8719   2.471   2.583  17.368  0.3197  0.2671 -0.7904
  584TMC3    O1 8720   2.008   2.436  17.698  0.2005  0.3823  0.0018
  584TMC3    O2 8721   2.533   2.491  17.306 -0.0929  0.2259 -0.4960
  585MPD2     C 8722   2.078   0.756   0.662  0.2694 -0.8765 -0.2792
  585MPD2    C1 8723   1.976   0.796   0.573 -0.6409  0.4000  0.0548
  585MPD2    C2 8724   1.879   0.707   0.534 -0.1279  0.0708  0.0684
  585MPD2    C3 8725   1.885   0.572   0.579 -0.9849  0.6608 -0.5999
  585MPD2    C4 8726   1.984   0.538   0.669 -0.0970  0.7734 -0.2026
  585MPD2    C5 8727   2.075   0.631   0.714 -0.0821 -0.1269 -0.4421
  585MPD2     H 8728   1.802   0.739   0.464 -0.0876  1.6043  0.7352
  585MPD2    H1 8729   1.994   0.436   0.706  0.5202  0.2816 -1.7132
  585MPD2    H2 8730   2.151   0.829   0.694 -1.2940  0.4398  0.2815
  585MPD2    H3 8731   2.146   0.601   0.789  1.0862 -0.6408 -1.7511
  585MPD2     N 8732   1.800   0.471   0.525 -0.3533 -0.1407  0.4602
  585MPD2    H5 8733   1.825   0.379   0.558 -1.3180 -1.0767 -1.4389
  585MPD2    N1 8734   1.980   0.925   0.534  0.4786 -0.0286 -0.1499
  585MPD2    H7 8735   2.073   0.963   0.547  0.0279  1.0657 -0.1371
  586TMC3    C1 8736   1.671   0.364   0.347  0.2796  0.3682 -0.3170
  586TMC3    C2 8737   1.756   0.255   0.355  0.5813 -0.6830 -0.3198
  586TMC3    C3 8738   1.710   0.135   0.306 -0.4072  0.4893 -0.4549
  586TMC3    C4 8739   1.548   0.355   0.295 -0.6094  0.1720  0.1263
  586TMC3    C5 8740   1.500   0.241   0.245 -0.1408  0.0330 -0.4904
  586TMC3    C6 8741   1.582   0.131   0.248 -0.6513 -0.3424 -0.2805
  586TMC3     C 8742   1.706   0.482   0.430 -0.4332  0.9919 -0.4647
  586TMC3     O 8743   1.659   0.585   0.385 -0.3608  0.3821 -0.2617
  586TMC3     H 8744   1.850   0.255   0.410  0.0701 -1.8526  0.5596
  586TMC3    H1 8745   1.486   0.443   0.303  1.8036  1.8183  0.8030
  586TMC3    H2 8746   1.543   0.038   0.206  0.8971 -2.0710  2.1417
  586TMC3    C7 8747   1.394   0.241   0.143  0.0450  0.3381 -0.2307
  586TMC3    C8 8748   1.807   0.037   0.274  0.2252  0.2383  0.4728
  586TMC3    O1 8749   1.370   0.129   0.097  0.0797 -0.2425  0.0439
  586TMC3    O2 8750   1.925   0.074   0.249  0.2852  0.8793  0.6490
  587TMC3    C1 8751   3.720   4.500  16.101  0.2121 -0.6187  0.4341
  587TMC3    C2 8752   3.678   4.521  16.231  0.1584  0.2947  0.3581
  587TMC3    C3 8753   3.708   4.641  16.290  0.1987  0.2837  0.4139
  587TMC3    C4 8754   3.803   4.595  16.044  0.4747 -0.3538  0.2449
  587TMC3    C5 8755   3.839   4.702  16.116 -0.4109 -0.0908  0.4091
  587TMC3    C6 8756   3.792   4.733  16.236 -0.0577  0.1292  0.4334
  587TMC3     C 8757   3.741   4.358  16.059  0.3924  0.0243 -0.4206
  587TMC3     O 8758   3.821   4.334  15.973 -0.6597  0.7235 -0.0214
  587TMC3     H 8759   3.610   4.453  16.281 -0.4374  1.3426  0.9746
  587TMC3    H1 8760   3.847   4.582  15.946  0.9864  3.8051 -0.1118
  587TMC3    H2 8761   3.825   0.078  16.296  1.3602  0.5632 -0.9530
  587TMC3    C7 8762   3.893   0.083  16.045 -0.1420  0.4135  0.3505
  587TMC3    C8 8763   3.677   4.649  16.438  0.2968  0.3122  0.0189
  587TMC3    O1 8764   3.829   0.098  15.945  0.0268 -0.2140 -0.5040
  587TMC3    O2 8765   3.669   4.546  16.500  0.2224 -0.5605 -0.2447
  588TMC3    C1 8766   1.201   2.665   9.905  0.9158 -0.0973  0.2549
  588TMC3    C2 8767   1.183   2.558   9.817  0.2322 -0.0242  0.3359
  588TMC3    C3 8768   1.250   2.442   9.855 -0.0796  0.2868 -0.1392
  588TMC3    C4 8769   1.294   2.670  10.002  0.6282  0.0847  0.0344
  588TMC3    C5 8770   1.347   2.550  10.041  0.1911 -0.0796  0.2592
  588TMC3    C6 8771   1.329   2.429   9.967  0.8530  0.8417  0.1751
  588TMC3     C 8772   1.103   2.771   9.900  0.2379 -0.0032  0.0068
  588TMC3     O 8773   1.029   2.792   9.802 -0.3254  1.1417  0.0107
  588TMC3     H 8774   1.104   2.563   9.743  0.5974  1.9466  0.0934
  588TMC3    H1 8775   1.324   2.767  10.040 -2.3359  1.0003  0.0766
  588TMC3    H2 8776   1.359   2.331  10.001 -1.5997 -0.7102 -2.1893
  588TMC3    C7 8777   1.400   2.533  10.172 -0.6020  0.0259  0.3951
  588TMC3    C8 8778   1.204   2.318   9.783  0.0090 -0.2150  0.1275
  588TMC3    O1 8779   1.426   2.418  10.209 -0.1439  0.0198 -0.4858
  588TMC3    O2 8780   1.167   2.330   9.665  0.1685 -0.0706 -0.1527
  589TMC3    C1 8781   0.565   4.305   0.815  0.2079  0.2348  0.7413
  589TMC3    C2 8782   0.627   4.310   0.935 -0.5011 -0.2122  0.1075
  589TMC3    C3 8783   0.685   4.188   0.968 -0.3705 -0.0613 -0.0350
  589TMC3    C4 8784   0.568   4.205   0.728  0.5756 -0.5379  0.2525
  589TMC3    C5 8785   0.620   4.083   0.763  0.1638  0.7001 -0.5323
  589TMC3    C6 8786   0.687   4.084   0.882  0.3553  0.1434  0.0495
  589TMC3     C 8787   0.509   4.435   0.790 -0.1181 -0.6223 -0.1791
  589TMC3     O 8788   0.417   4.429   0.716  0.3363 -0.8489  0.0722
  589TMC3     H 8789   0.621   4.383   1.014 -2.6066  1.3533 -1.5054
  589TMC3    H1 8790   0.527   4.228   0.630  0.9545 -3.0520 -0.4891
  589TMC3    H2 8791   0.731   3.988   0.907  1.7398  1.0861  1.2376
  589TMC3    C7 8792   0.652   3.988   0.662  0.2881 -0.3493 -0.5977
  589TMC3    C8 8793   0.791   4.193   1.065 -0.8534  0.3892 -0.4494
  589TMC3    O1 8794   0.711   3.890   0.700 -0.3322 -0.1451  0.0595
  589TMC3    O2 8795   0.778   4.266   1.160 -0.9891 -0.1247 -0.6813
  590MPD2     C 8796   0.337   2.936  16.886  0.2582  0.1335 -0.0341
  590MPD2    C1 8797   0.276   3.041  16.822  0.3010  0.4121 -1.2840
  590MPD2    C2 8798   0.348   3.128  16.747  1.0355 -0.5725  1.0469
  590MPD2    C3 8799   0.484   3.124  16.755  0.0371 -1.2427  0.5641
  590MPD2    C4 8800   0.548   3.024  16.827  0.3361  0.2689 -0.2599
  590MPD2    C5 8801   0.475   2.932  16.894 -0.0286  0.3590 -0.9673
  590MPD2     H 8802   0.306   3.197  16.675  1.9475 -2.7522 -1.5649
  590MPD2    H1 8803   0.656   3.018  16.834  0.3559  0.5199 -0.3337
  590MPD2    H2 8804   0.269   2.867  16.935  0.4520  0.7641  1.1128
  590MPD2    H3 8805   0.522   2.850  16.947  0.9497  1.0511 -0.7598
  590MPD2     N 8806   0.555   3.211  16.668  0.1982 -0.2475  0.3474
  590MPD2    H5 8807   0.502   3.270  16.604  2.0530  0.5817 -0.4356
  590MPD2    N1 8808   0.137   3.041  16.818 -0.7000 -0.0866  0.3322
  590MPD2    H7 8809   0.091   2.955  16.845  0.3185 -0.5949  0.4421
  591TMC3    C1 8810   0.712   3.293  16.527 -0.7869  0.0660 -0.6400
  591TMC3    C2 8811   0.778   3.235  16.424  0.6683  0.4183  0.4402
  591TMC3    C3 8812   0.749   3.278  16.296  0.6100 -0.0744  0.2597
  591TMC3    C4 8813   0.620   3.396  16.504  0.6552  0.4272  0.1352
  591TMC3    C5 8814   0.606   3.449  16.377  0.5216  0.1987 -0.6050
  591TMC3    C6 8815   0.660   3.382  16.269  0.4137 -0.1092  0.0610
  591TMC3     C 8816   0.689   3.202  16.635  0.6829 -0.5918  0.0078
  591TMC3     O 8817   0.782   3.130  16.671 -0.0879 -0.3829 -0.0100
  591TMC3     H 8818   0.831   3.142  16.437  2.1994  1.3363  0.7957
  591TMC3    H1 8819   0.579   3.445  16.592  0.9047  2.6291 -0.9751
  591TMC3    H2 8820   0.643   3.406  16.165 -0.2295  1.9254  0.6232
  591TMC3    C7 8821   0.513   3.552  16.357  0.2167  0.3387  0.1421
  591TMC3    C8 8822   0.800   3.208  16.190  0.0219 -0.6036  0.3343
  591TMC3    O1 8823   0.424   3.566  16.441 -0.3441 -0.4815  0.3752
  591TMC3    O2 8824   0.810   3.082  16.200  0.0274  0.1072  0.0266
  592MPD2     C 8825   0.123   0.404  11.364  0.2931 -0.6967  0.0674
  592MPD2    C1 8826   0.103   0.428  11.500  0.2367 -0.4274 -0.2061
  592MPD2    C2 8827   0.018   0.342  11.570 -0.7678  0.2457 -0.4663
  592MPD2    C3 8828   4.709   0.226  11.510 -0.7304  0.5127 -0.4983
  592MPD2    C4 8829   4.730   0.209  11.382  0.1995 -0.2480  0.3110
  592MPD2    C5 8830   0.063   0.299  11.306 -0.8955 -0.5162 -0.7035
  592MPD2     H 8831   4.734   0.356  11.675  1.0071  2.1724 -0.3216
  592MPD2    H1 8832   4.699   0.117  11.334  0.2487  0.3937 -0.9417
  592MPD2    H2 8833   0.180   0.472  11.302  1.0384 -0.4470  1.0144
  592MPD2    H3 8834   0.082   0.286  11.200 -1.2641 -1.6187 -0.6346
  592MPD2     N 8835   4.653   0.129  11.594 -0.4532 -0.6972 -0.4939
  592MPD2    H5 8836   4.643   0.147  11.694 -0.9158 -2.7086 -0.1711
  592MPD2    N1 8837   0.173   0.539  11.546  0.1810 -0.2066  0.1282
  592MPD2    H7 8838   0.217   0.589  11.468 -0.8690 -4.4914 -3.2348
  593TMC3    C1 8839   0.276   0.683  11.714 -0.2996 -0.8665  1.0482
  593TMC3    C2 8840   0.280   0.724  11.839 -0.2249 -0.7328  0.2663
  593TMC3    C3 8841   0.379   0.816  11.870 -0.2772  0.4468 -0.6482
  593TMC3    C4 8842   0.347   0.745  11.609  0.4792 -0.4956  0.4357
  593TMC3    C5 8843   0.432   0.847  11.648  0.1370  0.4519 -0.4058
  593TMC3    C6 8844   0.447   0.889  11.775  0.0062  0.2103 -0.8852
  593TMC3     C 8845   0.186   0.573  11.679 -0.2009 -0.3861  0.9859
  593TMC3     O 8846   0.130   0.526  11.777  0.1964 -0.3768  0.7357
  593TMC3     H 8847   0.222   0.671  11.914 -2.6133 -0.5564 -1.4560
  593TMC3    H1 8848   0.355   0.700  11.511 -1.4615 -0.4017  0.2350
  593TMC3    H2 8849   0.529   0.957  11.798 -0.2151  0.7794 -1.7721
  593TMC3    C7 8850   0.509   0.926  11.554  0.0566 -0.5580 -0.6951
  593TMC3    C8 8851   0.387   0.836  12.011  0.0903  0.6503  0.4371
  593TMC3    O1 8852   0.546   1.037  11.582  0.4995  1.0382  0.3784
  593TMC3    O2 8853   0.303   0.784  12.083  0.3754  0.0217  0.7099
  594MPD2     C 8854   4.086   3.562  14.005  0.8282  0.2140  0.0069
  594MPD2    C1 8855   4.055   3.585  14.143 -0.3291 -0.5932  0.4986
  594MPD2    C2 8856   4.158   3.655  14.213  1.0918  0.4658 -0.5992
  594MPD2    C3 8857   4.274   3.694  14.153 -0.7169  0.2992  0.3257
  594MPD2    C4 8858   4.295   3.664  14.016  0.4236  0.4085 -0.1104
  594MPD2    C5 8859   4.196   3.601  13.951  0.5214 -0.0865 -0.8079
  594MPD2     H 8860   4.141   3.670  14.319 -2.2790 -0.7188 -0.9463
  594MPD2    H1 8861   4.380   3.695  13.957 -0.8840  2.4574 -0.9513
  594MPD2    H2 8862   4.008   3.521  13.941  1.0451 -1.7775  1.0161
  594MPD2    H3 8863   4.200   3.579  13.845 -0.8664  4.3514 -1.8084
  594MPD2     N 8864   4.370   3.761  14.231 -0.5148 -0.0929 -0.8536
  594MPD2    H5 8865   4.344   3.769  14.329  1.0302  0.6461 -0.5082
  594MPD2    N1 8866   3.925   3.539  14.194  1.1000  0.1455 -1.2423
  594MPD2    H7 8867   3.862   3.501  14.124 -2.2447  2.0082  0.8205
  595TMC3    C1 8868   0.045   3.845  14.409 -0.2029 -0.4149  0.2708
  595TMC3    C2 8869   4.713   3.808  14.302  0.4198 -0.3498  0.8487
  595TMC3    C3 8870   4.579   3.843  14.301 -0.3974 -0.4799 -0.1369
  595TMC3    C4 8871   4.725   3.919  14.507  0.1732 -0.2872 -0.0025
  595TMC3    C5 8872   4.593   3.966  14.499  0.2600 -0.8197  0.7662
  595TMC3    C6 8873   4.512   3.922  14.394  0.1885 -0.4209 -0.0636
  595TMC3     C 8874   0.193   3.847  14.412 -1.0342 -0.0490 -0.7010
  595TMC3     O 8875   0.251   3.860  14.518  0.1750 -0.4467  0.3003
  595TMC3     H 8876   0.017   3.733  14.236 -2.6622 -0.9769 -0.4393
  595TMC3    H1 8877   0.054   3.954  14.584  0.3922  0.0494 -0.3487
  595TMC3    H2 8878   4.410   3.959  14.384 -0.2790 -0.4201  4.8162
  595TMC3    C7 8879   4.539   4.075  14.580 -0.1766 -0.1437  0.2159
  595TMC3    C8 8880   4.503   3.779  14.194  0.2549 -0.3598  0.1891
  595TMC3    O1 8881   4.414   4.074  14.580 -0.0192 -1.0916  0.1524
  595TMC3    O2 8882   4.571   3.732  14.106  0.6937 -0.5292  0.4151
  596MPD2     C 8883   2.482   1.799  16.727  0.4125 -0.6722  0.1837
  596MPD2    C1 8884   2.612   1.782  16.771 -0.3657 -0.6984  0.2075
  596MPD2    C2 8885   2.715   1.763  16.682 -1.1079  1.0334  0.4873
  596MPD2    C3 8886   2.690   1.762  16.547  0.1872  0.0291  0.3661
  596MPD2    C4 8887   2.561   1.781  16.505 -0.0824  0.4864 -0.0979
  596MPD2    C5 8888   2.458   1.802  16.593  0.6363 -0.4799 -0.2527
  596MPD2     H 8889   2.816   1.756  16.719 -1.1030 -0.1758  0.2746
  596MPD2    H1 8890   2.526   1.796  16.404 -2.9150  0.4297  0.8646
  596MPD2    H2 8891   2.393   1.802  16.789  0.9816 -1.1404  1.0207
  596MPD2    H3 8892   2.362   1.821  16.548  1.1605 -0.2754 -1.2850
  596MPD2     N 8893   2.783   1.744  16.449  0.0021 -0.3335 -0.2398
  596MPD2    H5 8894   2.755   1.743  16.352  0.3731  1.9949 -0.3749
  596MPD2    N1 8895   2.643   1.781  16.911  0.1873  0.1977  0.3457
  596MPD2    H7 8896   2.742   1.775  16.935  0.5782 -0.2459 -1.3585
  597TMC3    C1 8897   2.622   1.800  17.149 -0.5356 -0.1630  0.3060
  597TMC3    C2 8898   2.715   1.701  17.164 -0.2539  0.4311 -0.3868
  597TMC3    C3 8899   2.746   1.670  17.296  0.3408  0.7749  0.0350
  597TMC3    C4 8900   2.562   1.873  17.251 -1.0521  0.8850  0.0311
  597TMC3    C5 8901   2.600   1.844  17.380  0.3877  0.7662  0.8377
  597TMC3    C6 8902   2.690   1.740  17.403 -0.0875  0.0179 -0.4741
  597TMC3     C 8903   2.559   1.811  17.016  0.5595  0.0409 -0.0029
  597TMC3     O 8904   2.437   1.836  17.020 -0.6452 -0.3901  0.6856
  597TMC3     H 8905   2.765   1.647  17.085 -1.4576 -1.4449  0.1356
  597TMC3    H1 8906   2.492   1.951  17.225 -0.7720  0.8166 -0.9174
  597TMC3    H2 8907   2.733   1.721  17.501 -0.2979 -2.3258 -0.8444
  597TMC3    C7 8908   2.561   1.925  17.495 -0.2615 -0.1951 -0.6866
  597TMC3    C8 8909   2.866   1.590  17.334 -0.7643 -0.5437 -0.0540
  597TMC3    O1 8910   2.509   1.861  17.590  0.0958  0.7927  0.5013
  597TMC3    O2 8911   2.863   1.550  17.450  0.3135  0.6055 -0.7682
  598TMC3    C1 8912   1.047   2.977  15.247 -0.7020 -0.1874 -0.6804
  598TMC3    C2 8913   0.929   3.038  15.225  0.3190 -0.0128  0.1679
  598TMC3    C3 8914   0.934   3.166  15.187 -0.2114  0.5946 -0.2030
  598TMC3    C4 8915   1.162   3.048  15.231 -0.9781  0.3677  0.5879
  598TMC3    C5 8916   1.163   3.178  15.191  0.1632  0.9394 -0.0298
  598TMC3    C6 8917   1.044   3.235  15.162 -0.3885 -0.1882 -0.0164
  598TMC3     C 8918   1.036   2.838  15.269  0.4374  0.4153 -0.2540
  598TMC3     O 8919   0.966   2.774  15.191  0.3835  0.4468  0.6305
  598TMC3     H 8920   0.838   2.979  15.230  0.0323  0.3135 -1.1813
  598TMC3    H1 8921   1.253   2.991  15.240 -1.8023 -0.7217  2.0530
  598TMC3    H2 8922   1.039   3.341  15.140  2.6545 -0.3489 -1.4840
  598TMC3    C7 8923   1.277   3.211  15.104  0.0029 -0.5740  0.0842
  598TMC3    C8 8924   0.805   3.241  15.207 -0.5435 -0.3594 -0.4363
  598TMC3    O1 8925   1.344   3.118  15.065  0.1134  0.2096  0.1278
  598TMC3    O2 8926   0.812   3.356  15.177 -0.2215  0.1934 -0.5524
  599MPD2     C 8927   1.394   0.789  15.492 -0.1298 -0.2850  0.6076
  599MPD2    C1 8928   1.461   0.721  15.591 -0.4618 -0.2804  0.5438
  599MPD2    C2 8929   1.386   0.688  15.707  0.0192 -0.2682  0.6252
  599MPD2    C3 8930   1.249   0.718  15.718  0.3002 -1.0577 -0.9016
  599MPD2    C4 8931   1.185   0.766  15.603  0.0148 -0.2981 -0.0690
  599MPD2    C5 8932   1.258   0.812  15.495 -0.7166 -0.4033  0.1327
  599MPD2     H 8933   1.440   0.639  15.787  0.1953 -0.3939  0.4310
  599MPD2    H1 8934   1.077   0.772  15.601  0.0638  0.5408 -0.2593
  599MPD2    H2 8935   1.429   0.821  15.394  1.8739  0.4023  1.5483
  599MPD2    H3 8936   1.207   0.862  15.413  1.6427 -1.0975 -1.7590
  599MPD2     N 8937   1.175   0.700  15.836 -0.1311  0.8852  0.1914
  599MPD2    H5 8938   1.078   0.727  15.826 -0.7507 -1.1154  0.9111
  599MPD2    N1 8939   1.603   0.700  15.582  0.3819  0.1001 -0.5439
  599MPD2    H7 8940   1.646   0.737  15.497 -0.4626  0.8330 -0.6447
  600TMC3    C1 8941   1.104   0.659  16.063 -0.2091  0.1219 -0.0144
  600TMC3    C2 8942   0.977   0.688  16.026 -0.5266 -0.3092  0.1159
  600TMC3    C3 8943   0.892   0.674  16.133 -0.5980 -0.3679 -0.5845
  600TMC3    C4 8944   1.149   0.656  16.192 -0.3437  0.4571 -0.0296
  600TMC3    C5 8945   1.059   0.647  16.289 -0.2334 -0.0331  0.4593
  600TMC3    C6 8946   0.926   0.646  16.264  0.0917 -0.0105  0.5526
  600TMC3     C 8947   1.212   0.660  15.961 -0.8569 -0.3865 -0.2065
  600TMC3     O 8948   1.328   0.633  15.997  0.3771  0.5479  0.1943
  600TMC3     H 8949   0.935   0.693  15.927 -1.1915 -1.1905  0.3526
  600TMC3    H1 8950   1.253   0.648  16.220  0.3617  0.1972 -2.7409
  600TMC3    H2 8951   0.854   0.619  16.340  0.1100 -2.5370 -0.3175
  600TMC3    C7 8952   1.094   0.687  16.427  0.3524  0.4607 -1.1553
  600TMC3    C8 8953   0.777   0.602  16.085 -0.1469 -0.4561 -0.6940
  600TMC3    O1 8954   1.017   0.755  16.497  0.4301  0.1723  0.1136
  600TMC3    O2 8955   0.747   0.507  16.156 -0.2548  0.3943 -0.0380
  601MPD2     C 8956   3.578   3.348  17.658  0.3121 -0.6741  0.0354
  601MPD2    C1 8957   3.459   3.415  17.662  0.1767  0.2386 -0.1501
  601MPD2    C2 8958   3.347   3.339  17.696 -0.0990  0.2956 -0.6624
  601MPD2    C3 8959   3.356   3.201  17.719 -0.5757  0.0740  0.5899
  601MPD2    C4 8960   3.472   3.134  17.709  0.4356 -0.5340  0.2917
  601MPD2    C5 8961   3.583   3.215  17.687 -0.2168  0.2506 -0.6062
  601MPD2     H 8962   3.251   3.387  17.702  0.0065  0.3740  0.2601
  601MPD2    H1 8963   3.479   3.027  17.724  3.6755 -0.4552 -0.7701
  601MPD2    H2 8964   3.672   3.397  17.634 -0.6994 -0.3807 -3.3205
  601MPD2    H3 8965   3.679   3.171  17.666 -0.5045  0.1521 -1.7086
  601MPD2     N 8966   3.244   3.125   0.002  0.0325  0.3363  0.3147
  601MPD2    H5 8967   3.256   3.024   0.010  0.1002  0.3650  0.5768
  601MPD2    N1 8968   3.432   3.547  17.627 -0.0198  0.0819  0.7976
  601MPD2    H7 8969   3.334   3.575  17.629 -0.0092  0.0306  2.2138
  602TMC3    C1 8970   3.465   3.765  17.550 -0.2006 -0.1090 -0.3562
  602TMC3    C2 8971   3.528   3.809  17.431  0.6409 -0.2704 -0.3259
  602TMC3    C3 8972   3.454   3.906  17.358 -0.1070  0.3279 -0.0465
  602TMC3    C4 8973   3.341   3.800  17.585  0.1560  0.1937  0.7328
  602TMC3    C5 8974   3.276   3.897  17.513  0.1594 -0.2645 -0.6384
  602TMC3    C6 8975   3.329   3.946  17.394 -0.4571  0.4031 -0.7286
  602TMC3     C 8976   3.527   3.638  17.585 -0.2705  0.7691  0.2178
  602TMC3     O 8977   3.650   3.629  17.582 -0.2823  0.4079 -0.4466
  602TMC3     H 8978   3.634   3.806  17.407  1.4278  0.4958  3.0621
  602TMC3    H1 8979   3.301   3.781  17.684  3.1363 -2.1275  1.5085
  602TMC3    H2 8980   3.276   3.999  17.317 -0.1165 -0.6606 -1.7027
  602TMC3    C7 8981   3.160   3.961  17.565  0.1018  0.1314 -0.1718
  602TMC3    C8 8982   3.529   3.986  17.259  0.7628  0.8090  0.3513
  602TMC3    O1 8983   3.090   3.911  17.657  0.5406 -0.4528  0.2535
  602TMC3    O2 8984   3.600   3.914  17.186  0.5418 -0.0183  0.3757
  603TMC3    C1 8985   1.021   0.339  11.719  0.0405 -0.6980 -0.0974
  603TMC3    C2 8986   1.114   0.263  11.788 -0.4895 -0.1335  0.1965
  603TMC3    C3 8987   1.247   0.261  11.741  1.2437 -0.6243  0.2171
  603TMC3    C4 8988   1.052   0.396  11.598  0.6675  0.1155 -0.2820
  603TMC3    C5 8989   1.176   0.375  11.551  0.1789  0.5102 -0.5638
  603TMC3    C6 8990   1.279   0.322  11.624  0.0554  0.2056 -1.1089
  603TMC3     C 8991   0.884   0.288  11.725 -0.0391  0.0505 -0.4103
  603TMC3     O 8992   0.808   0.310  11.630 -0.1868 -0.3477 -0.4315
  603TMC3     H 8993   1.096   0.204  11.877  2.0351  1.8990  2.0293
  603TMC3    H1 8994   0.970   0.418  11.531 -1.3088 -1.3559  1.6446
  603TMC3    H2 8995   1.368   0.295  11.567  0.8664 -2.0187  1.1743
  603TMC3    C7 8996   1.206   0.419  11.419  0.5644  0.1187 -0.3916
  603TMC3    C8 8997   1.308   0.135  11.761 -0.7476 -0.2736 -0.2936
  603TMC3    O1 8998   1.309   0.488  11.405  0.1934 -0.1222 -0.5759
  603TMC3    O2 8999   1.246   0.034  11.735 -0.0052  0.3774 -0.0234
  604MPD2     C 9000   2.207   2.805  16.416  0.3301  0.0823  0.1886
  604MPD2    C1 9001   2.186   2.932  16.358 -0.0141 -0.2520 -0.0679
  604MPD2    C2 9002   2.222   2.963  16.230  0.1156  0.4617 -0.3927
  604MPD2    C3 9003   2.280   2.866  16.152 -0.2211 -0.0175 -0.6237
  604MPD2    C4 9004   2.298   2.739  16.206  0.4779  0.5761 -0.1419
  604MPD2    C5 9005   2.269   2.714  16.342  0.4842 -0.6145  0.1387
  604MPD2     H 9006   2.204   3.059  16.182  1.4526  1.0307  0.2470
  604MPD2    H1 9007   2.332   2.652  16.151 -1.0105  0.9727 -1.6761
  604MPD2    H2 9008   2.186   2.781  16.520 -0.7827  3.7078  0.8116
  604MPD2    H3 9009   2.290   2.615  16.381  1.1284  0.7245  3.1785
  604MPD2     N 9010   2.324   2.896  16.016  0.4567 -0.0360 -0.4358
  604MPD2    H5 9011   2.290   2.983  15.974 -2.3616 -0.9672 -0.1083
  604MPD2    N1 9012   2.130   3.027  16.441  0.1024 -0.2975 -0.0178
  604MPD2    H7 9013   2.127   3.012  16.541 -0.9865  0.5672  0.0748
  605TMC3    C1 9014   2.040   3.241  16.484  0.3143 -0.0490  0.3806
  605TMC3    C2 9015   2.121   3.259  16.592  0.4313 -0.0009 -0.4222
  605TMC3    C3 9016   2.126   3.380  16.654 -0.1182 -0.2210 -0.2004
  605TMC3    C4 9017   1.957   3.343  16.442  0.6744 -0.2655 -0.1355
  605TMC3    C5 9018   1.952   3.457  16.513 -0.3733  0.5176  0.5808
  605TMC3    C6 9019   2.046   3.482  16.617  0.1494  0.5638 -0.1827
  605TMC3     C 9020   2.054   3.132  16.387  0.1124 -0.1929 -0.7627
  605TMC3     O 9021   1.991   3.136  16.282  0.4806 -1.4124  0.4924
  605TMC3     H 9022   2.195   3.188  16.627 -1.1528 -1.0750  0.7697
  605TMC3    H1 9023   1.907   3.321  16.349  2.5645 -3.4317 -0.4145
  605TMC3    H2 9024   2.049   3.576  16.671 -0.3538 -0.5033  1.7045
  605TMC3    C7 9025   1.843   3.550  16.493  0.1166  0.1510  0.5896
  605TMC3    C8 9026   2.235   3.391  16.750 -0.1764  0.6158  0.2779
  605TMC3    O1 9027   1.854   3.663  16.532  0.0741 -0.0624  0.2440
  605TMC3    O2 9028   2.248   3.291  16.820 -0.1863  0.4961 -0.5864
  606TMC3    C1 9029   2.995   1.662   0.497 -0.4962  0.2142 -0.8593
  606TMC3    C2 9030   3.095   1.700   0.413 -0.0974  0.2326 -0.0017
  606TMC3    C3 9031   3.102   1.635   0.290  0.2406 -0.1569 -1.1980
  606TMC3    C4 9032   2.904   1.561   0.466  0.2892 -0.3871  0.2151
  606TMC3    C5 9033   2.916   1.495   0.350  0.6370  0.3274  0.6371
  606TMC3    C6 9034   3.017   1.534   0.260 -0.1144  0.4246  0.2861
  606TMC3     C 9035   2.947   1.725   0.613  0.7675  0.5362 -0.8431
  606TMC3     O 9036   2.871   1.675   0.693 -0.2416 -0.3115 -0.3376
  606TMC3     H 9037   3.175   1.765   0.447 -0.9906  1.4727 -0.2485
  606TMC3    H1 9038   2.818   1.537   0.527 -1.6198  2.2072 -1.4093
  606TMC3    H2 9039   3.032   1.468   0.175  1.3728 -2.5073  2.8209
  606TMC3    C7 9040   2.846   1.369   0.340 -0.3849 -0.5541  1.2210
  606TMC3    C8 9041   3.227   1.646   0.224 -0.0003  0.5956 -0.8503
  606TMC3    O1 9042   2.793   1.322   0.441  0.3606 -0.6414 -0.0821
  606TMC3    O2 9043   3.273   1.548   0.161  0.2439  0.0851  0.6432
  607MPD2     C 9044   0.207   4.650  11.659 -0.0888  0.6698 -0.4676
  607MPD2    C1 9045   0.209   4.734  11.764 -0.2451  0.4492 -0.2592
  607MPD2    C2 9046   0.181   4.697  11.891  0.6266  0.0513  0.0617
  607MPD2    C3 9047   0.157   4.562  11.923  0.1907  0.3447 -0.3604
  607MPD2    C4 9048   0.143   4.474  11.813  0.9094 -0.5364 -0.7976
  607MPD2    C5 9049   0.174   4.520  11.685  0.1900  0.3154 -0.0366
  607MPD2     H 9050   0.180   0.023  11.978  2.1932 -1.4057  1.1608
  607MPD2    H1 9051   0.105   4.375  11.830  0.8465 -0.5262 -0.8800
  607MPD2    H2 9052   0.206   4.686  11.557 -0.3373 -1.7375 -1.3059
  607MPD2    H3 9053   0.158   4.456  11.599  1.5545 -0.4512  0.2843
  607MPD2     N 9054   0.146   4.527  12.059 -0.3811 -0.4185  0.6486
  607MPD2    H5 9055   0.162   4.603  12.125 -0.0006  0.9596 -1.0099
  607MPD2    N1 9056   0.241   0.135  11.754 -0.6565 -0.4357 -0.0292
  607MPD2    H7 9057   0.235   0.202  11.830  1.7923 -0.3962  0.1516
  608TMC3    C1 9058   0.401   0.288  11.693 -0.1470 -0.5744  0.5679
  608TMC3    C2 9059   0.447   0.294  11.825 -0.0848 -0.1388  0.0818
  608TMC3    C3 9060   0.535   0.394  11.862  1.0574 -0.8812  0.2168
  608TMC3    C4 9061   0.459   0.372  11.604  0.2400 -0.2054  0.1498
  608TMC3    C5 9062   0.539   0.483  11.645  0.6046  0.2506  0.1955
  608TMC3    C6 9063   0.586   0.488  11.777  0.2188 -0.3384 -0.5293
  608TMC3     C 9064   0.321   0.182  11.650  0.2948 -0.1617  0.0173
  608TMC3     O 9065   0.354   0.132  11.542  0.4712 -0.8909 -0.6200
  608TMC3     H 9066   0.413   0.218  11.894 -0.3086 -0.6853 -0.6202
  608TMC3    H1 9067   0.440   0.358  11.498 -1.3475 -0.8355  0.5092
  608TMC3    H2 9068   0.665   0.555  11.810 -1.6070  0.6063  1.8999
  608TMC3    C7 9069   0.612   0.548  11.537 -0.0149 -0.3951 -0.4192
  608TMC3    C8 9070   0.594   0.395  11.999  0.7595 -0.1058  0.2321
  608TMC3    O1 9071   0.578   0.529  11.420  0.0835  0.6758 -0.6951
  608TMC3    O2 9072   0.695   0.464  12.018  0.5437  0.0377  0.1210
  609TMC3    C1 9073   3.155   4.016   8.981  0.6873  0.1133  0.0696
  609TMC3    C2 9074   3.082   3.974   8.871 -0.3518 -0.4436 -0.7296
  609TMC3    C3 9075   3.147   3.924   8.766 -0.8234  1.0652 -0.0880
  609TMC3    C4 9076   3.292   4.016   8.988  0.3921  0.1747  0.2271
  609TMC3    C5 9077   3.351   3.948   8.877 -0.0823  0.1419 -0.2690
  609TMC3    C6 9078   3.283   3.908   8.762  0.2616  0.4080  0.1692
  609TMC3     C 9079   3.070   4.051   9.091 -0.2084  0.3950  0.0212
  609TMC3     O 9080   2.958   4.009   9.089 -0.1932  0.5601 -0.0341
  609TMC3     H 9081   2.974   3.974   8.876 -0.2803 -0.3683  0.9765
  609TMC3    H1 9082   3.349   4.040   9.077 -0.6231 -1.8284  1.4229
  609TMC3    H2 9083   3.340   3.882   8.673 -0.6043  2.5416 -1.0303
  609TMC3    C7 9084   3.490   3.907   8.901  0.4869  0.0179 -0.0724
  609TMC3    C8 9085   3.066   3.857   8.660  0.5582  0.4013  0.0897
  609TMC3    O1 9086   3.530   3.925   9.016  0.0446  0.2255  0.5815
  609TMC3    O2 9087   2.958   3.905   8.628 -0.2909 -0.1848  0.3206
  610TMC3    C1 9088   0.961   0.027  12.759 -0.3245  0.5826  0.1820
  610TMC3    C2 9089   1.007   0.101  12.650 -0.1093  0.4304 -0.4497
  610TMC3    C3 9090   1.134   0.075  12.606 -0.5447  0.5445 -0.2844
  610TMC3    C4 9091   1.025   4.655  12.798 -0.1168  0.5751  0.2762
  610TMC3    C5 9092   1.148   4.630  12.740 -0.3726  0.6067  0.1984
  610TMC3    C6 9093   1.210   4.712  12.648 -0.0059  0.6337 -0.6872
  610TMC3     C 9094   0.828   0.047  12.799  0.0489  0.0878  0.2488
  610TMC3     O 9095   0.767   4.687  12.842 -0.1480 -0.5107  0.1359
  610TMC3     H 9096   0.952   0.182  12.603 -1.4594  0.9690  2.0437
  610TMC3    H1 9097   0.974   4.580  12.856  1.4199  0.4849  1.5182
  610TMC3    H2 9098   1.316   4.707  12.624  0.4233  0.3892  1.3000
  610TMC3    C7 9099   1.233   4.519  12.796 -0.6934 -0.2808 -0.6103
  610TMC3    C8 9100   1.207   0.194  12.557  0.0516  0.4631 -0.1380
  610TMC3    O1 9101   1.353   4.520  12.771 -0.0617 -0.3962  0.0020
  610TMC3    O2 9102   1.174   0.303  12.611 -1.2011 -0.0585  0.2349
  611MPD2     C 9103   0.160   4.713  11.139  0.5883  0.2046  0.0472
  611MPD2    C1 9104   0.167   4.662  11.008 -0.5938  0.3915  0.0984
  611MPD2    C2 9105   0.284   4.671  10.945  0.5820 -0.1680 -0.2587
  611MPD2    C3 9106   0.387   0.002  11.006  0.6742 -0.3127  0.7284
  611MPD2    C4 9107   0.380   0.056  11.134 -0.6153  0.0363 -0.0437
  611MPD2    C5 9108   0.259   0.046  11.196  0.0279  0.1390  0.2173
  611MPD2     H 9109   0.287   4.621  10.848  0.3612 -1.0545  0.1883
  611MPD2    H1 9110   0.470   0.100  11.175  0.4673 -1.5905 -0.6516
  611MPD2    H2 9111   0.061   4.703  11.182 -0.4487  3.5757 -1.5680
  611MPD2    H3 9112   0.238   0.075  11.298 -0.6716 -1.6306  0.5746
  611MPD2     N 9113   0.503   0.027  10.940  0.0516 -0.2061  0.2591
  611MPD2    H5 9114   0.564   0.095  10.986  2.1715 -2.3535  0.6237
  611MPD2    N1 9115   0.055   4.579  10.968  0.0274 -0.0250  0.2724
  611MPD2    H7 9116   4.727   4.568  11.043  2.2098 -0.3229  2.1515
  612TMC3    C1 9117   0.633   0.046  10.743 -0.1010 -0.5133 -0.8869
  612TMC3    C2 9118   0.701   0.149  10.806 -0.5501 -0.0317  0.6204
  612TMC3    C3 9119   0.759   0.241  10.719 -0.2088  0.1423  0.1563
  612TMC3    C4 9120   0.662   0.017  10.611  0.0897  0.1034 -0.7025
  612TMC3    C5 9121   0.720   0.109  10.529  0.5455 -0.1757  0.1855
  612TMC3    C6 9122   0.767   0.228  10.584 -0.2126 -0.4233  0.1569
  612TMC3     C 9123   0.543   4.704  10.816 -0.3104  0.8500  0.3169
  612TMC3     O 9124   0.489   4.618  10.742  0.3450 -0.4438 -0.1928
  612TMC3     H 9125   0.669   0.180  10.905 -0.5690 -0.7685  0.8499
  612TMC3    H1 9126   0.627   4.662  10.568  2.4170 -0.8451 -0.4944
  612TMC3    H2 9127   0.812   0.307  10.526  1.5795 -1.2525  0.4298
  612TMC3    C7 9128   0.710   0.086  10.388  0.1806 -0.1449 -0.7097
  612TMC3    C8 9129   0.866   0.321  10.769  0.0898 -0.1530 -0.4084
  612TMC3    O1 9130   0.663   4.717  10.355 -0.3185  0.0703  0.0102
  612TMC3    O2 9131   0.932   0.382  10.688 -0.1948  0.3462  0.1555
  613MPD2     C 9132   4.597   1.776  16.231  0.3989 -0.3982  0.1754
  613MPD2    C1 9133   4.517   1.785  16.116  0.7126 -0.7627 -0.2457
  613MPD2    C2 9134   4.503   1.682  16.016  0.1929  0.1348 -0.4490
  613MPD2    C3 9135   4.580   1.572  16.030  0.1027 -0.1729 -0.3713
  613MPD2    C4 9136   4.658   1.560  16.143 -0.1215  0.0216 -0.1047
  613MPD2    C5 9137   4.660   1.652  16.244  0.0608 -1.0490  0.2595
  613MPD2     H 9138   4.439   1.699  15.930  1.4987  2.0950 -1.0444
  613MPD2    H1 9139   4.732   1.482  16.156  0.3861  0.5473  0.1613
  613MPD2    H2 9140   4.617   1.859  16.298 -0.5031 -1.3589  1.6348
  613MPD2    H3 9141   4.725   1.628  16.327 -1.1916 -0.8671  1.2885
  613MPD2     N 9142   4.608   1.492  15.923 -0.1300  0.1023  0.0620
  613MPD2    H5 9143   4.679   1.420  15.937 -0.7923 -0.8581 -1.5400
  613MPD2    N1 9144   4.454   1.907  16.103  0.4367 -0.0245  0.7739
  613MPD2    H7 9145   4.486   1.971  16.174  1.8224 -1.1705  1.1817
  614TMC3    C1 9146   4.448   2.097  15.955  0.0663 -0.3783 -0.1622
  614TMC3    C2 9147   4.577   2.127  15.992 -0.2868 -0.9774  0.1119
  614TMC3    C3 9148   4.634   2.231  15.924 -0.6343 -0.1993 -0.7037
  614TMC3    C4 9149   4.375   2.167  15.869 -0.2717  0.3752  0.0953
  614TMC3    C5 9150   4.436   2.278  15.808 -0.0274 -0.4236 -0.0984
  614TMC3    C6 9151   4.562   2.310  15.844  0.4390 -0.1170  0.5763
  614TMC3     C 9152   4.403   1.961  15.986  0.2371 -0.2707  0.3124
  614TMC3     O 9153   4.337   1.893  15.905 -0.1268  0.3486  0.1975
  614TMC3     H 9154   4.628   2.040  16.034 -0.8850 -1.2864  0.2065
  614TMC3    H1 9155   4.287   2.132  15.816 -0.2505 -2.4197  1.9486
  614TMC3    H2 9156   4.611   2.402  15.813 -0.3623  0.6959  1.7187
  614TMC3    C7 9157   4.350   2.386  15.766  0.2722 -0.3441  0.1989
  614TMC3    C8 9158   0.007   2.174  15.850 -0.0231 -0.5314 -0.2727
  614TMC3    O1 9159   4.369   2.496  15.816 -0.2463 -0.1335  0.5920
  614TMC3    O2 9160   0.057   2.076  15.901 -0.3929 -0.3517  0.6503
  615MPD2     C 9161   3.749   2.999  16.098 -0.1161 -0.5095 -0.0343
  615MPD2    C1 9162   3.767   3.093  15.999 -0.1488 -0.6669 -0.3154
  615MPD2    C2 9163   3.660   3.106  15.904 -0.2824  0.5242 -0.3746
  615MPD2    C3 9164   3.540   3.029  15.914  0.2471 -0.0368 -0.1249
  615MPD2    C4 9165   3.538   2.931  16.014 -0.3349  0.1952  0.1428
  615MPD2    C5 9166   3.633   2.926  16.108  0.5063  0.7508 -0.3686
  615MPD2     H 9167   3.683   3.165  15.817 -1.8827  1.4670 -0.1545
  615MPD2    H1 9168   3.457   2.861  16.026 -0.0292  0.1313  1.7253
  615MPD2    H2 9169   3.821   2.986  16.178  1.6045 -0.2700 -1.5356
  615MPD2    H3 9170   3.624   2.847  16.181  0.7397  1.0914  0.0233
  615MPD2     N 9171   3.440   3.032  15.815 -0.4170  0.3660 -0.3388
  615MPD2    H5 9172   3.469   3.079  15.730 -3.2069  1.5407 -0.6645
  615MPD2    N1 9173   3.885   3.170  15.987 -0.0701  0.0364  0.1083
  615MPD2    H7 9174   3.890   3.244  15.918 -2.6370 -1.0506 -1.2688
  616TMC3    C1 9175   4.098   3.244  16.062  0.2403  0.3808  0.4703
  616TMC3    C2 9176   4.190   3.244  16.161  0.4850  0.4867 -0.6599
  616TMC3    C3 9177   4.280   3.342  16.178 -0.3405 -0.6052  0.5314
  616TMC3    C4 9178   4.100   3.345  15.968  0.0184 -0.8769 -0.1058
  616TMC3    C5 9179   4.192   3.445  15.988  0.0629 -0.2461 -0.3358
  616TMC3    C6 9180   4.289   3.450  16.091  0.2432  0.4379 -0.7807
  616TMC3     C 9181   4.001   3.141  16.058 -0.0911  0.5836 -0.1629
  616TMC3     O 9182   4.029   3.036  16.114  0.9205 -0.3871  0.4846
  616TMC3     H 9183   4.175   3.165  16.234  0.1092  2.3347  1.2621
  616TMC3    H1 9184   4.038   3.353  15.880 -2.7676 -0.2218  1.9014
  616TMC3    H2 9185   4.367   3.525  16.098  1.4238 -1.0565  2.1212
  616TMC3    C7 9186   4.205   3.553  15.889  0.5829 -0.9200  0.8473
  616TMC3    C8 9187   4.391   3.309  16.260  0.0522 -0.4892 -0.1273
  616TMC3    O1 9188   4.156   3.537  15.775 -0.4778  0.4565  0.6850
  616TMC3    O2 9189   4.401   3.194  16.298  0.7649 -0.2392 -0.0410
  617MPD2     C 9190   1.672   1.343  13.648 -0.0295  0.3071  0.7459
  617MPD2    C1 9191   1.722   1.252  13.741 -0.6556 -0.6070  0.2994
  617MPD2    C2 9192   1.639   1.214  13.846  0.7276 -0.0374 -0.1539
  617MPD2    C3 9193   1.519   1.273  13.866  0.1274 -0.0949 -0.0874
  617MPD2    C4 9194   1.472   1.360  13.771  0.3542  0.2998 -0.2579
  617MPD2    C5 9195   1.547   1.397  13.662 -1.0829 -0.0734  0.2481
  617MPD2     H 9196   1.675   1.136  13.912 -2.4714  0.4584  2.1535
  617MPD2    H1 9197   1.375   1.408  13.783  0.7191  1.0894 -0.4765
  617MPD2    H2 9198   1.726   1.374  13.560 -0.8083 -1.4242 -0.3463
  617MPD2    H3 9199   1.498   1.460  13.589 -0.9514  0.7676  0.8833
  617MPD2     N 9200   1.435   1.235  13.972 -0.0458  0.0579 -0.1288
  617MPD2    H5 9201   1.338   1.265  13.976 -0.2579 -0.9975  3.2776
  617MPD2    N1 9202   1.859   1.214  13.729  0.6675  0.0656 -0.7763
  617MPD2    H7 9203   1.911   1.269  13.661 -0.1991  0.8951 -0.7539
  618TMC3    C1 9204   2.059   1.098  13.767  0.5217  0.1098 -0.0501
  618TMC3    C2 9205   2.111   0.969  13.746 -0.3748 -0.1935 -0.3679
  618TMC3    C3 9206   2.246   0.962  13.723  0.4633 -0.5285  0.1392
  618TMC3    C4 9207   2.138   1.209  13.766 -0.3093  0.4676  0.4063
  618TMC3    C5 9208   2.267   1.192  13.729 -0.2885  0.8430 -0.5020
  618TMC3    C6 9209   2.322   1.066  13.714 -0.5387 -0.2895 -0.7108
  618TMC3     C 9210   1.916   1.108  13.791 -0.0346  0.0365 -0.1799
  618TMC3     O 9211   1.864   1.021  13.861  0.0983  0.1213 -0.1266
  618TMC3     H 9212   2.059   0.877  13.768 -0.0544 -0.3551 -0.3040
  618TMC3    H1 9213   2.094   1.308  13.773 -1.5524 -0.1887  1.8165
  618TMC3    H2 9214   2.429   1.063  13.700 -0.4194 -0.8690  0.3331
  618TMC3    C7 9215   2.344   1.305  13.689 -0.1330  0.7812 -0.1104
  618TMC3    C8 9216   2.285   0.851  13.634 -0.7972 -0.1724 -0.3380
  618TMC3    O1 9217   2.352   1.395  13.772 -0.0060 -0.6585  0.1023
  618TMC3    O2 9218   2.399   0.812  13.651 -0.0905  0.6445 -0.3776
  619MPD2     C 9219   3.166   2.454  14.090  0.2079  1.1634  0.5220
  619MPD2    C1 9220   3.145   2.415  13.961  0.2593 -0.2835 -0.0580
  619MPD2    C2 9221   3.016   2.392  13.918  0.2120 -0.1639 -0.2650
  619MPD2    C3 9222   2.909   2.403  14.011 -0.6216  0.2575 -0.1831
  619MPD2    C4 9223   2.933   2.441  14.142  0.0658  0.3829 -0.1930
  619MPD2    C5 9224   3.064   2.463  14.182 -0.0946  0.9149 -0.4042
  619MPD2     H 9225   3.003   2.355  13.817 -0.3789  1.0531 -0.6376
  619MPD2    H1 9226   2.853   2.441  14.216 -0.6623  1.2869 -0.9905
  619MPD2    H2 9227   3.261   2.488  14.127  2.1257 -0.9256 -2.4053
  619MPD2    H3 9228   3.085   2.495  14.283  3.4054  0.2603 -0.9456
  619MPD2     N 9229   2.773   2.379  13.979  0.8439 -0.0401  0.0514
  619MPD2    H5 9230   2.703   2.410  14.045  2.1941  2.1326  0.4349
  619MPD2    N1 9231   3.255   2.396  13.874 -0.4685  0.0465 -0.9168
  619MPD2    H7 9232   3.236   2.349  13.786 -0.5357  2.1355 -2.0105
  620TMC3    C1 9233   3.444   2.460  13.765  0.4955 -0.1597 -0.7247
  620TMC3    C2 9234   3.403   2.389  13.656  0.0037  0.2849  0.7133
  620TMC3    C3 9235   3.428   2.454  13.537 -0.6280  0.8640 -0.2617
  620TMC3    C4 9236   3.526   2.567  13.763  0.0952 -0.8456  0.6568
  620TMC3    C5 9237   3.555   2.625  13.643  0.3229 -0.0895  0.2051
  620TMC3    C6 9238   3.509   2.562  13.529  0.0771 -0.2708  0.3578
  620TMC3     C 9239   3.380   2.450  13.890  0.3826  0.5500  0.5038
  620TMC3     O 9240   3.423   2.521  13.978 -0.0394  0.8803  0.1752
  620TMC3     H 9241   3.343   2.298  13.663 -0.8061  0.7167 -0.7180
  620TMC3    H1 9242   3.577   2.614  13.846 -0.1640  0.1541  0.2552
  620TMC3    H2 9243   3.530   2.602  13.431 -1.1317 -1.9558 -0.5945
  620TMC3    C7 9244   3.539   2.766  13.646  0.4774  0.0765 -0.3865
  620TMC3    C8 9245   3.311   2.490  13.467 -0.2358  0.3031  0.2113
  620TMC3    O1 9246   3.576   2.819  13.749 -0.1693  0.1155 -0.2728
  620TMC3    O2 9247   3.299   2.608  13.438  0.3089 -0.3173  0.1050
  621MPD2     C 9248   2.500   2.554   9.835  0.2441  0.4675 -0.2341
  621MPD2    C1 9249   2.570   2.559   9.717 -0.1906 -0.1690  0.1850
  621MPD2    C2 9250   2.656   2.673   9.696 -0.1754 -0.7509 -0.6771
  621MPD2    C3 9251   2.661   2.780   9.785  0.8954 -0.2348  0.4306
  621MPD2    C4 9252   2.590   2.773   9.902 -0.0269  0.0101  0.3013
  621MPD2    C5 9253   2.517   2.654   9.924  0.1058 -0.0861 -0.1956
  621MPD2     H 9254   2.698   2.685   9.597 -0.4183 -1.5501 -0.8780
  621MPD2    H1 9255   2.578   2.847   9.980 -1.6566  0.4313 -0.3470
  621MPD2    H2 9256   2.424   2.482   9.861 -0.2260  0.8144 -0.6625
  621MPD2    H3 9257   2.454   2.653  10.012 -1.7452  2.4969 -1.4959
  621MPD2     N 9258   2.726   2.895   9.744 -0.1454 -0.0311 -0.2417
  621MPD2    H5 9259   2.760   2.892   9.648  0.3565  0.5384 -0.0792
  621MPD2    N1 9260   2.569   2.460   9.621 -0.5791 -0.0096  0.4437
  621MPD2    H7 9261   2.644   2.477   9.554 -0.8492  1.0432  0.4166
  622TMC3    C1 9262   2.527   2.264   9.505 -0.3232  0.1860  0.0722
  622TMC3    C2 9263   2.455   2.150   9.506  0.0590  0.3161 -0.3480
  622TMC3    C3 9264   2.399   2.111   9.384  0.5959 -0.4631  0.2776
  622TMC3    C4 9265   2.556   2.329   9.385 -0.9320 -0.1816 -0.1915
  622TMC3    C5 9266   2.500   2.281   9.274  0.5499 -0.1370  0.1509
  622TMC3    C6 9267   2.424   2.174   9.267 -0.1974  0.0720  0.5449
  622TMC3     C 9268   2.497   2.353   9.610  0.2391 -0.8056  0.1418
  622TMC3     O 9269   2.399   2.318   9.678 -0.8863  0.7114  0.0701
  622TMC3     H 9270   2.415   2.106   9.596  0.9381  2.1283  0.9135
  622TMC3    H1 9271   2.613   2.421   9.381 -1.5262  0.3647  3.6330
  622TMC3    H2 9272   2.376   2.131   9.180 -1.1115  0.5077  0.8403
  622TMC3    C7 9273   2.505   2.354   9.149 -0.3283 -0.1502 -0.3484
  622TMC3    C8 9274   2.257   2.119   9.401 -0.1175  0.1143  0.1589
  622TMC3    O1 9275   2.516   2.285   9.051 -0.3493  0.4346  0.0088
  622TMC3    O2 9276   2.195   2.115   9.296 -0.0652  0.0210  0.1912
  623MPD2     C 9277   2.447   2.997  16.548  0.5955 -0.5050 -0.7777
  623MPD2    C1 9278   2.499   3.117  16.582 -0.3189  0.1334  0.0061
  623MPD2    C2 9279   2.572   3.128  16.698 -0.0936  0.2675 -0.1263
  623MPD2    C3 9280   2.604   3.014  16.772  0.4327 -0.0180 -0.2544
  623MPD2    C4 9281   2.550   2.892  16.737  0.1321 -0.2042 -0.2260
  623MPD2    C5 9282   2.473   2.881  16.625  0.7136 -0.6943 -0.3976
  623MPD2     H 9283   2.602   3.221  16.745  0.1467  1.3949 -2.5179
  623MPD2    H1 9284   2.567   2.799  16.790  0.5002 -0.5539 -0.9530
  623MPD2    H2 9285   2.392   2.991  16.455 -2.5802 -0.1029  1.0835
  623MPD2    H3 9286   2.424   2.787  16.603 -0.5271 -0.2819  0.6375
  623MPD2     N 9287   2.677   3.034  16.892 -0.2620 -0.5276 -1.3393
  623MPD2    H5 9288   2.709   3.129  16.907 -1.3124 -0.8051  2.5588
  623MPD2    N1 9289   2.460   3.230  16.508  0.3732 -0.4355  0.6620
  623MPD2    H7 9290   2.378   3.220  16.449  0.4705  1.9064  0.1028
  624TMC3    C1 9291   2.932   3.150  17.137  0.5399 -0.6353 -0.2859
  624TMC3    C2 9292   2.855   3.258  17.148 -0.6428 -0.9366 -0.3231
  624TMC3    C3 9293   2.722   3.238  17.166 -0.4191  0.0405 -1.1400
  624TMC3    C4 9294   2.876   3.027  17.110 -0.1464  0.7592 -0.0410
  624TMC3    C5 9295   2.739   3.005  17.115 -0.0268 -0.2413  0.7094
  624TMC3    C6 9296   2.665   3.112  17.145  0.3887 -0.2165  0.1116
  624TMC3     C 9297   3.060   3.186  17.077  0.2824 -0.3607  0.3260
  624TMC3     O 9298   3.089   3.304  17.074 -0.3496 -0.4590  0.5686
  624TMC3     H 9299   2.898   3.353  17.177 -2.7786 -0.1953  0.3729
  624TMC3    H1 9300   2.938   2.939  17.113  0.0652  0.8966 -0.3995
  624TMC3    H2 9301   2.557   3.099  17.153 -0.0010  1.7600 -1.9102
  624TMC3    C7 9302   2.686   2.941  16.995  0.2334 -0.5148 -0.1085
  624TMC3    C8 9303   2.633   3.342  17.109  0.2298  0.0241  0.6870
  624TMC3    O1 9304   2.658   2.822  16.997  0.3062  0.4881 -0.2566
  624TMC3    O2 9305   2.511   3.310  17.113  0.0396 -0.5366  0.8296
  625MPD2     C 9306   3.289   4.382   0.449 -0.1554 -0.3218  0.2122
  625MPD2    C1 9307   3.284   4.518   0.440 -0.1507 -0.2315  0.2465
  625MPD2    C2 9308   3.390   4.582   0.391  0.0281 -0.1762 -1.0167
  625MPD2    C3 9309   3.501   4.512   0.332 -0.4886  0.4169 -0.3933
  625MPD2    C4 9310   3.496   4.375   0.331  0.3752 -0.2373  0.0720
  625MPD2    C5 9311   3.401   4.318   0.401 -0.2622 -0.3224  0.4795
  625MPD2     H 9312   3.376   4.689   0.394  1.5211  0.0047  0.0245
  625MPD2    H1 9313   3.570   4.309   0.288  0.7322 -1.5772  2.6791
  625MPD2    H2 9314   3.215   4.313   0.489 -0.4811  0.5420  1.0955
  625MPD2    H3 9315   3.400   4.210   0.409 -2.7443 -0.5257 -2.4960
  625MPD2     N 9316   3.600   4.590   0.269 -0.5163 -0.1555 -0.4195
  625MPD2    H5 9317   3.579   4.689   0.280 -2.0428 -0.3610 -1.4989
  625MPD2    N1 9318   3.175   4.594   0.494 -0.2063 -0.1191 -0.2170
  625MPD2    H7 9319   3.184   4.694   0.485  2.4552 -0.3949 -0.5452
  626TMC3    C1 9320   2.967   4.639   0.583  0.6618 -0.1658  0.0462
  626TMC3    C2 9321   2.838   4.647   0.542  0.3990  0.0363  0.3654
  626TMC3    C3 9322   2.773   0.026   0.558  0.1498  0.3978 -0.1101
  626TMC3    C4 9323   3.023   4.738   0.653 -0.1582 -0.0791 -0.0681
  626TMC3    C5 9324   2.952   0.108   0.684 -0.2058  0.3196 -0.7855
  626TMC3    C6 9325   2.828   0.130   0.635 -0.1713  0.7768 -0.0765
  626TMC3     C 9326   3.056   4.539   0.537 -0.5460  0.4114 -0.6385
  626TMC3     O 9327   3.012   4.431   0.524  0.3515 -0.1886 -0.4844
  626TMC3     H 9328   2.811   4.570   0.471  2.0563  0.2022 -0.4387
  626TMC3    H1 9329   3.121   4.721   0.698 -0.6826 -0.3485  0.9889
  626TMC3    H2 9330   2.776   0.224   0.648 -2.0792  0.0896 -2.6966
  626TMC3    C7 9331   3.000   0.176   0.803  0.3646  0.1092 -0.0664
  626TMC3    C8 9332   2.672   0.062   0.463  0.8774 -0.6161  0.1870
  626TMC3    O1 9333   3.122   0.187   0.817 -0.1240  0.1925 -0.1861
  626TMC3    O2 9334   2.640   0.177   0.442  0.0807 -0.1441  0.6319
  627MPD2     C 9335   1.223   4.731  14.761 -0.3013 -0.3229 -0.3764
  627MPD2    C1 9336   1.316   0.018  14.662 -0.9278  0.0380 -0.1906
  627MPD2    C2 9337   1.308   4.683  14.540 -0.1485 -0.1426  0.6629
  627MPD2    C3 9338   1.230   4.569  14.537  0.2092  0.7003 -0.4217
  627MPD2    C4 9339   1.139   4.535  14.631  0.0939  0.0416 -0.6892
  627MPD2    C5 9340   1.131   4.629  14.736 -0.5057  0.2699  0.2062
  627MPD2     H 9341   1.372   4.701  14.454 -1.1065 -0.6421 -0.1535
  627MPD2    H1 9342   1.067   4.453  14.629  0.4928 -0.3090 -0.6885
  627MPD2    H2 9343   1.217   0.057  14.847  1.8007  0.5158 -0.8412
  627MPD2    H3 9344   1.056   4.607  14.812 -1.2330  0.8116 -0.3499
  627MPD2     N 9345   1.249   4.486  14.422  0.7344 -0.0566 -0.5241
  627MPD2    H5 9346   1.307   4.523  14.348  0.0152  1.5026 -0.2934
  627MPD2    N1 9347   1.409   0.121  14.667  0.6227 -0.0640  0.6415
  627MPD2    H7 9348   1.477   0.121  14.592 -1.8725  0.4355 -1.6138
  628TMC3    C1 9349   1.552   0.291  14.734  0.6734 -0.2773  0.3420
  628TMC3    C2 9350   1.661   0.222  14.689 -0.0473  0.9577  0.9050
  628TMC3    C3 9351   1.785   0.256  14.733 -0.3717  0.6548 -1.0777
  628TMC3    C4 9352   1.570   0.397  14.819  0.2200  0.5085  0.4924
  628TMC3    C5 9353   1.700   0.418  14.874  0.8342 -0.6103  0.1439
  628TMC3    C6 9354   1.809   0.346  14.826  0.1627 -0.5582 -0.1430
  628TMC3     C 9355   1.431   0.214  14.761 -0.8661  0.2593 -0.5924
  628TMC3     O 9356   1.353   0.257  14.843  0.0583  0.2377  0.0723
  628TMC3     H 9357   1.647   0.140  14.620  1.0940  0.7215  0.9548
  628TMC3    H1 9358   1.489   0.452  14.865 -0.7326  0.6614 -1.3610
  628TMC3    H2 9359   1.910   0.381  14.846 -0.4494 -0.6244  2.9898
  628TMC3    C7 9360   1.724   0.553  14.896  0.1408  0.6885  0.1498
  628TMC3    C8 9361   1.895   0.189  14.664  0.2700  0.4567  0.4299
  628TMC3    O1 9362   1.837   0.584  14.946  0.5563  0.1506 -0.4832
  628TMC3    O2 9363   1.870   0.139  14.556 -0.0711 -0.0675  0.3897
  629MPD2     C 9364   0.141   3.365  16.426  0.6688  0.1740 -0.3886
  629MPD2    C1 9365   0.079   3.490  16.431  0.3118 -0.9845 -0.1419
  629MPD2    C2 9366   4.691   3.507  16.382 -0.0151 -0.0586  0.2432
  629MPD2    C3 9367   4.620   3.399  16.336  0.6285  0.4768 -0.8341
  629MPD2    C4 9368   4.682   3.277  16.326 -0.7095 -0.4557  0.6209
  629MPD2    C5 9369   0.071   3.258  16.383  0.0429 -0.0112 -0.1655
  629MPD2     H 9370   4.644   3.604  16.398  0.1933  0.1227 -0.2322
  629MPD2    H1 9371   4.626   3.192  16.288  0.1296 -1.2788  1.2451
  629MPD2    H2 9372   0.234   3.341  16.476 -0.1520 -1.2732  0.4659
  629MPD2    H3 9373   0.118   3.162  16.402 -0.1924  0.0336  0.6315
  629MPD2     N 9374   4.485   3.417  16.284 -0.2868 -0.0892 -0.1824
  629MPD2    H5 9375   4.454   3.510  16.259 -0.4157 -0.1330 -0.1907
  629MPD2    N1 9376   0.160   3.592  16.484  0.1053 -0.1703  0.0586
  629MPD2    H7 9377   0.252   3.570  16.520  0.0051 -0.2848  0.2463
  630TMC3    C1 9378   0.242   3.803  16.554 -0.3241 -0.7918 -0.3430
  630TMC3    C2 9379   0.262   3.933  16.506  0.2296  0.1268 -0.6864
  630TMC3    C3 9380   0.358   4.003  16.566 -0.1927  0.0981  0.1817
  630TMC3    C4 9381   0.310   3.744  16.652  0.1870 -0.0118 -0.9204
  630TMC3    C5 9382   0.404   3.823  16.712 -0.7969 -0.5384  0.4096
  630TMC3    C6 9383   0.433   3.949  16.663 -0.2938 -0.3020 -0.4458
  630TMC3     C 9384   0.134   3.727  16.482 -0.0787 -0.0147  0.3204
  630TMC3     O 9385   0.061   3.797  16.416 -0.1702 -0.0489 -0.7916
  630TMC3     H 9386   0.203   3.964  16.421 -0.7401  0.1908  0.0055
  630TMC3    H1 9387   0.266   3.663  16.710 -1.2101  0.8740 -0.7336
  630TMC3    H2 9388   0.497   4.013  16.723 -0.1364 -1.6205  0.7844
  630TMC3    C7 9389   0.468   3.772  16.824 -0.0296 -0.1999  0.8226
  630TMC3    C8 9390   0.397   4.139  16.519  0.4519 -0.5494  0.1640
  630TMC3    O1 9391   0.412   3.675  16.877  0.5720  0.0467 -0.3221
  630TMC3    O2 9392   0.462   4.200  16.603  0.1551 -0.1926  0.1001
  631MPD2     C 9393   2.678   3.617  15.689  0.2752 -0.7591 -0.1799
  631MPD2    C1 9394   2.787   3.631  15.605 -0.3639 -0.9055  0.2786
  631MPD2    C2 9395   2.876   3.520  15.583  0.2550  0.1753 -0.4039
  631MPD2    C3 9396   2.844   3.403  15.642  0.1710  0.5361  0.2477
  631MPD2    C4 9397   2.727   3.390  15.717 -0.1078 -0.1853  0.1371
  631MPD2    C5 9398   2.642   3.495  15.739  0.1274 -0.6927 -0.5409
  631MPD2     H 9399   2.969   3.523  15.527  0.5489  0.9151  0.1242
  631MPD2    H1 9400   2.681   3.298  15.751  0.1918 -0.3426  0.1156
  631MPD2    H2 9401   2.611   3.702  15.701 -1.1528 -1.8750 -0.2784
  631MPD2    H3 9402   2.551   3.491  15.799 -0.2192  2.9854 -0.7881
  631MPD2     N 9403   2.932   3.297  15.624 -0.0171 -0.8808  0.1550
  631MPD2    H5 9404   3.016   3.310  15.569 -0.4575  1.4761  0.0408
  631MPD2    N1 9405   2.795   3.756  15.538 -0.1640  0.8053 -0.1500
  631MPD2    H7 9406   2.718   3.819  15.560 -0.5745  0.4160 -0.4745
  632TMC3    C1 9407   2.839   3.936  15.393  0.4485 -0.1889  0.7370
  632TMC3    C2 9408   2.705   3.958  15.379  0.5950  0.2219  0.2421
  632TMC3    C3 9409   2.662   4.041  15.279 -0.0908  0.4927 -0.0504
  632TMC3    C4 9410   2.927   3.987  15.297  0.1962 -0.9697  0.6075
  632TMC3    C5 9411   2.878   4.078  15.208  0.7913 -0.0557 -0.8299
  632TMC3    C6 9412   2.743   4.113  15.197 -0.1542  0.2913  0.2360
  632TMC3     C 9413   2.881   3.804  15.445  0.0440 -0.1543  0.0735
  632TMC3     O 9414   2.971   3.747  15.382 -0.1831  0.2087 -0.2681
  632TMC3     H 9415   2.639   3.922  15.456 -0.3236  0.5798 -0.3858
  632TMC3    H1 9416   3.029   3.955  15.308  0.3758 -0.6044  0.0275
  632TMC3    H2 9417   2.703   4.177  15.119 -1.9453  0.9724  1.7102
  632TMC3    C7 9418   2.956   4.124  15.103 -0.3962  0.4152  0.3143
  632TMC3    C8 9419   2.520   4.045  15.253  0.5671  0.0496 -0.0093
  632TMC3    O1 9420   2.898   4.144  14.996 -0.9165  0.1983 -0.0613
  632TMC3    O2 9421   2.482   4.130  15.175  0.2994 -0.0311  0.2249
  633MPD2     C 9422   2.200   1.774  17.480 -0.5509 -0.0896 -0.0300
  633MPD2    C1 9423   2.225   1.734  17.352  0.4008  0.0974  0.3068
  633MPD2    C2 9424   2.281   1.610  17.331  0.5351  0.0111 -0.7352
  633MPD2    C3 9425   2.309   1.524  17.437  0.0647 -0.5650 -0.7410
  633MPD2    C4 9426   2.277   1.566  17.566 -0.0403  0.3452  0.2190
  633MPD2    C5 9427   2.222   1.691  17.584  0.3651  0.3955  0.2686
  633MPD2     H 9428   2.305   1.590  17.227  0.0290  0.6468 -0.9726
  633MPD2    H1 9429   2.284   1.497  17.649 -0.0329  0.4768  0.3284
  633MPD2    H2 9430   2.157   1.872  17.496  0.7447  0.2338  1.4202
  633MPD2    H3 9431   2.201   1.720  17.686  1.1907 -2.2468  1.1727
  633MPD2     N 9432   2.376   1.398  17.419  0.4827 -0.3227  0.4768
  633MPD2    H5 9433   2.385   1.338  17.501 -2.2429 -0.4848  0.6657
  633MPD2    N1 9434   2.218   1.821  17.244  0.0962 -0.5324  0.1244
  633MPD2    H7 9435   2.240   1.786  17.151 -1.2331 -0.9266 -0.0474
  634TMC3    C1 9436   2.164   2.012  17.118 -0.4021  0.1776  0.3005
  634TMC3    C2 9437   2.113   1.911  17.041  0.8130  0.2218  0.1244
  634TMC3    C3 9438   2.144   1.910  16.911 -0.5645  0.5905 -0.0312
  634TMC3    C4 9439   2.252   2.098  17.064  0.5033  0.4812  0.3050
  634TMC3    C5 9440   2.292   2.091  16.934 -0.5036 -0.1997  0.6398
  634TMC3    C6 9441   2.231   2.004  16.854 -0.0029  0.5610  0.0754
  634TMC3     C 9442   2.194   1.958  17.249  0.4618 -0.1989  0.2665
  634TMC3     O 9443   2.173   2.025  17.348  0.5908 -0.0685  0.1760
  634TMC3     H 9444   2.053   1.839  17.096 -0.8137  0.9404 -0.7220
  634TMC3    H1 9445   2.306   2.152  17.141 -0.6100  0.6209  0.9892
  634TMC3    H2 9446   2.247   2.002  16.747 -1.9739  1.1311 -0.2380
  634TMC3    C7 9447   2.376   2.188  16.860 -0.5100 -0.0034 -0.4901
  634TMC3    C8 9448   2.132   1.782  16.839  0.7890 -0.4330 -0.3343
  634TMC3    O1 9449   2.382   2.179  16.736  0.1298  0.1765  0.1183
  634TMC3    O2 9450   2.151   1.681  16.902  0.2412  0.0640 -0.1359
  635TMC3    C1 9451   2.676   2.242   0.567 -0.6690  0.2381 -0.2104
  635TMC3    C2 9452   2.642   2.109   0.541  0.6945 -0.1393 -0.4532
  635TMC3    C3 9453   2.558   2.047   0.630  0.5863 -0.3235 -0.0392
  635TMC3    C4 9454   2.634   2.304   0.679  0.3529 -0.0210 -0.3829
  635TMC3    C5 9455   2.567   2.233   0.777 -0.4929  0.0992  0.1898
  635TMC3    C6 9456   2.519   2.108   0.746  0.1907 -0.0833 -0.4415
  635TMC3     C 9457   2.735   2.332   0.467  0.1508  0.2836 -0.6822
  635TMC3     O 9458   2.773   2.441   0.501 -0.0609  0.8352 -0.3792
  635TMC3     H 9459   2.696   2.053   0.466  2.0572  0.1447  0.2964
  635TMC3    H1 9460   2.667   2.405   0.702 -1.6870  0.4618  0.4403
  635TMC3    H2 9461   2.446   2.061   0.810  1.6771  1.4404  2.3458
  635TMC3    C7 9462   2.491   2.301   0.889  0.0019  0.6188 -0.1374
  635TMC3    C8 9463   2.495   1.920   0.588  0.9991 -0.9096  0.0546
  635TMC3    O1 9464   2.387   2.262   0.936  0.6182  0.7598  0.5127
  635TMC3    O2 9465   2.454   1.855   0.681 -0.2057  0.4351 -0.3713
  636MPD2     C 9466   4.036   1.806  15.363  0.1029 -0.8880 -0.2359
  636MPD2    C1 9467   4.064   1.780  15.496  1.2060 -0.2442  0.4554
  636MPD2    C2 9468   4.168   1.702  15.528  0.4488  0.4673 -0.5803
  636MPD2    C3 9469   4.247   1.645  15.429 -0.0558 -0.6306 -0.6338
  636MPD2    C4 9470   4.212   1.646  15.300  0.1956 -0.7540 -0.0337
  636MPD2    C5 9471   4.106   1.726  15.269  0.1712 -0.4304  0.5440
  636MPD2     H 9472   4.204   1.684  15.628  0.2155 -0.0801 -0.5950
  636MPD2    H1 9473   4.270   1.606  15.217  1.1663 -0.6086  0.5714
  636MPD2    H2 9474   3.964   1.870  15.312  1.6288  1.4591  0.5671
  636MPD2    H3 9475   4.075   1.735  15.166  0.3921 -0.9188  0.4336
  636MPD2     N 9476   4.371   1.588  15.467  0.2328 -0.2390  0.1030
  636MPD2    H5 9477   4.379   1.583  15.568 -1.5202 -0.2095  0.2428
  636MPD2    N1 9478   3.993   1.845  15.605 -0.1199  0.2735 -0.6633
  636MPD2    H7 9479   3.994   1.804  15.698  2.7063  0.2512 -0.6931
  637TMC3    C1 9480   4.574   1.491  15.471  1.1368 -0.2452 -0.1217
  637TMC3    C2 9481   4.534   1.422  15.580 -0.1145 -0.3853  0.1044
  637TMC3    C3 9482   4.612   1.434  15.694  0.0190  0.8038 -0.3489
  637TMC3    C4 9483   4.684   1.563  15.466 -0.0501  0.0030 -0.5227
  637TMC3    C5 9484   0.028   1.562  15.572  0.1481  0.4631 -0.1411
  637TMC3    C6 9485   4.730   1.493  15.681  0.1141  0.0253 -0.0272
  637TMC3     C 9486   4.475   1.543  15.387 -0.3597 -0.0380  0.2357
  637TMC3     O 9487   4.497   1.564  15.270  0.5807  0.0855  0.1543
  637TMC3     H 9488   4.440   1.370  15.590 -0.8276  0.7015 -1.0327
  637TMC3    H1 9489   4.695   1.633  15.384  1.9100  0.1291 -0.1549
  637TMC3    H2 9490   0.062   1.499  15.764 -0.4577  1.4268  0.3662
  637TMC3    C7 9491   0.054   1.697  15.609  0.2618 -0.0559 -0.2583
  637TMC3    C8 9492   4.537   1.493  15.802  0.1713  0.5683  0.1981
  637TMC3    O1 9493   0.039   1.732  15.725 -0.3184  0.5421 -0.2567
  637TMC3    O2 9494   4.431   1.547  15.767 -0.0511 -0.0010  0.0943
  638MPD2     C 9495   3.824   0.775  14.972 -0.2583  0.0383  0.2761
  638MPD2    C1 9496   3.788   0.698  14.864 -0.8395 -0.3195  0.1372
  638MPD2    C2 9497   3.707   0.587  14.897  0.8898  0.1929  0.2852
  638MPD2    C3 9498   3.663   0.562  15.029 -0.2823 -0.6388 -0.2768
  638MPD2    C4 9499   3.712   0.638  15.132  0.9758  0.3436 -0.3194
  638MPD2    C5 9500   3.789   0.740  15.098  0.2360  0.2700 -1.0429
  638MPD2     H 9501   3.680   0.522  14.814  1.0717 -1.0236  1.1864
  638MPD2    H1 9502   3.702   0.634  15.240  0.8414 -0.8744 -0.3717
  638MPD2    H2 9503   3.882   0.866  14.962 -0.1827  0.0992  1.2114
  638MPD2    H3 9504   3.824   0.802  15.180 -0.2113  0.6263 -1.1181
  638MPD2     N 9505   3.581   0.443  15.045  0.2926  0.0695  0.6872
  638MPD2    H5 9506   3.562   0.398  14.957  0.8359  1.7030 -0.2622
  638MPD2    N1 9507   3.827   0.729  14.734  0.1971  0.2705 -0.3150
  638MPD2    H7 9508   3.900   0.799  14.727  0.7247 -0.4281 -1.6824
  639TMC3    C1 9509   3.556   0.242  15.135 -0.2120 -0.0108 -0.1554
  639TMC3    C2 9510   3.509   0.205  15.012 -0.2536 -0.0824  0.5830
  639TMC3    C3 9511   3.583   0.120  14.939  0.2159  0.4178 -0.6638
  639TMC3    C4 9512   3.675   0.195  15.175 -0.6289  0.0090  0.9802
  639TMC3    C5 9513   3.747   0.112  15.098 -1.3214 -0.4304 -0.5944
  639TMC3    C6 9514   3.709   0.080  14.971  0.4733  0.9300 -0.6103
  639TMC3     C 9515   3.552   0.384  15.162  1.0242 -0.7056  0.5596
  639TMC3     O 9516   3.572   0.427  15.274 -0.2477 -0.0752 -0.4173
  639TMC3     H 9517   3.424   0.250  14.962  1.0991  1.4083 -0.3434
  639TMC3    H1 9518   3.722   0.234  15.265  1.3203 -0.9088  0.3645
  639TMC3    H2 9519   3.758   0.009  14.904 -1.2576 -2.5701  1.8080
  639TMC3    C7 9520   3.882   0.089  15.142 -0.0781  1.0253  0.1231
  639TMC3    C8 9521   3.505   0.039  14.844 -0.0013 -0.6562 -0.3368
  639TMC3    O1 9522   3.908   0.101  15.259  0.5146  0.2613  0.4344
  639TMC3    O2 9523   3.568   4.706  14.766  0.1064 -0.5459  0.4550
  640MPD2     C 9524   3.698   0.237  10.182 -0.0109 -0.3007  0.6241
  640MPD2    C1 9525   3.694   0.103  10.165  0.5744  0.1172  0.0229
  640MPD2    C2 9526   3.576   0.041  10.204  0.1913 -0.3265  0.6536
  640MPD2    C3 9527   3.462   0.109  10.247  0.5971 -0.2764  0.0156
  640MPD2    C4 9528   3.474   0.243  10.261 -1.1985  1.0893  0.2828
  640MPD2    C5 9529   3.586   0.311  10.223 -0.0391  0.5080  0.1402
  640MPD2     H 9530   3.572   4.672  10.190 -0.4520  0.2684 -3.5624
  640MPD2    H1 9531   3.378   0.293  10.275 -0.8286  1.8188  0.2114
  640MPD2    H2 9532   3.792   0.289  10.168  0.3153 -0.7495  1.1687
  640MPD2    H3 9533   3.596   0.418  10.242 -0.9018  0.1647  2.4012
  640MPD2     N 9534   3.341   0.050  10.268 -0.3076  0.0640 -0.9959
  640MPD2    H5 9535   3.270   0.106  10.313  0.7153 -1.6510  2.7500
  640MPD2    N1 9536   3.798   0.039  10.090  0.4290  0.7051  0.0867
  640MPD2    H7 9537   3.860   0.103  10.041  1.8319 -1.2719 -0.6919
  641TMC3    C1 9538   3.940   4.596  10.004  0.9427 -0.0155  1.3600
  641TMC3    C2 9539   3.962   4.463   9.988  0.3028 -0.0072 -0.0853
  641TMC3    C3 9540   4.059   4.429   9.898  0.1629  0.7112  0.4087
  641TMC3    C4 9541   4.026   4.683   9.946  0.0761 -0.0558  0.2018
  641TMC3    C5 9542   4.126   4.641   9.867  0.0687 -0.8193  0.3213
  641TMC3    C6 9543   4.150   4.510   9.834 -0.6287  0.1439 -0.1061
  641TMC3     C 9544   3.812   4.642  10.070  0.2883 -0.5817 -0.7985
  641TMC3     O 9545   3.735   4.551  10.105 -0.4077  0.2563  0.3653
  641TMC3     H 9546   3.896   4.392  10.035  0.1026 -0.5802 -1.2304
  641TMC3    H1 9547   4.014   0.051   9.959 -1.7959 -0.1057 -1.0480
  641TMC3    H2 9548   4.210   4.486   9.747  0.2409 -0.0133  0.5330
  641TMC3    C7 9549   4.195   0.012   9.802 -0.3457 -0.2571 -0.1888
  641TMC3    C8 9550   4.069   4.290   9.859  0.1147  0.6628 -0.7099
  641TMC3    O1 9551   4.132   0.117   9.786 -0.1653  0.2621 -0.4610
  641TMC3    O2 9552   4.148   4.269   9.765  0.4035  0.0594  0.4672
  642TMC3    C1 9553   0.234   0.588  12.612 -0.3399 -0.5947  0.0633
  642TMC3    C2 9554   0.343   0.642  12.556  0.1078  0.1624  0.3474
  642TMC3    C3 9555   0.378   0.608  12.430 -0.6232  0.3350  0.3723
  642TMC3    C4 9556   0.154   0.501  12.536  0.2098  0.3790 -0.5804
  642TMC3    C5 9557   0.199   0.473  12.409  0.2927 -0.3873 -0.2104
  642TMC3    C6 9558   0.304   0.538  12.345 -0.0795  0.4731 -0.2196
  642TMC3     C 9559   0.186   0.636  12.739 -0.2218 -0.5258  0.3535
  642TMC3     O 9560   0.256   0.723  12.784  0.8659 -0.8367 -0.6042
  642TMC3     H 9561   0.411   0.708  12.610  0.3726  0.3545 -0.2202
  642TMC3    H1 9562   0.057   0.462  12.563 -0.1238  0.5792 -1.4864
  642TMC3    H2 9563   0.336   0.499  12.249  0.5679 -1.2686  0.7232
  642TMC3    C7 9564   0.139   0.370  12.336  0.1931 -0.0375  0.4236
  642TMC3    C8 9565   0.520   0.599  12.402  0.3690  0.9841  0.2967
  642TMC3    O1 9566   0.143   0.373  12.214  0.1409  0.6053 -0.1580
  642TMC3    O2 9567   0.545   0.592  12.284 -0.0581  0.6512 -0.0861
  643TMC3    C1 9568   4.486   0.183   0.181 -0.0075 -0.0888  0.1041
  643TMC3    C2 9569   4.362   0.236   0.154  0.1566  0.7798  0.4329
  643TMC3    C3 9570   4.286   0.178   0.066  0.5809  0.1328  0.2468
  643TMC3    C4 9571   4.514   0.064   0.123 -0.5811 -0.1596  0.2843
  643TMC3    C5 9572   4.425   4.734   0.042  0.2936 -0.5345  0.2161
  643TMC3    C6 9573   4.308   0.051   0.012  0.4382  0.1241  0.3737
  643TMC3     C 9574   4.589   0.265   0.230  0.2271 -0.5548  0.0684
  643TMC3     O 9575   4.573   0.387   0.227 -0.3506  0.1371  0.1600
  643TMC3     H 9576   4.332   0.335   0.187  0.9317  0.8703  0.8490
  643TMC3    H1 9577   4.618   0.035   0.111 -0.2586  0.3076  1.9268
  643TMC3    H2 9578   4.239   0.020  17.688  0.5469  0.8115  0.0041
  643TMC3    C7 9579   4.493   4.692  17.672  0.5718  0.1691 -0.1095
  643TMC3    C8 9580   4.231   0.265  17.728  0.0644  0.1568  0.0894
  643TMC3    O1 9581   4.605   4.737  17.654  0.2037 -0.0842  0.0854
  643TMC3    O2 9582   4.150   0.220  17.652  0.0730 -0.2560 -0.0341
  644MPD2     C 9583   4.406   0.638   9.769  0.4014 -0.0282 -0.1228
  644MPD2    C1 9584   4.351   0.585   9.877 -0.1830 -0.2309 -0.2319
  644MPD2    C2 9585   4.269   0.655   9.969  0.1203 -0.7058 -0.0224
  644MPD2    C3 9586   4.257   0.789   9.943 -0.4171 -0.0389  0.0514
  644MPD2    C4 9587   4.312   0.849   9.828  0.6324 -0.1743  0.2241
  644MPD2    C5 9588   4.390   0.769   9.743  0.2702 -0.2370  0.0926
  644MPD2     H 9589   4.213   0.611  10.051 -0.7333  2.3727  1.0506
  644MPD2    H1 9590   4.302   0.955   9.805  1.5491  0.2346  1.7565
  644MPD2    H2 9591   4.460   0.571   9.704  1.3025  0.3673  0.2172
  644MPD2    H3 9592   4.417   0.808   9.646  0.2564 -1.1790 -0.2798
  644MPD2     N 9593   4.177   0.860  10.034  0.2129  0.0116 -0.2699
  644MPD2    H5 9594   4.144   0.818  10.120  0.5825 -0.2510 -0.2606
  644MPD2    N1 9595   4.366   0.445   9.898  0.7719 -0.5672  0.1528
  644MPD2    H7 9596   4.434   0.394   9.843  0.4762 -1.6607  0.8177
  645TMC3    C1 9597   4.040   1.038  10.096 -1.2440 -0.3881 -0.8966
  645TMC3    C2 9598   3.907   1.054  10.062 -0.0392 -0.1264  0.0201
  645TMC3    C3 9599   3.819   1.043  10.162 -0.5647 -0.4326  1.0408
  645TMC3    C4 9600   4.082   1.023  10.222  0.1174 -0.0789 -0.3128
  645TMC3    C5 9601   3.994   1.031  10.324 -0.1728  0.7999 -0.6506
  645TMC3    C6 9602   3.856   1.033  10.298 -0.3876  0.0931 -0.1117
  645TMC3     C 9603   4.128   0.984   9.996 -0.6375 -0.3099 -0.4285
  645TMC3     O 9604   4.112   1.027   9.881 -0.1409 -0.1892 -0.3382
  645TMC3     H 9605   3.872   1.066   9.960  1.2192  1.5543 -0.2095
  645TMC3    H1 9606   4.183   0.984  10.238 -0.7258 -0.7110  3.4796
  645TMC3    H2 9607   3.786   0.995  10.372  0.4572  0.6186  0.9544
  645TMC3    C7 9608   4.037   1.036  10.462 -0.6416 -0.1550  0.3836
  645TMC3    C8 9609   3.679   1.029  10.119 -0.1735  0.2527  0.3671
  645TMC3    O1 9610   3.947   1.064  10.544 -0.1685  0.3159  0.2938
  645TMC3    O2 9611   3.636   1.116  10.047  0.4962 -0.3375 -0.4170
  646MPD2     C 9612   4.016   4.191  14.555 -0.1891  0.1997 -0.2264
  646MPD2    C1 9613   3.910   4.136  14.625 -0.5590  0.1873  1.2467
  646MPD2    C2 9614   3.781   4.143  14.571  0.1448  0.4024  0.4031
  646MPD2    C3 9615   3.758   4.189  14.443  0.2306 -0.1953  0.1634
  646MPD2    C4 9616   3.870   4.216  14.359  0.2884  0.9372  0.4237
  646MPD2    C5 9617   3.997   4.233  14.421  0.1353 -0.4333 -0.6105
  646MPD2     H 9618   3.693   4.117  14.628 -0.0683  0.5341  0.1336
  646MPD2    H1 9619   3.856   4.240  14.254 -2.5183 -0.2851  0.5291
  646MPD2    H2 9620   4.118   4.195  14.593  0.0599 -0.6601 -0.7921
  646MPD2    H3 9621   4.086   4.260  14.367  0.6134 -1.4191 -0.3242
  646MPD2     N 9622   3.622   4.204  14.400 -0.7863 -0.1642 -0.2149
  646MPD2    H5 9623   3.547   4.165  14.456 -0.8091 -4.3061 -3.1270
  646MPD2    N1 9624   3.933   4.076  14.753  0.4101  0.9099  0.0360
  646MPD2    H7 9625   4.025   4.077  14.795  0.2453 -0.1007  0.4175
  647TMC3    C1 9626   3.892   3.948  14.945 -0.5859 -0.1240  0.6799
  647TMC3    C2 9627   3.805   3.940  15.053 -0.3362  0.0912 -0.0285
  647TMC3    C3 9628   3.853   3.942  15.182  0.6193 -0.9530 -0.5949
  647TMC3    C4 9629   4.027   3.937  14.965  0.1826  0.7556 -0.0656
  647TMC3    C5 9630   4.071   3.930  15.098 -0.2690 -0.3946  0.4880
  647TMC3    C6 9631   3.988   3.933  15.202 -0.2181  0.1847  0.1984
  647TMC3     C 9632   3.842   3.995  14.822  0.0079  0.1914 -0.1151
  647TMC3     O 9633   3.736   3.946  14.794 -0.2272  0.0940  0.3144
  647TMC3     H 9634   3.697   3.941  15.043 -0.3267 -3.2544 -0.5423
  647TMC3    H1 9635   4.078   3.908  14.874  0.7855 -1.6934  1.0506
  647TMC3    H2 9636   4.038   3.939  15.298 -0.6062  0.5568  0.3755
  647TMC3    C7 9637   4.203   3.880  15.121  0.6365 -0.4304 -0.2918
  647TMC3    C8 9638   3.776   3.846  15.261 -0.1790 -0.4953  0.9035
  647TMC3    O1 9639   4.225   3.828  15.228  0.2471 -0.3854  0.6280
  647TMC3    O2 9640   3.656   3.860  15.264 -0.1772  0.1978  0.4750
  648TMC3    C1 9641   3.012   1.716  16.365 -0.2834 -0.7422 -0.3161
  648TMC3    C2 9642   3.129   1.644  16.374  0.0473  0.2601 -0.4241
  648TMC3    C3 9643   3.208   1.637  16.260 -0.6760 -0.0756 -0.3293
  648TMC3    C4 9644   2.985   1.787  16.249 -0.1370 -0.2374  0.4319
  648TMC3    C5 9645   3.058   1.771  16.133  0.3234 -0.7240 -0.0882
  648TMC3    C6 9646   3.174   1.689  16.134 -0.1888  0.3713 -0.3948
  648TMC3     C 9647   2.919   1.719  16.478 -0.1945  0.0266  0.1894
  648TMC3     O 9648   2.968   1.674  16.579 -0.3144  0.4070  0.3255
  648TMC3     H 9649   3.159   1.598  16.467 -0.5420  0.5588 -0.0870
  648TMC3    H1 9650   2.891   1.840  16.252 -1.1198 -1.9161 -0.5914
  648TMC3    H2 9651   3.240   1.698  16.049 -1.3173  0.7174 -1.2232
  648TMC3    C7 9652   3.036   1.850  16.006  0.0629  0.5429 -0.1195
  648TMC3    C8 9653   3.336   1.562  16.265  0.1392 -0.0022 -0.5191
  648TMC3    O1 9654   3.104   1.839  15.901 -0.0699 -0.5367  0.0668
  648TMC3    O2 9655   3.376   1.533  16.379 -0.1467 -0.2759  0.6943
  649TMC3    C1 9656   2.144   2.901  13.040  0.0723 -0.7103 -0.1406
  649TMC3    C2 9657   2.279   2.868  13.055 -0.4299  0.2459  0.6820
  649TMC3    C3 9658   2.318   2.804  13.168  0.0609 -0.0929  0.6303
  649TMC3    C4 9659   2.046   2.853  13.124  0.0211  0.5068 -0.7058
  649TMC3    C5 9660   2.095   2.768  13.221  1.2127 -0.0764 -0.0763
  649TMC3    C6 9661   2.226   2.748  13.253  0.2116  1.0568  0.2427
  649TMC3     C 9662   2.096   2.947  12.912 -0.3873 -0.3917  0.3936
  649TMC3     O 9663   1.990   3.011  12.915  0.0564 -0.6782 -0.0771
  649TMC3     H 9664   2.356   2.899  12.986  1.7213 -0.6804  2.6806
  649TMC3    H1 9665   1.943   2.870  13.094  0.8654  3.8709 -1.7496
  649TMC3    H2 9666   2.274   2.706  13.341 -0.3166  1.3029  0.6481
  649TMC3    C7 9667   1.987   2.682  13.277  0.6601  0.1905 -0.6309
  649TMC3    C8 9668   2.457   2.758  13.186 -0.2268  0.6444 -0.0361
  649TMC3    O1 9669   1.876   2.729  13.266  0.2503  0.7336 -0.2681
  649TMC3    O2 9670   2.495   2.725  13.294 -0.4252  0.4134  0.3881
  650TMC3    C1 9671   4.111   4.172  12.721  0.1373  0.1287 -0.4957
  650TMC3    C2 9672   4.064   4.226  12.838  0.4872 -0.4314 -0.5460
  650TMC3    C3 9673   3.956   4.311  12.831 -0.2610  1.1082 -0.1760
  650TMC3    C4 9674   4.059   4.200  12.593  0.4546  0.9358  0.0775
  650TMC3    C5 9675   3.959   4.293  12.598 -0.2978  0.3551 -0.0172
  650TMC3    C6 9676   3.901   4.344  12.711 -0.3650 -0.2197  0.3302
  650TMC3     C 9677   4.181   4.046  12.732  0.2615 -0.5944  0.4340
  650TMC3     O 9678   4.129   3.965  12.805  0.4733 -0.9484  0.3025
  650TMC3     H 9679   4.117   4.204  12.930 -0.0714 -4.4919 -1.2294
  650TMC3    H1 9680   4.115   4.168  12.506  0.4224 -0.2777  0.5043
  650TMC3    H2 9681   3.811   4.403  12.703 -0.6646 -0.4379  2.1153
  650TMC3    C7 9682   3.962   4.380  12.480 -0.1214  0.3091  0.0684
  650TMC3    C8 9683   3.944   4.412  12.937  0.7751 -0.3474 -0.1293
  650TMC3    O1 9684   3.977   4.337  12.370 -0.0622 -0.1221  0.3870
  650TMC3    O2 9685   4.044   4.463  12.983 -0.5379 -0.7867 -0.8710
  651MPD2     C 9686   2.710   1.769  10.337  0.3243  0.1277 -0.3345
  651MPD2    C1 9687   2.702   1.894  10.392  0.0499 -0.0602  0.3972
  651MPD2    C2 9688   2.818   1.960  10.429 -0.0678 -0.1952 -0.1587
  651MPD2    C3 9689   2.939   1.901  10.411 -0.6814 -0.3579 -0.3771
  651MPD2    C4 9690   2.948   1.778  10.363 -0.4959  0.6422  0.3160
  651MPD2    C5 9691   2.833   1.708  10.329 -0.3144  0.6737  0.2942
  651MPD2     H 9692   2.813   2.060  10.470  0.8110 -0.2684  0.1147
  651MPD2    H1 9693   3.033   1.713  10.349 -2.3117 -1.5082 -0.7918
  651MPD2    H2 9694   2.619   1.723  10.299  1.0547 -1.3882 -0.2489
  651MPD2    H3 9695   2.844   1.606  10.294  2.0475  0.6507  1.0693
  651MPD2     N 9696   3.046   1.978  10.435 -0.5141  0.2986  0.7702
  651MPD2    H5 9697   3.027   2.074  10.462 -2.3992 -0.9893  4.0462
  651MPD2    N1 9698   2.575   1.960  10.411 -0.0384  0.0647 -0.3932
  651MPD2    H7 9699   2.585   2.051  10.455  0.5404  0.8699 -2.2202
  652TMC3    C1 9700   3.466   2.121  10.306 -0.3933  0.7787  0.6473
  652TMC3    C2 9701   3.390   2.020  10.367  0.0100  0.0447  0.7219
  652TMC3    C3 9702   3.265   2.052  10.410  0.5160 -0.0582  0.4581
  652TMC3    C4 9703   3.418   2.246  10.294 -0.0998 -0.0492 -0.1626
  652TMC3    C5 9704   3.288   2.269  10.335  0.4311  0.2552  0.3839
  652TMC3    C6 9705   3.206   2.172  10.389  0.1307  0.1171 -0.1027
  652TMC3     C 9706   3.607   2.107  10.290  0.7163  0.3232 -1.0143
  652TMC3     O 9707   3.662   2.016  10.347 -0.1999  0.4717 -0.4648
  652TMC3     H 9708   3.435   1.922  10.380  1.6351  0.6791 -0.0933
  652TMC3    H1 9709   3.481   2.329  10.264  1.2724 -0.2344  2.2153
  652TMC3    H2 9710   3.109   2.194  10.431  0.3393  3.6813 -1.4505
  652TMC3    C7 9711   3.266   2.387  10.413 -0.0327 -0.3593  0.0284
  652TMC3    C8 9712   3.177   1.942  10.409  0.3228  0.2697 -0.3268
  652TMC3    O1 9713   3.207   2.382  10.521  1.0181 -0.2792  0.1730
  652TMC3    O2 9714   3.220   1.834  10.366  0.2350 -0.3536  0.4349
  653MPD2     C 9715   1.878   1.642   0.224  0.1586  0.4245  0.4667
  653MPD2    C1 9716   1.914   1.740   0.132  0.0135 -0.2282  0.4533
  653MPD2    C2 9717   1.908   1.720  17.750 -0.2169 -0.3520 -1.0076
  653MPD2    C3 9718   1.875   1.595  17.700  0.7200  0.3897 -0.6416
  653MPD2    C4 9719   1.832   1.495   0.037  0.5840 -0.1473 -0.1187
  653MPD2    C5 9720   1.832   1.522   0.173 -0.5689 -1.0073 -0.1874
  653MPD2     H 9721   1.937   1.801  17.683  0.4496  0.7909  0.6765
  653MPD2    H1 9722   1.801   1.399  17.750  0.0893 -0.3829  0.7932
  653MPD2    H2 9723   1.859   1.656   0.329 -1.0329  0.3908  0.2547
  653MPD2    H3 9724   1.777   1.455   0.238  0.9156  0.3413  2.4362
  653MPD2     N 9725   1.898   1.565  17.561 -0.5149 -0.0723 -0.8181
  653MPD2    H5 9726   1.934   1.648  17.514  1.3237 -0.2285  0.3307
  653MPD2    N1 9727   1.959   1.859   0.197  0.0730  0.3733 -0.2612
  653MPD2    H7 9728   1.935   1.869   0.295 -1.5103 -1.3689 -0.4914
  654TMC3    C1 9729   1.962   1.436  17.369 -0.1927 -0.3787 -0.2399
  654TMC3    C2 9730   1.919   1.535  17.290 -0.1085 -0.0608 -0.2122
  654TMC3    C3 9731   1.948   1.525  17.151  0.2950 -0.3230  0.3638
  654TMC3    C4 9732   2.019   1.316  17.332  0.5485  1.3642  0.0088
  654TMC3    C5 9733   2.030   1.308  17.197 -0.4869 -0.4220  0.1431
  654TMC3    C6 9734   2.008   1.410  17.104 -0.8364  0.6705  0.1899
  654TMC3     C 9735   1.925   1.440  17.509  0.1030  0.3800  0.5187
  654TMC3     O 9736   1.911   1.331  17.566  0.0034 -0.2698  0.0237
  654TMC3     H 9737   1.860   1.617  17.328  1.8133  1.6254 -0.8429
  654TMC3    H1 9738   2.024   1.234  17.404 -0.6376  1.9317  0.7499
  654TMC3    H2 9739   2.036   1.398  17.000  0.4150 -0.6507  0.6805
  654TMC3    C7 9740   2.072   1.175  17.136  0.3093 -0.1434 -0.3477
  654TMC3    C8 9741   1.885   1.623  17.076 -0.5218  0.0310 -0.5273
  654TMC3    O1 9742   2.063   1.179  17.016 -0.3289 -0.1874 -0.0412
  654TMC3    O2 9743   1.845   1.718  17.139  0.2781  0.0905  0.0544
  655MPD2     C 9744   3.526   1.764  15.892  0.4458 -0.4285  0.2456
  655MPD2    C1 9745   3.451   1.866  15.840 -0.1158  0.5270 -0.8651
  655MPD2    C2 9746   3.407   1.853  15.710 -0.6587 -0.4887 -0.1297
  655MPD2    C3 9747   3.465   1.754  15.632  0.1485 -0.3892  0.5505
  655MPD2    C4 9748   3.562   1.668  15.685 -0.1773 -0.3416 -0.4155
  655MPD2    C5 9749   3.585   1.663  15.814 -0.1396  0.1840 -0.3220
  655MPD2     H 9750   3.346   1.931  15.666  0.9905  0.8141 -0.1163
  655MPD2    H1 9751   3.618   1.591  15.631 -0.3970 -0.6781 -0.1637
  655MPD2    H2 9752   3.551   1.770  15.998 -2.2875 -1.4509  0.9555
  655MPD2    H3 9753   3.652   1.585  15.847 -1.5580 -0.6244  0.6675
  655MPD2     N 9754   3.427   1.740  15.494 -0.0732  0.5267 -0.0933
  655MPD2    H5 9755   3.488   1.684  15.434  0.3851  1.4528 -0.4853
  655MPD2    N1 9756   3.399   1.973  15.916  0.6186  0.3534  0.2472
  655MPD2    H7 9757   3.358   2.042  15.853 -0.0245 -0.2305  0.0218
  656TMC3    C1 9758   3.337   2.114  16.093 -0.3188  0.6381  0.5277
  656TMC3    C2 9759   3.242   2.107  16.191  0.0846  0.2154  0.7049
  656TMC3    C3 9760   3.165   2.221  16.192 -0.1517  0.2924  0.3230
  656TMC3    C4 9761   3.364   2.215  16.002  0.2823 -0.4162 -0.8814
  656TMC3    C5 9762   3.279   2.324  16.013 -0.8332  0.2151 -0.0084
  656TMC3    C6 9763   3.180   2.334  16.109 -0.2044 -0.1193 -0.7051
  656TMC3     C 9764   3.394   1.986  16.052 -0.6892  0.3291 -0.0431
  656TMC3     O 9765   3.394   1.901  16.142 -0.1412  0.0075  0.0876
  656TMC3     H 9766   3.228   2.018  16.251 -0.6053 -1.2080 -1.6067
  656TMC3    H1 9767   3.455   2.215  15.943  0.8686 -1.3716  0.0322
  656TMC3    H2 9768   3.120   2.423  16.119  1.5536  0.5994  3.6770
  656TMC3    C7 9769   3.263   2.405  15.891 -0.5817 -0.5349 -0.0804
  656TMC3    C8 9770   3.041   2.231  16.273  0.3525  0.8329 -0.6346
  656TMC3    O1 9771   3.337   2.377  15.799 -0.1063 -0.4197  0.7857
  656TMC3    O2 9772   2.969   2.330  16.272 -0.2207 -0.3295  0.0274
  657TMC3    C1 9773   2.468   1.001  15.183  0.2937 -0.0204 -0.1415
  657TMC3    C2 9774   2.538   1.066  15.276  0.3401  0.5164  0.2446
  657TMC3    C3 9775   2.487   1.180  15.335  0.6108 -0.7724  0.1510
  657TMC3    C4 9776   2.355   1.054  15.126  0.1407 -0.4061  0.3940
  657TMC3    C5 9777   2.318   1.185  15.169  0.0418 -0.4146 -0.4498
  657TMC3    C6 9778   2.383   1.246  15.274  0.4860  0.6840 -0.0715
  657TMC3     C 9779   2.520   0.878  15.119 -0.7159 -0.1987 -0.5538
  657TMC3     O 9780   2.435   0.797  15.086  0.3023  0.0159 -0.0479
  657TMC3     H 9781   2.616   1.000  15.312 -1.7526 -1.5693  0.9896
  657TMC3    H1 9782   2.296   1.003  15.051 -0.2195  0.6935 -0.0648
  657TMC3    H2 9783   2.349   1.342  15.312  1.1747  0.2326  1.6774
  657TMC3    C7 9784   2.208   1.250  15.104  0.3147 -0.1578  0.0123
  657TMC3    C8 9785   2.578   1.253  15.429  0.0960  0.1081 -0.4167
  657TMC3    O1 9786   2.130   1.187  15.042 -0.1480 -0.9993 -0.8751
  657TMC3    O2 9787   2.539   1.365  15.449 -0.0090 -0.4057 -0.3111
  658MPD2     C 9788   3.591   1.240  15.081  0.3966 -0.0414 -0.2186
  658MPD2    C1 9789   3.543   1.346  15.005  0.1458 -0.0327  0.4118
  658MPD2    C2 9790   3.526   1.327  14.867 -0.3855 -0.4560 -0.6712
  658MPD2    C3 9791   3.562   1.204  14.812 -0.4451 -0.2803  0.8601
  658MPD2    C4 9792   3.604   1.098  14.885  0.1784  0.0146 -0.7760
  658MPD2    C5 9793   3.622   1.122  15.018 -0.2309  0.4895  0.2231
  658MPD2     H 9794   3.465   1.393  14.806  0.2637 -0.2455 -1.0901
  658MPD2    H1 9795   3.607   1.001  14.838  0.0208 -0.6776  0.6476
  658MPD2    H2 9796   3.604   1.258  15.187 -4.4776 -2.6161  0.8233
  658MPD2    H3 9797   3.652   1.038  15.080  1.1109  0.3451 -0.6357
  658MPD2     N 9798   3.538   1.180  14.677  0.1449 -0.1710  0.0590
  658MPD2    H5 9799   3.555   1.088  14.640  1.3382  0.7317 -1.6159
  658MPD2    N1 9800   3.504   1.467  15.071 -0.3928 -0.4648  0.4035
  658MPD2    H7 9801   3.494   1.464  15.172  2.2981  0.2036  0.6855
  659TMC3    C1 9802   3.373   1.674  15.091  0.1722 -0.1684  0.1700
  659TMC3    C2 9803   3.399   1.700  15.231 -0.5082  0.3372 -0.4867
  659TMC3    C3 9804   3.315   1.781  15.294 -0.4879 -0.0368 -0.3423
  659TMC3    C4 9805   3.277   1.746  15.025 -0.1910 -0.5408 -0.4149
  659TMC3    C5 9806   3.185   1.808  15.106 -0.8415 -0.3758 -0.3500
  659TMC3    C6 9807   3.201   1.826  15.240  0.8560  0.3721  0.7021
  659TMC3     C 9808   3.452   1.581  15.008  0.1908 -0.1201  0.3002
  659TMC3     O 9809   3.438   1.606  14.892 -0.0102  0.0111  0.6778
  659TMC3     H 9810   3.493   1.668  15.275 -0.2266  0.6496 -0.8608
  659TMC3    H1 9811   3.264   1.733  14.918  2.4226 -0.5089 -0.7255
  659TMC3    H2 9812   3.116   1.857  15.300 -0.9642 -0.8526 -1.2630
  659TMC3    C7 9813   3.045   1.791  15.070 -0.1244 -0.3749  0.2357
  659TMC3    C8 9814   3.315   1.796  15.438 -0.2244  0.1476  0.1802
  659TMC3    O1 9815   2.959   1.820  15.150  0.0894 -0.5647  0.5497
  659TMC3    O2 9816   3.213   1.836  15.492 -0.1071 -0.2185  0.1345
  660MPD2     C 9817   1.516   0.657  12.620 -0.5999 -0.2053  1.0310
  660MPD2    C1 9818   1.392   0.715  12.650 -0.4076 -0.3725  0.6511
  660MPD2    C2 9819   1.314   0.665  12.749  0.6699  0.5942  0.8107
  660MPD2    C3 9820   1.356   0.559  12.831  0.7477 -0.1327  0.4958
  660MPD2    C4 9821   1.479   0.505  12.802  0.4560  0.1820 -0.6285
  660MPD2    C5 9822   1.553   0.548  12.693 -0.3920  0.0795  0.3194
  660MPD2     H 9823   1.218   0.712  12.768  1.2737  1.0243  2.7978
  660MPD2    H1 9824   1.519   0.429  12.868  0.6115  0.4562 -0.4075
  660MPD2    H2 9825   1.578   0.696  12.541  1.4453 -1.9233  1.7870
  660MPD2    H3 9826   1.645   0.503  12.657  1.4549  3.2572  1.0866
  660MPD2     N 9827   1.282   0.516  12.950 -0.2365  0.9384  0.1230
  660MPD2    H5 9828   1.329   0.446  13.006 -3.6706 -1.1886  0.3119
  660MPD2    N1 9829   1.364   0.829  12.567 -0.2357  0.6584 -0.3910
  660MPD2    H7 9830   1.426   0.860  12.493 -1.5542  2.4770 -0.7358
  661TMC3    C1 9831   1.204   0.986  12.479 -0.6537  0.1492 -0.7853
  661TMC3    C2 9832   1.232   0.952  12.346  0.1123  0.4540  0.4568
  661TMC3    C3 9833   1.170   1.027  12.247 -0.2396 -0.1774 -0.4923
  661TMC3    C4 9834   1.098   1.072  12.510 -0.6209  0.5343  0.2860
  661TMC3    C5 9835   1.030   1.127  12.404 -0.0383 -0.2377 -0.2048
  661TMC3    C6 9836   1.063   1.108  12.271 -0.8646 -0.2414  0.2124
  661TMC3     C 9837   1.243   0.900  12.589 -0.0158 -0.0309  0.0842
  661TMC3     O 9838   1.184   0.915  12.695  0.4977  0.0780 -0.9771
  661TMC3     H 9839   1.318   0.893  12.317  0.2011  0.2146  1.1919
  661TMC3    H1 9840   1.061   1.091  12.610  0.3137  0.5094  0.6283
  661TMC3    H2 9841   1.012   1.158  12.189  1.5784 -0.3853 -1.4039
  661TMC3    C7 9842   0.886   1.122  12.439 -0.1159  0.6527  0.5682
  661TMC3    C8 9843   1.216   1.016  12.111  0.1198  0.0916 -0.1747
  661TMC3    O1 9844   0.854   1.089  12.554  0.0563  0.3933  0.1622
  661TMC3    O2 9845   1.222   1.121  12.048 -0.1803 -0.2448 -0.4256
  662MPD2     C 9846   1.979   4.303   0.150 -0.0877  0.4494  0.4480
  662MPD2    C1 9847   2.007   4.434   0.101 -0.2714  0.8348 -0.2046
  662MPD2    C2 9848   1.938   4.544   0.145  0.1687  0.5678 -0.5601
  662MPD2    C3 9849   1.839   4.533   0.241  0.7095 -0.4672 -0.2980
  662MPD2    C4 9850   1.807   4.404   0.288  0.8217  0.3297  0.1058
  662MPD2    C5 9851   1.881   4.298   0.248 -0.1467  0.7343 -0.5254
  662MPD2     H 9852   1.949   4.637   0.090 -1.2677  0.9270 -0.2396
  662MPD2    H1 9853   1.725   4.389   0.357 -1.0524  0.3753 -2.1111
  662MPD2    H2 9854   2.030   4.211   0.123 -0.9071 -1.0591  4.0996
  662MPD2    H3 9855   1.847   4.208   0.298 -0.2274  0.8047 -0.4529
  662MPD2     N 9856   1.757   4.645   0.273 -0.3660 -0.1317  0.1413
  662MPD2    H5 9857   1.663   4.630   0.309 -0.4714 -1.5775 -0.7250
  662MPD2    N1 9858   2.097   4.464  17.749  0.1426 -0.0619  0.0590
  662MPD2    H7 9859   2.112   4.563  17.730  0.1598  0.2099  1.5058
  663TMC3    C1 9860   2.246   4.427  17.585 -0.8117  0.1462 -0.0331
  663TMC3    C2 9861   2.224   4.562  17.553  0.5544 -0.6051 -0.4404
  663TMC3    C3 9862   2.218   4.593  17.424 -0.8284 -0.1577 -0.0495
  663TMC3    C4 9863   2.270   4.335  17.484 -0.3006  0.2137  0.3451
  663TMC3    C5 9864   2.270   4.375  17.354  0.1427  0.1310 -0.3003
  663TMC3    C6 9865   2.232   4.503  17.324 -0.1204 -0.9158  0.0896
  663TMC3     C 9866   2.184   4.372  17.702  0.1256  0.4788 -0.0180
  663TMC3     O 9867   2.190   4.251  17.718 -0.2334 -0.2094 -1.2125
  663TMC3     H 9868   2.219   4.645  17.623  0.6344 -1.0187  0.0577
  663TMC3    H1 9869   2.271   4.230  17.512 -0.4241  0.0584 -0.2307
  663TMC3    H2 9870   2.234   4.538  17.222 -0.0483  1.3356  0.8591
  663TMC3    C7 9871   2.293   4.279  17.247  0.4016 -0.1248  0.5509
  663TMC3    C8 9872   2.100   4.669  17.408  0.0299 -0.4399  0.3084
  663TMC3    O1 9873   2.370   4.317  17.159  0.4500  0.0069 -0.3812
  663TMC3    O2 9874   2.098   0.023  17.330  0.2110 -0.7126 -0.2000
  664MPD2     C 9875   4.618   3.392  17.517 -0.0288 -0.2369  0.6184
  664MPD2    C1 9876   0.016   3.416  17.509 -0.6148 -0.0583  0.4112
  664MPD2    C2 9877   0.084   3.399  17.626 -0.9669 -0.2206  0.1366
  664MPD2    C3 9878   0.028   3.359  17.746 -0.6142  0.8278  0.2026
  664MPD2    C4 9879   4.630   3.322  17.743 -0.1678 -0.5823 -0.5159
  664MPD2    C5 9880   4.555   3.340  17.628  0.1578 -0.1834 -0.7850
  664MPD2     H 9881   0.189   3.425  17.632 -0.7302 -0.8986 -1.0233
  664MPD2    H1 9882   4.573   3.288   0.075  2.7981 -1.3075  1.1483
  664MPD2    H2 9883   4.560   3.410  17.428 -0.3391  0.1911  0.9061
  664MPD2    H3 9884   4.449   3.315  17.633 -0.2668  1.9595  0.8464
  664MPD2     N 9885   0.105   3.377   0.109 -0.0546 -0.2118 -0.4774
  664MPD2    H5 9886   0.191   3.426   0.087  0.6909 -1.2042  0.1688
  664MPD2    N1 9887   0.088   3.464  17.400 -0.7423 -0.1855 -0.4439
  664MPD2    H7 9888   0.184   3.489  17.422 -1.1361  0.5665  0.4163
  665TMC3    C1 9889   0.150   3.381   0.339  0.0817 -0.0454 -0.2897
  665TMC3    C2 9890   0.143   3.329   0.463  0.7096  0.6544 -0.2634
  665TMC3    C3 9891   0.216   3.379   0.568 -0.1776  0.2912 -0.0507
  665TMC3    C4 9892   0.226   3.494   0.321  0.3468 -0.1417 -0.4502
  665TMC3    C5 9893   0.304   3.538   0.426 -0.7709  0.0154  0.3688
  665TMC3    C6 9894   0.304   3.480   0.551  0.0673 -0.1508  0.1820
  665TMC3     C 9895   0.066   3.332   0.231 -0.4634  0.7648 -0.2316
  665TMC3     O 9896   4.721   3.241   0.251  0.2406  0.0208 -0.1180
  665TMC3     H 9897   0.089   3.238   0.486 -0.9498  1.2096 -2.0272
  665TMC3    H1 9898   0.233   3.539   0.223 -2.0671 -2.5596 -1.7245
  665TMC3    H2 9899   0.367   3.523   0.628  0.1529 -0.0020  0.0303
  665TMC3    C7 9900   0.336   3.677   0.416  0.3937 -0.0371 -0.0366
  665TMC3    C8 9901   0.198   3.337   0.702 -0.0232  0.2625 -0.2162
  665TMC3    O1 9902   0.361   3.717   0.300  0.0899 -0.2391 -0.4849
  665TMC3    O2 9903   0.210   3.426   0.786 -0.1799  0.5455  0.0508
  666TMC3    C1 9904   2.823   3.107   9.758 -0.0549  0.1991 -0.7733
  666TMC3    C2 9905   2.901   3.078   9.648  0.6174 -0.2788 -0.4083
  666TMC3    C3 9906   2.957   3.186   9.588  0.2025 -0.2214  0.2026
  666TMC3    C4 9907   2.811   3.232   9.822  0.0675 -0.1840 -0.1909
  666TMC3    C5 9908   2.867   3.334   9.758  0.5321  0.2993  0.3124
  666TMC3    C6 9909   2.935   3.314   9.640 -0.3356  1.2115 -0.3794
  666TMC3     C 9910   2.737   3.005   9.824  0.2192 -0.3880  0.4587
  666TMC3     O 9911   2.699   3.032   9.939 -0.2577 -0.2177  0.0311
  666TMC3     H 9912   2.924   2.982   9.604  0.7885 -0.3195 -0.2284
  666TMC3    H1 9913   2.741   3.249   9.904 -0.4166 -2.5188 -0.1239
  666TMC3    H2 9914   2.969   3.400   9.584  2.3350  0.4648  0.1000
  666TMC3    C7 9915   2.897   3.453   9.842  0.6946  0.4378  0.2648
  666TMC3    C8 9916   3.099   3.166   9.575 -0.0771  0.6556  0.5319
  666TMC3    O1 9917   2.823   3.475   9.937  0.7372 -0.6838  0.1640
  666TMC3    O2 9918   3.139   3.063   9.621  0.0955  0.2691 -0.0520
  667MPD2     C 9919   0.995   3.300  14.692  0.7354  0.1676 -0.6303
  667MPD2    C1 9920   0.927   3.378  14.784  0.6139 -1.0296 -0.2872
  667MPD2    C2 9921   0.798   3.346  14.816  0.0959 -0.0251  0.0275
  667MPD2    C3 9922   0.741   3.231  14.765  0.3632  0.5037  0.1533
  667MPD2    C4 9923   0.812   3.148  14.682 -0.2655 -0.0018  0.2159
  667MPD2    C5 9924   0.940   3.184  14.645  0.2621  0.2044 -0.2129
  667MPD2     H 9925   0.751   3.402  14.895 -0.6010 -1.9305  0.9437
  667MPD2    H1 9926   0.754   3.067  14.639 -0.4349 -1.0745  2.4915
  667MPD2    H2 9927   1.097   3.321  14.661  0.1306  1.4115 -1.7578
  667MPD2    H3 9928   0.988   3.127  14.566  1.0170 -1.1510  1.2347
  667MPD2     N 9929   0.610   3.187  14.808  0.0107 -0.0814 -0.2605
  667MPD2    H5 9930   0.596   3.087  14.804 -1.6163  0.2105 -1.8659
  667MPD2    N1 9931   0.983   3.488  14.846 -0.4378  0.7273 -0.1544
  667MPD2    H7 9932   0.924   3.534  14.915  0.2899  1.7212 -0.1911
  668TMC3    C1 9933   1.125   3.665  14.902 -0.1206 -0.3750  0.0091
  668TMC3    C2 9934   1.187   3.775  14.843  0.4719  0.7265 -0.0806
  668TMC3    C3 9935   1.192   3.887  14.920 -0.3445 -0.3883  0.4842
  668TMC3    C4 9936   1.053   3.680  15.018 -0.1542  0.0439 -0.0699
  668TMC3    C5 9937   1.065   3.799  15.084 -0.1258 -0.5632  0.2869
  668TMC3    C6 9938   1.130   3.900  15.037 -0.0975 -0.3808 -0.0658
  668TMC3     C 9939   1.105   3.548  14.813 -0.7413 -0.3691  0.0295
  668TMC3     O 9940   1.187   3.527  14.723  0.4438  0.1742  0.0319
  668TMC3     H 9941   1.213   3.770  14.738  0.6810  0.0657  0.0065
  668TMC3    H1 9942   1.003   3.596  15.064  1.5191 -1.5554 -1.1434
  668TMC3    H2 9943   1.147   3.982  15.106 -1.0415 -1.6130  1.6279
  668TMC3    C7 9944   1.032   3.797  15.222  1.0935 -0.1735  0.0991
  668TMC3    C8 9945   1.234   4.018  14.863 -0.3490 -0.2345  0.2603
  668TMC3    O1 9946   1.091   3.872  15.298  0.3213 -0.4386 -0.3042
  668TMC3    O2 9947   1.214   4.119  14.937 -0.4186  0.4144  0.1643
  669TMC3    C1 9948   3.618   3.368  14.469 -0.3008  0.3014 -0.3635
  669TMC3    C2 9949   3.536   3.346  14.357 -0.7585 -0.0733 -0.0768
  669TMC3    C3 9950   3.559   3.416  14.241  0.3651 -0.3397  0.1212
  669TMC3    C4 9951   3.728   3.447  14.455  0.0943  0.2732 -0.2962
  669TMC3    C5 9952   3.756   3.507  14.337  0.3597  0.0112 -0.0056
  669TMC3    C6 9953   3.670   3.496  14.228  0.1302 -0.1617 -0.2468
  669TMC3     C 9954   3.575   3.297  14.589  0.3484 -0.4920  0.0697
  669TMC3     O 9955   3.505   3.199  14.570 -0.1179 -0.1188 -0.2370
  669TMC3     H 9956   3.451   3.279  14.363 -0.1977 -0.6654  1.3840
  669TMC3    H1 9957   3.792   3.448  14.543  0.1043 -2.7578 -0.2452
  669TMC3    H2 9958   3.687   3.532  14.128 -0.9252 -0.6582 -0.6060
  669TMC3    C7 9959   3.894   3.531  14.323  0.1267  0.3861  0.1678
  669TMC3    C8 9960   3.462   3.380  14.138  0.3315  0.0011  0.1985
  669TMC3    O1 9961   3.964   3.556  14.418 -0.3574 -0.0581  0.5649
  669TMC3    O2 9962   3.436   3.258  14.139  0.4493  0.1427 -0.1342
  670MPD2     C 9963   1.451   0.850  13.716  0.0082  0.8459  0.0439
  670MPD2    C1 9964   1.578   0.803  13.715 -0.3688  0.6204  0.0827
  670MPD2    C2 9965   1.641   0.778  13.834 -0.4175  0.1241 -0.2375
  670MPD2    C3 9966   1.577   0.789  13.955 -0.3064 -0.0010  0.3709
  670MPD2    C4 9967   1.443   0.837  13.958 -0.3062  0.3678  0.7047
  670MPD2    C5 9968   1.386   0.877  13.839 -0.2852 -0.0102 -0.0504
  670MPD2     H 9969   1.744   0.743  13.839 -1.3974 -2.6389  1.0237
  670MPD2    H1 9970   1.392   0.847  14.053 -0.3947  3.0753  0.3729
  670MPD2    H2 9971   1.385   0.863  13.631 -0.9351 -1.7851  0.3973
  670MPD2    H3 9972   1.284   0.912  13.830  0.2780  0.8394 -3.0595
  670MPD2     N 9973   1.646   0.753  14.072  0.2973  0.1187 -0.1681
  670MPD2    H5 9974   1.737   0.708  14.064  0.1986  0.0177 -0.6915
  670MPD2    N1 9975   1.655   0.799  13.591 -0.1155  0.0454 -0.6973
  670MPD2    H7 9976   1.756   0.785  13.589 -0.0066  0.5360  1.4523
  671TMC3    C1 9977   1.689   0.680  14.284  0.1565 -0.2765  0.1861
  671TMC3    C2 9978   1.821   0.670  14.244 -0.7138  0.3825 -0.4280
  671TMC3    C3 9979   1.890   0.569  14.299 -0.4094  0.3588  0.6966
  671TMC3    C4 9980   1.625   0.595  14.371  0.6106 -0.0268 -0.5654
  671TMC3    C5 9981   1.699   0.484  14.408 -0.2818  0.4582  0.0795
  671TMC3    C6 9982   1.834   0.474  14.382  0.5475  0.5857  0.3938
  671TMC3     C 9983   1.595   0.745  14.195 -0.1774  0.1234  0.0510
  671TMC3     O 9984   1.479   0.760  14.232  0.6228 -0.1584  0.5062
  671TMC3     H 9985   1.873   0.752  14.197  1.1563 -0.0080  0.9973
  671TMC3    H1 9986   1.524   0.617  14.404  1.2546  0.6275  0.9990
  671TMC3    H2 9987   1.895   0.392  14.417 -0.2785 -0.4240 -0.5028
  671TMC3    C7 9988   1.641   0.361  14.366 -0.0091 -0.4907 -0.1172
  671TMC3    C8 9989   2.012   0.541  14.222 -0.2235  0.2709  0.2855
  671TMC3    O1 9990   1.710   0.279  14.300  0.1851  0.1840  0.6359
  671TMC3    O2 9991   2.016   0.582  14.108 -0.0107 -0.4342  0.4238
  672MPD2     C 9992   2.361   1.813   1.021 -0.6585  0.2802 -0.4620
  672MPD2    C1 9993   2.424   1.697   0.994 -0.0004  0.0811 -0.4809
  672MPD2    C2 9994   2.558   1.681   1.038 -0.6243 -1.0520 -0.8177
  672MPD2    C3 9995   2.624   1.783   1.106  0.2739  0.4084  0.1668
  672MPD2    C4 9996   2.555   1.901   1.130  0.1692 -0.0896  0.1962
  672MPD2    C5 9997   2.428   1.913   1.080  0.1550 -0.2689 -0.0721
  672MPD2     H 9998   2.607   1.585   1.028  0.3570 -0.5654 -0.7160
  672MPD2    H1 9999   2.602   1.992   1.168  0.1805  0.0423 -0.1385
  672MPD2    H210000   2.257   1.824   0.993 -0.9576  0.0100  0.5515
  672MPD2    H310001   2.364   2.000   1.088  0.1583 -0.2792  0.0686
  672MPD2     N10002   2.762   1.782   1.147 -0.0607  0.8181 -0.0803
  672MPD2    H510003   2.789   1.863   1.201  1.7679  0.3711 -0.3375
  672MPD2    N110004   2.363   1.583   0.922  0.3321  0.0712  0.4225
  672MPD2    H710005   2.411   1.494   0.921  4.6189  2.3620  0.1591
  673TMC3    C110006   2.212   1.468   0.777 -0.3109 -0.6466 -0.0454
  673TMC3    C210007   2.298   1.374   0.727  0.5613 -0.1846 -0.0312
  673TMC3    C310008   2.233   1.267   0.664  0.1656 -0.5591  0.0233
  673TMC3    C410009   2.080   1.454   0.775 -0.1791  0.5907  0.1397
  673TMC3    C510010   2.019   1.347   0.712 -0.4916 -0.6091 -0.9344
  673TMC3    C610011   2.093   1.255   0.647  0.5819 -0.3065 -0.8289
  673TMC3     C10012   2.256   1.594   0.843 -0.6808  0.4261  0.4093
  673TMC3     O10013   2.181   1.688   0.829  0.3319 -0.5952  0.0452
  673TMC3     H10014   2.406   1.369   0.740  0.4846 -2.5365 -0.1469
  673TMC3    H110015   2.017   1.521   0.832  0.0565  1.8073 -1.0490
  673TMC3    H210016   2.041   1.193   0.575  0.4043 -0.5237 -0.5148
  673TMC3    C710017   1.882   1.344   0.671 -0.3656  0.2248 -0.5440
  673TMC3    C810018   2.301   1.145   0.629  0.3129 -0.0910  0.0754
  673TMC3    O110019   1.828   1.234   0.672 -0.7458  0.1294 -0.4251
  673TMC3    O210020   2.230   1.051   0.590 -0.3683  0.4496 -0.1157
  674MPD2     C10021   1.984   0.358   0.066 -0.3696  0.0347 -0.7358
  674MPD2    C110022   2.027   0.406   0.185  0.6760  0.4153  0.5336
  674MPD2    C210023   2.021   0.539   0.218  0.1003 -0.0394 -0.0239
  674MPD2    C310024   1.998   0.628   0.114 -0.2476  0.0661 -0.4741
  674MPD2    C410025   1.959   0.582  17.740  0.4059  0.3786 -0.5779
  674MPD2    C510026   1.943   0.444  17.722  0.4367 -1.0633 -0.0503
  674MPD2     H10027   2.047   0.591   0.309 -0.4922  0.6793 -0.2604
  674MPD2    H110028   1.943   0.655  17.661  0.6270  0.8483 -0.1858
  674MPD2    H210029   1.986   0.253   0.041 -1.2207  0.2745 -1.8195
  674MPD2    H310030   1.922   0.411  17.621 -1.7556  0.1401  0.0158
  674MPD2     N10031   2.008   0.766   0.154 -0.2747 -0.0540  0.6857
  674MPD2    H510032   2.016   0.783   0.254  2.0230  1.1031  0.2925
  674MPD2    N110033   2.080   0.318   0.284 -0.4085  0.1889  0.7790
  674MPD2    H710034   2.056   0.220   0.284 -2.3219  0.6489  0.4203
  675TMC3    C110035   2.222   0.255   0.472  0.5512 -0.1632  0.3090
  675TMC3    C210036   2.141   0.149   0.503 -0.7447 -0.3123 -0.1859
  675TMC3    C310037   2.189   0.067   0.601  0.2897  0.1935 -0.2812
  675TMC3    C410038   2.334   0.287   0.544 -0.1821 -0.2051 -0.2368
  675TMC3    C510039   2.387   0.198   0.638  0.1454 -0.0091 -0.3850
  675TMC3    C610040   2.307   0.083   0.654  0.6175  0.1795  0.0782
  675TMC3     C10041   2.174   0.360   0.381  0.2089  0.2264  0.5315
  675TMC3     O10042   2.231   0.467   0.383 -0.1642  0.0747 -0.5054
  675TMC3     H10043   2.062   0.110   0.440  0.8235 -0.8902 -1.7876
  675TMC3    H110044   2.386   0.378   0.517 -0.6100  0.0745 -0.1191
  675TMC3    H210045   2.349   0.001   0.711  1.8820  0.4599 -0.4702
  675TMC3    C710046   2.431   0.259   0.765  0.3859  0.0228  0.1172
  675TMC3    C810047   2.092   0.027   0.704  0.3862 -0.6244  0.1368
  675TMC3    O110048   2.424   0.189   0.865  0.0692  0.0154  0.2093
  675TMC3    O210049   1.977   0.003   0.676 -0.3342 -0.1385 -0.1218
  676MPD2     C10050   4.491   4.228  11.075 -0.3766 -0.5301 -0.1527
  676MPD2    C110051   4.360   4.187  11.087  0.1928  0.7584 -0.3726
  676MPD2    C210052   4.315   4.074  11.023  0.2518  0.4525 -0.6264
  676MPD2    C310053   4.401   3.995  10.948  0.6073  0.0059  0.0675
  676MPD2    C410054   4.532   4.046  10.926  0.7678  0.0740 -0.6658
  676MPD2    C510055   4.580   4.160  10.992 -0.2202  0.9445  0.5561
  676MPD2     H10056   4.211   4.051  11.046  0.2493 -0.0980 -1.1830
  676MPD2    H110057   4.600   4.002  10.854  2.7292 -0.4560  1.4855
  676MPD2    H210058   4.538   4.308  11.131  0.2821 -0.8127 -0.3003
  676MPD2    H310059   4.682   4.194  10.975  0.1649  0.9504  2.7707
  676MPD2     N10060   4.368   3.881  10.872 -0.2788 -0.6965 -0.0384
  676MPD2    H510061   4.438   3.842  10.811  0.5737 -0.5754  0.8526
  676MPD2    N110062   4.267   4.256  11.170  0.1557 -0.3117 -0.3729
  676MPD2    H710063   4.172   4.220  11.171 -0.6018  1.7278  1.6510
  677TMC3    C110064   4.154   4.408  11.295 -0.5149 -0.1553 -0.9949
  677TMC3    C210065   4.062   4.305  11.324  0.0776  0.2129 -0.4632
  677TMC3    C310066   3.941   4.344  11.366  0.0062 -0.7182  0.3805
  677TMC3    C410067   4.127   4.538  11.310  0.2945 -0.5683 -0.3286
  677TMC3    C510068   3.996   4.572  11.338  0.1042  0.4046  0.5559
  677TMC3    C610069   3.902   4.474  11.373 -0.2490 -0.0318 -0.1713
  677TMC3     C10070   4.284   4.372  11.236 -0.8413  0.3062 -0.1137
  677TMC3     O10071   4.378   4.450  11.245  0.1316 -0.0077 -0.2941
  677TMC3     H10072   4.094   4.202  11.336  0.2101  0.2614 -0.3907
  677TMC3    H110073   4.194   4.607  11.261  2.6970 -3.2203 -0.7829
  677TMC3    H210074   3.800   4.495  11.399  0.0303  0.1546  0.7594
  677TMC3    C710075   3.973   4.704  11.388 -0.0135  0.3212  0.4866
  677TMC3    C810076   3.846   4.243  11.409 -0.3418 -0.3160 -0.6923
  677TMC3    O110077   3.871   4.715  11.451  0.5753 -0.2543  0.1680
  677TMC3    O210078   3.823   4.156  11.324  0.0753  0.3882 -0.1256
  678MPD2     C10079   1.272   4.048   1.200  0.0231  0.3638 -0.3140
  678MPD2    C110080   1.230   3.969   1.099  1.1423  0.3271 -0.2812
  678MPD2    C210081   1.100   3.989   1.051 -0.4447  0.9541 -0.1705
  678MPD2    C310082   1.010   4.084   1.096 -0.0944 -0.9870  0.1372
  678MPD2    C410083   1.056   4.151   1.209 -0.0325  0.6616  0.3147
  678MPD2    C510084   1.185   4.141   1.251 -0.5416 -0.2160  0.2385
  678MPD2     H10085   1.069   3.935   0.962  0.9088  0.1960 -0.1748
  678MPD2    H110086   0.997   4.227   1.260 -0.5286 -0.0303  0.7600
  678MPD2    H210087   1.374   4.047   1.235 -0.1380  1.3507  0.1592
  678MPD2    H310088   1.227   4.199   1.333 -0.5564  1.4298 -0.9064
  678MPD2     N10089   0.892   4.112   1.026  0.7075  0.0882  0.8288
  678MPD2    H510090   0.880   4.054   0.943  0.5785  1.3582 -0.0372
  678MPD2    N110091   1.308   3.872   1.029  0.5074 -0.1938  0.6297
  678MPD2    H710092   1.260   3.815   0.961  2.3230 -0.5788 -0.3231
  679TMC3    C110093   1.601   3.526   0.925  0.1086 -0.3170 -0.7851
  679TMC3    C210094   1.575   3.643   0.998 -0.4789  0.7966 -0.5771
  679TMC3    C310095   1.484   3.735   0.953  0.1314 -0.0943 -0.1607
  679TMC3    C410096   1.565   3.539   0.795  0.6299  0.0424  0.1120
  679TMC3    C510097   1.484   3.641   0.752 -0.5968 -0.1971 -0.2650
  679TMC3    C610098   1.441   3.747   0.827 -0.0381 -0.4222 -0.2382
  679TMC3     C10099   1.731   3.464   0.937 -0.4584 -0.2706 -0.4051
  679TMC3     O10100   1.786   3.413   0.836 -0.0440 -0.8290  0.3286
  679TMC3     H10101   1.601   3.655   1.102 -3.6720 -1.9092  0.5346
  679TMC3    H110102   1.589   3.459   0.725  3.1065  0.5048  0.4231
  679TMC3    H210103   1.392   3.836   0.791  0.1398 -0.3902 -0.3953
  679TMC3    C710104   1.415   3.623   0.625 -0.4924  0.1446 -0.2406
  679TMC3    C810105   1.441   3.833   1.052  0.2336  0.1924  0.4225
  679TMC3    O110106   1.394   3.512   0.585  0.3430  0.2024 -0.0886
  679TMC3    O210107   1.499   3.835   1.161 -0.1755 -0.2848 -0.0496
  680MPD2     C10108   1.317   3.149  13.675 -0.1869  0.3396  0.1062
  680MPD2    C110109   1.425   3.065  13.697 -0.1667 -0.3191 -0.3826
  680MPD2    C210110   1.554   3.105  13.699  0.0603 -0.5276  0.3006
  680MPD2    C310111   1.581   3.243  13.672  0.2554 -0.6191 -0.3643
  680MPD2    C410112   1.473   3.325  13.653 -0.1882 -0.1670  0.8314
  680MPD2    C510113   1.345   3.278  13.647  0.5255  0.7735  0.2719
  680MPD2     H10114   1.635   3.033  13.701  0.3085 -0.1954  2.0557
  680MPD2    H110115   1.479   3.432  13.639 -0.2731 -0.2889 -0.1703
  680MPD2    H210116   1.214   3.114  13.676  0.2328 -0.9168 -0.2222
  680MPD2    H310117   1.264   3.348  13.630 -0.8117 -0.9535 -0.4927
  680MPD2     N10118   1.713   3.294  13.655 -0.2602  0.2552  0.2908
  680MPD2    H510119   1.721   3.390  13.623 -0.4289 -0.0567 -0.7034
  680MPD2    N110120   1.403   2.927  13.724 -0.1570 -0.4381 -0.0158
  680MPD2    H710121   1.485   2.876  13.753  0.7497  0.4854 -0.9353
  681TMC3    C110122   1.318   2.714  13.705  0.6235  0.1512  0.2396
  681TMC3    C210123   1.205   2.652  13.752  0.3762  0.3332 -0.7026
  681TMC3    C310124   1.221   2.522  13.792  0.1283 -0.0710  0.0383
  681TMC3    C410125   1.442   2.662  13.697  0.0404 -0.5530  0.0176
  681TMC3    C510126   1.453   2.531  13.734 -0.2125  0.0266  0.3811
  681TMC3    C610127   1.347   2.464  13.777  0.6284 -0.5406 -0.2559
  681TMC3     C10128   1.291   2.854  13.696  0.3593 -0.3032  0.2008
  681TMC3     O10129   1.185   2.888  13.649  0.3414  0.3914  0.1833
  681TMC3     H10130   1.107   2.697  13.766  1.0704  1.5364  0.2916
  681TMC3    H110131   1.527   2.723  13.670 -0.4526  0.4430  0.6790
  681TMC3    H210132   1.360   2.358  13.796  1.1320 -0.4018  0.1684
  681TMC3    C710133   1.576   2.455  13.712  0.0306 -0.2257 -0.1196
  681TMC3    C810134   1.148   2.499  13.911  1.3634 -0.5450  0.2332
  681TMC3    O110135   1.586   2.344  13.762  0.3960  0.5134  0.1403
  681TMC3    O210136   1.040   2.549  13.919  0.2861  0.1862  0.2554
  682MPD2     C10137   3.109   4.498  10.789 -0.5201 -0.1543 -0.3256
  682MPD2    C110138   3.057   4.372  10.834 -0.2294 -0.5973 -1.1478
  682MPD2    C210139   3.020   4.360  10.965  0.0888 -0.4686  0.0096
  682MPD2    C310140   3.049   4.458  11.057  0.3240  0.3725 -0.3451
  682MPD2    C410141   3.104   4.582  11.012 -0.3430 -0.5399 -0.0507
  682MPD2    C510142   3.136   4.594  10.880  0.0267  0.1148  0.5158
  682MPD2     H10143   2.971   4.268  10.996 -0.3630 -0.1939  0.1180
  682MPD2    H110144   3.132   4.665  11.076  0.1246  0.6903 -1.8632
  682MPD2    H210145   3.134   4.510  10.685 -1.7005  2.2579 -0.3355
  682MPD2    H310146   3.183   4.687  10.851  1.5464 -0.4064  1.3264
  682MPD2     N10147   3.029   4.443  11.199 -0.0351  0.4253 -0.4569
  682MPD2    H510148   3.037   4.529  11.253  0.9546 -0.8091  1.3518
  682MPD2    N110149   3.027   4.265  10.741 -1.0472  0.3201 -0.7041
  682MPD2    H710150   2.994   4.183  10.789  0.2029 -0.0658 -0.5031
  683TMC3    C110151   3.033   4.436  11.603  0.3036  0.8203  0.3147
  683TMC3    C210152   2.938   4.361  11.665  0.3151 -0.9732 -0.3359
  683TMC3    C310153   2.849   4.286  11.592  0.3847 -0.0788 -0.0992
  683TMC3    C410154   3.049   4.429  11.464 -0.2349  1.0881  0.1674
  683TMC3    C510155   2.950   4.358  11.399  0.4359 -0.1643 -0.0991
  683TMC3    C610156   2.858   4.273  11.461  0.5617  0.3204  0.2293
  683TMC3     C10157   3.122   4.516  11.686  0.2587 -0.5345  0.0427
  683TMC3     O10158   3.070   4.574  11.780  0.3582 -0.2130 -0.1805
  683TMC3     H10159   2.917   4.370  11.771 -0.0410 -2.4804 -0.2712
  683TMC3    H110160   3.121   4.488  11.408  1.6861  0.6209  2.1525
  683TMC3    H210161   2.785   4.218  11.403 -1.0678  0.9517  1.7080
  683TMC3    C710162   2.953   4.351  11.258 -0.4273  0.3303  0.2203
  683TMC3    C810163   2.792   4.173  11.659  0.1711 -0.9059 -0.3675
  683TMC3    O110164   2.906   4.252  11.208  0.8451  0.4969  1.1301
  683TMC3    O210165   2.780   4.190  11.777 -0.2926 -0.3923  0.1070
  684MPD2     C10166   2.670   4.031  16.181 -0.1362 -1.0369 -0.7962
  684MPD2    C110167   2.573   4.027  16.281  0.3805 -0.6767  0.3127
  684MPD2    C210168   2.509   4.146  16.321 -0.4927 -0.8671  0.0840
  684MPD2    C310169   2.538   4.261  16.263 -0.0161  0.8197  0.7728
  684MPD2    C410170   2.635   4.269  16.162  0.4686 -0.8742  0.0656
  684MPD2    C510171   2.698   4.152  16.126 -0.6428  0.1622 -0.0844
  684MPD2     H10172   2.423   4.137  16.386 -1.7806 -0.1919 -1.5181
  684MPD2    H110173   2.661   4.359  16.107  1.2406  0.1992  2.1972
  684MPD2    H210174   2.722   3.941  16.151 -0.7221 -1.4786 -0.4899
  684MPD2    H310175   2.775   4.145  16.049 -1.7888 -1.3305 -1.1145
  684MPD2     N10176   2.480   4.388  16.308 -0.2233 -0.1906 -0.6120
  684MPD2    H510177   2.518   4.471  16.263 -0.5122  1.2979  1.8767
  684MPD2    N110178   2.517   3.902  16.324  0.7847 -0.6296  0.1931
  684MPD2    H710179   2.451   3.900  16.401  0.5217 -1.9885 -0.0851
  685TMC3    C110180   2.484   3.678  16.357 -0.5847  0.2723 -0.1205
  685TMC3    C210181   2.362   3.665  16.296  0.1685 -0.8641  0.8307
  685TMC3    C310182   2.292   3.553  16.317 -0.2481  0.7783  0.7110
  685TMC3    C410183   2.536   3.576  16.427  0.1013 -0.1979 -0.2142
  685TMC3    C510184   2.467   3.458  16.441 -0.0620  0.1678  0.8841
  685TMC3    C610185   2.345   3.447  16.380 -0.1189  1.1126 -1.0247
  685TMC3     C10186   2.572   3.776  16.311 -0.6370 -0.1607  0.0850
  685TMC3     O10187   2.685   3.745  16.283 -0.0150 -0.5153 -0.1364
  685TMC3     H10188   2.318   3.742  16.233  1.7503 -2.3587 -2.0716
  685TMC3    H110189   2.638   3.580  16.465 -0.1126  0.5989  0.2697
  685TMC3    H210190   2.283   3.358  16.387  0.4003  0.9154  0.9909
  685TMC3    C710191   2.525   3.353  16.517  0.5727  0.8723  0.4929
  685TMC3    C810192   2.178   3.522  16.233  0.2601  0.2892 -0.1317
  685TMC3    O110193   2.635   3.373  16.567 -0.1762 -0.6424 -0.0603
  685TMC3    O210194   2.160   3.402  16.203  0.7331 -0.9349 -0.3551
  686MPD2     C10195   3.244   3.559  15.389 -0.2348 -0.2607 -1.0792
  686MPD2    C110196   3.275   3.465  15.480 -0.2267 -0.0438  0.4538
  686MPD2    C210197   3.291   3.336  15.437 -0.5070  0.3074  0.5875
  686MPD2    C310198   3.236   3.290  15.317  0.5907 -0.2076 -0.4616
  686MPD2    C410199   3.193   3.379  15.220  0.0461  0.4209  0.3461
  686MPD2    C510200   3.216   3.512  15.263 -0.1756 -0.0968 -0.2435
  686MPD2     H10201   3.344   3.276  15.509 -0.3907  1.5979  1.5756
  686MPD2    H110202   3.166   3.357  15.117  1.4143  1.2672 -0.1817
  686MPD2    H210203   3.254   3.666  15.406 -0.2553 -0.0739 -2.2047
  686MPD2    H310204   3.189   3.591  15.193 -1.3353  0.0882  0.4050
  686MPD2     N10205   3.240   3.154  15.280 -0.0757 -0.0487 -0.0388
  686MPD2    H510206   3.220   3.133  15.183 -0.0021 -2.9377  0.5865
  686MPD2    N110207   3.290   3.498  15.615 -0.6831 -0.4031 -0.2864
  686MPD2    H710208   3.284   3.598  15.635 -2.1724 -0.6735  0.6272
  687TMC3    C110209   3.205   3.057  15.492  0.0108  0.5764  0.3560
  687TMC3    C210210   3.078   3.102  15.518  0.2706 -0.0306 -0.0199
  687TMC3    C310211   3.031   3.091  15.647  0.3382 -0.5183  0.5017
  687TMC3    C410212   3.291   2.998  15.587 -0.0193 -0.0929 -0.9561
  687TMC3    C510213   3.236   2.989  15.714  0.0610  0.2136 -0.8656
  687TMC3    C610214   3.105   3.030  15.739  0.8249  0.0005 -0.2858
  687TMC3     C10215   3.254   3.042  15.358  0.2958 -0.3592  0.3863
  687TMC3     O10216   3.277   2.930  15.316 -0.6789  0.1984 -0.0747
  687TMC3     H10217   3.017   3.131  15.432 -0.2281  1.4214  0.8340
  687TMC3    H110218   3.387   2.968  15.545  0.4836 -0.3673  0.3842
  687TMC3    H210219   3.070   3.029  15.842 -3.1778  2.1351 -1.6599
  687TMC3    C710220   3.311   2.971  15.830  0.7834 -0.2032  0.5251
  687TMC3    C810221   2.922   3.176  15.689  0.0924 -0.9852  0.2093
  687TMC3    O110222   3.256   2.924  15.925  0.0896  0.0999 -0.5317
  687TMC3    O210223   2.854   3.151  15.789 -0.4023 -0.1907 -0.4385
  688MPD2     C10224   2.503   2.384  17.719  0.1299  0.7072 -0.1377
  688MPD2    C110225   2.429   2.265  17.719  0.0421  0.5474 -0.1271
  688MPD2    C210226   2.452   2.153  17.642  0.2318  0.1384  1.1044
  688MPD2    C310227   2.559   2.160  17.554 -0.8307  0.3125  0.3554
  688MPD2    C410228   2.628   2.284  17.544  0.1436 -0.3704  0.2864
  688MPD2    C510229   2.600   2.393  17.624  0.4792  0.4415  0.6377
  688MPD2     H10230   2.401   2.058  17.655 -0.0079  0.0577 -0.4619
  688MPD2    H110231   2.723   2.295  17.493 -0.7295 -0.3287 -1.3236
  688MPD2    H210232   2.461   2.470   0.016  1.7336  1.6656 -0.4394
  688MPD2    H310233   2.663   2.480  17.607  0.4584  0.4085  0.3984
  688MPD2     N10234   2.588   2.058  17.470 -0.2909  0.2926 -0.4047
  688MPD2    H510235   2.651   2.070  17.391 -0.1720  2.6341  0.0577
  688MPD2    N110236   2.319   2.250   0.058  0.1950 -0.5384  0.7227
  688MPD2    H710237   2.255   2.173   0.041 -0.6792  0.3133  0.1032
  689TMC3    C110238   2.183   2.275   0.234  0.0138  0.1225  0.3486
  689TMC3    C210239   2.198   2.252   0.373 -0.0969 -0.1866  0.6930
  689TMC3    C310240   2.131   2.149   0.434  0.2517  0.6969 -0.1919
  689TMC3    C410241   2.117   2.183   0.159  0.2085 -0.3045  0.6264
  689TMC3    C510242   2.059   2.074   0.226  0.3830 -0.2891  0.2267
  689TMC3    C610243   2.066   2.058   0.362 -0.7827  0.3641  0.0216
  689TMC3     C10244   2.305   2.318   0.172  0.7420  0.3548  0.5529
  689TMC3     O10245   2.388   2.389   0.228  0.4858  1.1081 -0.5816
  689TMC3     H10246   2.242   2.331   0.432 -1.5969  1.0458  0.1693
  689TMC3    H110247   2.095   2.206   0.056  0.0532 -2.6651  0.1324
  689TMC3    H210248   2.050   1.959   0.404 -1.5599  0.1185 -0.8473
  689TMC3    C710249   2.028   1.960   0.139  0.3952  0.4421  0.3167
  689TMC3    C810250   2.126   2.153   0.575  0.3168 -0.0156 -0.5182
  689TMC3    O110251   2.090   1.969   0.034  0.3253  0.6041  0.4329
  689TMC3    O210252   2.213   2.218   0.632  0.3307 -0.0230  0.0294
  690MPD2     C10253   0.317   4.598  15.733  0.0045 -0.1476 -0.2278
  690MPD2    C110254   0.292   4.535  15.614  0.3466 -0.0029  0.3150
  690MPD2    C210255   0.384   4.562  15.508 -0.6238 -0.1181  0.3829
  690MPD2    C310256   0.493   4.654  15.521  0.0466  0.0273  0.3174
  690MPD2    C410257   0.508   4.715  15.645 -0.2304 -0.1903  0.9329
  690MPD2    C510258   0.424   4.685  15.750  1.0629  0.2595 -0.1549
  690MPD2     H10259   0.370   4.513  15.413  0.5079  0.4040 -0.0457
  690MPD2    H110260   0.586   0.050  15.659  0.7851 -0.8110 -1.4668
  690MPD2    H210261   0.255   4.582  15.820 -0.8205 -2.4462 -1.2460
  690MPD2    H310262   0.431   4.721  15.852 -0.5020  0.0506  0.0232
  690MPD2     N10263   0.581   4.676  15.412  0.3087 -0.2412  0.1217
  690MPD2    H510264   0.560   4.617  15.332  0.1991 -0.4604  0.3102
  690MPD2    N110265   0.193   4.431  15.595  0.5693 -0.3712 -0.4599
  690MPD2    H710266   0.184   4.383  15.506  0.6192 -1.3440  0.0623
  691TMC3    C110267   0.071   4.247  15.653  0.7295 -0.2948  0.2982
  691TMC3    C210268   4.730   4.251  15.540 -0.3547  0.6194  0.1416
  691TMC3    C310269   4.660   4.138  15.519  0.2132  0.5230 -0.1454
  691TMC3    C410270   0.071   4.145  15.738 -0.4343 -0.1539  0.2490
  691TMC3    C510271   4.730   4.041  15.708 -0.5818 -0.4151  0.5369
  691TMC3    C610272   4.654   4.028  15.595  0.9596 -0.3683 -0.2494
  691TMC3     C10273   0.141   4.360  15.699  0.1482  0.4921  0.3820
  691TMC3     O10274   0.169   4.379  15.819 -0.3431  0.3660  0.4796
  691TMC3     H10275   4.719   4.337  15.476 -2.1037 -1.5804 -2.4819
  691TMC3    H110276   0.146   4.138  15.816 -0.1479  2.2448  0.1847
  691TMC3    H210277   4.602   3.937  15.565 -3.0216  1.1117  2.2046
  691TMC3    C710278   4.731   3.929  15.803  0.7530 -0.8131 -1.1849
  691TMC3    C810279   4.537   4.154  15.448 -0.0165 -0.2465  0.0387
  691TMC3    O110280   0.036   3.956  15.914  0.5242  0.6839 -0.6503
  691TMC3    O210281   4.494   4.054  15.383  0.8034 -0.0406 -0.4317
  692TMC3    C110282   1.811   0.598  15.635 -0.4092  0.8989 -0.0761
  692TMC3    C210283   1.880   0.716  15.625  0.4746  0.3182  0.3282
  692TMC3    C310284   2.004   0.718  15.690  0.1881  0.2746  0.8629
  692TMC3    C410285   1.870   0.474  15.656  0.5429 -0.3362  0.7768
  692TMC3    C510286   1.997   0.480  15.711  0.4218 -0.1229 -0.9322
  692TMC3    C610287   2.060   0.602  15.740  0.1032  0.0571  1.0489
  692TMC3     C10288   1.671   0.610  15.657 -0.6616  0.3186  0.3669
  692TMC3     O10289   1.634   0.531  15.746 -0.1524  0.3949 -0.4817
  692TMC3     H10290   1.829   0.811  15.615  1.3977  0.6344 -1.4341
  692TMC3    H110291   1.814   0.382  15.662  0.4633 -0.1849  2.5986
  692TMC3    H210292   2.164   0.617  15.766 -0.2203  0.8493  1.8930
  692TMC3    C710293   2.066   0.352  15.717  0.2654  0.0197 -0.6381
  692TMC3    C810294   2.013   0.831  15.785 -0.6707  0.3088  0.0165
  692TMC3    O110295   2.046   0.270  15.630  0.1480 -0.0425 -0.4189
  692TMC3    O210296   2.010   0.945  15.739  0.3035 -0.6654  0.2050
  693MPD2     C10297   0.151   3.389  11.095 -0.0889  0.5427  0.7680
  693MPD2    C110298   0.209   3.263  11.109  0.2452  0.4735  0.0588
  693MPD2    C210299   0.325   3.256  11.182 -0.7111 -0.4549  0.3661
  693MPD2    C310300   0.379   3.369  11.244  0.1739  0.4318  0.4634
  693MPD2    C410301   0.319   3.491  11.236 -0.9089  0.2971  0.0950
  693MPD2    C510302   0.205   3.498  11.156  0.1721 -0.2193  0.0311
  693MPD2     H10303   0.385   3.167  11.198 -1.8920 -1.4746 -0.8461
  693MPD2    H110304   0.356   3.583  11.281 -1.0351  0.5273 -0.2697
  693MPD2    H210305   0.048   3.398  11.062  0.4289 -0.2387 -1.0558
  693MPD2    H310306   0.147   3.589  11.150 -2.2474 -1.7283  0.4932
  693MPD2     N10307   0.497   3.373  11.326  1.1374  0.3392 -0.1768
  693MPD2    H510308   0.526   3.459  11.372  0.9324  0.6567 -0.6438
  693MPD2    N110309   0.147   3.140  11.064 -0.5892 -0.7139  0.2167
  693MPD2    H710310   0.185   3.053  11.100  2.4550  1.1280  1.4757
  694TMC3    C110311   4.721   3.008  10.964 -0.1252 -0.2651  0.5422
  694TMC3    C210312   4.612   3.004  10.880  0.3448  0.4817 -0.4893
  694TMC3    C310313   4.547   2.886  10.865  0.1112  0.1201  0.1473
  694TMC3    C410314   0.018   2.899  11.041 -0.0956 -0.2225 -0.8419
  694TMC3    C510315   4.680   2.788  11.025  0.7010 -0.2943  0.7347
  694TMC3    C610316   4.577   2.773  10.934  0.2255 -0.3392 -0.0871
  694TMC3     C10317   0.037   3.142  10.984 -1.7395  0.5080  0.2806
  694TMC3     O10318   4.722   3.232  10.926 -0.2201 -0.5741  0.5150
  694TMC3     H10319   4.586   3.095  10.827  0.8795  0.4174 -0.8621
  694TMC3    H110320   0.092   2.892  11.121 -0.9442 -0.0605 -0.0474
  694TMC3    H210321   4.539   2.674  10.914 -1.0573  0.2253 -0.4418
  694TMC3    C710322   4.683   2.701  11.138 -0.2412  0.3284 -0.3927
  694TMC3    C810323   4.415   2.880  10.800  0.1659  0.0897  0.0508
  694TMC3    O110324   0.049   2.682  11.199  0.4566  0.8660 -0.0691
  694TMC3    O210325   4.343   2.791  10.831 -0.0757  0.5846  0.5573
  695MPD2     C10326   2.120   0.224  13.313 -0.1726 -0.4114  0.4656
  695MPD2    C110327   2.115   0.219  13.448 -0.1693 -0.6992 -0.3244
  695MPD2    C210328   2.000   0.270  13.504 -0.6088 -0.6066 -0.0911
  695MPD2    C310329   1.893   0.330  13.444 -0.7197  0.0280  0.3542
  695MPD2    C410330   1.905   0.331  13.308  0.2582 -0.4600 -0.1487
  695MPD2    C510331   2.013   0.270  13.242 -0.3248  0.2748 -0.6019
  695MPD2     H10332   1.992   0.256  13.611 -0.4756 -1.7891 -0.2427
  695MPD2    H110333   1.835   0.389  13.249  1.1730 -0.0475 -0.8278
  695MPD2    H210334   2.200   0.179  13.256  1.6385  2.2740  0.8550
  695MPD2    H310335   2.004   0.272  13.134 -0.2737 -1.1893 -0.6368
  695MPD2     N10336   1.783   0.376  13.519 -0.0106 -0.0231 -0.2488
  695MPD2    H510337   1.779   0.364  13.620  1.4926  0.8676 -0.0822
  695MPD2    N110338   2.217   0.163  13.529  0.0857 -0.1063  0.2345
  695MPD2    H710339   2.207   0.179  13.629 -2.5072 -1.9088  0.2577
  696TMC3    C110340   1.570   0.446  13.579 -0.1886 -0.2352  0.1487
  696TMC3    C210341   1.564   0.346  13.677  0.0053  0.2503  0.1212
  696TMC3    C310342   1.451   0.351  13.758 -0.5151  0.4089 -0.3962
  696TMC3    C410343   1.453   0.517  13.549 -0.1056 -0.0348  0.4758
  696TMC3    C510344   1.340   0.506  13.626 -0.3574 -0.5781  0.2715
  696TMC3    C610345   1.338   0.428  13.740  0.8888 -1.0469 -0.1498
  696TMC3     C10346   1.672   0.441  13.470  0.0136 -0.8329 -0.1775
  696TMC3     O10347   1.647   0.474  13.353 -0.5302  0.2797 -0.3381
  696TMC3     H10348   1.637   0.267  13.695 -0.5622 -0.6820 -1.6823
  696TMC3    H110349   1.453   0.596  13.474 -2.6282 -0.7074 -0.2153
  696TMC3    H210350   1.249   0.420  13.801  1.6292 -2.2025  0.7775
  696TMC3    C710351   1.222   0.597  13.597 -0.1498  0.1610  0.3332
  696TMC3    C810352   1.464   0.273  13.877 -0.1277 -0.2029 -0.8013
  696TMC3    O110353   1.224   0.654  13.490  0.2772  0.4882 -0.1591
  696TMC3    O210354   1.579   0.248  13.913 -0.3526  0.1523 -0.4956
  697MPD2     C10355   1.430   2.328  15.426 -0.2984  0.3352 -0.4667
  697MPD2    C110356   1.375   2.247  15.321 -0.0637  0.3802 -0.2712
  697MPD2    C210357   1.317   2.307  15.212  0.0754  0.5974 -0.1057
  697MPD2    C310358   1.317   2.449  15.201  0.2497  0.4400 -0.0065
  697MPD2    C410359   1.372   2.525  15.301  0.2002 -0.4949  0.3117
  697MPD2    C510360   1.429   2.465  15.407  0.6357 -1.0955 -0.9992
  697MPD2     H10361   1.286   2.252  15.124  0.9598  2.4669 -1.6049
  697MPD2    H110362   1.373   2.633  15.307  0.7400 -0.4451 -0.6360
  697MPD2    H210363   1.484   2.289  15.511  0.5806  1.0957 -0.6794
  697MPD2    H310364   1.490   2.511  15.483 -3.1947  3.4835 -0.7126
  697MPD2     N10365   1.266   2.497  15.081  0.3567 -0.1733  0.0038
  697MPD2    H510366   1.243   2.427  15.011  0.7474  0.8598 -1.1561
  697MPD2    N110367   1.387   2.102  15.320  0.1538  0.2317  0.0397
  697MPD2    H710368   1.367   2.052  15.234  0.9924  0.4554 -0.2876
  698TMC3    C110369   1.170   2.658  14.932  0.3221 -0.2801  0.0052
  698TMC3    C210370   1.198   2.778  14.874  0.1221 -0.6600 -0.3653
  698TMC3    C310371   1.137   2.805  14.752  0.5132 -0.8907 -0.2973
  698TMC3    C410372   1.086   2.559  14.866  0.0560 -0.0599  0.1583
  698TMC3    C510373   1.018   2.602  14.757 -0.5845  0.5978  0.2286
  698TMC3    C610374   1.033   2.731  14.703 -0.1814 -0.8562 -0.3079
  698TMC3     C10375   1.242   2.628  15.054  0.2795 -0.3193  0.0496
  698TMC3     O10376   1.276   2.729  15.109 -0.3887  0.0318  0.6048
  698TMC3     H10377   1.279   2.844  14.902  1.4052 -1.9231 -1.1401
  698TMC3    H110378   1.061   2.461  14.905  0.9861 -0.6625 -0.7708
  698TMC3    H210379   0.996   2.765  14.607 -2.0931  0.4230  0.8928
  698TMC3    C710380   0.979   2.503  14.651  0.2988  0.1098  0.4000
  698TMC3    C810381   1.201   2.901  14.661 -1.4487 -0.3196  0.7768
  698TMC3    O110382   0.894   2.534  14.567  0.2057  0.0614  0.0512
  698TMC3    O210383   1.137   2.953  14.570  0.2463  0.0900  0.1762
  699TMC3    C110384   1.130   0.514  13.130  0.0303 -0.1836 -0.6372
  699TMC3    C210385   1.184   0.401  13.187  0.1211  0.4553 -0.7937
  699TMC3    C310386   1.119   0.354  13.298  0.1483  0.2920 -0.1256
  699TMC3    C410387   1.017   0.561  13.182 -0.2713  0.1245  0.9152
  699TMC3    C510388   0.957   0.512  13.296  0.7687 -0.1209  0.5239
  699TMC3    C610389   1.012   0.413  13.361 -0.3203  0.3802  0.3819
  699TMC3     C10390   1.158   0.558  12.997  0.0755  0.4344 -0.0212
  699TMC3     O10391   1.069   0.602  12.926 -0.5318 -0.3177  0.2133
  699TMC3     H10392   1.261   0.349  13.132  0.1188 -1.6525  1.1909
  699TMC3    H110393   0.981   0.654  13.139 -1.6915 -1.4894 -1.3853
  699TMC3    H210394   0.967   0.373  13.451 -2.2975  1.7320  0.0118
  699TMC3    C710395   0.827   0.548  13.341  0.0401  0.0200  0.1785
  699TMC3    C810396   1.197   0.268  13.387  0.6426  0.0265 -0.0984
  699TMC3    O110397   0.798   0.538  13.461 -0.4137  0.4236 -0.3133
  699TMC3    O210398   1.132   0.231  13.483  0.4392 -0.4626  0.0258
  700TMC3    C110399   0.505   2.819  17.344  0.0149  1.0263 -0.2558
  700TMC3    C210400   0.568   2.709  17.296 -0.2265  0.3111  0.1002
  700TMC3    C310401   0.668   2.663  17.376  0.6016  0.4153  0.1794
  700TMC3    C410402   0.540   2.881  17.464 -0.8519 -0.1948 -0.1008
  700TMC3    C510403   0.634   2.831  17.546  0.6481  0.5097 -0.8655
  700TMC3    C610404   0.696   2.719  17.503 -0.1613 -0.4174 -0.0815
  700TMC3     C10405   0.424   2.894  17.249  0.1722 -0.2258  0.3849
  700TMC3     O10406   0.320   2.845  17.212  0.5147  0.4421 -0.3107
  700TMC3     H10407   0.551   2.685  17.192  2.6004  0.6669 -0.4377
  700TMC3    H110408   0.507   2.981  17.489  0.8919  0.3851 -0.1514
  700TMC3    H210409   0.783   2.685  17.557  0.8590  0.5338 -1.1245
  700TMC3    C710410   0.702   2.924  17.632  0.2928  0.0191  0.4794
  700TMC3    C810411   0.779   2.603  17.313 -0.0328  0.4453 -0.4460
  700TMC3    O110412   0.671   3.041  17.622  0.2473 -0.4542  0.2903
  700TMC3    O210413   0.786   2.618  17.193  0.1278 -0.4337  0.2664
  701TMC3    C110414   0.605   1.528  15.949  0.4428  0.0540  0.1814
  701TMC3    C210415   0.521   1.486  15.841 -0.0892  0.2749 -0.9193
  701TMC3    C310416   0.544   1.549  15.723 -0.2742 -0.4098 -0.1632
  701TMC3    C410417   0.701   1.631  15.943 -0.7871 -0.0089 -0.2509
  701TMC3    C510418   0.710   1.693  15.824  0.1494 -0.1035  0.0647
  701TMC3    C610419   0.639   1.645  15.711 -0.0082 -0.0164 -0.0898
  701TMC3     C10420   0.587   1.463  16.080  0.7692  1.1226  0.0684
  701TMC3     O10421   0.654   1.513  16.167 -0.1539  0.2337  0.6394
  701TMC3     H10422   0.447   1.407  15.843  0.1173  0.1539  1.5897
  701TMC3    H110423   0.780   1.631  16.017  0.5914  1.7065 -1.7491
  701TMC3    H210424   0.663   1.696  15.618 -2.2915 -1.0773 -1.2457
  701TMC3    C710425   0.747   1.831  15.821 -0.0655  0.3270  0.0152
  701TMC3    C810426   0.439   1.530  15.617  0.0344 -0.5455  0.3471
  701TMC3    O110427   0.784   1.882  15.716  0.5070 -0.1000  0.1533
  701TMC3    O210428   0.365   1.434  15.628 -0.2075 -0.1795  0.3440
  702MPD2     C10429   4.593   3.851  10.371  0.0082 -0.1499  0.5903
  702MPD2    C110430   4.485   3.869  10.448 -0.3374 -0.1073 -0.4148
  702MPD2    C210431   4.470   3.997  10.499 -0.1610  0.3247 -0.0755
  702MPD2    C310432   4.545   4.104  10.458  0.1054  0.4640 -0.4343
  702MPD2    C410433   4.640   4.086  10.359 -1.0145 -0.1372  0.0184
  702MPD2    C510434   4.663   3.954  10.322  0.2985 -0.3769  0.1558
  702MPD2     H10435   4.392   4.015  10.572 -0.4715  0.1597 -0.3653
  702MPD2    H110436   4.697   4.168  10.317 -1.0043 -0.4454 -0.5709
  702MPD2    H210437   4.612   3.748  10.341 -0.1028  0.0712 -0.2226
  702MPD2    H310438   4.728   3.934  10.237 -0.9239  0.4030 -0.9607
  702MPD2     N10439   4.533   4.236  10.512 -0.1600 -0.1990 -0.2749
  702MPD2    H510440   4.599   4.305  10.477 -0.0564 -0.6226 -0.9270
  702MPD2    N110441   4.407   3.774  10.508  0.0435 -0.0519  0.3337
  702MPD2    H710442   4.322   3.797  10.558  0.7433 -0.1057  1.5270
  703TMC3    C110443   4.481   4.384  10.693  0.1845  0.4144 -0.0853
  703TMC3    C210444   4.376   4.447  10.759 -0.0611  0.3455 -0.8270
  703TMC3    C310445   4.412   4.520  10.869 -0.1066 -0.4423 -1.0332
  703TMC3    C410446   4.615   4.413  10.712 -0.6013 -0.7787  0.1390
  703TMC3    C510447   4.642   4.495  10.813 -0.1520 -0.4655 -0.3704
  703TMC3    C610448   4.545   4.550  10.891 -0.3127  0.4387 -0.5421
  703TMC3     C10449   4.452   4.263  10.621  0.4884 -0.4185 -0.1027
  703TMC3     O10450   4.349   4.210  10.665 -0.2381 -0.2778 -0.7505
  703TMC3     H10451   4.277   4.408  10.741 -0.8411  1.6170  0.7746
  703TMC3    H110452   4.695   4.371  10.651 -0.9892  0.1661 -1.0174
  703TMC3    H210453   4.568   4.617  10.972  1.1247 -0.2251 -0.3977
  703TMC3    C710454   0.040   4.531  10.840 -0.2002  0.0929  0.3894
  703TMC3    C810455   4.318   4.589  10.949 -0.6982  0.0311  0.0154
  703TMC3    O110456   0.113   4.521  10.744  0.0210  0.8365 -0.0767
  703TMC3    O210457   4.353   4.690  11.010  0.3214 -0.4193  0.2009
  704TMC3    C110458   1.952   2.040  12.391 -0.1170 -0.5590  0.8709
  704TMC3    C210459   1.933   2.010  12.264 -0.1703 -0.1757 -0.1552
  704TMC3    C310460   2.004   1.912  12.207 -0.0249  0.0587 -0.2095
  704TMC3    C410461   2.047   1.976  12.462 -0.7076 -0.1286 -0.3233
  704TMC3    C510462   2.123   1.873  12.401 -0.7295 -0.7830  0.4427
  704TMC3    C610463   2.098   1.837  12.273  0.6266 -0.6495 -0.2165
  704TMC3     C10464   1.865   2.133  12.469 -0.1484 -0.5915  0.0499
  704TMC3     O10465   1.841   2.109  12.588  0.3156 -0.5395  0.5075
  704TMC3     H10466   1.849   2.051  12.209  1.0876  2.9537  0.2224
  704TMC3    H110467   2.050   1.984  12.570 -1.3098 -0.5423 -0.2728
  704TMC3    H210468   2.165   1.767  12.224 -0.1157 -1.4828 -0.0392
  704TMC3    C710469   2.236   1.799  12.470  0.4411 -0.8053  0.4174
  704TMC3    C810470   1.984   1.884  12.071 -0.1736 -0.6448  0.6221
  704TMC3    O110471   2.293   1.708  12.407 -0.4219  0.3261  0.1985
  704TMC3    O210472   1.962   1.980  11.999 -0.5077  0.2713 -0.1139
  705MPD2     C10473   2.324   0.390  16.715 -0.2526  0.4138  0.2923
  705MPD2    C110474   2.238   0.398  16.612  0.4798  0.1686 -0.1599
  705MPD2    C210475   2.107   0.371  16.642 -0.3488 -0.5290 -0.5349
  705MPD2    C310476   2.064   0.339  16.767  0.1214  0.6298 -0.0054
  705MPD2    C410477   2.149   0.333  16.865 -0.5809 -0.3126  0.0907
  705MPD2    C510478   2.286   0.347  16.838  0.2027  0.0524  0.0773
  705MPD2     H10479   2.039   0.388  16.559 -1.3282  1.4818  0.6731
  705MPD2    H110480   2.123   0.321  16.970 -0.7823 -1.3051 -0.0745
  705MPD2    H210481   2.426   0.424  16.708  0.4885 -1.8798 -0.0519
  705MPD2    H310482   2.348   0.359  16.926 -1.3311 -0.1687  1.1999
  705MPD2     N10483   1.931   0.311  16.795  0.8170  0.0007  0.0498
  705MPD2    H510484   1.905   0.275  16.886  1.4223 -0.4396  0.0471
  705MPD2    N110485   2.276   0.443  16.479  0.1372 -0.1774  0.0225
  705MPD2    H710486   2.204   0.467  16.412 -1.3056  1.2625  2.0910
  706TMC3    C110487   2.527   0.425  16.092  0.1914  1.1289  0.1495
  706TMC3    C210488   2.450   0.513  16.021  0.2150  0.0375 -0.1812
  706TMC3    C310489   2.362   0.588  16.096  0.4976  0.0018  0.0208
  706TMC3    C410490   2.515   0.402  16.221 -0.5120  0.6644  0.0886
  706TMC3    C510491   2.413   0.459  16.290  0.7928  0.0562  0.4738
  706TMC3    C610492   2.341   0.559  16.232  0.3438  0.3674 -0.0960
  706TMC3     C10493   2.627   0.336  16.021 -0.3844  0.1120  0.2867
  706TMC3     O10494   2.684   0.260  16.095 -0.2004 -0.4840  0.0529
  706TMC3     H10495   2.454   0.526  15.913 -3.9004 -2.1357 -0.5955
  706TMC3    H110496   2.571   0.326  16.275  0.5897  0.2617 -1.6039
  706TMC3    H210497   2.268   0.618  16.286  0.0023 -1.1805  1.1432
  706TMC3    C710498   2.405   0.449  16.433 -0.9954  0.6149 -0.8800
  706TMC3    C810499   2.324   0.715  16.039 -0.0013  0.8144 -0.2976
  706TMC3    O110500   2.508   0.417  16.489 -1.1369  0.5627 -0.0667
  706TMC3    O210501   2.318   0.720  15.918 -0.1523 -0.1917  0.6723
  707TMC3    C110502   0.010   4.511   1.516 -1.1526  0.3347  0.1211
  707TMC3    C210503   0.060   4.421   1.604 -0.3750  0.1669  0.2311
  707TMC3    C310504   0.192   4.439   1.646 -0.3220  0.1402  0.0853
  707TMC3    C410505   0.081   4.618   1.474  1.2537 -0.3672  0.5785
  707TMC3    C510506   0.207   4.634   1.519  0.0476  0.1676 -0.4720
  707TMC3    C610507   0.261   4.554   1.609  0.6817  0.6244 -0.1430
  707TMC3     C10508   4.717   4.421   1.408  0.2035 -0.5944 -0.1580
  707TMC3     O10509   0.014   4.305   1.431  0.0031  0.0133 -0.5898
  707TMC3     H10510   4.732   4.346   1.644 -0.7975  0.3624 -0.1024
  707TMC3    H110511   0.048   4.685   1.396  1.2579  1.4123  2.1271
  707TMC3    H210512   0.369   4.552   1.621  0.9074  2.5447 -1.7880
  707TMC3    C710513   0.265   0.013   1.458  0.0314 -0.7257  0.1857
  707TMC3    C810514   0.257   4.337   1.733  0.3036 -0.1103 -0.1444
  707TMC3    O110515   0.201   0.111   1.424  0.0683 -0.0111  0.5453
  707TMC3    O210516   0.320   4.375   1.831  0.3268  0.4218 -0.2137
  708MPD2     C10517   0.451   2.994  13.865  0.1573  0.3651  0.2604
  708MPD2    C110518   0.406   3.121  13.884 -0.3890  0.1010 -0.6162
  708MPD2    C210519   0.477   3.196  13.972 -1.0826  0.1402 -0.3959
  708MPD2    C310520   0.575   3.133  14.053  0.1852 -0.2537  0.4988
  708MPD2    C410521   0.612   3.001  14.034  0.3622 -0.3868 -0.1083
  708MPD2    C510522   0.549   2.933  13.938 -0.6226 -0.7070  0.3255
  708MPD2     H10523   0.447   3.297  13.999  0.4180  0.7430 -1.0304
  708MPD2    H110524   0.690   2.950  14.089  1.1830  2.4029  1.3300
  708MPD2    H210525   0.406   2.930  13.789 -0.1890 -0.7084  1.3573
  708MPD2    H310526   0.568   2.829  13.915  0.6592  0.3598 -3.4751
  708MPD2     N10527   0.631   3.189  14.173  0.1846 -0.1377 -0.5689
  708MPD2    H510528   0.702   3.130  14.214 -0.8111 -0.9668 -0.0192
  708MPD2    N110529   0.299   3.189  13.819  0.0240  0.5228  0.2192
  708MPD2    H710530   0.273   3.280  13.857 -0.0110  0.4507  0.3672
  709TMC3    C110531   0.116   3.230  13.681 -0.7380 -0.1619  0.5759
  709TMC3    C210532   4.739   3.159  13.670  0.1300  0.2638 -0.0425
  709TMC3    C310533   4.638   3.210  13.740 -0.3453 -0.0741 -0.7410
  709TMC3    C410534   0.125   3.354  13.736  0.5647  0.3785 -0.3007
  709TMC3    C510535   0.022   3.397  13.817  0.2872 -0.0284 -0.2065
  709TMC3    C610536   4.647   3.325  13.814  0.6041 -0.4151 -0.0605
  709TMC3     C10537   0.227   3.144  13.718 -0.1530  0.5293  0.3342
  709TMC3     O10538   0.228   3.036  13.661 -0.1835  0.3554  0.1635
  709TMC3     H10539   4.738   3.057  13.635  2.5780  0.3007 -0.1888
  709TMC3    H110540   0.218   3.408  13.722  0.1002  0.9495 -1.2142
  709TMC3    H210541   4.566   3.352  13.881  0.6230 -1.4635  0.3835
  709TMC3    C710542   0.079   3.432  13.939  0.3703  0.0037 -0.1138
  709TMC3    C810543   4.507   3.177  13.689  0.5090 -0.1710  0.2659
  709TMC3    O110544   0.201   3.450  13.942  0.4792  0.0137 -0.5506
  709TMC3    O210545   4.408   3.184  13.763 -0.3972  0.2350 -0.5840
  710TMC3    C110546   1.214   4.423   0.098  0.0838 -0.1321 -0.4967
  710TMC3    C210547   1.323   4.483   0.046  0.4813 -0.6197 -0.7655
  710TMC3    C310548   1.441   4.416   0.049  0.6655  0.4690  0.0347
  710TMC3    C410549   1.208   4.299   0.139  0.9504  0.3445  0.0220
  710TMC3    C510550   1.319   4.222   0.115  0.2194 -0.4120  0.2713
  710TMC3    C610551   1.440   4.279   0.079  0.3392 -0.8125  0.3406
  710TMC3     C10552   1.103   4.506   0.143 -0.2827  0.7770  0.0444
  710TMC3     O10553   0.988   4.478   0.113 -0.1605 -0.3041 -0.3559
  710TMC3     H10554   1.318   4.589   0.025  1.9373 -0.0699  1.6788
  710TMC3    H110555   1.122   4.259   0.192  1.8942 -3.5742 -1.3481
  710TMC3    H210556   1.532   4.222   0.079 -0.4681 -2.0965 -0.8519
  710TMC3    C710557   1.330   4.105   0.198 -0.3627 -0.3254  0.0717
  710TMC3    C810558   1.558   4.478  17.744  0.9039 -0.3868  0.1343
  710TMC3    O110559   1.442   4.064   0.225  0.2613  0.1827  0.2083
  710TMC3    O210560   1.645   4.396  17.723 -0.0758 -0.3018  0.6068
  711TMC3    C110561   1.078   1.121  15.152  0.4091 -0.6110 -0.1701
  711TMC3    C210562   1.139   1.235  15.193  0.3086 -0.5506  0.1631
  711TMC3    C310563   1.276   1.232  15.210 -0.2213  0.2839 -0.3136
  711TMC3    C410564   1.151   1.015  15.108  0.5755  0.4174  0.0822
  711TMC3    C510565   1.288   1.018  15.121 -0.3457 -0.2409 -0.1303
  711TMC3    C610566   1.359   1.126  15.171 -0.1429  0.3085  0.0181
  711TMC3     C10567   0.934   1.106  15.178  0.3641  0.4003 -0.3626
  711TMC3     O10568   0.891   0.996  15.207 -0.0274  0.1069  0.0383
  711TMC3     H10569   1.083   1.321  15.227 -0.5817 -0.9116 -0.4005
  711TMC3    H110570   1.092   0.923  15.106 -2.0062  2.0476  0.9015
  711TMC3    H210571   1.459   1.127  15.212 -0.1454 -3.2240  0.0675
  711TMC3    C710572   1.367   0.896  15.106  0.2279  0.0631 -0.3910
  711TMC3    C810573   1.326   1.340  15.297  0.1189  0.2053 -0.0628
  711TMC3    O110574   1.487   0.900  15.126 -0.1717 -0.1200  0.2469
  711TMC3    O210575   1.244   1.421  15.346 -0.2087  0.2150 -0.9611
  712MPD2     C10576   2.235   1.652  13.625 -0.2782 -0.2424 -0.6541
  712MPD2    C110577   2.144   1.750  13.656 -0.0697 -1.2456 -0.4153
  712MPD2    C210578   2.197   1.874  13.664  0.1388 -0.3564 -0.3526
  712MPD2    C310579   2.335   1.907  13.651  0.8035 -0.2737  0.5526
  712MPD2    C410580   2.421   1.803  13.623  0.3423  0.1408  0.3144
  712MPD2    C510581   2.371   1.675  13.617  0.2351 -0.7994 -0.0607
  712MPD2     H10582   2.124   1.954  13.669  0.8354  0.1245  1.9941
  712MPD2    H110583   2.525   1.820  13.595  0.7600  0.2295  1.8875
  712MPD2    H210584   2.207   1.548  13.613  2.3780 -1.1067  0.6012
  712MPD2    H310585   2.441   1.597  13.590  0.2787 -0.1758 -1.7691
  712MPD2     N10586   2.376   2.041  13.657  0.0946 -0.3425 -0.0296
  712MPD2    H510587   2.475   2.055  13.638  0.2910 -1.0442  0.4879
  712MPD2    N110588   2.012   1.719  13.683  0.6282 -0.6181 -0.1501
  712MPD2    H710589   1.957   1.798  13.716  0.6834 -0.0059 -1.5154
  713TMC3    C110590   2.404   2.265  13.733 -0.8067  0.1872 -0.0089
  713TMC3    C210591   2.527   2.240  13.784  0.6190 -1.0277 -0.5628
  713TMC3    C310592   2.591   2.339  13.850  0.1066 -0.1442 -0.5365
  713TMC3    C410593   2.346   2.397  13.739  0.2859  0.0434  0.8786
  713TMC3    C510594   2.421   2.502  13.789 -0.1796  0.3336 -1.0511
  713TMC3    C610595   2.540   2.471  13.852 -0.4122  0.6568 -0.0847
  713TMC3     C10596   2.312   2.155  13.705  1.1301 -0.0667 -0.5866
  713TMC3     O10597   2.192   2.175  13.714  0.5809 -0.3300 -0.1047
  713TMC3     H10598   2.569   2.141  13.769 -1.7895 -2.6276  3.3514
  713TMC3    H110599   2.258   2.418  13.680  1.0184  2.3515  0.5973
  713TMC3    H210600   2.602   2.552  13.889 -1.3778  3.0979 -3.7591
  713TMC3    C710601   2.436   2.615  13.706 -0.1936 -0.2821 -0.6652
  713TMC3    C810602   2.727   2.312  13.871 -0.3824 -0.3545 -0.3120
  713TMC3    O110603   2.549   2.657  13.686  0.3050  0.1298  0.5100
  713TMC3    O210604   2.775   2.222  13.805 -0.1845  0.2368 -0.1471
  714MPD2     C10605   0.561   1.275   1.271  0.1039  0.3351 -0.1827
  714MPD2    C110606   0.545   1.201   1.158 -0.0843 -0.2217 -0.3157
  714MPD2    C210607   0.420   1.200   1.098 -0.1872 -0.1550 -0.1181
  714MPD2    C310608   0.309   1.271   1.160  0.4412 -0.1358  0.2909
  714MPD2    C410609   0.333   1.347   1.273  0.2785 -0.6376  0.4383
  714MPD2    C510610   0.459   1.357   1.317 -0.0445 -0.5621 -0.2055
  714MPD2     H10611   0.400   1.153   1.002  0.2259 -0.2740 -0.1429
  714MPD2    H110612   0.254   1.393   1.331 -2.0940 -2.6604 -1.2082
  714MPD2    H210613   0.651   1.268   1.330  0.6515  0.3605 -1.0172
  714MPD2    H310614   0.473   1.420   1.404  2.0262  0.8915 -1.6138
  714MPD2     N10615   0.175   1.263   1.108 -0.0266 -0.6414 -0.2373
  714MPD2    H510616   0.157   1.197   1.033 -2.1411  2.5070 -2.4853
  714MPD2    N110617   0.652   1.127   1.105  0.1618 -0.4813 -0.2628
  714MPD2    H710618   0.740   1.136   1.154  0.0310  1.7966 -0.4538
  715TMC3    C110619   0.783   0.989   0.963 -0.2094  0.2409  0.8142
  715TMC3    C210620   0.783   0.879   0.878  0.1179  0.4349 -0.3819
  715TMC3    C310621   0.905   0.814   0.851 -0.0044 -0.4318 -0.1164
  715TMC3    C410622   0.903   1.047   1.006  0.1439 -0.4450  0.5016
  715TMC3    C510623   1.012   0.989   0.964  0.2923  0.1535 -0.3057
  715TMC3    C610624   1.018   0.874   0.890 -0.1246  0.0791 -0.4087
  715TMC3     C10625   0.649   1.032   1.004  0.0249 -0.0211  0.1008
  715TMC3     O10626   0.552   0.985   0.949  0.1562 -0.2277 -0.0730
  715TMC3     H10627   0.689   0.832   0.852  0.7472 -0.8159 -0.4103
  715TMC3    H110628   0.910   1.148   1.045 -1.2394 -0.3601  0.5304
  715TMC3    H210629   1.117   0.835   0.870  0.4834  1.8314 -0.8894
  715TMC3    C710630   1.140   1.025   1.032 -0.1323 -0.5009 -0.3026
  715TMC3    C810631   0.899   0.683   0.798 -0.5528  0.8286  0.3918
  715TMC3    O110632   1.253   1.014   0.988 -0.5609  0.1925  0.2878
  715TMC3    O210633   0.796   0.652   0.741 -0.5191  0.6693  0.0972
  716MPD2     C10634   3.987   3.976  10.033  0.5503  0.7042  0.7616
  716MPD2    C110635   4.006   4.060   9.931 -0.0801 -0.3031 -0.7200
  716MPD2    C210636   4.014   3.999   9.802  0.9757  0.1000 -0.3870
  716MPD2    C310637   3.987   3.861   9.782 -0.4331 -0.4399 -0.2666
  716MPD2    C410638   3.961   3.790   9.895  0.8152 -0.1437  0.2453
  716MPD2    C510639   3.956   3.844  10.020  0.4314  0.6752 -0.4421
  716MPD2     H10640   4.039   4.063   9.718  0.3857 -0.3066 -0.8665
  716MPD2    H110641   3.941   3.684   9.890 -1.4987  0.3181 -0.4840
  716MPD2    H210642   3.995   4.007  10.136 -2.0935 -3.4086  2.2088
  716MPD2    H310643   3.931   3.783  10.105 -1.5064 -1.2307 -2.3882
  716MPD2     N10644   4.014   3.802   9.654  0.4031  0.3548 -0.3808
  716MPD2    H510645   4.012   3.865   9.575  0.7651  1.3366  0.3997
  716MPD2    N110646   4.014   4.202   9.946  0.3816 -0.2695 -0.4838
  716MPD2    H710647   3.979   4.244  10.032 -3.2785  0.1352 -2.1675
  717TMC3    C110648   4.016   3.618   9.498 -0.5946  0.4670 -0.0197
  717TMC3    C210649   3.974   3.700   9.394  0.2684 -0.5369 -0.4144
  717TMC3    C310650   3.974   3.650   9.269  0.6815  1.4855 -0.2201
  717TMC3    C410651   4.068   3.492   9.468  0.0185 -0.5839 -0.1454
  717TMC3    C510652   4.063   3.444   9.335  0.3510 -0.3630 -0.3299
  717TMC3    C610653   4.011   3.525   9.234 -0.0100  0.5861 -0.4888
  717TMC3     C10654   4.023   3.667   9.636  0.2429  0.5309 -0.2426
  717TMC3     O10655   4.021   3.579   9.716 -0.4251  0.0946  0.4941
  717TMC3     H10656   3.934   3.798   9.418  1.6905  0.2890 -1.3919
  717TMC3    H110657   4.122   3.432   9.539 -0.2245 -1.2617 -0.5335
  717TMC3    H210658   4.004   3.489   9.132 -0.8609 -2.3485  0.5962
  717TMC3    C710659   4.139   3.321   9.312 -0.8472 -0.5569 -0.0347
  717TMC3    C810660   3.913   3.735   9.162 -0.1228 -0.0847  0.0817
  717TMC3    O110661   4.233   3.294   9.386 -0.2205 -0.2911 -0.1721
  717TMC3    O210662   3.833   3.818   9.201 -0.0049  0.0457  0.1257
  718MPD2     C10663   3.254   2.481  12.978 -0.2291 -0.4996  0.0919
  718MPD2    C110664   3.197   2.405  12.876 -0.0047  0.1325  0.2799
  718MPD2    C210665   3.168   2.273  12.918 -0.1702 -0.4782  0.5703
  718MPD2    C310666   3.191   2.221  13.038 -0.3289 -0.3301  0.4752
  718MPD2    C410667   3.246   2.294  13.136 -0.2314 -0.0797 -0.6532
  718MPD2    C510668   3.267   2.422  13.103 -0.6820  0.2251 -0.1291
  718MPD2     H10669   3.124   2.210  12.842  2.1753 -1.3469 -0.0898
  718MPD2    H110670   3.262   2.263  13.238 -0.7911 -2.2737 -1.2366
  718MPD2    H210671   3.269   2.588  12.974  1.7266 -0.7337  0.8237
  718MPD2    H310672   3.304   2.487  13.181  1.6909 -2.3474  0.9245
  718MPD2     N10673   3.146   2.090  13.045  0.3949 -0.1668  0.3039
  718MPD2    H510674   3.106   2.059  12.957 -0.7917 -0.2202  0.8611
  718MPD2    N110675   3.177   2.451  12.744  0.7252  0.0220  0.1962
  718MPD2    H710676   3.226   2.535  12.715 -0.3131 -0.3081 -2.5414
  719TMC3    C110677   3.119   2.400  12.515  0.0030  0.0454  0.4241
  719TMC3    C210678   3.018   2.371  12.427 -0.4411 -0.3208 -1.5334
  719TMC3    C310679   3.037   2.291  12.322  0.2320  0.8081  0.4061
  719TMC3    C410680   3.247   2.378  12.479 -0.3232 -0.2280  0.3764
  719TMC3    C510681   3.268   2.326  12.355  0.3199 -0.2050  0.3061
  719TMC3    C610682   3.170   2.287  12.276  0.0297  0.0359  0.0906
  719TMC3     C10683   3.092   2.379  12.652  0.0067 -0.5016  0.3299
  719TMC3     O10684   3.009   2.294  12.681 -0.3883 -0.0956  0.0501
  719TMC3     H10685   2.923   2.376  12.479  1.0448 -2.1781  1.3357
  719TMC3    H110686   3.333   2.429  12.520 -0.7847  1.5005 -0.8029
  719TMC3    H210687   3.190   2.225  12.189 -0.6436  1.4657 -1.0765
  719TMC3    C710688   3.394   2.271  12.316 -0.0973 -0.9282  0.3082
  719TMC3    C810689   2.967   2.167  12.336 -0.1968  0.6174 -0.0036
  719TMC3    O110690   3.420   2.290  12.198 -0.3561 -0.4997  0.2688
  719TMC3    O210691   2.863   2.166  12.402 -0.3716 -0.3095 -0.5883
  720MPD2     C10692   2.753   3.520  13.997  0.3442 -0.1776  0.6207
  720MPD2    C110693   2.749   3.657  13.982 -0.6295 -0.2298  0.2434
  720MPD2    C210694   2.841   3.732  14.057  0.3923  0.9719  0.1108
  720MPD2    C310695   2.916   3.665  14.157  0.0633 -0.2143  0.1922
  720MPD2    C410696   2.903   3.525  14.171  0.4852  0.0310 -0.0416
  720MPD2    C510697   2.826   3.453  14.090 -0.0985 -0.2038  0.6366
  720MPD2     H10698   2.880   3.829  14.028 -2.6641  1.7674 -1.3217
  720MPD2    H110699   2.956   3.466  14.244  1.7961 -1.2535 -2.0317
  720MPD2    H210700   2.688   3.458  13.936 -0.2352 -1.2248  2.3024
  720MPD2    H310701   2.819   3.345  14.102  2.6258 -0.5875 -1.1794
  720MPD2     N10702   3.012   3.733  14.228  0.2978 -0.0740 -0.3751
  720MPD2    H510703   3.041   3.829  14.207  2.0126 -0.0734  1.9217
  720MPD2    N110704   2.670   3.723  13.884 -0.2460 -0.7380  0.0144
  720MPD2    H710705   2.693   3.819  13.858 -0.8491 -0.7186 -0.4408
  721TMC3    C110706   3.205   3.764  14.344 -0.3165  0.7545 -0.3830
  721TMC3    C210707   3.209   3.843  14.454 -0.2519 -0.1128  0.0468
  721TMC3    C310708   3.322   3.914  14.463  0.4053 -0.2363 -0.0832
  721TMC3    C410709   3.295   3.765  14.241  0.0833 -0.4928 -0.0867
  721TMC3    C510710   3.399   3.848  14.247 -0.2166 -0.6919 -0.3472
  721TMC3    C610711   3.417   3.917  14.366  0.5471 -0.7454  0.4709
  721TMC3     C10712   3.095   3.678  14.320  0.4970 -0.2701  0.5563
  721TMC3     O10713   3.071   3.580  14.387 -0.4495  0.1113  0.5318
  721TMC3     H10714   3.130   3.839  14.529 -0.1665  3.6640  0.3677
  721TMC3    H110715   3.281   3.698  14.156  1.0649 -0.6940 -0.0892
  721TMC3    H210716   3.503   3.982  14.380  1.3266 -1.0597 -2.7369
  721TMC3    C710717   3.517   3.814  14.172 -0.8552 -0.1173  0.1000
  721TMC3    C810718   3.343   3.999  14.583 -0.4700  0.2296  0.5612
  721TMC3    O110719   3.502   3.757  14.065 -0.5612 -0.4348 -0.4515
  721TMC3    O210720   3.446   4.068  14.570  0.2544  0.1863  0.3921
  722MPD2     C10721   1.356   2.636  13.402 -0.4203  0.4191  0.4400
  722MPD2    C110722   1.315   2.764  13.372  0.6673 -0.4100 -0.2269
  722MPD2    C210723   1.180   2.790  13.362 -0.7238 -0.1077 -0.0683
  722MPD2    C310724   1.084   2.683  13.351  0.6089  0.2683  0.2627
  722MPD2    C410725   1.130   2.557  13.379 -1.2729  0.9188 -0.3888
  722MPD2    C510726   1.269   2.535  13.391 -0.5096 -0.1048  0.1929
  722MPD2     H10727   1.147   2.894  13.360  3.6349  1.2309 -2.3304
  722MPD2    H110728   1.073   2.465  13.391 -1.9893  1.7810  3.0345
  722MPD2    H210729   1.459   2.611  13.425 -0.0344 -0.9265 -2.6697
  722MPD2    H310730   1.300   2.432  13.406  0.4634  0.4202  1.8614
  722MPD2     N10731   0.945   2.707  13.325 -0.3479 -0.2982  0.0411
  722MPD2    H510732   0.922   2.799  13.289  1.1443 -1.0942 -2.9177
  722MPD2    N110733   1.407   2.872  13.355  0.2103 -0.4939 -0.3631
  722MPD2    H710734   1.376   2.963  13.324 -0.4553 -0.5687  0.0827
  723TMC3    C110735   0.708   2.651  13.307  0.3825 -0.3960 -0.1143
  723TMC3    C210736   0.616   2.549  13.316 -0.4574  0.6314  0.0217
  723TMC3    C310737   0.487   2.586  13.285 -0.2781  0.8558  0.1694
  723TMC3    C410738   0.677   2.779  13.258 -0.1736 -0.1871 -0.9448
  723TMC3    C510739   0.544   2.805  13.222  0.4375  0.2751  0.3921
  723TMC3    C610740   0.446   2.712  13.253 -0.1910 -0.7868  0.3575
  723TMC3     C10741   0.842   2.608  13.315 -0.2880  0.6022  0.6643
  723TMC3     O10742   0.852   2.486  13.306 -0.4711  0.0910  0.2463
  723TMC3     H10743   0.638   2.461  13.376 -1.7676  0.0088 -0.4030
  723TMC3    H110744   0.762   2.837  13.224 -1.6952  1.0979 -2.5644
  723TMC3    H210745   0.343   2.725  13.221 -0.2009 -2.0613 -0.1411
  723TMC3    C710746   0.518   2.919  13.127 -0.2701  0.3580 -1.1222
  723TMC3    C810747   0.387   2.483  13.278 -0.1240 -0.4208 -0.4195
  723TMC3    O110748   0.411   2.921  13.068  0.1260 -0.1975 -0.2879
  723TMC3    O210749   0.273   2.527  13.293 -0.8842 -0.1079  0.2023
  724TMC3    C110750   1.241   1.009  10.011  0.6851  0.9509  0.0546
  724TMC3    C210751   1.248   1.044   9.882  0.7070 -0.2491  0.4391
  724TMC3    C310752   1.365   1.097   9.839 -0.3776  0.0045  0.1106
  724TMC3    C410753   1.339   1.030  10.105 -0.9395 -0.2010 -0.0513
  724TMC3    C510754   1.456   1.095  10.054  0.1883  0.7007  0.2749
  724TMC3    C610755   1.466   1.136   9.919  0.3653  0.9517  0.0808
  724TMC3     C10756   1.132   0.930  10.047 -0.7114  0.9761 -0.0677
  724TMC3     O10757   1.161   0.849  10.137  0.7686 -0.3200  0.3854
  724TMC3     H10758   1.179   0.999   9.811  0.1597  0.7622  0.3230
  724TMC3    H110759   1.336   0.987  10.204  0.9600  2.7012  1.2651
  724TMC3    H210760   1.555   1.183   9.881  0.4017  0.4629 -0.4451
  724TMC3    C710761   1.561   1.144  10.141  0.1781 -0.4361 -0.4087
  724TMC3    C810762   1.360   1.144   9.704 -0.1901 -0.4785  0.3859
  724TMC3    O110763   1.655   1.199  10.084  0.3244  0.5912 -0.1037
  724TMC3    O210764   1.312   1.065   9.628  0.3856 -0.1695  0.1423
  725TMC3    C110765   3.297   4.065  12.922  0.4438  0.0829 -0.4170
  725TMC3    C210766   3.171   4.100  12.864  0.8560 -0.0215  0.3828
  725TMC3    C310767   3.117   4.003  12.781  0.5147 -0.2360  0.5970
  725TMC3    C410768   3.344   3.936  12.906  0.5715 -0.4367 -0.3877
  725TMC3    C510769   3.272   3.841  12.841  0.5209  0.1676  0.7333
  725TMC3    C610770   3.165   3.874  12.764  0.7837  0.1437 -0.0895
  725TMC3     C10771   3.375   4.157  13.004 -0.3907  0.4444 -0.3544
  725TMC3     O10772   3.318   4.240  13.072 -0.5915  0.5620  0.2932
  725TMC3     H10773   3.142   4.205  12.860 -1.1253 -0.5623  0.5525
  725TMC3    H110774   3.412   3.895  12.980  0.9993 -0.4506 -0.7863
  725TMC3    H210775   3.115   3.799  12.703 -0.3877  0.3782  0.5859
  725TMC3    C710776   3.347   3.728  12.788  0.5713  0.4687 -0.0139
  725TMC3    C810777   3.030   4.038  12.669  0.0733 -0.4113 -0.5822
  725TMC3    O110778   3.469   3.738  12.791 -0.4818 -0.1169 -0.1953
  725TMC3    O210779   2.983   3.948  12.608 -0.1301  0.2875  0.0780
  726MPD2     C10780   0.735   1.208  10.242 -0.1067  0.1364 -0.1934
  726MPD2    C110781   0.679   1.338  10.242 -0.1504 -0.0211 -0.1212
  726MPD2    C210782   0.589   1.363  10.349  0.6047  0.4961 -0.4977
  726MPD2    C310783   0.541   1.254  10.423 -0.1876 -0.3388  0.1775
  726MPD2    C410784   0.592   1.130  10.416 -0.2040 -0.1644  0.4979
  726MPD2    C510785   0.688   1.108  10.321 -1.5229 -0.4707  1.4059
  726MPD2     H10786   0.546   1.462  10.354 -2.0636 -0.7374  1.1269
  726MPD2    H110787   0.538   1.046  10.457  0.4470  0.2156  2.1717
  726MPD2    H210788   0.811   1.190  10.166  0.4847  0.2880  0.3643
  726MPD2    H310789   0.712   1.006  10.292 -0.4327  0.3162 -0.4870
  726MPD2     N10790   0.441   1.266  10.525 -0.3202 -0.2959  0.1506
  726MPD2    H510791   0.417   1.181  10.574  1.4305  0.1172  1.7501
  726MPD2    N110792   0.721   1.440  10.150  0.2017 -0.0028 -0.8113
  726MPD2    H710793   0.687   1.535  10.166  2.2949  0.5202  0.5723
  727TMC3    C110794   0.814   1.552   9.977  0.0600 -0.3263  0.0829
  727TMC3    C210795   0.808   1.668  10.057  0.3045  0.5108  0.1716
  727TMC3    C310796   0.844   1.781   9.987 -0.5233  0.1139 -0.1092
  727TMC3    C410797   0.841   1.551   9.843 -0.1575 -0.8231 -0.1231
  727TMC3    C510798   0.850   1.674   9.783 -0.2083 -0.6047  0.1904
  727TMC3    C610799   0.857   1.790   9.851 -0.0251  0.2371  0.7892
  727TMC3     C10800   0.782   1.420  10.031  0.2916 -0.2339 -0.9906
  727TMC3     O10801   0.841   1.324   9.980  0.0118  0.1428  0.3594
  727TMC3     H10802   0.803   1.661  10.165  0.9209  2.3109  0.3112
  727TMC3    H110803   0.843   1.460   9.786 -0.5664  0.6041 -2.4183
  727TMC3    H210804   0.914   1.873   9.811 -1.9387  0.7316 -0.8969
  727TMC3    C710805   0.869   1.667   9.641 -0.1226  0.1928 -0.3608
  727TMC3    C810806   0.864   1.903  10.066 -0.3461  0.3550 -0.6391
  727TMC3    O110807   0.894   1.560   9.595 -0.0494 -0.4099 -0.4113
  727TMC3    O210808   0.892   1.875  10.180 -0.2798 -0.1469 -0.3557
  728TMC3    C110809   0.780   0.013  15.294  0.5407  0.0307 -0.8487
  728TMC3    C210810   0.909   0.027  15.310 -0.4278 -0.1630 -0.3900
  728TMC3    C310811   0.992   0.019  15.200 -0.6066  0.8575 -0.0922
  728TMC3    C410812   0.718   0.000  15.168  0.1083 -0.0118 -0.1904
  728TMC3    C510813   0.803   0.000  15.062  0.1285  0.0557 -0.1296
  728TMC3    C610814   0.938   0.001  15.078  0.0485  0.0369 -0.2059
  728TMC3     C10815   0.699   0.004  15.424  0.4358  0.1372 -0.0426
  728TMC3     O10816   0.759   0.038  15.525 -0.3390 -0.0192  0.6501
  728TMC3     H10817   0.953   0.050  15.407 -3.1536  0.4247  0.7319
  728TMC3    H110818   0.610   4.734  15.168  0.1902 -1.8804  0.6633
  728TMC3    H210819   0.998   0.026  14.991  0.6188  1.0289  0.4741
  728TMC3    C710820   0.741   0.005  14.928 -0.3378  0.5514 -0.5688
  728TMC3    C810821   1.128   0.065  15.221  0.3808  0.2725 -0.1455
  728TMC3    O110822   0.806   4.692  14.837  0.1951  0.7188 -0.5869
  728TMC3    O210823   1.134   0.121  15.330  0.0374  0.0815  0.1658
  729MPD2     C10824   2.645   0.590  16.750  0.8618  0.1497  0.3272
  729MPD2    C110825   2.544   0.689  16.732 -0.0866 -0.0116  0.1085
  729MPD2    C210826   2.495   0.754  16.842  0.1107 -0.1668 -0.9488
  729MPD2    C310827   2.545   0.724  16.964 -0.4279  0.5365 -0.1850
  729MPD2    C410828   2.636   0.626  16.981 -0.4846 -0.9950 -0.2911
  729MPD2    C510829   2.683   0.561  16.876  0.2326 -0.2983  0.0924
  729MPD2     H10830   2.406   0.815  16.830  0.9933  1.4303  0.5723
  729MPD2    H110831   2.685   0.606  17.076  2.0862  0.0476 -1.4018
  729MPD2    H210832   2.689   0.534  16.668  0.1847  1.3890 -0.8760
  729MPD2    H310833   2.762   0.489  16.892  0.9134  0.0603 -1.7238
  729MPD2     N10834   2.512   0.802  17.074  0.4365  0.1577  0.3030
  729MPD2    H510835   2.531   0.772  17.169 -0.5072 -0.0489  0.4296
  729MPD2    N110836   2.512   0.713  16.596  0.2008  0.2319  0.0792
  729MPD2    H710837   2.531   0.631  16.538  2.4787 -0.3502  1.6744
  730TMC3    C110838   2.453   0.994  17.198  0.0333 -0.9751 -0.2642
  730TMC3    C210839   2.523   0.946  17.310  1.2314  0.2506  0.4479
  730TMC3    C310840   2.548   1.031  17.411  0.2146  0.7266 -0.4773
  730TMC3    C410841   2.425   1.125  17.195  0.0340  0.4951  0.0539
  730TMC3    C510842   2.432   1.201  17.306  0.5226  0.0365 -0.6637
  730TMC3    C610843   2.489   1.156  17.423 -0.1677  0.1991  0.5930
  730TMC3     C10844   2.473   0.934  17.065 -0.4677  0.4650 -0.3159
  730TMC3     O10845   2.452   1.012  16.971  0.1188 -0.7333  0.3522
  730TMC3     H10846   2.574   0.851  17.317  1.0961  0.1021 -0.6680
  730TMC3    H110847   2.372   1.157  17.106 -0.1896  2.6089  0.9630
  730TMC3    H210848   2.501   1.222  17.508 -0.0790  0.1624  0.6084
  730TMC3    C710849   2.393   1.336  17.297 -0.1227  0.3379 -0.0418
  730TMC3    C810850   2.599   0.972  17.533  0.1070  0.3894  0.5928
  730TMC3    O110851   2.371   1.368  17.183 -0.2544  0.0854 -0.2184
  730TMC3    O210852   2.612   0.850  17.548 -0.0358 -0.4940  0.1529
  731MPD2     C10853   3.105   3.648  11.942 -0.2751  0.2742  0.0302
  731MPD2    C110854   3.006   3.711  12.011 -0.1023 -0.2754 -0.0158
  731MPD2    C210855   2.916   3.643  12.085  0.3753 -0.7144 -0.0886
  731MPD2    C310856   2.918   3.499  12.092 -0.0928  0.4121  0.4888
  731MPD2    C410857   3.018   3.440  12.022 -0.6244 -0.1549 -0.4717
  731MPD2    C510858   3.108   3.512  11.947  0.6241  0.5213 -0.5412
  731MPD2     H10859   2.840   3.702  12.134  0.6880 -1.5767  1.4141
  731MPD2    H110860   3.017   3.332  12.010  0.9398 -0.0757 -1.3348
  731MPD2    H210861   3.179   3.692  11.877 -0.5299  1.9946  0.9019
  731MPD2    H310862   3.194   3.463  11.902 -1.0724 -1.9867 -1.0748
  731MPD2     N10863   2.811   3.423  12.150  0.3060  0.3178  0.0842
  731MPD2    H510864   2.824   3.322  12.148  1.8466  0.5135  0.1644
  731MPD2    N110865   3.012   3.852  12.012 -0.1088 -0.3075  0.4550
  731MPD2    H710866   3.100   3.890  11.978 -0.7868 -0.4287 -1.4173
  732TMC3    C110867   2.980   4.071  12.061  0.0666  0.1272 -0.4160
  732TMC3    C210868   2.884   4.168  12.058  1.0055  0.4673  0.4728
  732TMC3    C310869   2.921   4.302  12.052  0.1826 -0.7646 -0.2268
  732TMC3    C410870   3.108   4.105  12.053 -0.1900 -0.1175 -0.5490
  732TMC3    C510871   3.139   4.238  12.058  0.1866 -0.0190 -0.2510
  732TMC3    C610872   3.050   4.343  12.059  0.5113  0.4523  0.0767
  732TMC3     C10873   2.931   3.939  12.075  0.0409  0.3047  0.3650
  732TMC3     O10874   2.839   3.929  12.153 -0.9768 -0.5124 -0.4478
  732TMC3     H10875   2.785   4.143  12.093  0.6258 -0.1498 -1.0367
  732TMC3    H110876   3.186   4.031  12.071  0.9591  1.1765 -0.1322
  732TMC3    H210877   3.071   4.450  12.056  1.6713  0.2517  1.0821
  732TMC3    C710878   3.280   4.277  12.090  0.1077  0.0229  0.3800
  732TMC3    C810879   2.816   4.398  12.040  0.6324  0.3664  0.7953
  732TMC3    O110880   3.293   4.381  12.155  0.1335 -0.2474  0.2108
  732TMC3    O210881   2.833   4.517  12.076 -0.0331 -0.5329 -0.0427
  733TMC3    C110882   2.900   1.748  13.185 -0.1226  0.1952 -0.3595
  733TMC3    C210883   2.984   1.852  13.228  0.3361 -0.0274 -0.5683
  733TMC3    C310884   3.067   1.894  13.125 -0.3849 -0.0385 -0.2220
  733TMC3    C410885   2.886   1.702  13.058  0.0397 -0.8088  0.5700
  733TMC3    C510886   2.963   1.756  12.957 -0.3072  0.2439  0.1598
  733TMC3    C610887   3.052   1.862  12.988  0.2426  0.0705 -0.5112
  733TMC3     C10888   2.778   1.746  13.263 -0.4058  0.3479  0.1708
  733TMC3     O10889   2.750   1.850  13.319  0.1777 -0.3082 -0.1278
  733TMC3     H10890   2.975   1.898  13.326 -1.5482  0.9940 -1.2171
  733TMC3    H110891   2.821   1.622  13.025  0.3198 -0.9088  0.2568
  733TMC3    H210892   3.121   1.890  12.910 -0.2711 -0.3248 -1.1091
  733TMC3    C710893   2.956   1.715  12.818 -0.3348 -0.0798  0.2794
  733TMC3    C810894   3.134   2.023  13.159  0.1049  0.1454  0.8394
  733TMC3    O110895   2.894   1.610  12.799  0.4734  0.2852 -0.2828
  733TMC3    O210896   3.161   2.060  13.271  0.0193 -0.2292  0.4576
  734MPD2     C10897   0.567   0.150  12.450  0.1381 -0.1205  0.3415
  734MPD2    C110898   0.455   0.127  12.375 -0.1413  0.1206  0.1690
  734MPD2    C210899   0.443   0.193  12.254 -0.1904  0.3921  0.1400
  734MPD2    C310900   0.548   0.269  12.204  0.4527  0.8588 -0.6940
  734MPD2    C410901   0.667   0.285  12.275 -0.5852 -0.6544  0.5687
  734MPD2    C510902   0.664   0.236  12.401  0.5395  0.1279 -0.0434
  734MPD2     H10903   0.350   0.186  12.197  0.3952 -1.6824 -0.5684
  734MPD2    H110904   0.752   0.340  12.235  1.4091 -2.3877  2.4536
  734MPD2    H210905   0.590   0.110  12.548 -0.0706  0.3763  0.5959
  734MPD2    H310906   0.746   0.255  12.469  0.1864  0.3478  0.3157
  734MPD2     N10907   0.522   0.317  12.081 -0.1179  0.3628  0.0807
  734MPD2    H510908   0.436   0.279  12.042  1.0707 -2.4287  0.2178
  734MPD2    N110909   0.357   0.034  12.421 -0.0479  0.6132  0.6941
  734MPD2    H710910   0.367   4.736  12.515 -2.2262 -1.2956  0.1692
  735TMC3    C110911   0.210   4.588  12.396 -0.3820 -0.9141 -0.4995
  735TMC3    C210912   0.126   4.528  12.304 -0.1418 -0.0341  0.2993
  735TMC3    C310913   0.144   4.406  12.251  0.9265 -0.4897 -0.3084
  735TMC3    C410914   0.308   4.507  12.439  0.4136 -0.0310  0.7929
  735TMC3    C510915   0.330   4.377  12.386 -0.3491 -0.1727  0.1171
  735TMC3    C610916   0.239   4.322  12.294  0.0541  0.4642  0.2141
  735TMC3     C10917   0.255   4.721  12.345 -0.7641  0.2349  0.2821
  735TMC3     O10918   0.223   4.728  12.229 -0.2461 -0.2187  0.6653
  735TMC3     H10919   0.040   4.588  12.276  0.2327 -0.1254 -1.0760
  735TMC3    H110920   0.378   4.538  12.516  0.5523 -0.3394  0.7872
  735TMC3    H210921   0.254   4.235  12.232  0.4056 -0.1263  1.1306
  735TMC3    C710922   0.447   4.295  12.432 -0.0994  0.4898 -0.1978
  735TMC3    C810923   0.131   4.397  12.107 -0.2320  0.5446 -0.0558
  735TMC3    O110924   0.549   4.341  12.479 -0.3651  0.0393 -0.1361
  735TMC3    O210925   0.130   4.291  12.042 -0.7733 -0.1410  0.0511
  736MPD2     C10926   0.529   3.939  12.411  0.1751  0.0423 -0.0506
  736MPD2    C110927   0.548   4.077  12.398 -0.0789 -1.0738 -1.3030
  736MPD2    C210928   0.673   4.119  12.356 -0.0160  0.5853  0.0997
  736MPD2    C310929   0.773   4.030  12.336 -0.5848 -0.3840 -0.1272
  736MPD2    C410930   0.754   3.895  12.365  0.2661  0.2633 -0.0256
  736MPD2    C510931   0.631   3.850  12.398  0.4330  1.0645  0.0054
  736MPD2     H10932   0.691   4.223  12.332 -0.1113  0.1344 -1.9515
  736MPD2    H110933   0.838   3.827  12.356  1.6871  2.1200 -0.7481
  736MPD2    H210934   0.437   3.892  12.445  1.0365 -1.4917  0.1716
  736MPD2    H310935   0.610   3.745  12.410 -0.0503  1.0032 -1.3795
  736MPD2     N10936   0.902   4.064  12.285 -0.7568  1.0937  0.1597
  736MPD2    H510937   0.968   3.990  12.262 -2.1198  0.1558 -0.7619
  736MPD2    N110938   0.434   4.159  12.409  0.4826  0.1556  0.6601
  736MPD2    H710939   0.345   4.115  12.391  1.4244 -0.3973 -2.6713
  737TMC3    C110940   1.062   4.182  12.160 -0.8464  0.5189 -0.6550
  737TMC3    C210941   1.138   4.297  12.161 -1.0723  0.5616  0.0076
  737TMC3    C310942   1.263   4.298  12.103 -0.5499 -0.1868  0.0923
  737TMC3    C410943   1.103   4.073  12.094 -0.2177 -0.2900 -0.0064
  737TMC3    C510944   1.221   4.086  12.015 -0.3953 -0.1843  0.4573
  737TMC3    C610945   1.310   4.191  12.032  0.5056  0.1410  0.2521
  737TMC3     C10946   0.933   4.186  12.235  0.0702  0.0704  0.0219
  737TMC3     O10947   0.868   4.290  12.228  0.2612  0.4125 -0.0532
  737TMC3     H10948   1.104   4.376  12.226 -1.3291  1.8178 -1.6462
  737TMC3    H110949   1.043   3.983  12.089 -0.6590 -0.0571  1.1186
  737TMC3    H210950   1.404   4.193  11.979  0.1130  0.5721 -0.4243
  737TMC3    C710951   1.269   3.957  11.965  0.5012 -0.1478  0.0854
  737TMC3    C810952   1.316   4.437  12.064 -0.2981 -0.0952  0.8421
  737TMC3    O110953   1.240   3.856  12.035 -0.1822 -0.0402 -0.2979
  737TMC3    O210954   1.231   4.525  12.082 -0.0213 -0.3563  0.1120
  738MPD2     C10955   1.378   3.100  14.548  0.2006 -0.0578  0.2244
  738MPD2    C110956   1.422   2.995  14.625  0.1512 -0.5484 -0.3789
  738MPD2    C210957   1.560   2.981  14.653  0.2806 -0.1616  0.7113
  738MPD2    C310958   1.650   3.061  14.600  0.1454  0.2642 -0.6314
  738MPD2    C410959   1.608   3.159  14.514  0.1161 -0.4252  0.7769
  738MPD2    C510960   1.472   3.190  14.497  0.0355 -0.2410 -0.0223
  738MPD2     H10961   1.579   2.898  14.721  0.5778 -1.7026 -1.2360
  738MPD2    H110962   1.678   3.216  14.454 -1.2841  0.6365  0.1355
  738MPD2    H210963   1.274   3.110  14.518  0.1983  0.5285  0.4303
  738MPD2    H310964   1.440   3.274  14.436 -0.8931 -0.9937 -0.5597
  738MPD2     N10965   1.790   3.049  14.617 -0.2943 -0.1641 -1.1177
  738MPD2    H510966   1.845   3.129  14.588  0.4082 -0.7833 -1.4671
  738MPD2    N110967   1.335   2.904  14.681  0.0171  0.0990  0.1507
  738MPD2    H710968   1.372   2.836  14.746  1.1247  1.0077  0.4775
  739TMC3    C110969   2.000   2.967  14.676  0.0491 -0.4129 -0.8989
  739TMC3    C210970   2.057   2.997  14.553 -0.3952  0.2016 -0.1542
  739TMC3    C310971   2.193   3.020  14.543  0.2609 -0.0740 -0.0179
  739TMC3    C410972   2.078   2.926  14.780 -0.0070  0.5275 -0.2682
  739TMC3    C510973   2.215   2.951  14.769 -0.8636  0.0214  0.3454
  739TMC3    C610974   2.278   3.001  14.652 -0.3019  0.2216 -0.0975
  739TMC3     C10975   1.854   2.954  14.688 -0.0475  0.2561 -0.1479
  739TMC3     O10976   1.808   2.880  14.769 -0.3042 -0.1391  0.5793
  739TMC3     H10977   1.992   3.005  14.467 -1.0113 -2.9848  0.0215
  739TMC3    H110978   2.028   2.897  14.872 -2.0453 -1.7618 -2.0797
  739TMC3    H210979   2.383   3.028  14.645 -0.6571  1.1051 -2.2002
  739TMC3    C710980   2.258   3.020  14.887 -0.2041 -0.5880 -0.2449
  739TMC3    C810981   2.231   3.081  14.420  0.2781 -0.8001 -0.4156
  739TMC3    O110982   2.165   3.051  14.966  0.1481  0.3185 -0.6469
  739TMC3    O210983   2.157   3.050  14.328  0.6303 -0.1780  0.0412
  740TMC3    C110984   2.633   4.172  14.414 -0.2272  0.6180 -0.6021
  740TMC3    C210985   2.685   4.132  14.531  0.3259  0.6438  0.7119
  740TMC3    C310986   2.798   4.057  14.527  0.0747  0.2757  0.3603
  740TMC3    C410987   2.706   4.154  14.295 -0.1947  0.1464 -0.0094
  740TMC3    C510988   2.823   4.083  14.295  0.4003  0.1269 -0.0920
  740TMC3    C610989   2.873   4.030  14.410  0.7508  0.8251 -0.4892
  740TMC3     C10990   2.510   4.253  14.413  0.0949  0.1045  0.0255
  740TMC3     O10991   2.505   4.335  14.321 -0.4388 -0.0083  0.2828
  740TMC3     H10992   2.640   4.165  14.624 -3.8674 -1.4360 -0.6015
  740TMC3    H110993   2.658   4.209  14.214 -0.5713 -0.4543 -0.1941
  740TMC3    H210994   2.960   3.966  14.410  1.0032  1.1643 -0.9360
  740TMC3    C710995   2.897   4.064  14.172 -0.0309 -0.3577 -0.1667
  740TMC3    C810996   2.850   3.992  14.652  0.1333  0.6232  0.2509
  740TMC3    O110997   3.011   4.021  14.184 -0.1987 -0.5209  0.3018
  740TMC3    O210998   2.964   3.950  14.638  0.9110 -0.1262  0.0325
  741TMC3    C110999   1.935   3.529  14.118  0.4623  0.3980 -0.2480
  741TMC3    C211000   1.857   3.440  14.043 -0.0204 -0.0661  0.2333
  741TMC3    C311001   1.825   3.329  14.105  0.2999 -0.3495 -0.3391
  741TMC3    C411002   1.966   3.511  14.251  0.1583 -0.1084 -0.4965
  741TMC3    C511003   1.935   3.392  14.312  0.2157 -0.0546  0.2148
  741TMC3    C611004   1.868   3.302  14.230 -0.2872  0.0052  0.4544
  741TMC3     C11005   1.970   3.663  14.060  0.3859  0.4114 -0.3480
  741TMC3     O11006   2.055   3.725  14.121  0.0182 -0.1981  0.4418
  741TMC3     H11007   1.828   3.449  13.939 -0.2591 -0.3293  0.2782
  741TMC3    H111008   2.022   3.585  14.306 -1.0932  0.4158  0.0649
  741TMC3    H211009   1.841   3.212  14.283  3.0965 -2.0166 -1.2245
  741TMC3    C711010   1.946   3.363  14.455  0.1722 -0.3061 -0.9941
  741TMC3    C811011   1.708   3.256  14.059  0.3395  0.4342 -0.5125
  741TMC3    O111012   1.910   3.252  14.490  0.2589  0.5603 -0.1686
  741TMC3    O211013   1.631   3.320  13.983  0.4848  0.4789 -0.0520
  742TMC3    C111014   1.907   2.108  15.380 -0.0479  0.1957  0.0543
  742TMC3    C211015   1.857   2.059  15.262  0.6139  0.4581 -0.0832
  742TMC3    C311016   1.922   2.092  15.149  0.2297 -0.1652 -0.8949
  742TMC3    C411017   2.036   2.158  15.392  0.6524  0.3951  0.2678
  742TMC3    C511018   2.114   2.161  15.274  0.1110  0.5123 -0.3355
  742TMC3    C611019   2.054   2.136  15.149  0.1571 -0.4420 -0.2145
  742TMC3     C11020   1.815   2.144  15.491  0.4655  1.0414  0.0100
  742TMC3     O11021   1.732   2.063  15.523  0.0369 -0.5448 -0.0684
  742TMC3     H11022   1.750   2.041  15.259  0.7270 -0.1777 -0.1488
  742TMC3    H111023   2.082   2.178  15.488  0.2922  0.9331  0.3234
  742TMC3    H211024   2.110   2.150  15.058  0.7234 -0.3330  0.1511
  742TMC3    C711025   2.255   2.134  15.283 -0.3960  0.2241 -0.7458
  742TMC3    C811026   1.859   2.053  15.024 -0.0676  0.8254  0.7457
  742TMC3    O111027   2.297   2.057  15.199  0.0241  0.6199 -0.6681
  742TMC3    O211028   1.764   1.977  15.041 -0.1540 -0.3177  0.3129
  743MPD2     C11029   0.658   3.450   1.838  0.0044  0.3289 -0.2048
  743MPD2    C111030   0.633   3.397   1.710 -0.0890 -0.0934 -0.4289
  743MPD2    C211031   0.740   3.383   1.628 -0.1267  0.0982  0.5183
  743MPD2    C311032   0.868   3.428   1.657  0.1311 -0.2427  0.3947
  743MPD2    C411033   0.886   3.467   1.793  0.5844  0.2299 -0.6262
  743MPD2    C511034   0.779   3.485   1.877  0.6847  0.6780  0.0017
  743MPD2     H11035   0.725   3.330   1.535 -0.5349  0.4505  0.3831
  743MPD2    H111036   0.981   3.498   1.835  1.4390  0.0972 -2.4540
  743MPD2    H211037   0.575   3.462   1.906 -0.3765 -2.6577 -0.1204
  743MPD2    H311038   0.780   3.526   1.977 -0.1339 -1.4532  0.8759
  743MPD2     N11039   0.973   3.428   1.554  0.2429 -0.0073 -0.3948
  743MPD2    H511040   0.954   3.382   1.466  0.3078 -1.7815  0.5170
  743MPD2    N111041   0.503   3.365   1.673 -0.5977 -0.2233  0.1507
  743MPD2    H711042   0.426   3.399   1.731  0.9169  1.7088  1.0219
  744TMC3    C111043   0.346   3.378   1.510 -0.2902  0.4041  1.4331
  744TMC3    C211044   0.329   3.512   1.545  0.3903 -0.6524  0.0384
  744TMC3    C311045   0.220   3.570   1.491  0.1771  0.3958 -0.9729
  744TMC3    C411046   0.281   3.312   1.412  0.0386  0.4571  0.0019
  744TMC3    C511047   0.188   3.386   1.347  0.2269  0.3018 -0.3717
  744TMC3    C611048   0.153   3.514   1.385 -0.1902  0.3111  0.0456
  744TMC3     C11049   0.468   3.319   1.550  0.4121 -0.6955  0.1235
  744TMC3     O11050   0.530   3.258   1.460 -0.2020  0.3339 -0.2707
  744TMC3     H11051   0.410   3.572   1.584 -0.9445  0.2933  1.3727
  744TMC3    H111052   0.307   3.210   1.388 -0.8462  0.0839  0.5884
  744TMC3    H211053   0.077   3.574   1.336  0.8304 -0.6470 -2.6994
  744TMC3    C711054   0.136   3.337   1.226 -0.1102 -0.4175  0.0084
  744TMC3    C811055   0.195   3.710   1.533 -1.1205  0.1669 -0.2698
  744TMC3    O111056   0.093   3.427   1.149  0.1635  0.1598  0.4155
  744TMC3    O211057   0.141   3.781   1.453  0.6227 -0.4883  0.0097
  745TMC3    C111058   1.804   1.609  13.682  0.2822  0.6838 -0.4038
  745TMC3    C211059   1.775   1.575  13.813 -0.1037 -0.0580  0.8627
  745TMC3    C311060   1.669   1.639  13.873 -1.0950  0.0466  0.0097
  745TMC3    C411061   1.739   1.707  13.620 -0.8632 -0.8118  0.1247
  745TMC3    C511062   1.637   1.765  13.685 -0.3849 -0.2459  0.5311
  745TMC3    C611063   1.590   1.728  13.807  0.8276  0.5272 -0.1012
  745TMC3     C11064   1.944   1.599  13.655 -0.4846 -0.5987 -0.3866
  745TMC3     O11065   1.981   1.482  13.633  0.2023 -0.0367  0.0614
  745TMC3     H11066   1.831   1.496  13.863  0.4490 -0.6459 -0.6887
  745TMC3    H111067   1.770   1.735  13.520  0.0617 -0.6867  0.4503
  745TMC3    H211068   1.511   1.790  13.846  0.0068 -0.2123 -0.6073
  745TMC3    C711069   1.586   1.892  13.633  0.3054  0.4684  0.2360
  745TMC3    C811070   1.698   1.667  14.007  0.5225 -0.1651 -0.1789
  745TMC3    O111071   1.500   1.955  13.691 -0.0554  0.4290 -0.3563
  745TMC3    O211072   1.609   1.716  14.071  0.5508 -0.2981 -0.7004
  746TMC3    C111073   4.258   3.686  10.803  0.0030  0.2176  0.5089
  746TMC3    C211074   4.363   3.663  10.722  0.8600  0.3479  0.1026
  746TMC3    C311075   4.338   3.586  10.606  0.2125 -0.5452 -0.6058
  746TMC3    C411076   4.134   3.630  10.770 -0.5422 -0.6837  0.2818
  746TMC3    C511077   4.111   3.568  10.649 -0.7525 -0.0156  0.5803
  746TMC3    C611078   4.216   3.540  10.565  0.2738  0.2225  0.1396
  746TMC3     C11079   4.260   3.800  10.893  0.6797 -0.0074 -0.6673
  746TMC3     O11080   4.179   3.794  10.986  0.1312 -0.4005 -1.2583
  746TMC3     H11081   4.465   3.691  10.748  0.4888 -0.5480  2.5290
  746TMC3    H111082   4.046   3.645  10.832  0.0460 -0.5519  1.0686
  746TMC3    H211083   4.214   3.482  10.474 -0.7295  0.6467 -0.1038
  746TMC3    C711084   3.983   3.505  10.615 -0.1595 -0.5377  0.5484
  746TMC3    C811085   4.421   3.637  10.498 -0.0900 -0.2583  0.1536
  746TMC3    O111086   3.906   3.470  10.703  0.2894 -0.6112 -0.8307
  746TMC3    O211087   4.494   3.559  10.432  0.1671 -0.9813  0.1609
  747TMC3    C111088   2.032   3.947  11.229 -0.7089  0.2835 -0.5655
  747TMC3    C211089   1.942   3.865  11.300  0.0803  0.6089  0.1271
  747TMC3    C311090   1.868   3.930  11.391  0.1444 -0.1896 -0.4448
  747TMC3    C411091   2.061   4.085  11.255 -1.0240 -0.2034 -0.4158
  747TMC3    C511092   1.989   4.138  11.360  0.0494 -0.5705  0.3001
  747TMC3    C611093   1.889   4.064  11.419 -0.6690  0.7101 -0.5610
  747TMC3     C11094   2.069   3.896  11.099 -0.4608  0.5536 -0.1449
  747TMC3     O11095   2.177   3.930  11.053 -0.1152  0.5942 -0.3403
  747TMC3     H11096   1.935   3.758  11.285  1.5193  0.5193  0.0771
  747TMC3    H111097   2.135   4.133  11.191  0.9694 -3.1409 -0.3185
  747TMC3    H211098   1.836   4.103  11.505 -0.4731  2.0014 -1.0262
  747TMC3    C711099   2.054   4.240  11.439  0.2763 -0.1516 -0.9305
  747TMC3    C811100   1.796   3.846  11.484  0.3214  0.0063 -0.2457
  747TMC3    O111101   1.984   4.284  11.533 -0.1817 -0.2226 -0.3180
  747TMC3    O211102   1.847   3.735  11.495 -0.3797 -0.4759 -0.0910
  748MPD2     C11103   4.211   4.592   0.422 -1.0975 -0.1670 -0.3278
  748MPD2    C111104   4.336   4.574   0.481 -0.1988  0.1262  0.2986
  748MPD2    C211105   4.412   4.688   0.520  0.8770  0.9119 -0.1035
  748MPD2    C311106   4.356   0.077   0.507  0.0710  0.3860  0.6073
  748MPD2    C411107   4.230   0.085   0.446 -0.4457  0.4032 -0.0668
  748MPD2    C511108   4.157   4.721   0.403 -0.4433 -0.5698 -0.1005
  748MPD2     H11109   4.511   4.671   0.562  1.1575  0.9793 -0.7373
  748MPD2    H111110   4.171   0.176   0.442  0.8573  1.1696 -2.1450
  748MPD2    H211111   4.146   4.508   0.398  1.9332 -2.8327  0.7905
  748MPD2    H311112   4.055   4.735   0.369  0.2629  0.6476 -1.7198
  748MPD2     N11113   4.436   0.184   0.545 -0.0171  0.4523 -0.1968
  748MPD2    H511114   4.521   0.163   0.596 -0.1505  2.6508  0.9478
  748MPD2    N111115   4.378   4.445   0.501  0.0992 -0.7399 -0.7332
  748MPD2    H711116   4.322   4.371   0.459 -1.3735 -0.1818  0.2355
  749TMC3    C111117   4.501   0.402   0.563  0.1014  0.4921  0.2007
  749TMC3    C211118   4.601   0.362   0.651 -0.0599  0.3628  0.0294
  749TMC3    C311119   4.714   0.451   0.658 -0.1303  0.7135 -0.1172
  749TMC3    C411120   4.504   0.516   0.489 -0.1473 -0.7697 -1.0289
  749TMC3    C511121   4.603   0.607   0.513 -0.2470 -0.0569  0.2925
  749TMC3    C611122   4.712   0.573   0.597  0.3290  0.3001  0.9119
  749TMC3     C11123   4.403   0.310   0.523 -0.3876 -0.9300  0.2309
  749TMC3     O11124   4.306   0.357   0.467 -0.3318 -0.2060 -0.1914
  749TMC3     H11125   4.590   0.273   0.711  0.4163 -0.3527 -0.9504
  749TMC3    H111126   4.422   0.535   0.421  2.2216 -0.6904 -3.8526
  749TMC3    H211127   0.050   0.649   0.606  3.0273 -2.1985 -1.0836
  749TMC3    C711128   4.634   0.711   0.425 -0.4055 -0.0670  0.1628
  749TMC3    C811129   0.059   0.428   0.771 -0.1096 -0.1912  0.6779
  749TMC3    O111130   4.725   0.794   0.448 -0.2324  0.3649 -0.5418
  749TMC3    O211131   0.130   0.522   0.802  0.1167  0.6282 -0.1381
  750MPD2     C11132   4.393   1.144  11.281 -0.2503  0.3253 -0.3036
  750MPD2    C111133   4.287   1.103  11.353  0.5352 -0.6700 -0.3976
  750MPD2    C211134   4.234   0.977  11.332 -0.3953 -0.6023  0.7084
  750MPD2    C311135   4.291   0.894  11.237  0.1523 -0.5059 -0.4626
  750MPD2    C411136   4.411   0.926  11.181  0.5166 -0.2174 -0.0847
  750MPD2    C511137   4.446   1.062  11.189  0.7218 -0.4359  0.4642
  750MPD2     H11138   4.136   0.955  11.371 -0.6755 -0.8723 -0.1527
  750MPD2    H111139   4.470   0.868  11.110  0.0846 -2.2456  1.2257
  750MPD2    H211140   4.447   1.238  11.287  0.1271 -0.0645  2.4058
  750MPD2    H311141   4.523   1.092  11.119  0.4388  0.1077  0.3836
  750MPD2     N11142   4.233   0.772  11.192  0.3486  0.3577 -0.7199
  750MPD2    H511143   4.271   0.735  11.105 -0.0326  1.5329 -1.3772
  750MPD2    N111144   4.230   1.189  11.449  0.0786 -0.2837  0.1118
  750MPD2    H711145   4.254   1.288  11.442  1.2013 -0.4078  2.2532
  751TMC3    C111146   4.092   0.579  11.186  0.3574 -0.0716 -0.5742
  751TMC3    C211147   3.962   0.547  11.185 -0.4911  0.1960  0.5230
  751TMC3    C311148   3.914   0.463  11.092 -0.9584 -0.3318  0.6021
  751TMC3    C411149   4.185   0.531  11.095 -0.0406  0.1842 -0.5171
  751TMC3    C511150   4.129   0.444  11.001 -0.1638 -0.2995 -0.4464
  751TMC3    C611151   3.995   0.407  10.999 -0.2902  0.1884 -0.1851
  751TMC3     C11152   4.137   0.697  11.261  0.4779  0.4638 -0.0186
  751TMC3     O11153   4.085   0.730  11.366  0.2011  0.3397  0.4487
  751TMC3     H11154   3.902   0.589  11.265 -0.5702 -0.1285  0.6371
  751TMC3    H111155   4.293   0.544  11.106 -0.0702  0.4389 -0.5210
  751TMC3    H211156   3.945   0.350  10.922  1.1634  1.8422 -2.3554
  751TMC3    C711157   4.225   0.381  10.912 -0.5480  0.0365 -0.3835
  751TMC3    C811158   3.790   0.391  11.109  0.4212  0.6825 -0.6189
  751TMC3    O111159   4.342   0.421  10.913  0.4267 -0.0157  0.1586
  751TMC3    O211160   3.762   0.299  11.032 -0.0819  0.8979 -0.4612
  752TMC3    C111161   2.968   0.830  17.382 -0.6280 -0.1796 -0.5569
  752TMC3    C211162   3.105   0.849  17.390 -0.2946  0.4000  0.6031
  752TMC3    C311163   3.171   0.772  17.484  0.5332  0.5314  0.8129
  752TMC3    C411164   2.899   0.755  17.472 -0.6912 -0.1180  0.1486
  752TMC3    C511165   2.966   0.702  17.578  0.2145 -0.2234 -0.0668
  752TMC3    C611166   3.100   0.708  17.587  0.5336 -0.3378 -0.6641
  752TMC3     C11167   2.896   0.892  17.265  0.1715  0.4461  0.0006
  752TMC3     O11168   2.792   0.840  17.223  1.1353  0.7045  0.0419
  752TMC3     H11169   3.156   0.870  17.296 -0.1848 -1.0961  0.3256
  752TMC3    H111170   2.796   0.740  17.441 -1.4369  3.8137  0.7168
  752TMC3    H211171   3.157   0.667  17.669  1.0893  1.1635 -0.3074
  752TMC3    C711172   2.905   0.617  17.674  0.4343 -1.0033 -0.1213
  752TMC3    C811173   3.312   0.754  17.480 -0.1096 -0.1692  0.3248
  752TMC3    O111174   2.979   0.542  17.736  0.3836 -0.2024 -0.5685
  752TMC3    O211175   3.355   0.654  17.535 -0.0023 -0.0668 -0.1408
  753TMC3    C111176   0.259   1.329  13.389  0.0462 -0.1464 -0.4031
  753TMC3    C211177   0.349   1.336  13.493 -0.6256  0.0928 -0.3132
  753TMC3    C311178   0.457   1.249  13.495 -0.8009  1.1050  0.6357
  753TMC3    C411179   0.262   1.241  13.293  0.5418  0.3888 -0.0444
  753TMC3    C511180   0.369   1.153  13.303  0.0897  0.5063 -0.2122
  753TMC3    C611181   0.465   1.149  13.402  0.0537  0.2584 -0.4944
  753TMC3     C11182   0.146   1.428  13.375 -0.1404  0.2383  0.4974
  753TMC3     O11183   0.059   1.392  13.295  0.6685 -0.3381  0.2233
  753TMC3     H11184   0.319   1.403  13.573  1.7578 -1.2722  1.7149
  753TMC3    H111185   0.207   1.240  13.200  4.1414  2.5089 -2.2040
  753TMC3    H211186   0.534   1.065  13.404 -1.3348 -0.8548  0.7343
  753TMC3    C711187   0.381   1.077  13.181  0.4300  0.9099  0.4147
  753TMC3    C811188   0.560   1.262  13.593 -0.1344  0.5271  0.1827
  753TMC3    O111189   0.280   1.052  13.120 -0.5338 -0.3708 -1.0954
  753TMC3    O211190   0.626   1.168  13.616 -0.0739  0.4370  0.2440
  754MPD2     C11191   4.313   0.485  13.360  0.1747 -0.3278  0.0897
  754MPD2    C111192   4.325   0.348  13.352  0.2900  0.0740  0.3151
  754MPD2    C211193   4.217   0.269  13.345 -0.6312 -0.0157 -0.1723
  754MPD2    C311194   4.088   0.331  13.344 -0.2255  0.2258  0.7189
  754MPD2    C411195   4.074   0.463  13.352  0.3391 -0.0883  0.3293
  754MPD2    C511196   4.189   0.543  13.361  0.4910 -0.4179  0.3623
  754MPD2     H11197   4.218   0.163  13.323 -0.0308 -0.4594  2.0687
  754MPD2    H111198   3.979   0.512  13.364  1.9403  2.5952  2.2052
  754MPD2    H211199   4.394   0.555  13.379 -0.8049  0.0161  2.8978
  754MPD2    H311200   4.176   0.649  13.378 -0.7156 -0.4461 -0.3935
  754MPD2     N11201   3.968   0.264  13.349 -0.2056 -0.5393 -0.4951
  754MPD2    H511202   3.883   0.318  13.352 -1.3577 -2.3470 -0.2293
  754MPD2    N111203   4.459   0.296  13.366 -0.1219 -0.5746 -0.4008
  754MPD2    H711204   4.535   0.362  13.380 -0.5346  0.2017 -1.8698
  755MPD2     C11205   3.163   0.578  13.318 -0.2067 -0.3882 -0.3160
  755MPD2    C111206   3.135   0.445  13.356 -0.3939 -0.2329 -0.1249
  755MPD2    C211207   3.245   0.364  13.387  0.0548  0.8727 -1.0502
  755MPD2    C311208   3.372   0.403  13.367 -0.4805 -0.0196 -0.0468
  755MPD2    C411209   3.400   0.525  13.317 -0.0329 -0.3362  0.6215
  755MPD2    C511210   3.293   0.613  13.305  0.0912  0.4357  0.2509
  755MPD2     H11211   3.221   0.267  13.429  0.8049  0.5398 -1.3910
  755MPD2    H111212   3.498   0.562  13.290 -0.7273  0.7403 -0.4228
  755MPD2    H211213   3.080   0.642  13.292 -2.0080 -1.5129  2.7385
  755MPD2    H311214   3.321   0.714  13.280  0.3237 -0.0560 -1.4771
  755MPD2     N11215   3.486   0.322  13.380  0.4506  0.1155  0.2026
  755MPD2    H511216   3.572   0.360  13.343  1.0478 -0.9056  0.5581
  755MPD2    N111217   2.996   0.405  13.360  0.7919  0.6177  0.5009
  755MPD2    H711218   2.925   0.477  13.364 -1.2808 -1.4364  0.5618
  756MPD2     C11219   3.539   1.991   9.618  0.1748 -0.3304  0.5480
  756MPD2    C111220   3.500   1.897   9.713 -0.0183 -0.5939  0.2285
  756MPD2    C211221   3.385   1.824   9.688  0.7708  0.7434  0.6926
  756MPD2    C311222   3.302   1.847   9.580  0.1466  1.0701  0.2072
  756MPD2    C411223   3.340   1.942   9.493  0.4861 -0.4528 -0.5260
  756MPD2    C511224   3.460   2.012   9.509 -0.4065  0.1918 -0.1987
  756MPD2     H11225   3.361   1.758   9.771  1.1396 -0.7038 -0.3380
  756MPD2    H111226   3.286   1.972   9.404  0.4181 -2.5039 -1.1672
  756MPD2    H211227   3.634   2.043   9.615 -0.1757  0.3005  0.2920
  756MPD2    H311228   3.488   2.094   9.444  0.3918  1.0505  1.2216
  756MPD2     N11229   3.192   1.763   9.556  0.0855 -0.6565  0.5010
  756MPD2    H511230   3.185   1.679   9.613 -0.6834 -0.3381  0.8764
  756MPD2    N111231   3.570   1.862   9.830  0.1855  0.1366 -0.4080
  756MPD2    H711232   3.540   1.781   9.885 -0.3844  0.5846 -0.0572
  757MPD2     C11233   3.082   1.030   9.953  0.1063 -0.7782 -0.5863
  757MPD2    C111234   3.149   1.147   9.968  0.6389  0.3845 -0.7029
  757MPD2    C211235   3.131   1.246   9.869  0.0275  0.1072 -0.5073
  757MPD2    C311236   3.064   1.226   9.753  0.4756  0.2533  0.3474
  757MPD2    C411237   3.008   1.099   9.734  0.5177 -0.3612  0.8622
  757MPD2    C511238   3.016   1.005   9.836  0.7131 -0.2845 -0.3505
  757MPD2     H11239   3.165   1.347   9.889  0.9036 -1.0179  3.7005
  757MPD2    H111240   2.979   1.072   9.633  1.5647  0.1395  0.4217
  757MPD2    H211241   3.084   0.946  10.021  0.7826  0.6712  1.2015
  757MPD2    H311242   2.974   0.908   9.812  3.4292 -1.2351 -1.2511
  757MPD2     N11243   3.048   1.329   9.660 -0.2119 -0.7738 -0.3519
  757MPD2    H511244   3.094   1.418   9.677 -0.7712 -0.7149  0.8376
  757MPD2    N111245   3.219   1.170  10.094  0.0800  0.1931 -0.0290
  757MPD2    H711246   3.196   1.098  10.161 -1.3346  0.5092 -0.1723
  758MPD2     C11247   4.306   0.509  15.551 -0.9823  0.6904 -1.3926
  758MPD2    C111248   4.387   0.419  15.609 -0.3875 -0.4026 -0.3513
  758MPD2    C211249   4.442   0.451  15.731 -0.0332 -0.7193 -0.8221
  758MPD2    C311250   4.411   0.574  15.789 -0.3008  0.1673  0.6944
  758MPD2    C411251   4.330   0.663  15.735 -0.6865  0.0906 -0.0168
  758MPD2    C511252   4.276   0.625  15.614 -0.8237  0.5006  0.4576
  758MPD2     H11253   4.525   0.392  15.766 -1.5405 -1.6720  1.1462
  758MPD2    H111254   4.319   0.757  15.788 -0.7115 -1.2543  2.3829
  758MPD2    H211255   4.272   0.480  15.452 -0.0583  0.5014 -1.6537
  758MPD2    H311256   4.217   0.698  15.561  0.7373 -0.7333 -2.9880
  758MPD2     N11257   4.462   0.610  15.916  0.3115  0.1464 -0.3286
  758MPD2    H511258   4.423   0.695  15.955  3.3916  1.5208 -0.2211
  758MPD2    N111259   4.419   0.293  15.542  0.2658  0.2242  0.5157
  758MPD2    H711260   4.393   0.291  15.443  4.0523  3.5558 -0.5405
  759MPD2     C11261   2.500   3.035   9.558  0.5145  0.6458 -0.9072
  759MPD2    C111262   2.446   3.080   9.673  0.7542 -0.0336  0.3718
  759MPD2    C211263   2.463   3.209   9.705  0.3960  0.0741  0.4026
  759MPD2    C311264   2.538   3.301   9.630 -0.6968  0.1555 -0.2355
  759MPD2    C411265   2.604   3.245   9.520  0.6275  0.3638 -0.2124
  759MPD2    C511266   2.586   3.117   9.487 -0.1944  0.0405 -0.1167
  759MPD2     H11267   2.410   3.259   9.785 -1.7824 -1.7327  0.0766
  759MPD2    H111268   2.667   3.303   9.454  0.0089 -0.4240 -1.5021
  759MPD2    H211269   2.492   2.929   9.534  2.0476  0.0203  1.3067
  759MPD2    H311270   2.632   3.084   9.395 -1.4070 -1.6924 -0.0968
  759MPD2     N11271   2.539   3.440   9.649  0.1437  0.4542  0.3028
  759MPD2    H511272   2.484   3.481   9.724 -1.4278 -0.2763 -0.4533
  759MPD2    N111273   2.357   3.003   9.750 -0.3031  0.0610  0.0709
  759MPD2    H711274   2.321   3.053   9.831  1.0032 -0.2968  0.8803
  760MPD2     C11275   2.313   0.659  12.212  0.3783 -0.7261 -0.2449
  760MPD2    C111276   2.440   0.704  12.211 -0.0492  0.4362 -0.0688
  760MPD2    C211277   2.542   0.615  12.237 -0.2919 -0.5840  0.2769
  760MPD2    C311278   2.520   0.480  12.262  0.5651 -0.4725 -0.7468
  760MPD2    C411279   2.391   0.439  12.253  0.3036  0.0212  0.5595
  760MPD2    C511280   2.290   0.531  12.234  0.0171  0.0251  0.3342
  760MPD2     H11281   2.643   0.653  12.230  0.0407 -1.0530  2.6004
  760MPD2    H111282   2.367   0.335  12.270 -0.1995  0.2065  0.9851
  760MPD2    H211283   2.229   0.725  12.195  2.2542  1.5049 -0.8066
  760MPD2    H311284   2.185   0.503  12.232  0.4012 -1.2637 -1.2028
  760MPD2     N11285   2.613   0.384  12.303 -0.2001  0.4617 -0.2923
  760MPD2    H511286   2.593   0.285  12.308  1.6536  0.0093 -1.9645
  760MPD2    N111287   2.483   0.838  12.178  0.1571  0.5441  0.2128
  760MPD2    H711288   2.578   0.864  12.205  1.6036 -3.0815 -1.4097
  761MPD2     C11289   3.441   0.158  11.434 -0.2839 -0.0610  0.6076
  761MPD2    C111290   3.475   0.121  11.307 -0.5621 -0.2662 -0.5109
  761MPD2    C211291   3.568   0.206  11.245  0.1580  0.5014 -0.1241
  761MPD2    C311292   3.620   0.321  11.290  0.2988  0.1576  0.2331
  761MPD2    C411293   3.588   0.352  11.423  0.3298 -0.6220 -0.7749
  761MPD2    C511294   3.497   0.271  11.489 -1.0895 -0.0514  0.1368
  761MPD2     H11295   3.593   0.180  11.142 -3.4368  1.8077 -1.3455
  761MPD2    H111296   3.631   0.441  11.468  1.5988 -1.3334 -0.5912
  761MPD2    H211297   3.366   0.102  11.489 -0.4211 -0.2251  0.2464
  761MPD2    H311298   3.468   0.312  11.585  0.8043  0.3228  0.5510
  761MPD2     N11299   3.730   0.399  11.231 -0.1671 -0.1238 -0.3872
  761MPD2    H511300   3.766   0.481  11.280  2.1952 -1.0138 -0.6065
  761MPD2    N111301   3.410   0.005  11.252 -0.2882 -1.0098 -0.9222
  761MPD2    H711302   3.344   4.704  11.317  0.4615 -1.8885 -0.7088
  762MPD2     C11303   3.848   4.724  11.046 -0.4885 -0.0221  0.1345
  762MPD2    C111304   3.840   4.595  11.005  1.0712  0.7321 -0.2574
  762MPD2    C211305   3.956   4.538  10.956 -0.3838 -0.2290 -0.3305
  762MPD2    C311306   4.083   4.599  10.979  0.4442 -0.5822 -0.5366
  762MPD2    C411307   4.081   4.727  11.042  0.6094 -0.6784  0.4432
  762MPD2    C511308   3.963   0.058  11.062 -0.5485 -0.5506  0.2719
  762MPD2     H11309   3.946   4.448  10.896  1.1482 -0.0161 -0.8968
  762MPD2    H111310   4.166   0.053  11.059  0.1784 -0.2619  0.9729
  762MPD2    H211311   3.762   0.039  11.084 -1.8836 -1.7586 -0.5206
  762MPD2    H311312   3.952   0.154  11.111  3.0080  1.4511 -2.9118
  762MPD2     N11313   4.194   4.532  10.930  0.6119 -0.4999  0.5722
  762MPD2    H511314   4.181   4.440  10.890 -0.6823  0.0544 -0.2834
  762MPD2    N111315   3.711   4.537  10.996 -0.0976 -0.2745  0.6211
  762MPD2    H711316   3.632   4.601  11.000 -0.7794 -1.0428 -0.5301
  763MPD2     C11317   1.684   4.685  16.154  0.4124  0.5460 -0.1604
  763MPD2    C111318   1.605   0.043  16.109 -0.9606  0.2197 -0.2783
  763MPD2    C211319   1.602   0.170  16.163 -0.3784 -0.0001 -0.0738
  763MPD2    C311320   1.674   0.197  16.278  0.4159  0.0786 -0.1689
  763MPD2    C411321   1.738   0.089  16.344 -0.0638 -0.3278  0.0107
  763MPD2    C511322   1.742   4.708  16.277  0.3541 -0.0617  0.1218
  763MPD2     H11323   1.553   0.248  16.105 -0.7371 -0.1403  0.0407
  763MPD2    H111324   1.786   0.110  16.439 -0.3697  2.5783 -0.4941
  763MPD2    H211325   1.693   4.590  16.102  0.3637  0.4431  0.0197
  763MPD2    H311326   1.808   4.628  16.310  1.2514  1.2553  1.4834
  763MPD2     N11327   1.698   0.327  16.324 -0.5985  0.4860  0.0197
  763MPD2    H511328   1.769   0.334  16.397 -2.4780 -0.8205  1.9607
  763MPD2    N111329   1.517   0.028  15.995 -0.0226  0.0381  0.4633
  763MPD2    H711330   1.467   0.113  15.972 -1.1362 -0.6386  0.3936
  764MPD2     C11331   4.294   2.073  17.460 -0.1343  0.1264 -0.0828
  764MPD2    C111332   4.202   2.011  17.378 -1.3152  0.6433  0.2317
  764MPD2    C211333   4.157   1.882  17.410 -0.8395  0.3797 -0.1195
  764MPD2    C311334   4.190   1.820  17.536 -0.5408  0.2286 -0.5081
  764MPD2    C411335   4.281   1.878  17.619  0.8717 -0.4285  0.4687
  764MPD2    C511336   4.329   2.005  17.579  0.4030  0.3783 -0.1678
  764MPD2     H11337   4.083   1.832  17.347 -2.5049  2.3891  0.2318
  764MPD2    H111338   4.292   1.843  17.721 -2.5415 -1.0120  0.6355
  764MPD2    H211339   4.323   2.176  17.446 -0.6334  0.7090  3.0668
  764MPD2    H311340   4.401   2.056  17.643  0.6809 -0.8495  0.5054
  764MPD2     N11341   4.118   1.705  17.575  0.5960 -0.0430 -0.1969
  764MPD2    H511342   4.039   1.672  17.521  0.1699  1.4095 -0.4588
  764MPD2    N111343   4.154   2.066  17.254  0.2519 -0.2225 -0.1936
  764MPD2    H711344   4.093   2.010  17.195 -2.5893  0.0075  2.5117
  765MPD2     C11345   4.092   4.378  15.343  0.2564  0.6960 -0.2797
  765MPD2    C111346   4.164   4.459  15.426  0.4885  0.1447 -0.4070
  765MPD2    C211347   4.288   4.422  15.476 -0.0749 -0.0060  0.3181
  765MPD2    C311348   4.348   4.310  15.429 -0.3778 -0.1037  0.2722
  765MPD2    C411349   4.274   4.232  15.341  0.0668  0.0797  0.0520
  765MPD2    C511350   4.156   4.268  15.290  0.3575  0.2322 -0.3957
  765MPD2     H11351   4.339   4.487  15.546 -0.6319 -1.3101  1.9273
  765MPD2    H111352   4.323   4.141  15.308 -3.2007 -1.3749 -0.7510
  765MPD2    H211353   3.995   4.409  15.305  1.3165  0.3526 -3.2900
  765MPD2    H311354   4.104   4.207  15.216 -0.3857  1.1558 -0.6327
  765MPD2     N11355   4.475   4.277  15.479  0.5614  0.0837 -0.1151
  765MPD2    H511356   4.524   4.339  15.544  1.0771  0.9520 -1.3226
  765MPD2    N111357   4.089   4.561  15.486  0.1792 -0.6604 -0.2409
  765MPD2    H711358   3.988   4.558  15.475 -0.1471 -1.7354  3.1363
  766MPD2     C11359   3.417   4.639  15.277 -0.2073  0.0567 -0.2223
  766MPD2    C111360   3.550   4.609  15.307 -0.1365 -0.2773 -0.3232
  766MPD2    C211361   3.632   4.537  15.213  0.0634  0.2189 -0.0238
  766MPD2    C311362   3.579   4.484  15.095 -0.0231 -0.3821  0.6123
  766MPD2    C411363   3.452   4.519  15.066  0.0753  0.3537  0.3944
  766MPD2    C511364   3.374   4.583  15.160  0.0323  0.8468 -0.1333
  766MPD2     H11365   3.738   4.525  15.229 -0.2482 -0.4162  1.5811
  766MPD2    H111366   3.410   4.487  14.971  2.5255 -1.8536  0.0473
  766MPD2    H211367   3.349   4.687  15.346  0.3338  2.0727 -1.0670
  766MPD2    H311368   3.273   4.598  15.124 -0.5557  1.2513  1.6750
  766MPD2     N11369   3.658   4.416  15.011 -0.3648 -0.4930  0.5801
  766MPD2    H511370   3.617   4.403  14.919 -1.5072 -1.9812  1.3105
  766MPD2    N111371   3.601   4.662  15.428 -0.3087 -0.4137  0.0986
  766MPD2    H711372   3.544   4.717  15.491  0.9361  3.1983 -1.9694
  767MPD2     C11373   3.154   4.673  14.858 -0.4382  0.4799  0.2575
  767MPD2    C111374   3.275   4.689  14.804 -0.2983 -0.6484  0.1090
  767MPD2    C211375   3.295   4.631  14.672 -0.0061 -0.0553 -0.0687
  767MPD2    C311376   3.201   4.544  14.620 -0.2041 -0.0282  0.4031
  767MPD2    C411377   3.077   4.519  14.691 -0.6312  0.1307  0.9506
  767MPD2    C511378   3.054   4.598  14.802 -0.5128  0.5997 -0.1717
  767MPD2     H11379   3.387   4.655  14.620  0.4748 -1.5287  0.0913
  767MPD2    H111380   2.997   4.452  14.662 -0.6219  0.2369  0.6779
  767MPD2    H211381   3.133   4.699  14.961 -4.2438  0.8972 -0.6277
  767MPD2    H311382   2.962   4.590  14.858 -0.9828  0.7208 -0.9232
  767MPD2     N11383   3.238   4.468  14.501  0.7276 -0.0625 -0.5837
  767MPD2    H511384   3.333   4.479  14.467  0.1507  0.8297 -1.8860
  767MPD2    N111385   3.372   0.027  14.873 -0.7010  0.6157  0.2650
  767MPD2    H711386   3.339   0.076  14.955  1.7970  0.2053  1.5444
  768MPD2     C11387   3.435   2.811  10.956  0.8209 -0.2808  0.6725
  768MPD2    C111388   3.502   2.920  10.916 -0.2432  0.2045 -0.2106
  768MPD2    C211389   3.644   2.923  10.920  0.1895 -0.5672  0.4545
  768MPD2    C311390   3.715   2.823  10.978 -0.0162 -0.2732  0.6918
  768MPD2    C411391   3.643   2.708  11.020  0.6544 -0.7573 -0.1402
  768MPD2    C511392   3.508   2.709  11.000 -0.6673  0.4360 -0.6544
  768MPD2     H11393   3.695   3.014  10.890 -1.4778 -0.3907 -1.7984
  768MPD2    H111394   3.698   2.625  11.064 -0.5313 -0.8695  1.1161
  768MPD2    H211395   3.328   2.795  10.956  0.1992  3.8731 -0.7271
  768MPD2    H311396   3.451   2.623  11.035  0.2717  1.2922  2.9787
  768MPD2     N11397   3.850   2.817  11.018 -0.1637 -0.3911 -0.5123
  768MPD2    H511398   3.899   2.733  11.046  1.2820  0.0124 -1.8637
  768MPD2    N111399   3.437   3.025  10.842 -0.3129 -0.4065  0.3029
  768MPD2    H711400   3.496   3.097  10.801  2.3194 -1.1232  2.7800
  769MPD2     C11401   0.209   1.590  15.171  0.4123 -0.1908  0.4579
  769MPD2    C111402   0.232   1.474  15.246 -1.0965 -0.2180 -0.1809
  769MPD2    C211403   0.319   1.481  15.355 -0.1732  0.5857  0.5891
  769MPD2    C311404   0.365   1.602  15.391 -0.8254  0.3348 -0.3242
  769MPD2    C411405   0.339   1.712  15.321  0.2437 -0.0155 -0.1037
  769MPD2    C511406   0.270   1.704  15.202 -0.3179  0.2407 -0.4223
  769MPD2     H11407   0.359   1.390  15.398  0.8174  1.4775  1.5887
  769MPD2    H111408   0.371   1.808  15.359  1.7515 -0.3150 -0.6425
  769MPD2    H211409   0.132   1.590  15.095 -0.1862 -1.3942  1.0525
  769MPD2    H311410   0.263   1.790  15.137 -2.3792  1.7488  1.7990
  769MPD2     N11411   0.436   1.619  15.511  0.1795 -0.0346  0.2313
  769MPD2    H511412   0.486   1.708  15.517 -0.6855  0.6488 -2.6280
  769MPD2    N111413   0.170   1.357  15.195  0.1707 -0.4104 -0.5016
  769MPD2    H711414   0.115   1.369  15.110  0.6686  2.0259 -0.4524
  770MPD2     C11415   0.183   0.291  15.030 -0.2375 -0.3252  0.3322
  770MPD2    C111416   0.125   0.362  14.931  0.8007 -0.1448 -0.0810
  770MPD2    C211417   0.076   0.488  14.948  0.2575 -0.5535 -0.3567
  770MPD2    C311418   0.109   0.557  15.068  1.0445  0.1134 -0.0453
  770MPD2    C411419   0.177   0.489  15.168 -0.3350  0.0504 -0.1293
  770MPD2    C511420   0.208   0.355  15.148  0.4384  0.7968  0.7504
  770MPD2     H11421   0.014   0.533  14.870 -0.3972  0.0376  0.5084
  770MPD2    H111422   0.194   0.532  15.266  1.8816 -0.7621 -0.1559
  770MPD2    H211423   0.237   0.198  15.014  0.8902  0.2169  0.9236
  770MPD2    H311424   0.257   0.295  15.225 -1.2054 -1.2297  0.1849
  770MPD2     N11425   0.079   0.697  15.076 -0.1083  0.8333 -0.3724
  770MPD2    H511426   0.020   0.733  15.001 -1.5911 -0.4669  0.1657
  770MPD2    N111427   0.101   0.280  14.818 -0.4730  0.7525  0.9652
  770MPD2    H711428   0.141   0.188  14.830 -1.8864  0.1838  1.2893
  771MPD2     C11429   1.319   3.883  13.740 -0.0399  0.5313 -0.0364
  771MPD2    C111430   1.312   3.980  13.642 -0.3012 -0.2158  0.0016
  771MPD2    C211431   1.300   3.941  13.509 -0.3195  0.1953  0.2560
  771MPD2    C311432   1.283   3.808  13.480 -0.2973 -0.7760  0.3314
  771MPD2    C411433   1.287   3.711  13.576 -0.7352 -0.7050  0.2311
  771MPD2    C511434   1.322   3.750  13.703  0.4960 -0.1608  0.7652
  771MPD2     H11435   1.299   4.022  13.437  2.1799  0.5534  0.6235
  771MPD2    H111436   1.276   3.604  13.561  1.2020 -0.7887 -0.5597
  771MPD2    H211437   1.337   3.899  13.846  0.4339 -1.2954  0.1627
  771MPD2    H311438   1.334   3.673  13.778 -0.3968 -0.9389  0.1082
  771MPD2     N11439   1.246   3.771  13.343 -0.2587 -0.0890  0.3603
  771MPD2    H511440   1.258   3.837  13.267  1.6098  1.0905  1.6611
  771MPD2    N111441   1.325   4.115  13.672 -0.2137 -0.2018  0.2320
  771MPD2    H711442   1.346   4.191  13.607 -1.8667 -1.2061 -1.4759
  772MPD2     C11443   0.947   4.565  14.266  0.4352 -0.2948  0.9475
  772MPD2    C111444   0.924   4.536  14.131 -0.5786 -0.0107 -0.2290
  772MPD2    C211445   0.792   4.503  14.089  0.0427  0.0952  0.6714
  772MPD2    C311446   0.690   4.500  14.181 -0.4801 -0.3165 -0.1737
  772MPD2    C411447   0.711   4.540  14.310  0.6684 -0.4716 -0.4727
  772MPD2    C511448   0.836   4.570  14.345  0.1393  1.3885 -0.8652
  772MPD2     H11449   0.782   4.462  13.989 -1.6354  2.0933  0.0247
  772MPD2    H111450   0.634   4.528  14.385  1.3309 -1.8865 -0.0293
  772MPD2    H211451   1.045   4.597  14.300 -0.2722  0.6979  2.0011
  772MPD2    H311452   0.852   4.598  14.449 -0.1796  0.0179 -0.4364
  772MPD2     N11453   0.560   4.459  14.151 -0.3924 -0.3000  0.7018
  772MPD2    H511454   0.497   4.448  14.230 -0.9857  2.2953  0.5952
  772MPD2    N111455   1.031   4.527  14.036  0.1042  0.0535 -0.6594
  772MPD2    H711456   1.012   4.491  13.943  0.3401  0.8579 -1.0207
  773MPD2     C11457   0.356   0.612  17.654  0.4883 -0.0718 -0.0127
  773MPD2    C111458   0.300   0.527  17.563  0.3467  0.4534 -0.3930
  773MPD2    C211459   0.280   0.396  17.597  0.1639 -0.3718 -0.7721
  773MPD2    C311460   0.317   0.343  17.717  0.2937  0.1818 -0.4459
  773MPD2    C411461   0.368   0.431   0.054 -0.3202  0.4154 -0.1583
  773MPD2    C511462   0.399   0.563   0.019 -0.3068  0.0155  0.7019
  773MPD2     H11463   0.239   0.326  17.524 -0.1560 -1.9949  0.9611
  773MPD2    H111464   0.397   0.398   0.153  0.4680 -0.0823 -0.5467
  773MPD2    H211465   0.385   0.715  17.635  0.3519 -0.0395 -0.0422
  773MPD2    H311466   0.450   0.626   0.091  1.2206 -0.7902  0.3219
  773MPD2     N11467   0.293   0.207  17.750  0.2892  0.3452 -0.4102
  773MPD2    H511468   0.232   0.147  17.695 -0.5941 -0.3082  1.2664
  773MPD2    N111469   0.253   0.570  17.438 -0.1518 -0.3235 -0.3307
  773MPD2    H711470   0.192   0.507  17.386  1.2986 -2.6498  0.7660
  774MPD2     C11471   4.294   3.967  13.115 -0.1830 -0.0279  0.6170
  774MPD2    C111472   4.208   4.004  13.224 -0.3610 -0.4471 -0.0351
  774MPD2    C211473   4.210   4.133  13.285  0.0306  0.5950  0.3080
  774MPD2    C311474   4.294   4.229  13.227 -0.4793  0.7867  0.2450
  774MPD2    C411475   4.366   4.193  13.116  0.3280 -0.1256 -0.1147
  774MPD2    C511476   4.365   4.066  13.054 -0.5855  0.2033  0.1214
  774MPD2     H11477   4.155   4.160  13.374  0.3228 -0.2683  0.7508
  774MPD2    H111478   4.429   4.263  13.063 -1.1622  0.6941 -0.7959
  774MPD2    H211479   4.304   3.870  13.068 -0.6443  0.4130 -0.3973
  774MPD2    H311480   4.406   4.050  12.955 -3.9324 -0.7064 -1.1337
  774MPD2     N11481   4.310   4.342  13.309 -0.4177  0.4780 -0.0453
  774MPD2    H511482   4.255   4.350  13.394  3.6176  1.8889  2.4429
  774MPD2    N111483   4.147   3.894  13.281  0.1293 -0.1774  0.4915
  774MPD2    H711484   4.158   3.799  13.247  0.2714 -0.3939  1.1540
  775MPD2     C11485   0.724   1.314  15.570  0.2825  0.4637 -0.0341
  775MPD2    C111486   0.820   1.360  15.660  1.0088  0.2915 -0.1166
  775MPD2    C211487   0.908   1.461  15.615 -0.3818  0.1678  0.1615
  775MPD2    C311488   0.910   1.507  15.481  0.1888 -0.3943  0.6096
  775MPD2    C411489   0.819   1.462  15.395  0.4188 -0.9383 -0.4047
  775MPD2    C511490   0.723   1.367  15.444 -0.4491 -0.4537  0.5764
  775MPD2     H11491   0.981   1.500  15.686 -0.6720  0.4982  0.2774
  775MPD2    H111492   0.816   1.494  15.291  2.9231 -0.6045 -0.3771
  775MPD2    H211493   0.637   1.255  15.597  1.5511 -0.4097  2.2385
  775MPD2    H311494   0.646   1.332  15.376 -0.6488  0.3919  0.3712
  775MPD2     N11495   1.006   1.596  15.412  0.3216 -0.1832  0.2328
  775MPD2    H511496   0.991   1.600  15.312  0.2825 -1.2575  0.1991
  775MPD2    N111497   0.820   1.308  15.797  0.2507 -0.1330  0.4273
  775MPD2    H711498   0.759   1.228  15.813  0.4508 -0.1542  1.0992
  776MPD2     C11499   3.642   1.712  11.329 -0.4583  0.8688 -0.2957
  776MPD2    C111500   3.774   1.717  11.378  0.4582  0.1830 -0.0576
  776MPD2    C211501   3.860   1.813  11.327  0.5783 -0.2766  0.2109
  776MPD2    C311502   3.831   1.900  11.224 -0.5581 -0.1396 -0.3406
  776MPD2    C411503   3.704   1.889  11.170  0.4252  0.2300  0.0030
  776MPD2    C511504   3.616   1.800  11.227  0.1850  0.4014  0.4436
  776MPD2     H11505   3.962   1.813  11.366  0.3970  0.2606  0.6804
  776MPD2    H111506   3.675   1.951  11.086 -2.6972 -0.3471  0.6764
  776MPD2    H211507   3.561   1.652  11.368  0.3318  1.1030  1.7150
  776MPD2    H311508   3.518   1.781  11.184  0.2702  2.1976 -0.5344
  776MPD2     N11509   3.931   1.979  11.156  1.0945 -0.3842 -0.5676
  776MPD2    H511510   3.904   2.002  11.060  0.8181 -0.1521 -0.4345
  776MPD2    N111511   3.817   1.613  11.473  0.7558 -0.8111 -0.5723
  776MPD2    H711512   3.749   1.543  11.500  0.8192 -1.0260 -0.9796
  777MPD2     C11513   0.227   4.166   0.568  0.1862 -0.2952 -0.4738
  777MPD2    C111514   0.252   4.095   0.679 -0.3927  0.4045  0.1531
  777MPD2    C211515   0.282   3.955   0.670  0.1408  0.2068  0.4867
  777MPD2    C311516   0.299   3.890   0.549 -0.1314 -0.5141  1.0088
  777MPD2    C411517   0.270   3.970   0.438 -0.6587  0.1851  0.7307
  777MPD2    C511518   0.229   4.097   0.449  0.5086  0.5350  0.0015
  777MPD2     H11519   0.292   3.894   0.760 -0.0500  0.2307  0.5236
  777MPD2    H111520   0.276   3.943   0.333 -0.2665  4.1513 -0.2809
  777MPD2    H211521   0.207   4.272   0.568  1.7624 -0.0001  0.7687
  777MPD2    H311522   0.188   4.149   0.364  0.4947  1.1733  0.3958
  777MPD2     N11523   0.326   3.749   0.537 -0.1119 -0.4354 -0.2536
  777MPD2    H511524   0.316   3.705   0.628  1.5986  1.9907  1.1068
  777MPD2    N111525   0.253   4.177   0.795  0.0331  0.3892  0.1827
  777MPD2    H711526   0.237   4.275   0.774  0.4133  0.3000 -0.5414
  778MPD2     C11527   1.377   4.227  14.714  0.8286  0.2427 -0.1578
  778MPD2    C111528   1.405   4.095  14.704 -0.2635  0.4899  0.4530
  778MPD2    C211529   1.511   4.059  14.619  0.6792  0.6643  0.2663
  778MPD2    C311530   1.596   4.153  14.555 -0.0378  0.2904 -0.2297
  778MPD2    C411531   1.565   4.284  14.576  0.2778  0.4907 -0.0381
  778MPD2    C511532   1.457   4.323  14.652 -0.1899  0.2577 -0.0582
  778MPD2     H11533   1.541   3.955  14.617 -0.5299  0.3187 -0.1009
  778MPD2    H111534   1.618   4.365  14.528  0.1900  0.7929  0.3800
  778MPD2    H211535   1.293   4.262  14.772  0.9603  0.8809 -0.3495
  778MPD2    H311536   1.437   4.425  14.680 -1.9027 -0.1238  0.1567
  778MPD2     N11537   1.701   4.110  14.465 -0.7395 -0.3132 -0.5111
  778MPD2    H511538   1.700   4.009  14.452 -1.4917 -0.2615 -0.8660
  778MPD2    N111539   1.334   3.994  14.772 -0.3621  0.3232 -0.0991
  778MPD2    H711540   1.363   3.902  14.743 -3.8052 -0.1900 -1.8103
  779MPD2     C11541   0.607   2.597  13.652 -0.8157  0.0772  0.3625
  779MPD2    C111542   0.724   2.585  13.724  0.9426  0.8486  0.6612
  779MPD2    C211543   0.788   2.703  13.758 -0.1173  0.1598 -1.4302
  779MPD2    C311544   0.754   2.829  13.697  0.0071 -0.2197  0.0526
  779MPD2    C411545   0.647   2.834  13.610  0.3211  0.8059 -0.4607
  779MPD2    C511546   0.568   2.721  13.597 -0.7271  1.4023  0.3412
  779MPD2     H11547   0.876   2.694  13.821 -1.9584  1.2403  1.2867
  779MPD2    H111548   0.607   2.926  13.571  0.2336  0.8997 -0.1540
  779MPD2    H211549   0.543   2.512  13.632 -0.9605  0.7313 -2.0243
  779MPD2    H311550   0.474   2.732  13.545 -1.7075  1.5436  2.1443
  779MPD2     N11551   0.834   2.939  13.727  0.3874 -0.2123 -0.8150
  779MPD2    H511552   0.903   2.927  13.800 -1.9941 -0.4995  1.3972
  779MPD2    N111553   0.774   2.462  13.776 -0.0368  0.3730  0.4477
  779MPD2    H711554   0.858   2.469  13.833 -0.2992 -0.2081  0.9086
  780MPD2     C11555   1.090   2.619   1.433 -0.2381 -0.2522 -0.9316
  780MPD2    C111556   0.991   2.656   1.343 -0.5270  0.0175 -0.4291
  780MPD2    C211557   1.030   2.695   1.216  0.7171  0.1809 -0.0240
  780MPD2    C311558   1.161   2.701   1.184 -0.2451 -0.2005  0.6131
  780MPD2    C411559   1.259   2.691   1.279  0.0432  0.5461  0.8835
  780MPD2    C511560   1.223   2.637   1.405 -0.1291  0.4105  0.3361
  780MPD2     H11561   0.963   2.691   1.131  0.3503 -0.7647  0.3063
  780MPD2    H111562   1.365   2.695   1.259  0.2441 -2.2010  1.5038
  780MPD2    H211563   1.055   2.581   1.528  1.6849 -0.1236 -0.1689
  780MPD2    H311564   1.298   2.618   1.481 -0.1190  1.1143  0.5075
  780MPD2     N11565   1.195   2.711   1.047 -0.2576  0.1416  0.1864
  780MPD2    H511566   1.120   2.678   0.987  0.2111 -1.8274  0.6800
  780MPD2    N111567   0.864   2.610   1.380  0.5965  0.8554 -0.2584
  780MPD2    H711568   0.869   2.549   1.462  0.6470  2.3426  0.8367
  781MPD2     C11569   1.743   0.274  12.446  0.5293  0.3985  0.3426
  781MPD2    C111570   1.794   0.153  12.411 -0.1885 -0.1972  0.1257
  781MPD2    C211571   1.866   0.146  12.291  0.9022  1.0038 -0.0463
  781MPD2    C311572   1.883   0.258  12.212  0.0660 -0.0039  0.4358
  781MPD2    C411573   1.818   0.378  12.239 -0.0316  0.4196 -0.1813
  781MPD2    C511574   1.750   0.383  12.358 -0.2034 -0.0237  0.6122
  781MPD2     H11575   1.909   0.051  12.263  0.3087  0.6108  0.3903
  781MPD2    H111576   1.818   0.465  12.174  0.5278  1.2726  0.9606
  781MPD2    H211577   1.678   0.285  12.532 -0.2447  1.6383 -0.3952
  781MPD2    H311578   1.697   0.473  12.387  0.4753  0.3384  0.7177
  781MPD2     N11579   1.963   0.268  12.094 -0.7976  0.2566 -0.2098
  781MPD2    H511580   1.958   0.358  12.048 -1.0362  0.9794  1.2484
  781MPD2    N111581   1.775   0.031  12.482 -0.5317  0.1632  0.0886
  781MPD2    H711582   1.791   4.689  12.423  0.1050  0.4022 -0.0719
  782MPD2     C11583   4.573   0.748  10.169 -0.0195  0.5359  0.2205
  782MPD2    C111584   4.660   0.714  10.273  0.1806 -0.6729  0.2430
  782MPD2    C211585   4.707   0.814  10.359 -0.5880 -1.0830 -0.0936
  782MPD2    C311586   4.659   0.943  10.345  0.0528 -1.1962  0.0291
  782MPD2    C411587   4.565   0.975  10.251 -1.0880 -0.1090 -0.2705
  782MPD2    C511588   4.525   0.870  10.166  0.0078  0.3313  0.0812
  782MPD2     H11589   0.056   0.792  10.418 -0.4086 -1.3558 -0.4651
  782MPD2    H111590   4.538   1.079  10.236 -2.1743 -0.4052 -0.3393
  782MPD2    H211591   4.539   0.681  10.091 -0.7947  0.4618  0.6197
  782MPD2    H311592   4.453   0.897  10.089  1.2402  2.3851 -0.3699
  782MPD2     N11593   4.706   1.042  10.432 -0.2825 -0.0301 -0.0743
  782MPD2    H511594   0.016   1.007  10.514 -1.5278  1.5600  1.3576
  782MPD2    N111595   4.716   0.584  10.293  0.7289  0.3144  0.6548
  782MPD2    H711596   0.050   0.581  10.363 -1.8575 -1.8942  3.2887
  783MPD2     C11597   4.171   0.074  10.711 -0.1952 -0.3673  0.0278
  783MPD2    C111598   4.228   0.192  10.744  0.4209 -0.0299 -0.3834
  783MPD2    C211599   4.351   0.218  10.692  0.1156  0.0323 -0.0860
  783MPD2    C311600   4.420   0.124  10.624  0.3646 -0.5841  0.8842
  783MPD2    C411601   4.365   0.004  10.604  0.4967 -0.0756 -0.3268
  783MPD2    C511602   4.237   4.719  10.639  0.2219  0.4329  0.6282
  783MPD2     H11603   4.407   0.308  10.714 -1.5671  0.8374  0.9541
  783MPD2    H111604   4.418   4.662  10.555  0.6143  1.5009 -2.8159
  783MPD2    H211605   4.077   0.036  10.749  0.6848 -2.5032  0.0609
  783MPD2    H311606   4.191   4.621  10.642 -1.2168  1.0671 -0.5417
  783MPD2     N11607   4.550   0.157  10.570 -0.0891  0.3921  0.1969
  783MPD2    H511608   4.586   0.251  10.581  1.2888  0.0874 -1.5938
  783MPD2    N111609   4.169   0.276  10.839  0.2888  0.6128 -0.6094
  783MPD2    H711610   4.069   0.261  10.844  0.2352  1.0855 -0.1859
  784MPD2     C11611   2.711   0.856   0.561 -0.8240  0.8902 -0.6702
  784MPD2    C111612   2.757   0.984   0.596  0.4647  0.0055 -0.1515
  784MPD2    C211613   2.662   1.074   0.629  0.3077 -0.3794  0.2810
  784MPD2    C311614   2.527   1.050   0.616 -0.1905  0.3502  0.0816
  784MPD2    C411615   2.482   0.930   0.578  0.0681  0.0411  0.0040
  784MPD2    C511616   2.574   0.835   0.547 -0.1725 -0.2698  0.1683
  784MPD2     H11617   2.698   1.174   0.651 -0.6200 -0.2351  1.1593
  784MPD2    H111618   2.380   0.895   0.569  0.0910 -0.3019  1.0656
  784MPD2    H211619   2.778   0.772   0.547 -1.5068  0.4759 -1.4917
  784MPD2    H311620   2.536   0.739   0.515  1.8826  0.0430 -3.1683
  784MPD2     N11621   2.440   1.158   0.633 -0.0941  0.3922  0.2747
  784MPD2    H511622   2.489   1.247   0.627 -1.0082  0.8005 -1.3347
  784MPD2    N111623   2.894   1.018   0.585  0.5245  0.0257  0.0897
  784MPD2    H711624   2.924   1.104   0.631  1.5971 -0.4890  0.3384
  785MPD2     C11625   2.491   4.543  11.250 -0.2152 -0.1760 -0.3448
  785MPD2    C111626   2.368   4.569  11.204  0.3187 -0.9831 -0.4788
  785MPD2    C211627   2.313   4.478  11.117  0.1328  0.5408  0.1622
  785MPD2    C311628   2.374   4.362  11.073 -0.1296 -0.4083  0.6195
  785MPD2    C411629   2.503   4.336  11.115  0.5039  0.0810  0.1173
  785MPD2    C511630   2.556   4.432  11.203 -0.5541 -0.1983 -0.2023
  785MPD2     H11631   2.207   4.476  11.096 -0.1127  1.9559  1.2211
  785MPD2    H111632   2.558   4.245  11.090  1.5030  0.1299  2.0789
  785MPD2    H211633   2.541   4.614  11.315  0.3704 -1.4353  0.5871
  785MPD2    H311634   2.659   4.437  11.234 -1.5941 -1.8291  3.5595
  785MPD2     N11635   2.301   4.272  10.991  0.7415  0.2536 -0.2844
  785MPD2    H511636   2.209   4.306  10.965 -1.0864 -4.6954 -0.2524
  785MPD2    N111637   2.300   4.689  11.243  0.0258  0.2591 -0.1616
  785MPD2    H711638   2.207   4.707  11.208 -0.4850  1.0821  1.6266
  786MPD2     C11639   1.754   2.057  14.523  0.1796 -0.1907  0.2127
  786MPD2    C111640   1.712   1.972  14.627  0.3272  0.3838  0.4187
  786MPD2    C211641   1.766   1.988  14.757 -0.3065  1.1743  0.0281
  786MPD2    C311642   1.847   2.097  14.787  0.5107 -0.0512 -0.3006
  786MPD2    C411643   1.883   2.179  14.687 -0.8140 -0.2397  0.5342
  786MPD2    C511644   1.827   2.171  14.561 -0.3968  0.0820 -0.3891
  786MPD2     H11645   1.744   1.923  14.841  0.8631  2.2990  1.2225
  786MPD2    H111646   1.948   2.264  14.706  0.1647 -1.5348  3.0304
  786MPD2    H211647   1.711   2.053  14.423 -0.3330 -0.3709  0.4382
  786MPD2    H311648   1.845   2.246  14.485  0.0170  0.6504  0.2780
  786MPD2     N11649   1.897   2.122  14.913  0.1643  0.3343 -0.3389
  786MPD2    H511650   1.968   2.193  14.923  0.6829 -0.0997 -0.9208
  786MPD2    N111651   1.633   1.860  14.605 -0.3543 -0.3455 -0.3757
  786MPD2    H711652   1.626   1.794  14.682  0.4479  0.4510  0.3925
  787MPD2     C11653   1.947   1.303  14.702 -0.2197 -0.1044 -0.4312
  787MPD2    C111654   1.843   1.294  14.605  0.2805 -0.1610 -0.5928
  787MPD2    C211655   1.870   1.206  14.499 -0.2742 -0.6451 -0.4494
  787MPD2    C311656   1.964   1.112  14.502  0.7142  0.6893 -0.4257
  787MPD2    C411657   2.050   1.104  14.610  0.6078 -1.7462 -1.2272
  787MPD2    C511658   2.041   1.204  14.703  0.4153  0.0981 -0.9302
  787MPD2     H11659   1.810   1.209  14.409 -0.9383  0.7782  0.0478
  787MPD2    H111660   2.107   1.015  14.634  0.7523 -1.5815 -0.9567
  787MPD2    H211661   1.951   1.387  14.771  1.7982 -0.3903 -0.2147
  787MPD2    H311662   2.107   1.198  14.789 -1.8803 -0.9357  0.7693
  787MPD2     N11663   1.978   1.031  14.393 -0.2728 -0.6465 -0.3684
  787MPD2    H511664   1.922   1.042  14.308  2.3364  0.3895 -1.9628
  787MPD2    N111665   1.737   1.389  14.584  0.1660 -0.0536 -0.2086
  787MPD2    H711666   1.751   1.470  14.645 -2.5083 -1.3001  2.0556
  788MPD2     C11667   4.087   0.465   0.227 -0.2900 -0.0633 -0.0293
  788MPD2    C111668   3.983   0.469   0.135 -0.8440  0.2518  0.6493
  788MPD2    C211669   3.956   0.590   0.070  0.3525  0.4926 -0.3816
  788MPD2    C311670   4.025   0.705   0.104  0.3994  0.0245 -0.4699
  788MPD2    C411671   4.133   0.695   0.190  0.2425 -0.1099  0.3246
  788MPD2    C511672   4.162   0.577   0.250 -0.2363  0.5247  0.8168
  788MPD2     H11673   3.875   0.587  17.752  0.8514  0.2811 -0.9327
  788MPD2    H111674   4.181   0.787   0.222  0.5005  0.1102 -0.6875
  788MPD2    H211675   4.116   0.380   0.288 -1.0879 -0.9436 -0.8895
  788MPD2    H311676   4.247   0.567   0.316  1.5910 -1.7444 -1.9373
  788MPD2     N11677   3.989   0.836   0.067 -0.7548 -0.0884  0.5713
  788MPD2    H511678   4.057   0.908   0.087  1.1715 -1.6125 -0.4247
  788MPD2    N111679   3.901   0.358   0.107  1.0515  0.1110  0.7409
  788MPD2    H711680   3.840   0.358   0.026  0.6570  1.0792  1.0406
  789MPD2     C11681   3.617   4.727  16.727 -0.4194 -0.2369  0.1089
  789MPD2    C111682   3.593   0.068  16.613 -0.0936 -0.2472 -0.6514
  789MPD2    C211683   3.526   0.186  16.631 -0.1446 -0.3886  0.1128
  789MPD2    C311684   3.473   0.215  16.757 -0.1777  0.4041 -0.1847
  789MPD2    C411685   3.489   0.123  16.862 -0.8224  0.1883  0.6667
  789MPD2    C511686   3.564   0.013  16.858  0.0705 -0.0610 -0.4277
  789MPD2     H11687   3.502   0.245  16.543 -2.9580  0.7683  1.6200
  789MPD2    H111688   3.445   0.132  16.961  0.3181  0.9899  1.1105
  789MPD2    H211689   3.678   4.637  16.719  2.5618  1.9118 -1.0604
  789MPD2    H311690   3.580   4.686  16.942 -0.0782 -1.5566 -1.5710
  789MPD2     N11691   3.384   0.320  16.796  0.2498  0.3762 -0.6080
  789MPD2    H511692   3.323   0.311  16.877  0.7135  3.4343  0.1026
  789MPD2    N111693   3.625   0.032  16.481  0.2194  0.4412  0.1669
  789MPD2    H711694   3.611   0.100  16.406 -0.9414 -1.7367 -1.5903
  790MPD2     C11695   4.375   1.785  13.575 -0.6893  0.2380 -0.0579
  790MPD2    C111696   4.452   1.669  13.590  0.9048  0.2720 -0.1409
  790MPD2    C211697   4.465   1.582  13.487  0.2918 -0.1977  0.5310
  790MPD2    C311698   4.395   1.601  13.371  0.1265  0.1448 -0.5742
  790MPD2    C411699   4.328   1.724  13.353  0.3782 -0.4596 -0.2592
  790MPD2    C511700   4.328   1.818  13.454  0.1490  0.4389  1.1079
  790MPD2     H11701   4.531   1.496  13.494 -0.3618 -0.5885  1.8862
  790MPD2    H111702   4.265   1.748  13.268  0.2941  0.0622 -0.0440
  790MPD2    H211703   4.360   1.863  13.650 -1.3921  0.6854 -0.6648
  790MPD2    H311704   4.272   1.910  13.440  1.8331  1.3373  0.1775
  790MPD2     N11705   4.403   1.498  13.269  0.2551  0.3252 -0.1210
  790MPD2    H511706   4.444   1.408  13.290  0.6855  0.4635 -0.3609
  790MPD2    N111707   4.516   1.654  13.716 -0.0229  0.0316  0.4426
  790MPD2    H711708   4.496   1.723  13.788 -0.0753 -1.1544  1.5677
  791MPD2     C11709   3.778   1.313  12.809 -0.2403 -0.5070  0.0680
  791MPD2    C111710   3.855   1.211  12.866 -0.1003  0.2815  0.3690
  791MPD2    C211711   3.786   1.095  12.908  0.2445 -0.0338 -0.5646
  791MPD2    C311712   3.649   1.083  12.879  0.1505 -0.1816 -0.2222
  791MPD2    C411713   3.587   1.188  12.819 -0.5753  0.1623  0.0570
  791MPD2    C511714   3.644   1.303  12.790 -0.2663 -0.8124 -0.0192
  791MPD2     H11715   3.835   1.015  12.961  3.3104  1.1346 -1.6608
  791MPD2    H111716   3.480   1.178  12.802 -0.4991  2.2215 -1.6824
  791MPD2    H211717   3.823   1.408  12.785 -1.3537 -0.0553 -0.2272
  791MPD2    H311718   3.590   1.383  12.740  0.0212 -0.0402  0.9069
  791MPD2     N11719   3.572   0.969  12.913  0.2057  0.1534 -0.0845
  791MPD2    H511720   3.476   0.969  12.878  0.9483 -1.8680 -2.1569
  791MPD2    N111721   3.993   1.241  12.884  0.7711 -0.1585 -0.1011
  791MPD2    H711722   4.026   1.327  12.843 -2.9843  0.7562 -1.1495
  792MPD2     C11723   4.558   1.572  10.741 -0.4753  0.3644 -0.0666
  792MPD2    C111724   4.452   1.655  10.719  0.5098 -0.2231  0.1572
  792MPD2    C211725   4.354   1.653  10.814  0.2755  0.3989  0.7377
  792MPD2    C311726   4.346   1.549  10.901 -0.3350  0.7923 -0.5576
  792MPD2    C411727   4.438   1.453  10.903  0.5261  0.3264  0.3535
  792MPD2    C511728   4.555   1.471  10.834  0.3257 -0.0956 -0.1614
  792MPD2     H11729   4.270   1.720  10.808 -0.7840 -1.0197 -0.3707
  792MPD2    H111730   4.432   1.370  10.972 -0.8976  0.7619  0.7645
  792MPD2    H211731   4.640   1.581  10.670 -0.7008 -0.7494 -0.4584
  792MPD2    H311732   4.636   1.400  10.835  0.6855  0.3177 -0.1795
  792MPD2     N11733   4.245   1.551  11.000  0.4693 -0.4868 -0.1450
  792MPD2    H511734   4.245   1.467  11.057 -0.1549 -0.6524 -0.3958
  792MPD2    N111735   4.461   1.758  10.624  0.0085  0.1680 -0.2868
  792MPD2    H711736   4.556   1.782  10.594  0.6021 -1.3328  0.4057
  793MPD2     C11737   3.493   1.657  10.576  0.3067  0.2940  0.4962
  793MPD2    C111738   3.627   1.686  10.556 -0.4353 -0.2503  0.3125
  793MPD2    C211739   3.717   1.696  10.661  0.3587 -0.5620  0.6082
  793MPD2    C311740   3.671   1.651  10.784  0.1428  0.0668  0.9142
  793MPD2    C411741   3.536   1.624  10.803  0.0481 -0.2737  0.4276
  793MPD2    C511742   3.447   1.635  10.699  1.0412 -0.1585 -0.5094
  793MPD2     H11743   3.822   1.701  10.635  0.7369  1.1093  2.4568
  793MPD2    H111744   3.497   1.615  10.903  1.9472  0.9129  1.2710
  793MPD2    H211745   3.423   1.646  10.494  0.6417  0.5158  0.1845
  793MPD2    H311746   3.344   1.610  10.720  0.9558  2.2786  1.9107
  793MPD2     N11747   3.766   1.634  10.884 -0.1927 -0.0424  0.4797
  793MPD2    H511748   3.860   1.656  10.854 -0.3672  0.8312  0.5989
  793MPD2    N111749   3.680   1.712  10.427  0.3058 -0.3335  0.3993
  793MPD2    H711750   3.774   1.749  10.425  0.6583 -1.1640  1.6606
  794MPD2     C11751   0.134   0.868  16.662  0.0649 -0.2593  0.4248
  794MPD2    C111752   0.054   0.941  16.743  0.3212  0.2314  0.3672
  794MPD2    C211753   4.700   1.030  16.683 -0.0102  0.4044 -0.0264
  794MPD2    C311754   4.712   1.049  16.547  0.8263 -0.6200 -0.4465
  794MPD2    C411755   0.053   0.971  16.467 -0.3428 -0.1818 -0.2873
  794MPD2    C511756   0.128   0.876  16.529  0.4850 -0.5120  0.4680
  794MPD2     H11757   4.629   1.078  16.749 -3.6947 -4.5749 -0.3333
  794MPD2    H111758   0.050   0.985  16.359  0.0292 -0.9331 -0.4008
  794MPD2    H211759   0.200   0.790  16.698 -1.5170 -1.1537  1.3635
  794MPD2    H311760   0.190   0.811  16.468 -0.3680 -1.3871  0.5357
  794MPD2     N11761   4.637   1.150  16.476 -0.6085 -0.5366 -0.0592
  794MPD2    H511762   4.655   1.151  16.376 -1.4019 -1.3747 -0.2055
  794MPD2    N111763   0.047   0.924  16.881  0.1810  0.2796 -0.2198
  794MPD2    H711764   4.699   0.954  16.924  0.8938  1.9207  0.0846
  795MPD2     C11765   2.258   3.026  13.460  0.2005 -0.1022 -0.4903
  795MPD2    C111766   2.149   2.948  13.492 -0.2199 -0.4590 -0.0226
  795MPD2    C211767   2.168   2.833  13.560  0.3543 -0.9338 -0.2135
  795MPD2    C311768   2.296   2.791  13.592 -0.0007 -0.0357 -0.9663
  795MPD2    C411769   2.405   2.866  13.559  0.1605  0.3460 -0.8688
  795MPD2    C511770   2.384   2.985  13.495  0.9328 -0.6249  0.2315
  795MPD2     H11771   2.081   2.772  13.586 -0.8629  0.3667 -1.2226
  795MPD2    H111772   2.506   2.833  13.577  0.1041  0.4514 -0.3626
  795MPD2    H211773   2.251   3.109  13.391 -2.2983  0.9793  1.0992
  795MPD2    H311774   2.470   3.042  13.463 -0.4083  1.5586  0.4642
  795MPD2     N11775   2.313   2.673  13.670  0.1816 -0.2885 -0.2760
  795MPD2    H511776   2.226   2.630  13.702 -0.2534  0.7672 -0.0459
  795MPD2    N111777   2.012   2.981  13.459  0.0392 -0.3161 -0.5003
  795MPD2    H711778   1.938   2.919  13.490  0.5817 -0.0821  1.2707
  796MPD2     C11779   2.415   0.027  15.893 -0.5070 -0.2415 -0.2714
  796MPD2    C111780   2.362   0.098  16.005 -0.4102  0.3617 -0.1891
  796MPD2    C211781   2.279   0.207  15.974  0.4793  0.3665 -0.2580
  796MPD2    C311782   2.237   0.234  15.844  0.5991  0.3097 -0.5391
  796MPD2    C411783   2.289   0.158  15.738 -0.4319  0.2353 -0.3491
  796MPD2    C511784   2.378   0.062  15.766 -0.1111 -0.4391  0.2564
  796MPD2     H11785   2.242   0.269  16.055 -0.7223  1.1237 -1.3883
  796MPD2    H111786   2.251   0.165  15.637  0.8131  0.0391 -0.8368
  796MPD2    H211787   2.462   4.669  15.899 -1.2732 -0.5690  0.5139
  796MPD2    H311788   2.406   4.737  15.683 -0.1323  2.1688 -1.7539
  796MPD2     N11789   2.151   0.348  15.823  0.1526  0.0442  0.1723
  796MPD2    H511790   2.144   0.425  15.890 -2.2174 -0.9676  1.1016
  796MPD2    N111791   2.392   0.062  16.140  0.7323  0.4617  0.3465
  796MPD2    H711792   2.453   4.721  16.151 -1.1750 -1.1528 -1.0673
  797MPD2     C11793   2.973   4.187  17.631  0.2554  0.2500  0.0371
  797MPD2    C111794   3.065   4.192  17.535  0.2992 -0.3458 -0.7918
  797MPD2    C211795   3.083   4.311  17.462 -0.3513  0.2557  0.5448
  797MPD2    C311796   3.008   4.421  17.493 -0.0468  0.0003  0.4477
  797MPD2    C411797   2.912   4.420  17.597 -0.6914  0.3669  0.0085
  797MPD2    C511798   2.896   4.298  17.656 -0.4613  0.0917 -0.7623
  797MPD2     H11799   3.165   4.303  17.392  1.0677 -2.4247  2.4816
  797MPD2    H111800   2.854   4.506  17.627  0.3036  0.4491  1.6781
  797MPD2    H211801   2.963   4.102  17.697 -0.3635  0.7353  0.5621
  797MPD2    H311802   2.832   4.297  17.744  1.4578  0.9477  0.6450
  797MPD2     N11803   3.039   4.540  17.430  0.6503  0.1806  0.5760
  797MPD2    H511804   3.107   4.529  17.354  0.8567  1.2167  0.6020
  797MPD2    N111805   3.156   4.088  17.509  0.4360 -0.9643 -0.3828
  797MPD2    H711806   3.217   4.106  17.430 -0.4701  0.3652 -0.7972
  798MPD2     C11807   3.479   4.412  16.968  0.0370  0.0653  0.0414
  798MPD2    C111808   3.442   4.444  17.094  0.0794 -0.6240 -0.4003
  798MPD2    C211809   3.445   4.346  17.192 -0.4817 -0.1134  0.0771
  798MPD2    C311810   3.491   4.216  17.158 -0.2393  0.1923 -0.3049
  798MPD2    C411811   3.527   4.180  17.029 -0.1815 -0.3556 -0.0192
  798MPD2    C511812   3.530   4.287  16.942 -0.7110  0.5803 -0.2091
  798MPD2     H11813   3.418   4.368  17.295  3.1432 -2.8302  1.5953
  798MPD2    H111814   3.557   4.082  16.994  1.5345 -0.5348  1.9656
  798MPD2    H211815   3.470   4.482  16.886 -1.0344 -1.6263 -1.2579
  798MPD2    H311816   3.562   4.267  16.841  1.7682  3.0242  0.0984
  798MPD2     N11817   3.482   4.114  17.253 -0.0861 -0.5588 -0.8245
  798MPD2    H511818   3.448   4.153  17.340  0.4592 -1.0333 -0.3980
  798MPD2    N111819   3.401   4.571  17.122  0.5828 -0.7534 -0.0670
  798MPD2    H711820   3.349   4.606  17.042 -0.6128 -0.9257  0.6506
  799MPD2     C11821   1.736   0.851  14.834  0.3261 -0.5003 -0.1343
  799MPD2    C111822   1.657   0.766  14.774 -0.0799  0.3925 -0.1153
  799MPD2    C211823   1.565   0.821  14.685 -0.1486 -0.2829 -0.9309
  799MPD2    C311824   1.553   0.951  14.660 -0.5555 -0.0492 -0.5279
  799MPD2    C411825   1.629   1.038  14.725  0.1150 -0.4096 -0.2801
  799MPD2    C511826   1.732   0.985  14.803  0.3395  1.1019 -0.1617
  799MPD2     H11827   1.503   0.744  14.641  0.2670 -2.4016  2.1599
  799MPD2    H111828   1.619   1.145  14.707 -1.1887 -0.6507 -1.0710
  799MPD2    H211829   1.811   0.821  14.906  0.4315 -0.3757 -0.1906
  799MPD2    H311830   1.798   1.057  14.850  1.5582 -0.0359 -0.1317
  799MPD2     N11831   1.467   0.995  14.559 -0.7232 -0.6745 -0.4965
  799MPD2    H511832   1.475   1.091  14.528 -0.3395  0.1783  2.1621
  799MPD2    N111833   1.644   0.627  14.803  0.2006 -0.0008 -0.4937
  799MPD2    H711834   1.578   0.569  14.753  0.2999 -0.5118 -0.0406
  800MPD2     C11835   2.049   1.834  14.340 -0.2421  0.3247  0.1126
  800MPD2    C111836   2.104   1.826  14.211  0.5502  0.0290 -0.0355
  800MPD2    C211837   2.024   1.781  14.109 -0.6380  0.3621  0.0127
  800MPD2    C311838   1.897   1.723  14.134  0.0994  0.1845 -0.3408
  800MPD2    C411839   1.849   1.725  14.260  0.4919  0.1763 -0.3373
  800MPD2    C511840   1.921   1.789  14.359 -0.5646 -0.6556  0.6769
  800MPD2     H11841   2.066   1.778  14.009 -0.7031  0.2153 -0.0101
  800MPD2    H111842   1.747   1.705  14.291  0.4789 -2.0320 -1.7684
  800MPD2    H211843   2.099   1.882  14.423 -0.7521  2.2458 -0.6738
  800MPD2    H311844   1.886   1.788  14.462  2.1370 -2.5991  1.5743
  800MPD2     N11845   1.826   1.674  14.021  0.5277  0.6120 -0.1931
  800MPD2    H511846   1.878   1.672  13.934 -1.7092 -1.6960 -1.4577
  800MPD2    N111847   2.223   1.899  14.188  0.6491  0.6296  0.0276
  800MPD2    H711848   2.257   1.958  14.263 -0.0262 -1.5174  2.0318
  801MPD2     C11849   2.354   2.575  14.162 -0.3517 -1.4947  0.3451
  801MPD2    C111850   2.313   2.477  14.257  0.7555  0.6895 -0.7157
  801MPD2    C211851   2.213   2.500  14.346  0.0918  0.2333 -0.2067
  801MPD2    C311852   2.140   2.618  14.350  1.0321 -0.1936  0.3297
  801MPD2    C411853   2.172   2.714  14.251  0.2012 -0.6906  0.1390
  801MPD2    C511854   2.279   2.690  14.164 -0.5151  0.1976  0.2783
  801MPD2     H11855   2.196   2.431  14.427  0.9664  0.5934  0.2801
  801MPD2    H111856   2.124   2.810  14.234  1.0662 -0.8548 -3.2041
  801MPD2    H211857   2.441   2.569  14.098 -1.3668 -0.2335 -1.1456
  801MPD2    H311858   2.293   2.764  14.086 -2.3646 -0.4009 -0.6217
  801MPD2     N11859   2.046   2.633  14.450  0.2717 -0.3216  0.3095
  801MPD2    H511860   2.053   2.565  14.526 -0.9321 -0.5183  0.2459
  801MPD2    N111861   2.363   2.350  14.260  0.1605  0.4465 -0.5553
  801MPD2    H711862   2.300   2.287  14.309  0.3052  0.4081 -0.4177
  802MPD2     C11863   1.100   2.722  17.069  0.3255 -0.1429  0.0483
  802MPD2    C111864   1.205   2.717  17.163 -0.3786  0.4615 -0.5106
  802MPD2    C211865   1.317   2.651  17.126 -0.3675 -0.1005 -0.8548
  802MPD2    C311866   1.336   2.607  16.997 -0.8699  0.0964  0.4524
  802MPD2    C411867   1.238   2.631  16.898  0.2918 -0.3785 -0.9945
  802MPD2    C511868   1.116   2.675  16.942  0.3857  0.2569 -0.0222
  802MPD2     H11869   1.397   2.640  17.199 -1.3843 -0.9198  0.1351
  802MPD2    H111870   1.257   2.605  16.795 -1.3652 -3.5891 -0.5058
  802MPD2    H211871   0.998   2.752  17.091  0.7493 -0.0159  1.8470
  802MPD2    H311872   1.027   2.687  16.882  0.5702 -0.0578 -0.3551
  802MPD2     N11873   1.463   2.546  16.969  0.1760  0.1953 -0.2106
  802MPD2    H511874   1.520   2.528  17.051  0.2518  0.1461 -0.2737
  802MPD2    N111875   1.188   2.763  17.296 -0.2010 -0.2718 -0.5371
  802MPD2    H711876   1.265   2.741  17.359 -0.9924  1.2217  0.9542
  803MPD2     C11877   1.891   0.788  12.222  0.2628 -0.3504  0.6914
  803MPD2    C111878   1.990   0.885  12.193  0.0875 -0.0780  0.0418
  803MPD2    C211879   2.070   0.935  12.297  0.0314 -0.1342 -0.3705
  803MPD2    C311880   2.051   0.887  12.424 -0.7331 -0.1652  0.4766
  803MPD2    C411881   1.956   0.791  12.450 -0.6059 -0.0840  0.1320
  803MPD2    C511882   1.868   0.750  12.352  0.9170 -0.4953 -0.2935
  803MPD2     H11883   2.147   1.007  12.273 -1.3141  0.6244 -2.4468
  803MPD2    H111884   1.930   0.774  12.554 -0.3359 -2.4408 -0.1776
  803MPD2    H211885   1.828   0.742  12.146  1.2584  0.7489 -0.8019
  803MPD2    H311886   1.785   0.686  12.380  0.6381  0.4088  0.9632
  803MPD2     N11887   2.127   0.927  12.534 -1.1045 -0.3095  0.3075
  803MPD2    H511888   2.109   0.878  12.621  0.7479 -0.7741  0.4302
  803MPD2    N111889   2.013   0.929  12.063  0.2687 -0.2658 -0.0089
  803MPD2    H711890   2.080   1.001  12.038 -0.1545 -0.0961 -0.6705
  804MPD2     C11891   2.735   2.689  17.397 -0.7490 -0.0564  0.0005
  804MPD2    C111892   2.628   2.767  17.428 -0.4903  0.7482  0.2376
  804MPD2    C211893   2.652   2.898  17.465  0.2334  0.0516  0.4212
  804MPD2    C311894   2.778   2.956  17.453  0.3885 -0.3635 -0.1349
  804MPD2    C411895   2.884   2.881  17.398 -0.2882 -0.1903  0.5205
  804MPD2    C511896   2.859   2.749  17.373  0.6343 -1.1443  1.0827
  804MPD2     H11897   2.570   2.956  17.505  0.6643  1.0171 -0.0893
  804MPD2    H111898   2.988   2.909  17.385 -0.4576  0.2180  0.0530
  804MPD2    H211899   2.731   2.587  17.359 -2.2627 -0.4562  1.2431
  804MPD2    H311900   2.933   2.682  17.330  0.2372  0.8446 -2.7276
  804MPD2     N11901   2.790   3.093  17.497  0.1101 -0.9545  0.5728
  804MPD2    H511902   2.708   3.142  17.533  0.4928  1.3058 -1.6341
  804MPD2    N111903   2.503   2.704  17.430 -0.0964 -0.4793 -0.2005
  804MPD2    H711904   2.420   2.756  17.457  0.4964 -0.8414  2.3377
  805MPD2     C11905   1.503   1.552  15.439 -0.0749 -0.2895  0.3768
  805MPD2    C111906   1.539   1.437  15.380 -1.0625  0.6122  0.2516
  805MPD2    C211907   1.672   1.406  15.384  0.1473 -0.2843 -0.5861
  805MPD2    C311908   1.766   1.482  15.451 -0.8935 -0.0437 -0.5346
  805MPD2    C411909   1.724   1.605  15.495  0.5031  0.0759 -0.4283
  805MPD2    C511910   1.597   1.631  15.506  0.0344  0.3551  0.2738
  805MPD2     H11911   1.710   1.314  15.341 -1.8687 -1.3208 -0.1127
  805MPD2    H111912   1.793   1.681  15.531  0.8207 -0.3627 -0.1135
  805MPD2    H211913   1.399   1.574  15.458  0.2859  1.0006  0.8546
  805MPD2    H311914   1.569   1.726  15.549  0.1683  0.0794  0.9720
  805MPD2     N11915   1.901   1.438  15.459  0.1785 -0.4581 -0.0453
  805MPD2    H511916   1.927   1.350  15.416  0.2370 -0.0849 -0.7684
  805MPD2    N111917   1.463   1.344  15.309 -0.1317 -0.2584  0.1500
  805MPD2    H711918   1.511   1.268  15.262 -0.0797 -0.0882 -0.0699
  806MPD2     C11919   1.955   0.119   1.192 -0.3252 -0.4030  0.2334
  806MPD2    C111920   2.083   0.163   1.168 -0.1431  0.1593  0.2437
  806MPD2    C211921   2.148   0.142   1.051 -0.0766  0.6707  0.6980
  806MPD2    C311922   2.084   0.085   0.944 -0.2002 -0.2921 -0.3758
  806MPD2    C411923   1.951   0.040   0.966  0.2104 -0.4088 -1.2845
  806MPD2    C511924   1.887   0.058   1.084  0.1728  0.0722 -0.0374
  806MPD2     H11925   2.246   0.188   1.045  0.8101 -0.8057  3.7859
  806MPD2    H111926   1.893   4.732   0.887  0.0693 -4.1335  1.0378
  806MPD2    H211927   1.898   0.129   1.283  1.0942  0.8553  0.9813
  806MPD2    H311928   1.789   0.014   1.102 -0.4878  1.6416  0.2569
  806MPD2     N11929   2.149   0.071   0.823 -0.0364  0.5197 -0.4521
  806MPD2    H511930   2.243   0.109   0.832  1.2739 -2.5381 -1.2174
  806MPD2    N111931   2.151   0.216   1.284  0.3617 -0.1880 -0.0857
  806MPD2    H711932   2.090   0.220   1.365 -1.1711  1.2675 -1.3082
  807MPD2     C11933   2.129   0.829   1.730 -0.0101  0.3446  0.5878
  807MPD2    C111934   2.098   0.743   1.620 -0.2484 -0.0731 -0.6169
  807MPD2    C211935   1.968   0.749   1.573 -0.3162  0.1826 -0.1811
  807MPD2    C311936   1.879   0.842   1.622 -0.3106  0.4263 -0.2296
  807MPD2    C411937   1.915   0.926   1.726 -0.2999 -0.0934  0.0133
  807MPD2    C511938   2.040   0.912   1.783 -0.3321  0.4516  0.0052
  807MPD2     H11939   1.933   0.701   1.482  0.1355  2.0357 -1.3346
  807MPD2    H111940   1.860   1.014   1.757 -0.9312 -0.3165 -0.4789
  807MPD2    H211941   2.229   0.830   1.771  0.0337  2.5081  0.4383
  807MPD2    H311942   2.066   0.969   1.872  1.4386 -1.0186  0.4327
  807MPD2     N11943   1.745   0.846   1.559  0.0678  0.0396 -0.3977
  807MPD2    H511944   1.712   0.778   1.491 -0.9024  0.5038 -0.3900
  807MPD2    N111945   2.181   0.642   1.563 -0.4012  0.0917  0.1328
  807MPD2    H711946   2.134   0.589   1.491 -1.8547  1.7075 -0.1201
  808MPD2     C11947   1.755   2.322  10.075 -0.3989 -0.5359  0.5472
  808MPD2    C111948   1.710   2.379   9.953 -0.3158  0.0256 -0.0462
  808MPD2    C211949   1.694   2.515   9.949  0.2789 -0.1957  0.8883
  808MPD2    C311950   1.722   2.598  10.063  0.7965  0.1486  0.3981
  808MPD2    C411951   1.775   2.534  10.173  0.2077  0.4697  0.4998
  808MPD2    C511952   1.788   2.397  10.183 -0.1896  1.1357  0.1929
  808MPD2     H11953   1.662   2.571   9.862 -0.9317  0.1240  1.5412
  808MPD2    H111954   1.814   2.595  10.253  0.8695  0.2249  0.3633
  808MPD2    H211955   1.777   2.218  10.092  0.7816 -0.8273 -2.7955
  808MPD2    H311956   1.833   2.349  10.269 -0.6333 -0.0884 -0.2611
  808MPD2     N11957   1.713   2.742  10.078 -0.2427  0.3026  0.3312
  808MPD2    H511958   1.732   2.775  10.172 -1.0447  0.8761  0.2868
  808MPD2    N111959   1.674   2.303   9.840  0.1567  0.7195 -0.7338
  808MPD2    H711960   1.640   2.351   9.757  0.6365  1.7585 -0.3235
  809MPD2     C11961   2.094   3.556   9.545  0.1733  0.2031  0.1925
  809MPD2    C111962   2.128   3.425   9.546  0.0850 -0.1667 -0.6289
  809MPD2    C211963   2.077   3.333   9.638  0.3953  0.3705 -0.3127
  809MPD2    C311964   1.983   3.379   9.734  0.3434  0.2146  0.1456
  809MPD2    C411965   1.947   3.509   9.730 -0.4725  0.7217  0.4538
  809MPD2    C511966   2.004   3.599   9.641 -0.3606 -0.2580  0.8764
  809MPD2     H11967   2.116   3.232   9.639  0.0302  0.2425  1.8725
  809MPD2    H111968   1.875   3.546   9.802 -0.0208 -1.3580  2.0074
  809MPD2    H211969   2.127   3.625   9.468  0.0546  1.4714  1.2797
  809MPD2    H311970   1.968   3.700   9.657 -1.2240 -0.5759  0.8936
  809MPD2     N11971   1.932   3.297   9.834  0.2788  0.0071  0.1615
  809MPD2    H511972   1.886   3.358   9.900  0.1534 -0.5637  0.6021
  809MPD2    N111973   2.227   3.368   9.461  0.2839  0.0680  0.2435
  809MPD2    H711974   2.258   3.272   9.471  0.6571  0.2156  0.4687
  810MPD2     C11975   1.454   1.606  10.735 -0.3576  0.5857 -0.2721
  810MPD2    C111976   1.423   1.671  10.616 -0.3098  0.8944 -0.1146
  810MPD2    C211977   1.386   1.807  10.616 -0.8408  1.0265  0.6994
  810MPD2    C311978   1.373   1.876  10.735 -0.3788  0.2886  0.6942
  810MPD2    C411979   1.396   1.810  10.855 -0.6643  0.4637 -0.7101
  810MPD2    C511980   1.439   1.681  10.850  0.4077  0.2885  0.2966
  810MPD2     H11981   1.367   1.853  10.520  0.6209  0.1568 -0.0185
  810MPD2    H111982   1.394   1.859  10.952 -1.3070 -1.4130  0.2120
  810MPD2    H211983   1.474   1.500  10.741  1.4916  1.0550  1.5521
  810MPD2    H311984   1.456   1.633  10.946  2.0855 -1.8376 -1.0793
  810MPD2     N11985   1.342   2.014  10.740  0.3754 -0.3545 -0.1243
  810MPD2    H511986   1.316   2.050  10.831 -0.3317 -1.2171  0.0211
  810MPD2    N111987   1.444   1.595  10.498 -0.2966 -0.1478  0.1127
  810MPD2    H711988   1.466   1.497  10.510 -2.2960 -0.4746  1.0791
  811MPD2     C11989   1.207   1.813   9.755 -0.4335 -0.2564 -0.0114
  811MPD2    C111990   1.241   1.844   9.882  0.2348 -0.7161 -0.4018
  811MPD2    C211991   1.232   1.979   9.915 -0.5258  0.2309  0.3878
  811MPD2    C311992   1.201   2.073   9.819 -0.1489 -0.2402 -0.5461
  811MPD2    C411993   1.164   2.035   9.693  0.4162 -0.0967 -0.0428
  811MPD2    C511994   1.174   1.904   9.660  0.2426 -0.3043 -0.6636
  811MPD2     H11995   1.264   2.011  10.014 -0.1741 -0.9129  0.6462
  811MPD2    H111996   1.150   2.105   9.610 -2.5780  1.8302  2.0750
  811MPD2    H211997   1.223   1.713   9.716  1.2072 -0.7746  2.0151
  811MPD2    H311998   1.150   1.872   9.559 -1.0907 -0.2731 -0.3599
  811MPD2     N11999   1.216   2.210   9.864 -0.0364  0.6704 -0.1041
  811MPD2    H512000   1.258   2.221   9.956  0.5805  1.2425 -0.4584
  811MPD2    N112001   1.273   1.744   9.975  0.2939 -0.3662 -0.2292
  811MPD2    H712002   1.301   1.785  10.063  1.8811 -1.2436 -0.3263
  812MPD2     C12003   4.736   1.022  12.079  0.3104  0.6445  0.2354
  812MPD2    C112004   4.728   1.154  12.086 -0.1004  0.1781  0.0040
  812MPD2    C212005   0.034   1.218  12.198  0.1034 -0.5606 -0.1188
  812MPD2    C312006   0.101   1.147  12.301 -0.5351  0.4394 -0.0478
  812MPD2    C412007   0.124   1.014  12.283  0.8241  0.9838  0.0643
  812MPD2    C512008   0.067   0.955  12.174 -0.1530 -0.3350  0.6604
  812MPD2     H12009   0.011   1.323  12.216  1.0805 -0.0659 -1.7506
  812MPD2    H112010   0.165   0.953  12.363  1.7151  0.3449 -0.8874
  812MPD2    H212011   4.695   0.976  11.989 -0.4592  0.4522  0.6844
  812MPD2    H312012   0.063   0.848  12.158 -2.2452 -0.3451  1.2948
  812MPD2     N12013   0.149   1.209  12.417  0.3497 -0.0008  0.4955
  812MPD2    H512014   0.142   1.310  12.420  0.0802 -0.1145  4.2462
  812MPD2    N112015   4.658   1.236  11.990 -1.0652  0.3671 -0.0197
  812MPD2    H712016   4.640   1.332  12.017  1.4107  0.6833  0.4350
  813MPD2     C12017   3.977   2.814  12.978  0.5640 -0.1019  0.0253
  813MPD2    C112018   3.990   2.954  12.978  0.3659  0.5086  0.7497
  813MPD2    C212019   3.921   3.028  13.072  0.5329  0.5983  0.3586
  813MPD2    C312020   3.855   2.962  13.175 -0.6021  0.0558 -0.5660
  813MPD2    C412021   3.843   2.824  13.176 -0.2404  0.0602 -0.3299
  813MPD2    C512022   3.902   2.753  13.073 -0.1253  0.3103 -0.3904
  813MPD2     H12023   3.920   3.136  13.073 -1.9039  0.6154 -0.9397
  813MPD2    H112024   3.795   2.773  13.258 -2.3786  1.9580 -0.4056
  813MPD2    H212025   4.043   2.754  12.916  0.0823 -0.2007 -0.3947
  813MPD2    H312026   3.904   2.645  13.075 -1.1098  0.2735 -1.7259
  813MPD2     N12027   3.802   3.039  13.279 -0.1122  0.2143 -0.2280
  813MPD2    H512028   3.802   3.137  13.253  0.5386  0.7083  1.6192
  813MPD2    N112029   4.085   3.009  12.893 -0.8700 -0.0214  0.8745
  813MPD2    H712030   4.146   2.947  12.841  0.0861  2.6434 -1.2008
  814MPD2     C12031   4.536   4.731  12.308  0.4802 -0.3179 -0.0309
  814MPD2    C112032   4.612   0.051  12.210  0.4965 -0.3742 -0.3367
  814MPD2    C212033   4.700   0.151  12.245 -0.0600 -1.1715  0.4582
  814MPD2    C312034   4.732   0.177  12.377 -0.0837  0.4029  0.1495
  814MPD2    C412035   4.656   0.114  12.471 -0.4092  0.1662  0.4135
  814MPD2    C512036   4.564   0.022  12.438 -0.0767  0.0282 -0.3002
  814MPD2     H12037   0.007   0.197  12.158 -1.6933 -0.3352  0.0369
  814MPD2    H112038   4.671   0.124  12.578  0.3060 -0.0550  0.3283
  814MPD2    H212039   4.457   4.659  12.289  2.7985 -2.8702 -0.1320
  814MPD2    H312040   4.512   4.712  12.519  2.0899 -0.5801  0.7169
  814MPD2     N12041   0.072   0.285  12.418  0.0852  0.0251  0.1813
  814MPD2    H512042   0.077   0.297  12.519  0.2149  1.4311  0.0152
  814MPD2    N112043   4.596   0.012  12.071 -0.4309  0.2664 -0.1671
  814MPD2    H712044   4.626   0.075  11.998  1.1342 -1.3621 -0.9381
  815MPD2     C12045   4.717   1.731  11.601 -0.2978 -0.5026  0.3484
  815MPD2    C112046   4.668   1.844  11.544 -0.2925 -0.6138  0.8482
  815MPD2    C212047   4.590   1.934  11.620  0.0225 -0.6759 -0.3154
  815MPD2    C312048   4.545   1.895  11.747  0.6598  0.5120 -0.0066
  815MPD2    C412049   4.585   1.772  11.806  0.2063 -0.5639  0.4328
  815MPD2    C512050   4.673   1.696  11.729  0.1586  0.9930  0.1120
  815MPD2     H12051   4.576   2.038  11.593 -2.7597 -0.6357  1.2331
  815MPD2    H112052   4.553   1.745  11.906 -0.0368  1.9056  1.0063
  815MPD2    H212053   0.041   1.662  11.547  0.1404  1.6475 -1.8958
  815MPD2    H312054   4.701   1.604  11.779  1.5490  1.1498 -0.3575
  815MPD2     N12055   4.450   1.986  11.805 -0.3129 -0.9711 -0.3209
  815MPD2    H512056   4.420   2.061  11.743  1.6183  0.7275  0.7925
  815MPD2    N112057   4.707   1.881  11.416  0.1102  0.8219  0.1651
  815MPD2    H712058   0.050   1.833  11.381  0.1937  0.7083  0.5111
  816MPD2     C12059   1.079   2.462  17.480 -0.1524 -0.1833 -0.0774
  816MPD2    C112060   0.990   2.480  17.375 -0.6674 -0.1058  0.5646
  816MPD2    C212061   1.024   2.430  17.245  0.1030  0.2457  0.1999
  816MPD2    C312062   1.144   2.361  17.231 -0.1087 -0.9748  0.0523
  816MPD2    C412063   1.233   2.348  17.343 -0.3921 -0.1709 -1.0613
  816MPD2    C512064   1.204   2.402  17.458  0.4030 -0.7648 -0.8983
  816MPD2     H12065   0.962   2.451  17.159  1.8628  1.4157 -0.7810
  816MPD2    H112066   1.329   2.305  17.316  1.2845  1.3448  2.5037
  816MPD2    H212067   1.050   2.495  17.579 -0.6894  0.0169 -0.3064
  816MPD2    H312068   1.280   2.400  17.535 -1.3491 -0.6482  0.8035
  816MPD2     N12069   1.178   2.316  17.097  0.3678 -0.1255 -0.1946
  816MPD2    H512070   1.099   2.322  17.034 -0.8847  0.3944  1.4160
  816MPD2    N112071   0.859   2.539  17.406 -0.5327 -0.2007  0.4390
  816MPD2    H712072   0.844   2.567  17.503  0.1432  0.4142  0.3690
  817MPD2     C12073   4.160   4.179  10.273  0.1306  0.3593 -0.1561
  817MPD2    C112074   4.270   4.190  10.190  0.1171 -0.2707 -0.1544
  817MPD2    C212075   4.322   4.318  10.161  0.3138  0.4834  0.1730
  817MPD2    C312076   4.270   4.430  10.222  0.1397 -0.3523 -0.1016
  817MPD2    C412077   4.187   4.412  10.321  0.9256 -0.4414 -0.4518
  817MPD2    C512078   4.126   4.286  10.344 -0.9034  0.6085  0.2458
  817MPD2     H12079   4.399   4.328  10.085 -0.5203 -2.7513 -1.1305
  817MPD2    H112080   4.160   4.495  10.384  0.2294 -0.2820 -0.9548
  817MPD2    H212081   4.106   4.087  10.293 -1.5058  1.4783  0.4898
  817MPD2    H312082   4.046   4.275  10.417 -0.3314 -0.5990  0.7030
  817MPD2     N12083   4.324   4.550  10.172 -0.2797  0.2447  0.3949
  817MPD2    H512084   4.378   4.540  10.087 -0.9809  1.2940 -0.1836
  817MPD2    N112085   4.329   4.080  10.126 -0.8054  0.4071 -0.1654
  817MPD2    H712086   4.410   4.098  10.069 -0.0322 -0.2986  0.7018
  818MPD2     C12087   3.085   3.925   9.931 -0.2770  0.3383  0.0518
  818MPD2    C112088   3.030   3.837  10.016  0.0365 -0.2231  0.2112
  818MPD2    C212089   2.990   3.710   9.977 -0.3869 -0.1158  0.5497
  818MPD2    C312090   3.015   3.673   9.844  0.3912  0.1341  0.0533
  818MPD2    C412091   3.055   3.776   9.758  0.3605 -0.1153  0.4486
  818MPD2    C512092   3.090   3.900   9.795  0.8754 -0.5601  0.0153
  818MPD2     H12093   2.961   3.636  10.050 -0.5212 -0.3691  0.2432
  818MPD2    H112094   3.055   3.761   9.651 -0.7838  0.1262  0.4154
  818MPD2    H212095   3.105   4.026   9.962  2.3893 -0.2848  0.3601
  818MPD2    H312096   3.129   3.973   9.725 -0.5850  0.9623  0.8019
  818MPD2     N12097   2.974   3.549   9.788 -0.3089 -0.0317  0.1862
  818MPD2    H512098   2.999   3.538   9.690 -2.6878 -1.5448 -0.2484
  818MPD2    N112099   3.013   3.875  10.151 -0.5835  0.3177  0.1260
  818MPD2    H712100   2.958   3.803  10.198 -1.1962  0.6294 -0.1136
  819MPD2     C12101   2.174   0.903  15.391 -0.4971 -0.1828 -0.2445
  819MPD2    C112102   2.222   0.773  15.410 -0.1593 -0.8344 -0.3708
  819MPD2    C212103   2.327   0.755  15.505  0.1889  0.5413 -0.2866
  819MPD2    C312104   2.370   0.859  15.586  0.0412 -0.2709 -0.5056
  819MPD2    C412105   2.323   0.983  15.559  0.0015 -0.2227  0.9269
  819MPD2    C512106   2.230   1.006  15.469 -0.2731 -0.5572  0.0127
  819MPD2     H12107   2.371   0.658  15.523  1.2082  1.3502  1.5053
  819MPD2    H112108   2.355   1.070  15.615 -1.5264  0.9382 -0.0065
  819MPD2    H212109   2.109   0.932  15.309  1.3047 -2.5215 -2.5071
  819MPD2    H312110   2.207   1.109  15.447 -0.9873 -0.0971  2.9521
  819MPD2     N12111   2.469   0.825  15.681  0.3104  0.2110 -0.2227
  819MPD2    H512112   2.494   0.728  15.700  0.3026  0.5415  1.4882
  819MPD2    N112113   2.157   0.668  15.346  0.1135  0.0419 -0.3676
  819MPD2    H712114   2.068   0.687  15.302 -0.2819 -0.1239  0.3522
  820MPD2     C12115   1.232   0.550  15.119  0.4600 -0.0800  0.5756
  820MPD2    C112116   1.328   0.647  15.115 -0.6399 -0.2461  0.3881
  820MPD2    C212117   1.459   0.610  15.152  0.4901  0.3114 -0.0056
  820MPD2    C312118   1.489   0.476  15.176  0.2046 -0.2351  0.2018
  820MPD2    C412119   1.389   0.381  15.161  0.4820  0.3508 -0.6433
  820MPD2    C512120   1.259   0.421  15.144  0.0685 -0.2693 -0.9551
  820MPD2     H12121   1.542   0.679  15.159  0.2103  0.5426  0.9365
  820MPD2    H112122   1.414   0.277  15.178  0.8966  0.2023 -2.1591
  820MPD2    H212123   1.128   0.568  15.091  0.2835  0.5181  1.6246
  820MPD2    H312124   1.185   0.342  15.149  0.1441 -0.3828 -1.6757
  820MPD2     N12125   1.612   0.430  15.222 -0.4876 -0.4205  0.2725
  820MPD2    H512126   1.621   0.330  15.236  2.4613 -0.2425 -0.2017
  820MPD2    N112127   1.287   0.781  15.101 -0.3388 -0.5907 -0.0117
  820MPD2    H712128   1.186   0.785  15.091 -0.5586 -0.5712  2.0723
  821MPD2     C12129   1.568   2.168  13.507 -0.4562 -0.6906 -0.4381
  821MPD2    C112130   1.642   2.062  13.465  0.4792 -0.1189 -0.1995
  821MPD2    C212131   1.726   2.079  13.358 -0.0159 -0.0037  0.0474
  821MPD2    C312132   1.720   2.190  13.272  0.6441 -0.1395  0.3369
  821MPD2    C412133   1.636   2.293  13.308 -0.1394  0.8512  0.1887
  821MPD2    C512134   1.565   2.275  13.425 -0.3855  0.7878  0.3302
  821MPD2     H12135   1.797   2.001  13.334  0.1818  0.7478 -1.8150
  821MPD2    H112136   1.634   2.387  13.253 -5.6375  1.1633  0.8999
  821MPD2    H212137   1.518   2.161  13.603  0.3334  0.5250  0.0600
  821MPD2    H312138   1.512   2.364  13.457  0.1672  1.3078 -0.2110
  821MPD2     N12139   1.806   2.207  13.161  0.1921  0.1189 -0.1642
  821MPD2    H512140   1.813   2.299  13.118  1.0468 -0.0379 -0.3704
  821MPD2    N112141   1.660   1.941  13.529  0.0506 -0.3469 -0.5327
  821MPD2    H712142   1.732   1.882  13.489  0.2234 -0.1769 -0.4702
  822MPD2     C12143   2.976   2.107  15.841  0.0552  0.0434 -0.6578
  822MPD2    C112144   2.914   2.069  15.960  0.3971  0.1104 -0.5751
  822MPD2    C212145   2.832   2.159  16.022  0.1059 -0.5245  0.0358
  822MPD2    C312146   2.799   2.281  15.963  0.0310  0.2766  0.6265
  822MPD2    C412147   2.857   2.319  15.841 -0.3789 -0.3746  0.3857
  822MPD2    C512148   2.949   2.230  15.785  0.8100  0.7480  0.4794
  822MPD2     H12149   2.784   2.139  16.117 -0.1808  0.1084  0.0183
  822MPD2    H112150   2.854   2.420  15.802 -1.8236 -1.5890 -2.6002
  822MPD2    H212151   3.048   2.040  15.795  0.3410  0.7043 -1.1766
  822MPD2    H312152   3.004   2.269  15.700  0.3778 -1.0952 -0.6530
  822MPD2     N12153   2.716   2.367  16.033  0.3009 -0.7780  0.0066
  822MPD2    H512154   2.690   2.321  16.119 -2.0306  1.7568  0.6425
  822MPD2    N112155   2.943   1.953  16.032 -0.0527  0.1808  0.1589
  822MPD2    H712156   2.889   1.936  16.116 -1.2335  1.1836 -0.3932
  823MPD2     C12157   2.713   2.566  16.808  0.2715 -0.2737 -0.1792
  823MPD2    C112158   2.615   2.515  16.720 -0.0612  0.4608  0.2708
  823MPD2    C212159   2.526   2.420  16.766 -0.0619 -0.2018  0.6894
  823MPD2    C312160   2.535   2.369  16.893 -0.1916 -0.1761 -0.5737
  823MPD2    C412161   2.622   2.431  16.988 -0.0573  0.3008  0.4240
  823MPD2    C512162   2.709   2.527  16.942 -0.1295 -0.1841  0.4411
  823MPD2     H12163   2.456   2.380  16.693  0.2589 -0.3455  0.4565
  823MPD2    H112164   2.632   2.400  17.092 -1.6225  1.9347  1.0459
  823MPD2    H212165   2.787   2.643  16.791 -1.6494  1.5690 -0.1955
  823MPD2    H312166   2.778   2.568  17.015 -0.1430  0.1391  0.2762
  823MPD2     N12167   2.458   2.259  16.939 -0.0986  0.2003 -0.1704
  823MPD2    H512168   2.461   2.235  17.038 -1.5501 -2.2093 -0.7180
  823MPD2    N112169   2.626   2.563  16.587 -0.3421  0.1800 -0.1088
  823MPD2    H712170   2.708   2.621  16.573  0.6816 -1.2771 -0.1275
  824MPD2     C12171   3.595   1.419  16.229 -0.0688 -0.0103 -0.0614
  824MPD2    C112172   3.505   1.445  16.130  0.1966  0.5702  0.4965
  824MPD2    C212173   3.507   1.386  16.010  0.4849 -0.3766 -0.3448
  824MPD2    C312174   3.617   1.307  15.985  0.5257  0.1191 -0.6843
  824MPD2    C412175   3.710   1.269  16.086  1.0316 -0.5938 -0.4090
  824MPD2    C512176   3.695   1.325  16.211  0.4923 -0.5604 -0.1805
  824MPD2     H12177   3.440   1.418  15.931 -0.5785  0.2630  0.8179
  824MPD2    H112178   3.794   1.203  16.071  0.5540 -1.8619  2.6964
  824MPD2    H212179   3.603   1.480  16.319  0.0521 -1.3482  0.8271
  824MPD2    H312180   3.770   1.307  16.287  1.8936 -0.1160 -1.4543
  824MPD2     N12181   3.627   1.260  15.852  0.2555  0.7291 -0.4151
  824MPD2    H512182   3.554   1.290  15.789  0.6015 -0.7991 -1.5363
  824MPD2    N112183   3.395   1.534  16.146 -0.4893  0.3620 -0.1902
  824MPD2    H712184   3.345   1.550  16.059 -0.4177 -0.2039 -0.3354
  825MPD2     C12185   3.863   1.493  15.059  0.6157 -0.1557 -0.1709
  825MPD2    C112186   3.804   1.524  15.178  0.0531  0.3163 -0.0765
  825MPD2    C212187   3.745   1.649  15.189  0.0272 -0.5251 -0.4675
  825MPD2    C312188   3.773   1.747  15.085  0.2589  0.7216  0.3298
  825MPD2    C412189   3.848   1.714  14.977  0.5794 -0.1015 -0.2396
  825MPD2    C512190   3.880   1.584  14.955  0.0347  0.2812 -0.2684
  825MPD2     H12191   3.691   1.675  15.279  0.9636 -2.2734  0.5954
  825MPD2    H112192   3.873   1.785  14.899 -0.5760  0.7997  0.2043
  825MPD2    H212193   3.903   1.392  15.054  1.6450  0.3526 -2.1641
  825MPD2    H312194   3.925   1.544  14.865  0.2222 -1.9978  0.8458
  825MPD2     N12195   3.731   1.881  15.089  0.0973 -0.3671  0.3047
  825MPD2    H512196   3.747   1.941  15.009  0.1929 -2.3841 -1.1887
  825MPD2    N112197   3.790   1.413  15.274  0.0291 -0.4818 -0.3297
  825MPD2    H712198   3.867   1.350  15.254 -0.4945 -0.9137 -0.9763
  826MPD2     C12199   3.111   0.440  13.659  1.0029  0.4453  0.4898
  826MPD2    C112200   3.156   0.573  13.668  0.3353  0.6579  0.0517
  826MPD2    C212201   3.060   0.675  13.689  0.2730  0.0166 -0.1286
  826MPD2    C312202   2.927   0.640  13.686 -0.5166  0.1250  0.5278
  826MPD2    C412203   2.890   0.507  13.695 -0.4735 -0.0714 -0.6648
  826MPD2    C512204   2.981   0.410  13.683  0.3548  0.2215 -0.3068
  826MPD2     H12205   3.093   0.778  13.692  0.1286 -0.0187  2.6906
  826MPD2    H112206   2.788   0.469  13.698 -0.4876 -0.1895 -2.6123
  826MPD2    H212207   3.182   0.360  13.646  0.7018  0.0572  1.2726
  826MPD2    H312208   2.954   0.306  13.698  0.3459  0.5105  1.6367
  826MPD2     N12209   2.824   0.738  13.702 -0.4835 -0.3473  0.6193
  826MPD2    H512210   2.728   0.716  13.726 -0.6058 -0.3233  0.1572
  826MPD2    N112211   3.293   0.595  13.649 -0.0431  0.1837  0.2757
  826MPD2    H712212   3.343   0.510  13.627  2.8467  1.9624 -0.0958
  827MPD2     C12213   3.966   2.764  10.032 -0.4351 -0.1840 -0.4184
  827MPD2    C112214   3.848   2.708  10.070  0.3208  0.1902 -0.5795
  827MPD2    C212215   3.729   2.734  10.001  0.7434  0.2207  0.0593
  827MPD2    C312216   3.736   2.812   9.881 -1.2644 -0.5202 -0.1209
  827MPD2    C412217   3.862   2.852   9.836  0.2111 -0.2865 -0.1499
  827MPD2    C512218   3.969   2.839   9.913  0.3449 -0.0612 -0.1188
  827MPD2     H12219   3.635   2.697  10.040  0.1976  0.8803 -0.6264
  827MPD2    H112220   3.873   2.901   9.740 -1.1771 -2.6527 -1.5344
  827MPD2    H212221   4.056   2.758  10.093 -0.0696  1.9871 -0.7272
  827MPD2    H312222   4.062   2.888   9.887 -0.6055  2.3562  1.0207
  827MPD2     N12223   3.624   2.831   9.808 -0.0894  0.2246 -0.9537
  827MPD2    H512224   3.542   2.778   9.836  0.3286  0.4033  0.6332
  827MPD2    N112225   3.845   2.639  10.198 -0.1148 -0.6328 -0.0354
  827MPD2    H712226   3.926   2.664  10.254  0.1707  1.6185 -1.4182
  828MPD2     C12227   2.290   2.254  12.420 -0.4859  0.2644  0.0135
  828MPD2    C112228   2.191   2.327  12.360 -0.1079 -0.7097 -0.0972
  828MPD2    C212229   2.190   2.331  12.222 -0.6837 -0.0337  0.2062
  828MPD2    C312230   2.286   2.274  12.146 -1.0432  0.3518 -0.1868
  828MPD2    C412231   2.391   2.202  12.203 -0.2928  0.2238 -0.4643
  828MPD2    C512232   2.391   2.197  12.342  0.0768 -0.3772 -0.0013
  828MPD2     H12233   2.108   2.391  12.185 -0.6392  0.9047  1.6348
  828MPD2    H112234   2.471   2.147  12.155  0.5348 -0.6441  1.8873
  828MPD2    H212235   2.295   2.243  12.528 -0.8372 -0.1695 -0.0145
  828MPD2    H312236   2.463   2.131  12.390 -1.3558 -1.2549  0.9182
  828MPD2     N12237   2.297   2.289  12.008 -0.1857 -0.3164 -0.0814
  828MPD2    H512238   2.378   2.253  11.958  0.8250  1.0231  0.5684
  828MPD2    N112239   2.109   2.414  12.436 -0.1367 -0.1395  0.4272
  828MPD2    H712240   2.059   2.485  12.385  1.2008  0.3714 -0.1664
  829MPD2     C12241   1.578   3.047  12.240 -0.3284 -0.4871 -0.1105
  829MPD2    C112242   1.536   2.998  12.366 -0.3137  1.1545 -0.2756
  829MPD2    C212243   1.627   2.935  12.449 -0.2120 -0.8282  0.0389
  829MPD2    C312244   1.757   2.899  12.408 -0.1006 -0.1094  0.6471
  829MPD2    C412245   1.798   2.953  12.288  0.2123 -0.6196 -0.9593
  829MPD2    C512246   1.710   3.023  12.206  0.0891  0.0352  0.4245
  829MPD2     H12247   1.583   2.893  12.539  0.3095 -1.9263 -0.2192
  829MPD2    H112248   1.895   2.932  12.242  1.1591 -1.5072  1.4783
  829MPD2    H212249   1.513   3.100  12.172  0.5524  1.4143  0.5479
  829MPD2    H312250   1.745   3.056  12.109  0.0537 -1.8607 -0.2331
  829MPD2     N12251   1.847   2.833  12.500  0.1382 -0.4988  0.9064
  829MPD2    H512252   1.938   2.814  12.459 -0.1753 -1.3405  0.5910
  829MPD2    N112253   1.401   3.022  12.402  0.4041  0.7010 -0.7295
  829MPD2    H712254   1.341   3.064  12.332  0.1879 -0.1052 -1.0281
  830MPD2     C12255   3.183   0.419  15.901 -0.1016 -0.0034 -0.3195
  830MPD2    C112256   3.098   0.506  15.831 -0.0053  0.6135  0.8163
  830MPD2    C212257   3.156   0.543  15.704 -0.1600  0.7901  0.0042
  830MPD2    C312258   3.284   0.509  15.662  0.6160  0.5334 -0.6647
  830MPD2    C412259   3.366   0.436  15.750  0.0389 -0.4254 -0.4360
  830MPD2    C512260   3.310   0.390  15.864  0.7812  0.0659  0.7261
  830MPD2     H12261   3.092   0.607  15.645 -1.0165 -0.9296 -0.9147
  830MPD2    H112262   3.472   0.425  15.730  0.4228 -2.7839  2.8873
  830MPD2    H212263   3.152   0.375  15.995 -1.3358  0.2612 -0.6016
  830MPD2    H312264   3.377   0.341  15.933  1.5868 -0.6389 -0.5481
  830MPD2     N12265   3.339   0.545  15.532  0.1516  0.3116  0.1651
  830MPD2    H512266   3.441   0.543  15.525 -0.0691 -0.6150 -2.9021
  830MPD2    N112267   2.973   0.554  15.883 -0.3809  0.0255 -0.6747
  830MPD2    H712268   2.950   0.531  15.979  1.0906 -0.4131 -0.4165
  831MPD2     C12269   2.948   2.057  16.587  0.2367  0.8116 -0.6995
  831MPD2    C112270   2.929   2.116  16.461  0.1441 -0.4679 -0.6866
  831MPD2    C212271   2.801   2.162  16.431 -0.4732 -0.3142 -0.0593
  831MPD2    C312272   2.698   2.150  16.522  0.2892 -0.0023 -1.0815
  831MPD2    C412273   2.724   2.099  16.648 -0.6270  0.1907  0.0708
  831MPD2    C512274   2.846   2.053  16.681 -0.0287  0.6273 -0.3243
  831MPD2     H12275   2.773   2.199  16.332  0.6460 -0.5719 -0.4651
  831MPD2    H112276   2.644   2.092  16.720 -2.6053 -0.2004 -2.1663
  831MPD2    H212277   3.043   2.013  16.616 -1.5446 -1.3856  1.8333
  831MPD2    H312278   2.856   2.001  16.775 -0.4182  1.6635  0.2882
  831MPD2     N12279   2.561   2.158  16.484  0.1194 -0.0769  0.0973
  831MPD2    H512280   2.490   2.141  16.555 -0.9561 -2.5604 -1.5678
  831MPD2    N112281   3.037   2.135  16.371 -0.4762  0.0221 -0.1277
  831MPD2    H712282   3.125   2.092  16.396 -1.8780 -0.4623  3.9844
  832MPD2     C12283   1.382   3.157  17.192 -0.6094  0.5115 -0.4110
  832MPD2    C112284   1.425   3.289  17.177 -0.0749 -0.3478 -0.2170
  832MPD2    C212285   1.337   3.385  17.126 -0.1497  0.1482  0.9819
  832MPD2    C312286   1.202   3.348  17.103 -0.6087 -0.9429  0.2019
  832MPD2    C412287   1.159   3.222  17.121  0.5088 -0.2775  0.2868
  832MPD2    C512288   1.250   3.129  17.157 -0.3078  0.3746 -0.1473
  832MPD2     H12289   1.364   3.490  17.131  0.7485 -0.0463  0.2841
  832MPD2    H112290   1.057   3.188  17.104  0.7718 -1.2948  0.6858
  832MPD2    H212291   1.449   3.077  17.222  0.6760  2.0084  0.7857
  832MPD2    H312292   1.215   3.027  17.160 -0.5600  0.3957 -2.4608
  832MPD2     N12293   1.107   3.442  17.062  0.2673 -0.4696  0.8096
  832MPD2    H512294   1.014   3.407  17.041  0.6679 -0.4204 -1.0490
  832MPD2    N112295   1.557   3.320  17.223  0.6069 -0.1655  0.7331
  832MPD2    H712296   1.621   3.244  17.240  1.5408  0.1963 -1.1824
  833MPD2     C12297   3.113   0.144  12.676  0.1910  0.2738  0.0038
  833MPD2    C112298   3.112   0.276  12.642 -0.8068 -0.6913  0.1090
  833MPD2    C212299   3.190   0.308  12.533  0.4749 -0.4948 -0.0076
  833MPD2    C312300   3.275   0.217  12.466  1.2768  0.7802 -0.8280
  833MPD2    C412301   3.272   0.088  12.517  0.1769  0.5398 -0.1074
  833MPD2    C512302   3.195   0.051  12.618  0.3366 -0.4506  0.0944
  833MPD2     H12303   3.177   0.406  12.488  1.6480 -1.0439 -1.5460
  833MPD2    H112304   3.344   0.018  12.477  2.0585  1.8253  1.0445
  833MPD2    H212305   3.057   0.112  12.763  2.3277  1.2337  1.7483
  833MPD2    H312306   3.200   4.686  12.647  1.7655 -0.4256 -0.0633
  833MPD2     N12307   3.357   0.250  12.358 -1.2393  0.0928 -0.1887
  833MPD2    H512308   3.412   0.170  12.326 -1.3662 -0.8613  1.9825
  833MPD2    N112309   3.018   0.357  12.702 -0.0446 -0.1913 -0.1256
  833MPD2    H712310   2.958   0.310  12.769  1.0970  0.0926  1.0831
  834MPD2     C12311   3.474   4.575  11.648 -0.4805 -0.3102 -0.5024
  834MPD2    C112312   3.354   4.597  11.696  0.4929 -0.1434 -0.8942
  834MPD2    C212313   3.333   4.709  11.776 -0.2770  0.0276 -0.1536
  834MPD2    C312314   3.434   0.060  11.796  0.1501  0.0059  0.1979
  834MPD2    C412315   3.565   0.038  11.746 -0.0566 -0.4688 -0.0276
  834MPD2    C512316   3.586   4.660  11.669 -0.5910  0.3848 -0.7044
  834MPD2     H12317   3.247   4.708  11.842 -1.4176  0.2306 -1.6224
  834MPD2    H112318   3.649   0.100  11.777 -2.0567  1.2220  1.9553
  834MPD2    H212319   3.504   4.486  11.594 -0.2668  0.7664 -2.1409
  834MPD2    H312320   3.685   4.645  11.629 -0.6009 -0.8680 -0.2782
  834MPD2     N12321   3.418   0.155  11.890 -0.1597 -0.2042  0.3253
  834MPD2    H512322   3.337   0.160  11.950 -1.0779  2.9703 -1.1395
  834MPD2    N112323   3.259   4.511  11.646  0.0142 -0.3064 -0.2548
  834MPD2    H712324   3.288   4.453  11.568  0.2230  2.4856 -2.2268
  835MPD2     C12325   3.122   2.614  10.829  0.2988 -0.5121 -0.2935
  835MPD2    C112326   3.036   2.667  10.923 -0.0427  0.4619 -0.7354
  835MPD2    C212327   3.054   2.623  11.052 -0.1101  0.0854 -0.2200
  835MPD2    C312328   3.156   2.531  11.084  0.3702  0.1165 -0.1260
  835MPD2    C412329   3.227   2.470  10.985  0.7673  0.4429  1.0025
  835MPD2    C512330   3.211   2.514  10.857  0.3739  0.0589 -0.3808
  835MPD2     H12331   2.989   2.659  11.131 -0.2197  1.1976 -0.8139
  835MPD2    H112332   3.304   2.395  11.002  0.6776  0.0028 -0.5815
  835MPD2    H212333   3.125   2.654  10.728  1.4054  0.9008  0.3048
  835MPD2    H312334   3.277   2.467  10.785  0.6962  0.4324 -0.3286
  835MPD2     N12335   3.186   2.499  11.222 -0.3226 -0.0594  0.3054
  835MPD2    H512336   3.275   2.451  11.236 -0.8936 -2.3571 -4.0282
  835MPD2    N112337   2.951   2.773  10.893 -0.2390  0.0562  0.1137
  835MPD2    H712338   2.907   2.816  10.974 -0.8835 -2.0962  0.9017
  836MPD2     C12339   3.231   2.645  12.132  0.0994  0.1365  0.0712
  836MPD2    C112340   3.127   2.625  12.037  0.5490  0.2762 -0.5362
  836MPD2    C212341   2.998   2.650  12.078 -0.6475  0.4169  0.6837
  836MPD2    C312342   2.977   2.685  12.209 -0.8797  0.5528 -0.8950
  836MPD2    C412343   3.070   2.698  12.304  0.0088 -0.4927 -0.5940
  836MPD2    C512344   3.200   2.687  12.262 -0.4364  0.0530 -0.1369
  836MPD2     H12345   2.916   2.621  12.014 -0.3152 -0.7144  0.7771
  836MPD2    H112346   3.046   2.724  12.406  1.5227  0.7887 -0.5524
  836MPD2    H212347   3.332   2.624  12.100  0.2504 -1.5239  1.6699
  836MPD2    H312348   3.278   2.698  12.336  0.7619  2.2561 -1.7213
  836MPD2     N12349   2.848   2.709  12.254  0.4955  0.5102 -0.0065
  836MPD2    H512350   2.831   2.720  12.353  0.2298  0.8736 -0.0946
  836MPD2    N112351   3.166   2.568  11.916 -0.1627 -0.1166  0.2222
  836MPD2    H712352   3.266   2.550  11.909 -0.3376 -1.8921  2.2866
  837MPD2     C12353   1.460   2.544  10.462 -0.8834 -0.3960  0.0222
  837MPD2    C112354   1.390   2.639  10.395 -0.1531  0.2070  0.2431
  837MPD2    C212355   1.316   2.732  10.458 -0.0149  0.2202 -0.6988
  837MPD2    C312356   1.305   2.735  10.593  0.0962  0.4020  0.2156
  837MPD2    C412357   1.377   2.643  10.667  0.1310 -0.2744  0.6745
  837MPD2    C512358   1.458   2.549  10.601 -0.9713 -0.2714  0.7063
  837MPD2     H12359   1.272   2.814  10.402  1.1405  1.0869 -0.3251
  837MPD2    H112360   1.375   2.642  10.775  2.3954  1.8942  0.7192
  837MPD2    H212361   1.527   2.472  10.416 -0.8202 -0.6688  0.5363
  837MPD2    H312362   1.532   2.490  10.654  0.2870  0.7369  0.0870
  837MPD2     N12363   1.215   2.829  10.654 -0.3531 -0.4105  0.8734
  837MPD2    H512364   1.173   2.897  10.592  0.5858 -1.9628 -1.4615
  837MPD2    N112365   1.382   2.645  10.250 -0.3490  1.0251 -0.7207
  837MPD2    H712366   1.343   2.730  10.210  2.2790  0.7410 -3.8365
  838MPD2     C12367   4.631   0.620  12.057 -0.2463 -0.2822  0.9243
  838MPD2    C112368   4.512   0.630  11.989 -0.3133  0.3144  0.3802
  838MPD2    C212369   4.402   0.627  12.067 -0.1067 -0.0325  0.1816
  838MPD2    C312370   4.406   0.625  12.208 -0.1816 -0.1950 -0.3726
  838MPD2    C412371   4.530   0.602  12.272 -0.2599  0.5390 -0.0194
  838MPD2    C512372   4.639   0.605  12.195  0.1118  0.5069  0.3402
  838MPD2     H12373   4.304   0.638  12.021  0.7996  2.0280 -1.2072
  838MPD2    H112374   4.540   0.586  12.379  1.4916  2.8535  0.1515
  838MPD2    H212375   4.724   0.615  12.003 -1.6660 -0.0558 -1.5394
  838MPD2    H312376   4.738   0.589  12.237  0.1378 -0.2706 -0.0292
  838MPD2     N12377   4.285   0.644  12.283  0.4082 -0.2419 -0.6447
  838MPD2    H512378   4.205   0.679  12.231 -0.6431  0.3834  1.3795
  838MPD2    N112379   4.509   0.650  11.849  0.6793 -0.6722  1.2742
  838MPD2    H712380   4.419   0.642  11.803  1.4542  2.4374 -0.7720
  839MPD2     C12381   3.929   0.251  11.480  0.6256 -0.4709 -0.5495
  839MPD2    C112382   4.058   0.190  11.440  0.5646  0.2500 -0.3685
  839MPD2    C212383   4.173   0.269  11.450 -0.2074  0.2364  0.4017
  839MPD2    C312384   4.161   0.400  11.489  0.2610  0.0728  0.0391
  839MPD2    C412385   4.042   0.453  11.533  0.3274  0.1742  0.6788
  839MPD2    C512386   3.922   0.383  11.531 -0.0305 -0.5750  1.1726
  839MPD2     H12387   4.267   0.236  11.408  0.9319  0.6051  2.6669
  839MPD2    H112388   4.043   0.555  11.570 -2.2138  1.2213 -2.0981
  839MPD2    H212389   3.828   0.216  11.464 -0.0435  2.3725 -2.5581
  839MPD2    H312390   3.821   0.420  11.548 -1.1346 -1.6987 -2.8989
  839MPD2     N12391   4.270   0.488  11.500 -0.1689 -0.1847 -0.0807
  839MPD2    H512392   4.258   0.576  11.550 -2.2816 -0.6970  0.3075
  839MPD2    N112393   4.073   0.061  11.380  0.5572  0.6493  0.1100
  839MPD2    H712394   4.164   0.040  11.339  1.1787  1.7794  0.9133
  840MPD2     C12395   4.036   3.111  10.548 -0.8223  0.6743 -0.3352
  840MPD2    C112396   4.043   2.988  10.605 -0.2768 -0.2831 -0.9939
  840MPD2    C212397   4.157   2.956  10.667 -0.3747  0.1931 -0.1052
  840MPD2    C312398   4.270   3.031  10.667 -0.0218 -0.5922  0.5193
  840MPD2    C412399   4.267   3.157  10.609 -0.1680 -0.3800 -0.0355
  840MPD2    C512400   4.143   3.192  10.556  0.3332  0.1301 -0.9311
  840MPD2     H12401   4.161   2.854  10.705 -0.5082 -0.0018 -0.6104
  840MPD2    H112402   4.353   3.221  10.594 -0.5735  0.8916  3.0775
  840MPD2    H212403   3.952   3.150  10.490 -1.4713  0.1740  0.2793
  840MPD2    H312404   4.134   3.286  10.502 -0.4302 -1.0310 -2.8251
  840MPD2     N12405   4.391   2.990  10.727  0.0497  0.1641  0.2379
  840MPD2    H512406   4.463   3.062  10.728 -1.2342  1.4399  1.0962
  840MPD2    N112407   3.931   2.894  10.583  0.4798  0.1426 -0.5231
  840MPD2    H712408   3.861   2.922  10.516 -0.9015 -0.8628  0.4972
  841MPD2     C12409   4.304   3.423  15.091  0.2709  0.2239  0.0725
  841MPD2    C112410   4.327   3.289  15.074  0.4941 -0.0852 -0.0228
  841MPD2    C212411   4.456   3.244  15.062  0.1855 -0.3626 -0.0281
  841MPD2    C312412   4.570   3.324  15.064 -0.0296  0.3900  0.0721
  841MPD2    C412413   4.545   3.462  15.082  1.1046 -0.0761  0.0476
  841MPD2    C512414   4.410   3.510  15.093  0.1106  0.7378 -0.0860
  841MPD2     H12415   4.476   3.139  15.046  0.3244  0.1405 -3.0041
  841MPD2    H112416   4.624   3.536  15.078  0.1926  0.9229  0.3750
  841MPD2    H212417   4.205   3.467  15.090 -0.7527 -2.0439  0.9684
  841MPD2    H312418   4.396   3.617  15.097 -2.5390  0.3839 -0.4335
  841MPD2     N12419   4.695   3.264  15.053 -0.2326  0.1770 -0.5130
  841MPD2    H512420   4.696   3.164  15.035  0.1997  0.5450 -2.4723
  841MPD2    N112421   4.216   3.204  15.066 -0.2533  0.2093  0.3354
  841MPD2    H712422   4.245   3.107  15.062 -1.3660 -0.2190  2.7910
  842MPD2     C12423   0.732   3.938  17.035 -1.1824  0.3434 -0.1303
  842MPD2    C112424   0.624   3.852  17.006  0.2477 -0.2836 -0.8598
  842MPD2    C212425   0.570   3.777  17.110 -0.7489 -0.3977  0.1324
  842MPD2    C312426   0.611   3.797  17.239  0.0510  0.1572  0.3326
  842MPD2    C412427   0.727   3.873  17.261  0.6983  0.2599 -0.6385
  842MPD2    C512428   0.789   3.932  17.156  0.4939  0.1961 -0.0841
  842MPD2     H12429   0.496   3.702  17.086 -0.2653 -1.0165  0.5840
  842MPD2    H112430   0.767   3.903  17.357  3.0387  1.0509 -1.8684
  842MPD2    H212431   0.777   3.985  16.948 -0.3318  0.7302  0.5206
  842MPD2    H312432   0.873   4.000  17.171  0.3114 -0.2615  3.0369
  842MPD2     N12433   0.558   3.721  17.349 -0.3290 -1.0282  0.0592
  842MPD2    H512434   0.610   3.733  17.436  0.8642  0.7544 -0.8954
  842MPD2    N112435   0.566   3.856  16.875 -0.2293  0.4258 -0.2320
  842MPD2    H712436   0.596   3.937  16.822 -1.1074  0.0096 -1.3470
  843MPD2     C12437   3.368   4.590  17.712 -0.1719  0.5476 -0.1033
  843MPD2    C112438   3.263   4.572   0.048 -0.3000  0.2969 -0.9561
  843MPD2    C212439   3.225   4.681   0.129 -0.0077  0.6184 -0.1053
  843MPD2    C312440   3.281   0.067   0.111 -0.4184 -0.0786 -0.2925
  843MPD2    C412441   3.380   0.079   0.016  0.1770 -0.2388 -0.5058
  843MPD2    C512442   3.422   4.709  17.699  0.0574  0.2986 -0.3327
  843MPD2     H12443   3.139   4.668   0.193 -0.3160  0.4642 -0.5522
  843MPD2    H112444   3.429   0.173  17.745 -1.0639  0.6822  0.5390
  843MPD2    H212445   3.415   4.511  17.655 -1.5003  0.3961 -1.0155
  843MPD2    H312446   3.498   4.722  17.623 -0.3905 -3.3210 -1.3769
  843MPD2     N12447   3.232   0.183   0.182  0.1739  0.5843  0.3557
  843MPD2    H512448   3.270   0.276   0.165  0.2337  0.1850 -1.6505
  843MPD2    N112449   3.203   4.442   0.074 -0.2944 -0.1676 -0.5212
  843MPD2    H712450   3.245   4.366   0.022 -0.8412 -0.7118 -0.1732
  844MPD2     C12451   1.146   3.324  16.560  0.3717  0.7786 -0.4921
  844MPD2    C112452   1.259   3.276  16.509 -0.1221  0.4449 -0.2618
  844MPD2    C212453   1.381   3.312  16.558 -0.8355 -0.3008 -0.2172
  844MPD2    C312454   1.388   3.400  16.662  0.2838  0.3501  0.5866
  844MPD2    C412455   1.271   3.443  16.725  0.0034  0.2438 -0.4894
  844MPD2    C512456   1.147   3.411  16.673  0.2266 -0.1044  0.1852
  844MPD2     H12457   1.469   3.272  16.509 -0.8759 -0.9819  0.2613
  844MPD2    H112458   1.272   3.512  16.809  2.6415 -4.0815  2.9705
  844MPD2    H212459   1.046   3.304  16.522  0.1543 -2.8870  1.9531
  844MPD2    H312460   1.055   3.452  16.713 -0.6039  1.0020 -2.8673
  844MPD2     N12461   1.517   3.432  16.714 -0.1773  0.4619 -0.1287
  844MPD2    H512462   1.604   3.388  16.684 -0.7717  0.9076 -2.5114
  844MPD2    N112463   1.251   3.191  16.397 -0.1013  0.1834  0.4231
  844MPD2    H712464   1.325   3.178  16.330 -1.5639 -0.5210 -1.0594
  845MPD2     C12465   2.029   4.241  16.995 -0.2908  0.1516 -0.2860
  845MPD2    C112466   1.909   4.206  17.053 -0.1154 -0.0110  0.5744
  845MPD2    C212467   1.867   4.075  17.035 -0.1572 -0.1286  0.2328
  845MPD2    C312468   1.942   3.980  16.964 -0.2067 -0.0905 -0.5001
  845MPD2    C412469   2.068   4.008  16.925  0.5571 -0.4209 -0.1917
  845MPD2    C512470   2.104   4.142  16.934  0.4663  0.6005  0.6786
  845MPD2     H12471   1.776   4.040  17.083 -0.6001 -0.1077 -0.5976
  845MPD2    H112472   2.132   3.934  16.878  2.0370 -0.0772  1.2750
  845MPD2    H212473   2.075   4.339  17.001 -1.1100  0.4692  0.8136
  845MPD2    H312474   2.201   4.173  16.895  0.5897  2.8942  2.7951
  845MPD2     N12475   1.894   3.856  16.957 -0.1238  0.1495 -0.2206
  845MPD2    H512476   1.794   3.840  16.970 -0.1405 -0.1213 -0.7080
  845MPD2    N112477   1.841   4.293  17.139  0.0775  0.1310 -0.3119
  845MPD2    H712478   1.871   4.390  17.141  1.3286 -0.2316 -1.3424
  846MPD2     C12479   2.894   4.003  13.657  0.0907  0.0288 -0.4179
  846MPD2    C112480   2.783   4.075  13.691 -0.2796 -0.0247 -0.6973
  846MPD2    C212481   2.758   4.098  13.830  0.2193 -0.1719 -1.0324
  846MPD2    C312482   2.855   4.061  13.926  0.3321  0.3802 -0.1929
  846MPD2    C412483   2.977   4.009  13.883 -0.2407 -0.0841 -0.1911
  846MPD2    C512484   2.992   3.983  13.748  0.1376 -0.3039  0.2576
  846MPD2     H12485   2.661   4.129  13.867 -0.3483 -0.4699 -2.2827
  846MPD2    H112486   3.058   3.987  13.952 -0.6225  2.4782  1.0796
  846MPD2    H212487   2.936   4.001  13.557 -0.8462 -0.7516 -0.7943
  846MPD2    H312488   3.088   3.946  13.715  0.5863 -0.9988  2.3930
  846MPD2     N12489   2.819   4.084  14.061  0.0012  0.2256 -0.1479
  846MPD2    H512490   2.728   4.126  14.077  0.6055  0.8909  1.5372
  846MPD2    N112491   2.697   4.123  13.593 -1.0676  0.1163  0.2692
  846MPD2    H712492   2.631   4.196  13.617 -1.9886 -0.8567  0.6926
  847MPD2     C12493   2.435   0.583  14.730  0.1186 -0.0644 -0.4322
  847MPD2    C112494   2.540   0.668  14.714  0.2780  0.0747  0.1224
  847MPD2    C212495   2.664   0.630  14.678 -0.5322 -0.2595  0.7715
  847MPD2    C312496   2.689   0.499  14.656  0.2378 -0.4804  0.0644
  847MPD2    C412497   2.590   0.410  14.683  0.3707  0.0617 -0.1356
  847MPD2    C512498   2.463   0.451  14.719  0.4923  0.2857  0.2683
  847MPD2     H12499   2.745   0.701  14.670 -1.1695  0.2670 -0.8855
  847MPD2    H112500   2.611   0.308  14.654 -0.4887 -0.1328 -0.0568
  847MPD2    H212501   2.336   0.616  14.758 -0.0042  0.2475 -1.2350
  847MPD2    H312502   2.387   0.374  14.728  0.2564  0.5138  0.2369
  847MPD2     N12503   2.826   0.457  14.617 -0.3198 -0.5340 -0.2930
  847MPD2    H512504   2.888   0.533  14.591 -0.0825 -0.4570  0.5315
  847MPD2    N112505   2.531   0.806  14.734  0.6051  0.0839 -0.4184
  847MPD2    H712506   2.610   0.866  14.713  2.1019 -0.8154  2.5814
  848MPD2     C12507   0.733   3.885  16.466 -0.2244  0.1266  0.1473
  848MPD2    C112508   0.814   3.926  16.573 -0.5438 -0.3798 -0.7236
  848MPD2    C212509   0.855   4.059  16.572 -0.6632  0.6487 -0.0202
  848MPD2    C312510   0.821   4.141  16.461  0.1829  0.5139 -0.1604
  848MPD2    C412511   0.726   4.099  16.370  0.4543  0.2853 -0.1265
  848MPD2    C512512   0.680   3.971  16.374 -0.4428 -0.3616 -0.6255
  848MPD2     H12513   0.928   4.084  16.648 -1.6881  0.3470  1.0771
  848MPD2    H112514   0.691   4.166  16.292 -1.8267  1.3893  1.8140
  848MPD2    H212515   0.691   3.785  16.468 -0.5623  0.2076 -3.1861
  848MPD2    H312516   0.598   3.935  16.314 -1.4983  0.8815  0.0833
  848MPD2     N12517   0.868   4.271  16.441 -0.2897  0.5416  0.4046
  848MPD2    H512518   0.810   4.326  16.380 -1.2953 -2.2577 -1.1759
  848MPD2    N112519   0.854   3.838  16.678 -0.8187 -0.6154 -0.4625
  848MPD2    H712520   0.912   3.876  16.752  1.5576  1.3505 -3.3621
  849MPD2     C12521   4.661   3.478  14.262 -0.2360 -0.5428  0.6082
  849MPD2    C112522   0.020   3.454  14.178  0.2811 -0.3940  0.5495
  849MPD2    C212523   0.146   3.430  14.235 -0.0457  0.8707  0.4683
  849MPD2    C312524   0.179   3.442  14.367  0.1831 -0.1530  0.2440
  849MPD2    C412525   0.077   3.478  14.450 -0.3492 -0.1953  0.4406
  849MPD2    C512526   4.687   3.493  14.398  0.5274  0.2107  0.4808
  849MPD2     H12527   0.227   3.404  14.167 -1.2629 -0.6578 -0.3964
  849MPD2    H112528   0.091   3.497  14.555 -1.0969 -1.0696  0.6960
  849MPD2    H212529   4.559   3.490  14.229 -0.4390  0.2551  1.5094
  849MPD2    H312530   4.607   3.536  14.456 -0.1324  1.6026 -1.4478
  849MPD2     N12531   0.318   3.423  14.406 -0.5994 -0.0927  0.0857
  849MPD2    H512532   0.383   3.402  14.331 -0.5475 -1.1401  0.4356
  849MPD2    N112533   4.727   3.448  14.040  0.1316  0.2286 -0.1833
  849MPD2    H712534   4.631   3.459  14.010 -0.9000 -1.6120  2.4064
  850MPD2     C12535   2.679   1.615  14.744  0.6018  0.3815  0.0029
  850MPD2    C112536   2.690   1.616  14.886 -0.6476  0.1557 -0.2103
  850MPD2    C212537   2.805   1.672  14.946  0.7531 -0.5382  0.5289
  850MPD2    C312538   2.908   1.714  14.873  0.8068 -0.1859  0.1516
  850MPD2    C412539   2.904   1.703  14.735 -0.2652 -0.1865 -0.1099
  850MPD2    C512540   2.789   1.649  14.677 -0.2245 -0.6406  0.2789
  850MPD2     H12541   2.813   1.669  15.054  0.6537 -0.5555  0.5357
  850MPD2    H112542   2.983   1.745  14.674 -0.5804  0.4522 -0.0767
  850MPD2    H212543   2.599   1.573  14.684  2.0144 -0.2344 -1.4348
  850MPD2    H312544   2.800   1.639  14.569 -1.4740 -0.1128  0.1045
  850MPD2     N12545   3.026   1.765  14.938  0.5042 -0.0690 -0.2517
  850MPD2    H512546   3.112   1.773  14.885  0.5727  1.4926  0.1153
  850MPD2    N112547   2.580   1.563  14.958 -0.4378 -0.9408  0.2172
  850MPD2    H712548   2.502   1.552  14.894 -0.9224 -0.6206  0.7589
  851MPD2     C12549   3.270   1.410  15.487  0.1587  0.0562  0.2515
  851MPD2    C112550   3.201   1.375  15.377  0.3587 -0.3566  0.5555
  851MPD2    C212551   3.242   1.259  15.312  0.0301 -0.1573  0.0365
  851MPD2    C312552   3.339   1.173  15.363  0.0704  0.6836  0.6086
  851MPD2    C412553   3.408   1.214  15.475 -0.2408  0.2977 -0.3114
  851MPD2    C512554   3.365   1.331  15.538  0.9054  0.3583 -0.2306
  851MPD2     H12555   3.196   1.233  15.217 -2.2130  1.6918  0.6177
  851MPD2    H112556   3.475   1.151  15.533  0.2502  1.5974  0.5346
  851MPD2    H212557   3.250   1.506  15.533 -1.2445  0.2350 -0.7186
  851MPD2    H312558   3.404   1.358  15.635  0.7243  0.0222 -0.0661
  851MPD2     N12559   3.368   1.055  15.295  0.6068 -0.2209  0.1009
  851MPD2    H512560   3.305   1.027  15.221 -0.0014  0.8058  0.2222
  851MPD2    N112561   3.088   1.455  15.344  0.4699 -1.0380 -0.0844
  851MPD2    H712562   3.058   1.525  15.411  1.7270  1.2640 -1.9253
  852MPD2     C12563   2.427   4.394  10.246 -0.0708  0.3081  0.0530
  852MPD2    C112564   2.421   4.451  10.373 -0.3406 -0.5602  0.5750
  852MPD2    C212565   2.487   4.573  10.402 -0.6134  0.9449 -0.3327
  852MPD2    C312566   2.559   4.636  10.295  0.3064  0.0171  0.3974
  852MPD2    C412567   2.570   4.571  10.176  0.2830 -0.5899 -0.0942
  852MPD2    C512568   2.508   4.452  10.158  0.1698 -0.7997 -0.0554
  852MPD2     H12569   2.469   4.619  10.498 -1.3323  2.0091 -0.9796
  852MPD2    H112570   2.635   4.599  10.094  1.8001 -1.6676  0.7423
  852MPD2    H212571   2.382   4.298  10.227  3.0718 -1.0789 -0.3270
  852MPD2    H312572   2.530   4.398  10.067  0.3141  0.0496 -0.5251
  852MPD2     N12573   2.621   0.024  10.329 -0.0025  0.2322  0.4184
  852MPD2    H512574   2.586   0.070  10.412  0.3853  2.3463 -0.5743
  852MPD2    N112575   2.351   4.400  10.485  0.7064  0.6000 -0.2888
  852MPD2    H712576   2.364   4.440  10.577  1.1621  0.1027 -0.1307
  853MPD2     C12577   4.259   3.516  12.392 -0.0187  0.2746  0.2036
  853MPD2    C112578   4.170   3.619  12.370  0.1674  0.0114  0.3412
  853MPD2    C212579   4.143   3.652  12.232 -0.0751 -0.2506  0.6941
  853MPD2    C312580   4.206   3.591  12.127  0.4848 -0.5918  0.3371
  853MPD2    C412581   4.293   3.480  12.158  0.0313 -1.0554  0.5122
  853MPD2    C512582   4.312   3.443  12.291 -0.0406 -0.1826  0.5881
  853MPD2     H12583   4.082   3.740  12.218 -0.1148 -0.0180  2.3468
  853MPD2    H112584   4.342   3.424  12.079 -0.6337 -1.3512  0.3071
  853MPD2    H212585   4.292   3.487  12.491 -0.0374  0.5573  0.2927
  853MPD2    H312586   4.384   3.364  12.314 -0.5990 -0.0452  2.7499
  853MPD2     N12587   4.191   3.630  11.989  0.1347  0.6369 -0.5403
  853MPD2    H512588   4.237   3.582  11.913  2.1334  1.3697  0.2117
  853MPD2    N112589   4.105   3.682  12.477  0.0822 -0.8750  0.0930
  853MPD2    H712590   4.140   3.647  12.566 -1.2195 -0.4546  0.7632
  854MPD2     C12591   1.126   4.271  13.053  0.2441 -0.2944  0.0251
  854MPD2    C112592   1.202   4.322  12.951 -0.4222 -0.1110 -0.4543
  854MPD2    C212593   1.325   4.263  12.930  0.5138  0.9235  0.5113
  854MPD2    C312594   1.382   4.158  13.010 -0.4806  0.4451 -0.1746
  854MPD2    C412595   1.302   4.121  13.118 -1.0579 -0.1424  0.4226
  854MPD2    C512596   1.177   4.171  13.138  0.3978 -0.2305  0.8763
  854MPD2     H12597   1.381   4.287  12.841 -0.5455  1.6057  0.0319
  854MPD2    H112598   1.340   4.052  13.192  1.2879  1.2144  0.4700
  854MPD2    H212599   1.028   4.315  13.072  0.8128  1.6947 -1.6793
  854MPD2    H312600   1.126   4.162  13.233  0.6042 -2.9921  0.7384
  854MPD2     N12601   1.508   4.103  12.987 -0.1806 -0.3032  0.8465
  854MPD2    H512602   1.553   4.036  13.049  1.5370  0.7305  0.7290
  854MPD2    N112603   1.158   4.435  12.880 -0.2656  0.0392  0.7786
  854MPD2    H712604   1.060   4.458  12.869  0.1726  0.8046 -1.4806
  855MPD2     C12605   2.043   3.910  13.580 -0.0814  0.1637  0.1435
  855MPD2    C112606   2.056   3.803  13.489 -0.2517 -0.1588  0.0272
  855MPD2    C212607   2.028   3.829  13.351  0.6652 -0.0951  0.3494
  855MPD2    C312608   1.979   3.950  13.314 -0.0037 -0.4957  0.3784
  855MPD2    C412609   1.973   4.056  13.404  0.5245 -0.3460 -0.3563
  855MPD2    C512610   2.010   4.031  13.531  0.5884  0.0942  0.7170
  855MPD2     H12611   2.024   3.745  13.282 -1.2370  0.8634 -0.7034
  855MPD2    H112612   1.946   4.156  13.370 -1.0253 -0.5251  0.3456
  855MPD2    H212613   2.061   3.906  13.687  0.8555  0.5742  0.0081
  855MPD2    H312614   2.010   4.108  13.608 -0.2009 -0.0518  0.8633
  855MPD2     N12615   1.948   3.982  13.178 -0.1298 -0.2787 -0.2382
  855MPD2    H512616   1.920   4.078  13.162  0.5679 -0.5176 -2.8278
  855MPD2    N112617   2.070   3.669  13.527  0.1515 -0.5221  0.4806
  855MPD2    H712618   2.056   3.601  13.453  1.5210  2.2402 -2.3266
  856MPD2     C12619   3.860   4.162  13.675 -0.5049  0.4004 -0.1233
  856MPD2    C112620   3.828   4.255  13.777  1.1831  0.5228  0.3741
  856MPD2    C212621   3.705   4.320  13.773 -0.0084  0.1631  0.2881
  856MPD2    C312622   3.617   4.304  13.669  0.2535  0.2335 -0.2289
  856MPD2    C412623   3.645   4.211  13.579  0.0071 -0.2740  0.1417
  856MPD2    C512624   3.768   4.146  13.579 -0.6610  0.5947 -0.0907
  856MPD2     H12625   3.682   4.397  13.846 -4.6019 -1.8103  0.9282
  856MPD2    H112626   3.580   4.194  13.494 -1.1796  2.2491  0.5601
  856MPD2    H212627   3.954   4.108  13.672  0.1720  1.4778  1.7576
  856MPD2    H312628   3.789   4.073  13.502 -1.6721 -0.7708  0.9299
  856MPD2     N12629   3.496   4.381  13.660 -0.1342  0.1917  0.2091
  856MPD2    H512630   3.435   4.360  13.581  0.2206 -1.1793  0.2898
  856MPD2    N112631   3.918   4.298  13.878  0.4123  0.3259 -0.8363
  856MPD2    H712632   3.878   4.364  13.944  3.6976  0.0032  1.4909
  857MPD2     C12633   0.187   2.015  13.207  0.6400  0.3185 -0.4431
  857MPD2    C112634   0.325   2.010  13.185 -0.0821 -0.7264  0.1087
  857MPD2    C212635   0.408   2.122  13.207  0.0168  0.5339 -0.5367
  857MPD2    C312636   0.351   2.241  13.253 -0.7020 -0.9630 -0.0635
  857MPD2    C412637   0.216   2.237  13.289 -0.4627 -0.8069  0.2955
  857MPD2    C512638   0.136   2.130  13.263  0.3299 -0.1111  0.1305
  857MPD2     H12639   0.515   2.112  13.195  0.2203  2.4764 -0.3623
  857MPD2    H112640   0.177   2.319  13.348  1.7735 -0.6536  1.5608
  857MPD2    H212641   0.125   1.931  13.178 -0.9333  1.0499  0.8129
  857MPD2    H312642   0.034   2.145  13.296  0.8160  0.3430  1.4291
  857MPD2     N12643   0.430   2.356  13.259  0.5178 -0.0752  0.5382
  857MPD2    H512644   0.529   2.341  13.241  0.3962 -0.0255 -0.1777
  857MPD2    N112645   0.373   1.891  13.129  0.4900 -0.9338  0.1202
  857MPD2    H712646   0.306   1.819  13.105 -1.1394  0.7267 -0.2567
  858MPD2     C12647   1.478   1.166  16.527  0.3104 -0.2391 -0.0416
  858MPD2    C112648   1.546   1.079  16.603 -0.9223 -0.0118  0.1723
  858MPD2    C212649   1.587   1.108  16.735  0.2567  0.0328 -0.6040
  858MPD2    C312650   1.539   1.228  16.791  0.2596  0.1141  0.5349
  858MPD2    C412651   1.474   1.321  16.714  0.0153 -0.1005  1.6675
  858MPD2    C512652   1.437   1.288  16.585  0.0305 -0.2717 -0.3360
  858MPD2     H12653   1.632   1.030  16.795 -0.7953 -0.2988 -0.2623
  858MPD2    H112654   1.438   1.415  16.753  0.3237  1.0931 -0.8809
  858MPD2    H212655   1.443   1.141  16.428 -0.3573 -0.1673  0.1763
  858MPD2    H312656   1.384   1.362  16.527 -0.5002  0.4594  1.0854
  858MPD2     N12657   1.568   1.260  16.927 -0.1455 -0.6719  0.0927
  858MPD2    H512658   1.505   1.326  16.972  2.6016  2.5693 -0.7908
  858MPD2    N112659   1.595   0.955  16.560 -0.5280  0.5457  0.1738
  858MPD2    H712660   1.656   0.903  16.622  0.8123 -0.1214 -1.6763
  859MPD2     C12661   0.342   3.433  15.976 -0.0978 -0.7989  0.1109
  859MPD2    C112662   0.262   3.393  15.867  0.1645  0.0572 -0.0553
  859MPD2    C212663   0.195   3.277  15.871 -0.0572 -0.0103  0.6718
  859MPD2    C312664   0.191   3.201  15.986 -0.1415 -0.2729 -0.0827
  859MPD2    C412665   0.259   3.253  16.095 -0.3937 -0.5488  0.0990
  859MPD2    C512666   0.327   3.369  16.089 -0.1388  0.0245 -0.0169
  859MPD2     H12667   0.132   3.247  15.788  1.8004  0.7751 -0.9970
  859MPD2    H112668   0.264   3.198  16.188  0.8482  0.1400  0.4364
  859MPD2    H212669   0.396   3.526  15.973 -0.1820 -0.7055  1.4076
  859MPD2    H312670   0.375   3.414  16.175 -0.5958 -0.0938  0.2981
  859MPD2     N12671   0.120   3.080  16.012 -0.3713 -0.0799  0.7318
  859MPD2    H512672   0.142   3.026  16.095 -1.0880 -1.2271  0.1828
  859MPD2    N112673   0.262   3.477  15.750 -0.4729 -0.1150 -0.0181
  859MPD2    H712674   0.312   3.566  15.759 -1.0214  0.3272 -1.4631
  860MPD2     C12675   2.542   4.530  12.042 -0.1561 -0.5868  0.7989
  860MPD2    C112676   2.571   4.401  11.999  0.2059 -0.3072 -0.3467
  860MPD2    C212677   2.470   4.318  11.960  1.2535 -0.1863  0.3827
  860MPD2    C312678   2.341   4.359  11.940 -0.6100  0.0780  0.8595
  860MPD2    C412679   2.316   4.496  11.967  0.7093 -0.0362 -0.0722
  860MPD2    C512680   2.414   4.574  12.022  0.0146  0.1032  0.2550
  860MPD2     H12681   2.500   4.221  11.921 -0.6922 -0.8090  0.4712
  860MPD2    H112682   2.222   4.547  11.948 -1.0001 -2.9766  0.4545
  860MPD2    H212683   2.611   4.597  12.092  1.4248 -1.6728  0.1086
  860MPD2    H312684   2.379   4.673  12.048  1.2709  0.4766  0.5421
  860MPD2     N12685   2.244   4.271  11.887 -0.5766  0.0883  0.7583
  860MPD2    H512686   2.259   4.171  11.899 -1.3827 -0.2891 -1.3449
  860MPD2    N112687   2.700   4.337  11.998  0.3071  0.0449  0.5035
  860MPD2    H712688   2.707   4.250  11.946 -0.1764  0.0977  0.3518
  861MPD2     C12689   1.058   1.785  10.800  0.0155  0.0010 -0.3387
  861MPD2    C112690   1.034   1.906  10.867 -0.8186  0.0904  0.3524
  861MPD2    C212691   0.988   2.017  10.793  0.2121  0.9042  0.0199
  861MPD2    C312692   0.959   2.007  10.657 -0.6170  0.1013  0.0137
  861MPD2    C412693   0.996   1.886  10.595 -0.3488  0.0752 -0.4120
  861MPD2    C512694   1.040   1.775  10.663  0.4898 -0.0739  0.1268
  861MPD2     H12695   0.968   2.113  10.839 -1.5707 -0.3208  1.8250
  861MPD2    H112696   0.982   1.861  10.491  0.9476 -2.0790 -0.0673
  861MPD2    H212697   1.095   1.693  10.844  0.6672 -0.3428 -1.5922
  861MPD2    H312698   1.057   1.686  10.604  3.0842  0.1239  0.6070
  861MPD2     N12699   0.887   2.105  10.580 -0.5108 -0.1262 -0.3467
  861MPD2    H512700   0.848   2.064  10.496  2.0212  0.0412 -1.6053
  861MPD2    N112701   1.065   1.922  11.008 -0.1796 -0.0924 -0.1726
  861MPD2    H712702   1.041   2.012  11.048 -2.4656 -0.8274  0.0935
  862MPD2     C12703   0.472   2.175   9.978  0.4846 -0.0046  0.4090
  862MPD2    C112704   0.521   2.107  10.084  0.7202  0.7029 -0.7292
  862MPD2    C212705   0.497   1.976  10.104  0.3584  0.6740  0.6175
  862MPD2    C312706   0.411   1.909  10.021 -0.5555  0.6510 -0.0756
  862MPD2    C412707   0.354   1.978   9.922  0.0781  0.0215 -0.3702
  862MPD2    C512708   0.387   2.104   9.898 -0.5104  0.0286  0.6537
  862MPD2     H12709   0.558   1.922  10.175  2.0881  2.7582  0.7469
  862MPD2    H112710   0.280   1.935   9.855  0.8396 -3.3377  0.9029
  862MPD2    H212711   0.491   2.278   9.953 -0.3359  0.5689  2.1303
  862MPD2    H312712   0.342   2.153   9.814  0.6536  0.8619  0.5209
  862MPD2     N12713   0.354   1.789  10.060  0.3393  0.2736 -0.6765
  862MPD2    H512714   0.260   1.774  10.026  0.0478  1.0350 -0.2000
  862MPD2    N112715   0.596   2.177  10.182 -0.5188 -0.1123  0.0739
  862MPD2    H712716   0.628   2.116  10.255 -1.3965  0.5135  0.9902
  863MPD2     C12717   4.527   0.108  16.440 -0.5493  0.1064  0.3806
  863MPD2    C112718   4.598   0.217  16.486  0.7571  0.4770  0.0607
  863MPD2    C212719   4.667   0.203  16.605 -0.6288 -0.0931  0.0508
  863MPD2    C312720   4.667   0.087  16.674 -0.4627  0.4200  0.6039
  863MPD2    C412721   4.586   4.723  16.632 -0.2183 -0.1838 -0.3771
  863MPD2    C512722   4.518   4.739  16.514 -0.2427 -0.7170  0.3543
  863MPD2     H12723   4.727   0.283  16.649 -0.2687 -1.3612  1.8832
  863MPD2    H112724   4.584   4.630  16.686  0.5901  0.2466  0.3921
  863MPD2    H212725   4.465   0.113  16.352 -0.7183  0.7133  0.5346
  863MPD2    H312726   4.457   4.654  16.484  0.2617 -1.0399  0.2403
  863MPD2     N12727   0.010   0.056  16.787  0.3228  0.3873  0.5042
  863MPD2    H512728   4.727   4.710  16.837  3.0356  0.2486  1.4694
  863MPD2    N112729   4.600   0.332  16.400 -0.0691  0.4610 -0.0438
  863MPD2    H712730   4.543   0.348  16.317 -0.9815  2.1468  0.9055
  864MPD2     C12731   0.561   0.981  17.271 -0.2470 -0.3058 -0.6115
  864MPD2    C112732   0.636   0.908  17.180 -0.7083 -0.4331 -0.2119
  864MPD2    C212733   0.767   0.944  17.154  0.8698  0.6842  0.3395
  864MPD2    C312734   0.823   1.051  17.219  0.2107  0.0558 -0.1184
  864MPD2    C412735   0.739   1.136  17.293 -0.0686  0.6356 -0.4483
  864MPD2    C512736   0.613   1.098  17.314 -0.1790 -0.4280  0.4989
  864MPD2     H12737   0.825   0.888  17.081  1.2307 -0.3885  1.4577
  864MPD2    H112738   0.767   1.237  17.323 -1.5366  0.8317  0.2795
  864MPD2    H212739   0.456   0.958  17.279  0.2825 -2.2921  0.6268
  864MPD2    H312740   0.539   1.165  17.356 -0.2114  0.6047 -1.2224
  864MPD2     N12741   0.955   1.093  17.180  0.1368  0.3544 -0.0595
  864MPD2    H512742   0.984   1.048  17.094 -0.5512  0.1233 -0.1741
  864MPD2    N112743   0.575   0.797  17.126  0.1205  0.5624  0.2645
  864MPD2    H712744   0.482   0.769  17.153  0.0911 -2.0276 -2.5452
  865MPD2     C12745   1.144   1.640  16.440 -0.8823  0.2932  0.5846
  865MPD2    C112746   1.067   1.529  16.468  0.1242 -0.5766  0.2225
  865MPD2    C212747   1.072   1.478  16.599 -0.0347 -0.5674  0.1728
  865MPD2    C312748   1.171   1.519  16.693  0.7416 -0.6772 -0.3446
  865MPD2    C412749   1.251   1.626  16.658  0.7999  0.7131  0.0571
  865MPD2    C512750   1.231   1.685  16.532  0.7576  0.1850 -0.3194
  865MPD2     H12751   1.009   1.395  16.629  0.6023 -2.1227 -2.8450
  865MPD2    H112752   1.317   1.678  16.726 -0.1924 -0.8653  2.2087
  865MPD2    H212753   1.153   1.680  16.340 -0.5045 -1.9641 -0.2938
  865MPD2    H312754   1.283   1.778  16.520 -1.7729  1.4902 -1.2220
  865MPD2     N12755   1.181   1.474  16.830 -0.2961 -0.5378  0.1909
  865MPD2    H512756   1.251   1.512  16.893  1.5589 -1.0432 -1.6183
  865MPD2    N112757   0.989   1.470  16.363  1.1120  0.0078  0.0780
  865MPD2    H712758   0.994   1.505  16.268  1.7809  0.6741  0.3526
  866MPD2     C12759   1.330   2.439  11.325 -0.0541 -0.0004  0.5166
  866MPD2    C112760   1.306   2.339  11.236  0.1465 -0.3448  0.4376
  866MPD2    C212761   1.175   2.306  11.205 -0.2299 -0.1982  0.4651
  866MPD2    C312762   1.065   2.391  11.247 -0.3413 -0.0921  0.2199
  866MPD2    C412763   1.095   2.499  11.329 -0.7839  0.6687  0.6104
  866MPD2    C512764   1.222   2.503  11.379 -0.1764  0.2962  0.2286
  866MPD2     H12765   1.152   2.226  11.135 -0.2858  0.1690  0.0595
  866MPD2    H112766   1.019   2.565  11.368 -1.8780  0.4431 -1.0986
  866MPD2    H212767   1.427   2.464  11.366  1.4770 -1.2673 -2.3271
  866MPD2    H312768   1.249   2.572  11.458 -2.7019  2.0109 -0.3878
  866MPD2     N12769   0.932   2.390  11.194 -1.1805  0.6221 -0.1653
  866MPD2    H512770   0.865   2.458  11.229  1.2039  1.2570  3.1131
  866MPD2    N112771   1.419   2.273  11.184 -0.4842  0.1549  0.0779
  866MPD2    H712772   1.506   2.323  11.196  0.3764 -1.2624 -0.3192
  867MPD2     C12773   4.162   1.940  16.273 -0.3084  0.4574  0.3285
  867MPD2    C112774   4.214   1.876  16.385 -0.6284  0.1523 -0.0227
  867MPD2    C212775   4.188   1.931  16.512 -0.3359 -0.8775 -0.7381
  867MPD2    C312776   4.117   2.053  16.520 -0.1963  0.1256 -0.3414
  867MPD2    C412777   4.070   2.110  16.407 -0.7264 -0.6869 -0.0494
  867MPD2    C512778   4.095   2.057  16.287  0.2433 -0.1761 -0.3586
  867MPD2     H12779   4.222   1.886  16.605 -2.0673  0.7773  0.6877
  867MPD2    H112780   4.018   2.205  16.415 -0.3509 -0.4006 -0.9736
  867MPD2    H212781   4.166   1.896  16.174 -0.3292 -2.3414  1.5814
  867MPD2    H312782   4.058   2.114  16.203 -1.8747  0.1522  0.8025
  867MPD2     N12783   4.093   2.127  16.639  0.2056  0.1310 -0.3942
  867MPD2    H512784   4.059   2.222  16.624  0.0529 -0.1075 -1.5844
  867MPD2    N112785   4.280   1.751  16.360 -0.2248  0.0394  0.1484
  867MPD2    H712786   4.306   1.728  16.265  1.1798 -1.3374  0.8703
  868MPD2     C12787   0.545   0.659  13.152  0.2522  0.2413 -0.0741
  868MPD2    C112788   0.621   0.648  13.262 -0.6055  0.3857  0.6264
  868MPD2    C212789   0.548   0.655  13.378 -0.1037  0.0248  0.2269
  868MPD2    C312790   0.411   0.687  13.380  0.6719 -0.1784  1.0052
  868MPD2    C412791   0.344   0.698  13.260  0.3845  0.1161 -0.0533
  868MPD2    C512792   0.413   0.682  13.144  0.2284  0.3489  0.1172
  868MPD2     H12793   0.598   0.642  13.473 -0.1110  1.8902  0.4737
  868MPD2    H112794   0.238   0.712  13.244  0.1504 -1.1156  0.4160
  868MPD2    H212795   0.585   0.623  13.057 -1.9624 -0.6460 -0.6750
  868MPD2    H312796   0.362   0.688  13.048  2.0459  3.4928 -0.6426
  868MPD2     N12797   0.351   0.726  13.499 -0.2291  0.1425 -0.4834
  868MPD2    H512798   0.405   0.710  13.584 -0.1174  1.4472 -0.3047
  868MPD2    N112799   0.749   0.596  13.243  0.8392  0.4438 -0.5724
  868MPD2    H712800   0.773   0.616  13.146 -0.6717  0.8991 -0.8555
  869MPD2     C12801   2.242   3.419   0.078 -0.3360 -0.3271 -0.5291
  869MPD2    C112802   2.168   3.376   0.189  0.1071 -0.2840  0.1747
  869MPD2    C212803   2.232   3.369   0.316 -0.5686 -0.3198 -0.3561
  869MPD2    C312804   2.353   3.430   0.333 -0.3531 -0.5380 -0.3486
  869MPD2    C412805   2.431   3.456   0.221  0.1254 -0.5167  0.2771
  869MPD2    C512806   2.373   3.458   0.097  0.3052  0.0537  0.2825
  869MPD2     H12807   2.184   3.340   0.409 -0.9600  1.8147  0.1237
  869MPD2    H112808   2.532   3.495   0.226  0.1361 -0.4122 -0.6517
  869MPD2    H212809   2.203   3.417  17.731  2.0283  2.3838 -1.5003
  869MPD2    H312810   2.435   3.484   0.012  1.7430  0.2807  1.4180
  869MPD2     N12811   2.417   3.449   0.461 -0.2084 -0.6098 -0.3461
  869MPD2    H512812   2.512   3.485   0.457  0.6631 -2.7545  1.0556
  869MPD2    N112813   2.029   3.341   0.183 -0.2317  0.0461  0.3254
  869MPD2    H712814   1.981   3.375   0.101 -1.9614  1.8321  2.0785
  870MPD2     C12815   2.387   2.200   1.630  0.2328 -0.3252 -0.4375
  870MPD2    C112816   2.291   2.121   1.576  0.3012  0.4358  0.3697
  870MPD2    C212817   2.157   2.162   1.572  0.3089  0.0077  0.9679
  870MPD2    C312818   2.136   2.294   1.617 -0.5894 -0.6168 -0.2051
  870MPD2    C412819   2.233   2.365   1.686  0.0460  0.2124  0.1017
  870MPD2    C512820   2.357   2.315   1.698  0.3535 -0.6107  0.0767
  870MPD2     H12821   2.081   2.112   1.514  0.9681 -0.0353  0.1329
  870MPD2    H112822   2.228   2.466   1.725 -0.6396  0.2397 -0.0530
  870MPD2    H212823   2.489   2.164   1.630 -0.0399 -1.1152 -1.1082
  870MPD2    H312824   2.432   2.376   1.748  0.6162 -0.5829 -0.3500
  870MPD2     N12825   2.009   2.354   1.586 -0.1121 -0.4356  0.2599
  870MPD2    H512826   1.940   2.300   1.534 -0.6087  0.0672  0.3921
  870MPD2    N112827   2.339   2.001   1.519  0.6723  0.1194 -0.3121
  870MPD2    H712828   2.437   2.000   1.493  1.0759 -1.0076  1.2524
  871MPD2     C12829   2.015   1.708  16.511  0.4020  0.0779  0.3590
  871MPD2    C112830   2.080   1.694  16.632  0.5279  0.3284  0.3447
  871MPD2    C212831   2.153   1.578  16.654 -0.3722  0.5512  0.2419
  871MPD2    C312832   2.124   1.464  16.579  0.4425 -0.0358 -0.4132
  871MPD2    C412833   2.035   1.467  16.471 -0.8679  0.0896 -0.1627
  871MPD2    C512834   1.985   1.591  16.437 -0.9592 -0.3340  0.2155
  871MPD2     H12835   2.211   1.558  16.743 -0.2916  0.5454  0.1877
  871MPD2    H112836   2.013   1.380  16.410 -0.4031  0.9900 -1.6195
  871MPD2    H212837   1.975   1.805  16.488  0.2856 -0.4113 -1.5359
  871MPD2    H312838   1.919   1.614  16.354  2.6600 -0.6278 -2.7547
  871MPD2     N12839   2.200   1.352  16.612 -0.0923 -0.4964 -0.0775
  871MPD2    H512840   2.257   1.352  16.696 -0.7243 -0.2530  0.3529
  871MPD2    N112841   2.090   1.803  16.715 -0.4881 -0.4517  0.2877
  871MPD2    H712842   2.055   1.894  16.686  0.6991  0.2588  1.1062
  872MPD2     C12843   4.020   3.938  14.150 -0.2568 -0.3730  0.5102
  872MPD2    C112844   3.935   3.903  14.048 -0.1490 -0.1828 -0.1163
  872MPD2    C212845   3.807   3.874  14.078  0.1175 -0.0381  0.0238
  872MPD2    C312846   3.758   3.868  14.203  0.3204  0.1247 -0.3103
  872MPD2    C412847   3.840   3.892  14.308  0.5078  0.7178 -0.5876
  872MPD2    C512848   3.976   3.919  14.282 -0.9397  0.0600  0.6835
  872MPD2     H12849   3.737   3.854  13.997  2.0374 -1.1328 -1.3798
  872MPD2    H112850   3.802   3.892  14.409  0.5957 -0.1582 -0.5519
  872MPD2    H212851   4.123   3.963  14.130 -1.3000  3.3641 -0.1969
  872MPD2    H312852   4.047   3.940  14.362  1.9838  0.3630 -1.9816
  872MPD2     N12853   3.626   3.852  14.242 -0.9498 -0.2310 -0.0344
  872MPD2    H512854   3.609   3.854  14.342  0.7789 -0.8060  0.2631
  872MPD2    N112855   3.991   3.910  13.913  0.0555  0.6985  0.0329
  872MPD2    H712856   4.079   3.960  13.907 -0.2534  1.2678  0.2555
  873MPD2     C12857   0.616   4.007   0.294  0.6905 -0.0119  0.2438
  873MPD2    C112858   0.655   3.955   0.418 -0.8454  0.1771  0.3372
  873MPD2    C212859   0.709   3.823   0.423  0.5006 -0.4425  0.0494
  873MPD2    C312860   0.720   3.751   0.305  0.6475  0.8460 -0.1849
  873MPD2    C412861   0.685   3.804   0.186 -0.3316 -0.1294 -0.1968
  873MPD2    C512862   0.625   3.925   0.183  0.3608  0.3659 -0.2751
  873MPD2     H12863   0.721   3.773   0.518 -1.6586 -0.4072  0.3287
  873MPD2    H112864   0.685   3.749   0.093  0.5816  1.0745 -0.9078
  873MPD2    H212865   0.572   4.106   0.282  1.9754 -0.0667 -5.2089
  873MPD2    H312866   0.592   3.957   0.085  0.4056 -1.1473 -0.7908
  873MPD2     N12867   0.753   3.608   0.302  0.0591  0.7253 -1.0393
  873MPD2    H512868   0.745   3.566   0.210  1.3430  0.0915 -0.8769
  873MPD2    N112869   0.625   4.030   0.534 -0.5324 -0.3031 -0.6850
  873MPD2    H712870   0.575   4.116   0.517 -0.0411  0.1079 -0.0726
  874MPD2     C12871   0.278   4.331  16.236 -0.1616 -0.5154  0.2019
  874MPD2    C112872   0.359   4.296  16.337  0.2836  0.1315  1.0228
  874MPD2    C212873   0.470   4.379  16.361 -0.0108  0.4572 -0.2725
  874MPD2    C312874   0.496   4.487  16.284  0.4337 -0.1310  0.1831
  874MPD2    C412875   0.406   4.516  16.185 -0.0368 -0.3387 -0.4375
  874MPD2    C512876   0.302   4.437  16.160  0.2356 -0.0128 -0.3620
  874MPD2     H12877   0.539   4.341  16.436 -0.2994 -1.0714 -0.7808
  874MPD2    H112878   0.418   4.597  16.113  0.8819 -0.1214 -0.0261
  874MPD2    H212879   0.199   4.262  16.207 -1.0807  0.7655 -0.3731
  874MPD2    H312880   0.232   4.467  16.083  0.0369  0.9339  0.1876
  874MPD2     N12881   0.610   4.563  16.291  0.9000  0.1701  0.1559
  874MPD2    H512882   0.642   4.617  16.211  0.2989  0.1797 -0.0758
  874MPD2    N112883   0.335   4.173  16.402 -0.6661 -0.6430  0.6027
  874MPD2    H712884   0.262   4.118  16.359 -1.3441 -0.4573  1.5212
  875MPD2     C12885   1.144   2.112  14.351  0.1685 -1.0884 -0.4342
  875MPD2    C112886   1.041   2.206  14.326 -0.0445 -0.7687 -0.0987
  875MPD2    C212887   1.009   2.296  14.423  0.4463  0.0161 -0.9943
  875MPD2    C312888   1.076   2.297  14.540  0.2883 -0.0500 -0.0070
  875MPD2    C412889   1.170   2.197  14.567 -0.1879  0.3329  0.1098
  875MPD2    C512890   1.193   2.102  14.475  0.5805 -0.1211  0.1174
  875MPD2     H12891   0.937   2.373  14.398 -0.6970 -0.2801  1.3246
  875MPD2    H112892   1.199   2.177  14.670 -0.5103  0.9951  0.3278
  875MPD2    H212893   1.165   2.026  14.289 -0.2253  0.3046 -2.5059
  875MPD2    H312894   1.273   2.031  14.491 -0.2490 -0.9001  0.8375
  875MPD2     N12895   1.063   2.391  14.648 -0.1714  0.0368 -0.8702
  875MPD2    H512896   1.140   2.381  14.714 -0.9920  1.2882  0.2641
  875MPD2    N112897   0.963   2.202  14.204  0.0217  0.3272 -0.2184
  875MPD2    H712898   0.888   2.270  14.210 -1.5071 -1.3950  0.4236
  876MPD2     C12899   0.314   3.923  16.071  0.0391  0.4968 -0.4153
  876MPD2    C112900   0.445   3.901  16.026  0.1126  0.2882  0.4409
  876MPD2    C212901   0.522   3.795  16.081  1.2596  0.2946 -0.1366
  876MPD2    C312902   0.465   3.713  16.175  0.0363  0.3820 -0.2913
  876MPD2    C412903   0.334   3.728  16.201  0.6060 -0.3925  0.4890
  876MPD2    C512904   0.263   3.834  16.163  0.0134 -0.5341  0.2183
  876MPD2     H12905   0.626   3.784  16.051  1.7491 -0.5874  1.8504
  876MPD2    H112906   0.272   3.657  16.255  0.7920 -0.8519  0.0998
  876MPD2    H212907   0.241   3.996  16.039  0.3215  1.0040  0.0864
  876MPD2    H312908   0.155   3.839  16.172  0.0100  2.4216 -1.5265
  876MPD2     N12909   0.543   3.619  16.237  0.3596 -0.0833 -0.0797
  876MPD2    H512910   0.628   3.592  16.188 -0.7430 -1.2118 -1.3312
  876MPD2    N112911   0.486   3.992  15.929  0.6596  0.4102  0.4976
  876MPD2    H712912   0.415   4.062  15.911  1.7253  1.4624  0.3363
  877MPD2     C12913   0.225   4.144  15.206  0.3071  0.0281  0.5461
  877MPD2    C112914   0.346   4.204  15.234  0.4558 -0.8591 -0.2926
  877MPD2    C212915   0.418   4.245  15.129 -0.5117  0.5317 -0.3518
  877MPD2    C312916   0.385   4.226  15.002 -0.4719  0.1321 -0.1604
  877MPD2    C412917   0.266   4.154  14.969  0.6604  0.3577 -0.4819
  877MPD2    C512918   0.186   4.119  15.071 -0.2194 -0.0940  0.4437
  877MPD2     H12919   0.514   4.281  15.162 -0.4476  0.1271 -0.0965
  877MPD2    H112920   0.227   4.128  14.871  0.5098 -0.1625 -0.2871
  877MPD2    H212921   0.165   4.107  15.289  1.1234 -1.6863  0.3757
  877MPD2    H312922   0.098   4.058  15.055 -0.4616  1.3285 -3.5115
  877MPD2     N12923   0.472   4.261  14.895 -0.9190 -0.0471  0.2278
  877MPD2    H512924   0.441   4.231  14.803  1.0940 -0.6843 -0.2445
  877MPD2    N112925   0.402   4.224  15.362 -0.1306  0.2630 -0.0103
  877MPD2    H712926   0.494   4.266  15.363 -0.6550  1.4914 -2.6380
  878MPD2     C12927   4.214   3.136  13.271 -0.5345 -0.0226  0.0779
  878MPD2    C112928   4.344   3.152  13.229 -0.8624 -0.9737  0.1930
  878MPD2    C212929   4.445   3.168  13.334  0.8506 -0.6395 -0.6631
  878MPD2    C312930   4.405   3.162  13.466  0.0307  0.4269  0.2140
  878MPD2    C412931   4.276   3.132  13.500  0.8466  0.7868  0.4027
  878MPD2    C512932   4.181   3.122  13.402  0.2452 -0.3715  0.1542
  878MPD2     H12933   4.551   3.169  13.314  0.8997  0.5172 -0.3382
  878MPD2    H112934   4.241   3.135  13.603 -0.7852  0.8124 -0.1453
  878MPD2    H212935   4.134   3.121  13.200  0.3600  0.2951 -0.9965
  878MPD2    H312936   4.081   3.096  13.435 -0.2664  2.1620  0.5500
  878MPD2     N12937   4.515   3.164  13.551 -0.1937  0.0758 -0.2097
  878MPD2    H512938   4.606   3.192  13.517  0.0487  0.3975  0.7033
  878MPD2    N112939   4.363   3.153  13.086  0.5392 -0.2717 -0.1941
  878MPD2    H712940   4.278   3.128  13.036  0.4047  2.7184 -1.4215
  879MPD2     C12941   0.705   0.285  16.742  0.3486  0.2199  0.0784
  879MPD2    C112942   0.694   0.165  16.812 -0.5277 -0.4851 -0.2008
  879MPD2    C212943   0.610   0.069  16.759 -0.0580  0.0073 -0.3815
  879MPD2    C312944   0.536   0.094  16.647  0.5068 -0.0509 -0.3590
  879MPD2    C412945   0.541   0.207  16.575 -0.0191  0.0826 -0.0652
  879MPD2    C512946   0.634   0.298  16.618  0.1733  0.0291  0.1129
  879MPD2     H12947   0.596   4.709  16.800  0.2170 -0.2078 -0.8100
  879MPD2    H112948   0.477   0.229  16.491 -1.4013 -0.9928  0.7004
  879MPD2    H212949   0.778   0.355  16.782 -0.6689  0.9290  0.7056
  879MPD2    H312950   0.640   0.389  16.558  1.5039  1.8128  2.9283
  879MPD2     N12951   0.441   0.008  16.595 -0.4197  0.5079  0.6684
  879MPD2    H512952   0.386   0.041  16.516 -0.6731  0.9975  1.0489
  879MPD2    N112953   0.759   0.142  16.931  0.0983  0.4281  0.1115
  879MPD2    H712954   0.795   0.227  16.972  2.0094 -0.0550 -0.5716
  880MPD2     C12955   1.498   1.651   0.527 -0.9929  0.4274  0.2907
  880MPD2    C112956   1.614   1.728   0.535 -0.6647 -0.2856 -0.5865
  880MPD2    C212957   1.730   1.671   0.580 -0.1004  0.1588 -0.1019
  880MPD2    C312958   1.727   1.534   0.614  0.0953 -0.2758 -0.1364
  880MPD2    C412959   1.607   1.461   0.604  0.0789  0.2172 -0.3992
  880MPD2    C512960   1.496   1.521   0.561 -0.6344  0.3405 -0.2501
  880MPD2     H12961   1.813   1.738   0.598 -1.0597  0.3034  3.7721
  880MPD2    H112962   1.602   1.353   0.616 -1.5122  0.2849 -0.5531
  880MPD2    H212963   1.409   1.697   0.487 -1.2176  1.2590  1.7516
  880MPD2    H312964   1.410   1.460   0.535  0.9758 -3.1792  2.6441
  880MPD2     N12965   1.853   1.476   0.631 -0.3657 -0.3250 -0.5165
  880MPD2    H512966   1.931   1.539   0.624 -0.9396  0.4576  0.0877
  880MPD2    N112967   1.594   1.866   0.503 -0.2217 -0.5099 -0.7363
  880MPD2    H712968   1.497   1.888   0.482  0.3916  1.4731 -1.5784
  881MPD2     C12969   2.206   2.693   0.237  0.0657 -0.5972 -0.3094
  881MPD2    C112970   2.127   2.611   0.155 -0.5331  0.9858  0.3584
  881MPD2    C212971   2.022   2.550   0.212 -0.5566  0.5924 -0.5080
  881MPD2    C312972   1.998   2.548   0.350  0.5453  0.2949 -0.1743
  881MPD2    C412973   2.062   2.637   0.427 -0.3332 -0.2694  0.0671
  881MPD2    C512974   2.161   2.712   0.366  0.2004  0.1031  0.8181
  881MPD2     H12975   1.958   2.492   0.146 -0.2900 -1.3614  0.9316
  881MPD2    H112976   2.041   2.653   0.532 -1.4770  0.4500 -0.2712
  881MPD2    H212977   2.277   2.764   0.196  0.7504  0.7530  3.2501
  881MPD2    H312978   2.209   2.792   0.423  2.6086 -0.7916  0.0716
  881MPD2     N12979   1.897   2.468   0.413  0.5978  0.2681  0.0006
  881MPD2    H512980   1.895   2.486   0.513 -0.3526 -0.2506  0.0786
  881MPD2    N112981   2.168   2.596   0.019 -0.3007  0.7102 -0.1606
  881MPD2    H712982   2.253   2.644  17.743  0.3745  0.4185  1.2889
  882MPD2     C12983   0.545   4.100  14.145 -0.2886  0.1199 -0.4929
  882MPD2    C112984   0.517   4.096  14.281 -0.7206 -0.1462 -0.2492
  882MPD2    C212985   0.421   4.006  14.326 -0.3049 -0.6869 -0.4903
  882MPD2    C312986   0.345   3.933  14.237  0.9781  0.0231  0.6224
  882MPD2    C412987   0.388   3.931  14.106 -0.0856  0.1606  0.6337
  882MPD2    C512988   0.478   4.020  14.060 -0.4055  0.0934 -0.2236
  882MPD2     H12989   0.408   3.996  14.433 -0.3357 -0.4918 -0.4751
  882MPD2    H112990   0.332   3.862  14.043 -1.5542  1.6497  0.3108
  882MPD2    H212991   0.618   4.168  14.103 -1.6873  2.2115  0.4918
  882MPD2    H312992   0.507   4.018  13.955 -2.4574  1.0012 -0.8164
  882MPD2     N12993   0.237   3.855  14.282  0.3526  0.4270  0.0091
  882MPD2    H512994   0.171   3.823  14.211  0.9505  0.0689 -0.3816
  882MPD2    N112995   0.592   4.176  14.369 -0.1599 -1.0066  0.2550
  882MPD2    H712996   0.676   4.216  14.327 -0.7089 -0.2439 -0.1270
  883MPD2     C12997   2.556   3.194  16.058  0.2346  0.5289  0.2439
  883MPD2    C112998   2.527   3.328  16.054 -0.1427  0.4800 -0.0327
  883MPD2    C212999   2.616   3.426  16.108 -0.3024 -0.4507  0.0352
  883MPD2    C313000   2.736   3.388  16.167  0.2685 -0.3670  0.8348
  883MPD2    C413001   2.757   3.254  16.182 -0.1467 -0.3182 -0.1882
  883MPD2    C513002   2.668   3.161  16.129 -0.3287 -0.3231 -0.2091
  883MPD2     H13003   2.588   3.531  16.104  2.1281  0.2113  0.1685
  883MPD2    H113004   2.843   3.211  16.232 -0.6694  2.2273  2.8556
  883MPD2    H213005   2.486   3.120  16.021  0.2569  0.4352  0.3871
  883MPD2    H313006   2.674   3.054  16.149  0.2904 -0.1936  0.2908
  883MPD2     N13007   2.832   3.490  16.198  0.1985 -0.3213  0.0835
  883MPD2    H513008   2.812   3.589  16.188 -0.8427 -0.6452 -1.0901
  883MPD2    N113009   2.407   3.380  16.004 -0.5673  0.1526  0.0893
  883MPD2    H713010   2.404   3.481  15.993 -3.4825 -0.0509 -0.8834
  884MPD2     C13011   4.352   4.698  15.030  0.4135  1.0362  0.1150
  884MPD2    C113012   4.305   0.034  14.929 -0.0535 -0.6653  0.9374
  884MPD2    C213013   4.174   0.072  14.926 -0.0954 -0.4880  0.3254
  884MPD2    C313014   4.089   0.042  15.031 -0.6587  0.5494 -0.5240
  884MPD2    C413015   4.137   4.695  15.132  0.1315 -0.0244 -0.3444
  884MPD2    C513016   4.267   4.652  15.122 -0.7629  0.1628  0.2526
  884MPD2     H13017   4.148   0.141  14.847 -0.8278  0.1614  1.1311
  884MPD2    H113018   4.071   4.650  15.205  0.3592  2.3880  1.3435
  884MPD2    H213019   4.455   4.666  15.040 -0.2162 -0.3824  2.0358
  884MPD2    H313020   4.306   4.594  15.205  1.5566 -0.4400 -1.2501
  884MPD2     N13021   3.959   0.084  15.035 -0.0894 -0.0613  0.1651
  884MPD2    H513022   3.922   0.127  14.951  1.2812 -0.9038 -0.8741
  884MPD2    N113023   4.385   0.060  14.816  0.0746 -0.0979 -0.3856
  884MPD2    H713024   4.344   0.119  14.744  0.3653  0.8765  0.2365
  885MPD2     C13025   2.374   4.612   0.369 -0.8509  0.2238 -0.1088
  885MPD2    C113026   2.479   4.696   0.341 -0.4998 -0.1094  0.1259
  885MPD2    C213027   2.474   0.044   0.239 -0.4759  0.2793 -0.7685
  885MPD2    C313028   2.363   0.061   0.165  0.4621 -0.1428  0.2434
  885MPD2    C413029   2.247   4.729   0.200  0.0244  0.0328 -1.4140
  885MPD2    C513030   2.257   4.626   0.290  0.1634 -0.2937 -0.2397
  885MPD2     H13031   2.567   0.095   0.219 -0.7023  1.3931  1.0423
  885MPD2    H113032   2.160   4.726   0.136  0.8278 -0.6007 -2.4679
  885MPD2    H213033   2.378   4.530   0.439  2.1258  2.4899  2.3982
  885MPD2    H313034   2.169   4.567   0.314 -0.1530  0.6628  0.9322
  885MPD2     N13035   2.384   0.141   0.046 -0.5648  0.0722  0.7478
  885MPD2    H513036   2.476   0.182   0.040 -0.8983  0.5843 -0.7895
  885MPD2    N113037   2.594   4.694   0.426  0.5467 -0.2512  0.6029
  885MPD2    H713038   2.605   4.604   0.472  0.0205 -0.1179  0.9943
  886MPD2     C13039   3.741   3.406  15.530 -0.1969 -0.4629  0.1467
  886MPD2    C113040   3.878   3.429  15.505 -0.0788 -0.4206  0.5499
  886MPD2    C213041   3.909   3.535  15.423  0.4525 -0.6520 -0.3091
  886MPD2    C313042   3.808   3.616  15.381 -0.2639  0.0686  0.6443
  886MPD2    C413043   3.679   3.581  15.399 -0.2037 -0.3738 -0.7307
  886MPD2    C513044   3.645   3.475  15.471 -0.3446 -0.0691  0.7837
  886MPD2     H13045   4.008   3.566  15.392 -0.4848  0.5278 -2.1250
  886MPD2    H113046   3.596   3.643  15.367 -0.5427 -1.0099 -1.0681
  886MPD2    H213047   3.708   3.327  15.597 -2.6348 -1.4784 -2.2076
  886MPD2    H313048   3.540   3.459  15.495 -0.5138 -0.5425 -0.3118
  886MPD2     N13049   3.846   3.737  15.304  0.1846  0.1875 -0.1918
  886MPD2    H513050   3.947   3.746  15.294 -0.0574  3.1202  0.0389
  886MPD2    N113051   3.985   3.349  15.559 -0.6090 -0.3182  0.5610
  886MPD2    H713052   4.081   3.370  15.534 -0.5796 -0.3222  0.6702
  887MPD2     C13053   4.591   3.447  15.941  0.3289 -0.5058  0.8863
  887MPD2    C113054   4.540   3.478  15.817 -0.1417  0.2656 -0.3888
  887MPD2    C213055   4.577   3.595  15.751 -0.6066  0.4043 -0.6561
  887MPD2    C313056   4.649   3.687  15.813 -0.2261 -0.0020 -0.1159
  887MPD2    C413057   4.702   3.656  15.933 -0.0062  0.0733 -0.3416
  887MPD2    C513058   4.676   3.535  15.996 -0.3125 -0.4927  0.0693
  887MPD2     H13059   4.549   3.627  15.651 -2.2297 -0.2580 -0.4153
  887MPD2    H113060   0.034   3.722  15.982  1.0847 -0.7081 -0.8712
  887MPD2    H213061   4.590   3.351  15.991  1.5074 -1.1632 -0.3566
  887MPD2    H313062   0.003   3.501  16.075  0.6162 -1.0296 -0.9387
  887MPD2     N13063   4.678   3.810  15.747  0.7542  0.0380  1.5865
  887MPD2    H513064   4.644   3.824  15.652  0.0111  0.9106  1.9762
  887MPD2    N113065   4.460   3.390  15.741 -0.1499 -0.5170 -0.6611
  887MPD2    H713066   4.435   3.413  15.645  0.2296 -1.4321 -0.9772
  888MPD2     C13067   1.435   3.309  14.887 -0.1493 -0.2888  0.1775
  888MPD2    C113068   1.389   3.389  14.987  0.0696 -0.2329  0.4872
  888MPD2    C213069   1.425   3.518  14.983 -0.1843  0.0314 -0.0498
  888MPD2    C313070   1.514   3.568  14.890  0.1891  0.3117  0.5962
  888MPD2    C413071   1.578   3.479  14.808 -0.1467 -0.4885 -0.2510
  888MPD2    C513072   1.526   3.350  14.797  0.1930 -0.0077 -0.1029
  888MPD2     H13073   1.381   3.595  15.046 -0.7625  0.2448 -0.7158
  888MPD2    H113074   1.663   3.507  14.746  0.0811  0.6137  0.5591
  888MPD2    H213075   1.394   3.210  14.872  1.0762 -1.1749  2.6884
  888MPD2    H313076   1.570   3.274  14.732 -2.6586 -1.0368 -0.8567
  888MPD2     N13077   1.553   3.706  14.900 -0.6629 -0.3523 -0.5555
  888MPD2    H513078   1.527   3.762  14.980 -0.8941 -2.7159  1.0106
  888MPD2    N113079   1.284   3.345  15.064 -0.0741 -1.0933 -0.1032
  888MPD2    H713080   1.229   3.411  15.118 -0.2687  0.0280 -1.6641
  889MPD2     C13081   0.567   3.119  12.916  0.4586  0.3166 -0.1565
  889MPD2    C113082   0.643   3.108  13.026 -0.0597  0.0262 -0.1924
  889MPD2    C213083   0.757   3.190  13.042 -0.1604 -0.2669 -0.4549
  889MPD2    C313084   0.765   3.301  12.962 -0.0426  0.5171  0.0343
  889MPD2    C413085   0.695   3.305  12.846  0.9703  0.5523 -0.3770
  889MPD2    C513086   0.597   3.215  12.824 -0.0731 -0.1502 -0.3613
  889MPD2     H13087   0.805   3.185  13.139 -2.1591  1.4715  0.6190
  889MPD2    H113088   0.701   3.386  12.774  0.7880  0.3691 -0.5977
  889MPD2    H213089   0.483   3.053  12.897 -0.1257  0.5291  1.6804
  889MPD2    H313090   0.525   3.230  12.745  0.2505 -1.2445 -0.8707
  889MPD2     N13091   0.851   3.404  13.009 -0.0801 -0.9104  0.1721
  889MPD2    H513092   0.900   3.384  13.095 -1.3636  3.1002  1.8536
  889MPD2    N113093   0.623   3.008  13.126 -0.3441  0.4468  0.3547
  889MPD2    H713094   0.695   2.988  13.195  0.1338 -1.2316 -0.6190
  890MPD2     C13095   0.467   0.263  14.589 -0.1586  0.3004  0.1975
  890MPD2    C113096   0.451   0.327  14.707  0.5818 -0.0876  0.2388
  890MPD2    C213097   0.505   0.272  14.824 -0.0245 -0.3694  0.4868
  890MPD2    C313098   0.578   0.149  14.814  0.0851  0.2953 -0.1236
  890MPD2    C413099   0.595   0.092  14.692  0.1442 -0.5473 -0.5671
  890MPD2    C513100   0.539   0.145  14.582 -0.6040 -0.0565 -0.5854
  890MPD2     H13101   0.498   0.314  14.923  0.0460 -1.3764  0.9145
  890MPD2    H113102   0.662   0.008  14.678 -0.1108 -1.1674  1.8878
  890MPD2    H213103   0.424   0.301  14.497 -0.6849  0.5405  0.5500
  890MPD2    H313104   0.562   0.096  14.488  0.1575 -2.1906  0.7118
  890MPD2     N13105   0.636   0.099  14.930  0.1788 -0.1231 -0.1071
  890MPD2    H513106   0.618   0.158  15.010  0.6521 -1.7422  1.2123
  890MPD2    N113107   0.389   0.454  14.709  0.0636  0.0480  0.3386
  890MPD2    H713108   0.354   0.490  14.620 -0.4897  1.5085  1.1391
  891MPD2     C13109   3.276   2.988  16.841  0.7025  0.4736 -0.5889
  891MPD2    C113110   3.230   3.094  16.923  0.1515 -0.5621 -0.0804
  891MPD2    C213111   3.300   3.213  16.910  0.3080 -0.6674  0.0264
  891MPD2    C313112   3.406   3.236  16.815  0.5243 -0.1193 -0.0381
  891MPD2    C413113   3.432   3.133  16.730 -0.2516 -0.0575  0.6009
  891MPD2    C513114   3.379   3.010  16.753  0.7977 -0.1500 -0.6632
  891MPD2     H13115   3.274   3.302  16.966 -2.2053 -1.3242 -0.1073
  891MPD2    H113116   3.512   3.128  16.658 -0.1985  0.2325  0.6379
  891MPD2    H213117   3.240   2.887  16.855  0.6600  0.5194 -0.3710
  891MPD2    H313118   3.428   2.927  16.705 -0.0928  0.9104 -3.4650
  891MPD2     N13119   3.478   3.349  16.825  0.5102 -0.4669  0.3385
  891MPD2    H513120   3.449   3.413  16.898 -2.4935 -1.7523  0.2735
  891MPD2    N113121   3.121   3.078  17.015 -0.0140 -0.6049 -0.1587
  891MPD2    H713122   3.079   2.985  17.019 -1.1238 -0.2062 -2.6238
  892MPD2     C13123   4.562   4.386  14.996 -0.1515 -0.4582  0.2658
  892MPD2    C113124   4.457   4.317  14.943 -0.0305  0.3783  0.5644
  892MPD2    C213125   4.481   4.228  14.837 -0.5605 -0.4532 -0.6914
  892MPD2    C313126   4.607   4.217  14.778 -0.0111  0.4137  0.2041
  892MPD2    C413127   4.710   4.282  14.835 -0.0135 -0.5344  0.6738
  892MPD2    C513128   4.682   4.367  14.941  0.2517 -0.2952  1.0992
  892MPD2     H13129   4.399   4.163  14.811 -0.7422  0.6034 -2.7847
  892MPD2    H113130   0.072   4.277  14.796 -0.5473 -1.9157 -0.5096
  892MPD2    H213131   4.552   4.441  15.090 -1.5498 -0.3401  0.0529
  892MPD2    H313132   0.029   4.421  14.979  0.6745  0.6971 -1.2550
  892MPD2     N13133   4.632   4.136  14.665 -0.8353 -0.1846 -0.2360
  892MPD2    H513134   4.730   4.139  14.639 -0.3583 -1.4516  1.4706
  892MPD2    N113135   4.319   4.351  14.983 -0.5551  0.0707 -0.1241
  892MPD2    H713136   4.302   4.441  15.028  1.6175  0.4529 -0.0640
  893MPD2     C13137   1.240   2.854   1.748  0.1890 -0.1667  0.0908
  893MPD2    C113138   1.181   2.912   1.640  0.1783  0.6574  0.2463
  893MPD2    C213139   1.040   2.915   1.633 -0.7304  0.0361 -0.1305
  893MPD2    C313140   0.959   2.855   1.734 -0.4841  0.4811  0.2356
  893MPD2    C413141   1.025   2.772   1.823 -0.1206 -0.2527  0.0473
  893MPD2    C513142   1.168   2.777   1.834  0.3618 -0.1796 -1.0133
  893MPD2     H13143   0.988   2.974   1.559  0.2089  1.0908  0.0613
  893MPD2    H113144   0.975   2.719   1.904 -0.5988 -0.4663 -0.3908
  893MPD2    H213145   1.348   2.842   1.750 -0.0759 -2.7229 -0.7189
  893MPD2    H313146   1.221   2.729   1.916 -1.9857 -0.6358  0.2287
  893MPD2     N13147   0.823   2.842   1.742 -0.5276  0.4788 -0.6279
  893MPD2    H513148   0.786   2.797   1.825  0.5090  1.8669  0.5948
  893MPD2    N113149   1.268   2.970   1.542 -0.4663 -0.2530  0.2136
  893MPD2    H713150   1.367   2.963   1.563 -0.7776  0.9382  2.1629
  894MPD2     C13151   4.509   0.533   0.939 -0.5268 -0.3858 -0.2537
  894MPD2    C113152   4.428   0.619   0.865  0.8197  0.4752 -0.0620
  894MPD2    C213153   4.464   0.749   0.860 -0.3255  0.4497 -0.1290
  894MPD2    C313154   4.588   0.793   0.912  0.6460 -0.4466  0.3637
  894MPD2    C413155   4.673   0.706   0.979 -0.3968 -0.4591 -0.2932
  894MPD2    C513156   4.629   0.580   0.997 -0.2039  0.0431  0.7974
  894MPD2     H13157   4.398   0.813   0.803 -2.3520 -1.3556  0.2136
  894MPD2    H113158   0.027   0.740   1.023 -0.1611 -0.2071 -0.9890
  894MPD2    H213159   4.500   0.425   0.949  2.5777 -0.6155  0.2871
  894MPD2    H313160   4.690   0.503   1.043  0.2726  1.1452  2.0086
  894MPD2     N13161   4.619   0.931   0.917  0.1927 -0.3325  0.3501
  894MPD2    H513162   4.698   0.958   0.976  0.9549 -0.7011 -0.4991
  894MPD2    N113163   4.303   0.580   0.811  0.1671  0.0118 -0.0315
  894MPD2    H713164   4.239   0.647   0.770  0.9827  1.6739  1.4202
  895MPD2     C13165   3.253   3.173  13.524  0.7678  0.6428 -0.1199
  895MPD2    C113166   3.215   3.074  13.444  0.4694  0.1850  0.2586
  895MPD2    C213167   3.296   2.968  13.447  0.0955 -0.5043  0.0475
  895MPD2    C313168   3.398   2.947  13.537 -0.2165  0.4773  1.1847
  895MPD2    C413169   3.437   3.052  13.620  0.3840  0.7522  0.1054
  895MPD2    C513170   3.366   3.167  13.603  0.6083 -0.2504 -0.1802
  895MPD2     H13171   3.256   2.884  13.390  0.2340 -1.0294  0.7197
  895MPD2    H113172   3.508   3.039  13.701 -0.8891 -1.6364  0.8474
  895MPD2    H213173   3.200   3.268  13.528 -0.9961 -0.3016 -0.8227
  895MPD2    H313174   3.397   3.255  13.659 -2.7684  0.2825  0.9112
  895MPD2     N13175   3.457   2.820  13.548 -1.2629  0.0905 -0.2878
  895MPD2    H513176   3.431   2.743  13.487 -1.2627 -0.1769  0.0482
  895MPD2    N113177   3.112   3.069  13.347  0.4135 -0.0591  0.0434
  895MPD2    H713178   3.104   2.983  13.294  0.2045  0.2732 -0.4681
  896MPD2     C13179   1.134   1.677   1.383 -0.4631 -0.4089 -0.5128
  896MPD2    C113180   1.104   1.622   1.255 -0.1863 -0.1228 -0.0644
  896MPD2    C213181   0.975   1.636   1.207 -0.3919  0.7276 -0.4312
  896MPD2    C313182   0.880   1.705   1.272  0.0974 -0.3290  0.1871
  896MPD2    C413183   0.909   1.765   1.387 -0.9629  0.4080 -0.3834
  896MPD2    C513184   1.033   1.740   1.448  0.4802 -0.0476  0.6543
  896MPD2     H13185   0.952   1.586   1.114 -2.7984  0.3580  0.3437
  896MPD2    H113186   0.837   1.808   1.456  0.9606  1.8265  0.7144
  896MPD2    H213187   1.229   1.645   1.424 -0.0073 -0.5115 -1.6465
  896MPD2    H313188   1.042   1.783   1.547  2.2323  0.5176  0.2419
  896MPD2     N13189   0.757   1.709   1.204  0.0645  0.4204 -0.1746
  896MPD2    H513190   0.742   1.655   1.119 -3.9492  0.3664  0.5405
  896MPD2    N113191   1.208   1.553   1.187  0.1041  0.6199 -0.3116
  896MPD2    H713192   1.304   1.568   1.218 -0.9725  3.9077  1.3408
  897MPD2     C13193   1.481   3.177  11.252  0.5018  0.6997  0.3332
  897MPD2    C113194   1.386   3.222  11.168  0.3454 -0.4636  0.1244
  897MPD2    C213195   1.258   3.235  11.214 -0.2440  0.3824  0.5007
  897MPD2    C313196   1.221   3.204  11.344 -0.3107 -0.2000 -0.4194
  897MPD2    C413197   1.317   3.159  11.431  0.1055 -0.2027 -0.0686
  897MPD2    C513198   1.443   3.145  11.389 -0.4451 -0.1983  0.5318
  897MPD2     H13199   1.183   3.293  11.161  1.4743  1.4925 -0.6933
  897MPD2    H113200   1.300   3.132  11.535 -0.0681 -0.1196 -0.0744
  897MPD2    H213201   1.585   3.167  11.224  0.7572  0.8979  1.2298
  897MPD2    H313202   1.521   3.121  11.460  0.1030 -1.1710 -0.3945
  897MPD2     N13203   1.085   3.226  11.382  0.0178  0.5161  0.1871
  897MPD2    H513204   1.015   3.257  11.315 -0.0304  0.2916  0.1338
  897MPD2    N113205   1.417   3.245  11.036  0.4898  0.3567 -0.2232
  897MPD2    H713206   1.510   3.212  11.009 -0.1740 -0.8022 -1.1026
  898MPD2     C13207   3.897   3.929  17.703 -0.0694 -0.2198 -0.1359
  898MPD2    C113208   3.989   3.931  17.604 -0.2911  1.2986  0.1608
  898MPD2    C213209   3.963   4.016  17.498  0.0772 -0.7642 -0.4839
  898MPD2    C313210   3.863   4.107  17.502 -0.6421 -0.0664  0.7919
  898MPD2    C413211   3.773   4.104  17.607 -1.3071 -0.5387 -0.1229
  898MPD2    C513212   3.788   4.015  17.712 -0.2912  0.3035 -0.5212
  898MPD2     H13213   4.020   4.019  17.405  2.0161 -2.9334  0.6098
  898MPD2    H113214   3.684   4.166  17.611 -0.5002  0.7111 -1.4151
  898MPD2    H213215   3.899   3.856   0.029  1.0565  0.7008  0.6832
  898MPD2    H313216   3.727   4.009   0.047  2.0273  1.2129  1.1235
  898MPD2     N13217   3.861   4.203  17.395 -0.1436 -0.1423  0.1003
  898MPD2    H513218   3.933   4.184  17.326 -1.5338  1.4734 -1.7849
  898MPD2    N113219   4.110   3.860  17.603 -0.3660 -0.5878  0.5880
  898MPD2    H713220   4.172   3.864  17.523  0.5940  0.9188  1.4173
  899MPD2     C13221   4.487   4.457  17.227 -0.0632  0.1098 -0.9104
  899MPD2    C113222   4.576   4.543  17.282  0.2771 -0.0862  0.2929
  899MPD2    C213223   4.561   4.587  17.404  0.2640 -0.1452  0.6381
  899MPD2    C313224   4.458   4.542  17.484  0.1210 -0.1934  0.1454
  899MPD2    C413225   4.362   4.458  17.430 -0.1881  0.6028  0.6921
  899MPD2    C513226   4.384   4.408  17.304  0.3421  0.1738 -0.9467
  899MPD2     H13227   4.645   4.644  17.439  0.7161  1.1198 -2.4833
  899MPD2    H113228   4.287   4.417  17.497 -1.1218 -1.7050 -1.7856
  899MPD2    H213229   4.514   4.421  17.128 -3.0710 -0.7414 -1.4050
  899MPD2    H313230   4.329   4.320  17.273 -0.5445  0.2236  0.4639
  899MPD2     N13231   4.422   4.596  17.605 -0.1045 -0.1822  0.0276
  899MPD2    H513232   4.324   4.587  17.629 -0.0667  2.7788  1.3062
  899MPD2    N113233   4.682   4.594  17.201  0.1778  0.4464  0.0843
  899MPD2    H713234   4.667   4.604  17.101  0.0341 -2.0365 -0.1331
  900MPD2     C13235   4.228   0.982  12.563 -0.1763 -0.4931 -0.5932
  900MPD2    C113236   4.109   0.948  12.627 -0.5781  0.5766  0.0951
  900MPD2    C213237   3.993   1.018  12.579  0.2073  0.4619 -0.1470
  900MPD2    C313238   4.003   1.118  12.474  0.3320  0.4772  0.3386
  900MPD2    C413239   4.122   1.135  12.410  0.4504 -0.2483  0.2246
  900MPD2    C513240   4.232   1.076  12.462 -0.2513 -0.1082  0.4677
  900MPD2     H13241   3.901   0.979  12.620  0.5577 -0.2027  0.0147
  900MPD2    H113242   4.139   1.211  12.335  1.0292  0.6991  1.3006
  900MPD2    H213243   4.324   0.948  12.600 -0.9589 -1.2282  0.7179
  900MPD2    H313244   4.327   1.096  12.414 -0.6474 -0.5338 -0.4873
  900MPD2     N13245   3.885   1.175  12.425 -0.5168 -0.9071  0.3861
  900MPD2    H513246   3.802   1.145  12.476 -0.2939 -1.3742  0.4691
  900MPD2    N113247   4.107   0.835  12.720 -0.0104 -0.2258  0.4891
  900MPD2    H713248   4.196   0.796  12.748  0.7977  1.5587  0.3658
  901MPD2     C13249   3.657   4.617  13.042 -0.0774 -0.2904  0.2140
  901MPD2    C113250   3.779   4.598  12.978 -0.1226  0.2424  0.1084
  901MPD2    C213251   3.864   4.711  12.955 -0.1634 -0.2209 -0.1640
  901MPD2    C313252   3.815   0.099  12.980 -0.3829 -0.0472  0.4182
  901MPD2    C413253   3.690   0.112  13.040  0.3495  0.3643 -0.5996
  901MPD2    C513254   3.613   0.005  13.066  0.2478  0.3474 -0.4655
  901MPD2     H13255   3.963   4.699  12.914  1.2918  1.9585  2.6960
  901MPD2    H113256   3.641   0.208  13.056 -1.6935 -0.4816 -1.7867
  901MPD2    H213257   3.586   4.541  13.074  0.9983 -1.1521  0.5757
  901MPD2    H313258   3.527   0.022  13.129  1.3572  0.7539  0.9328
  901MPD2     N13259   3.912   0.204  12.960 -0.4430 -0.6942  0.2288
  901MPD2    H513260   3.994   0.182  12.905 -0.0365 -1.4398  1.1290
  901MPD2    N113261   3.818   4.467  12.943 -0.1668  0.0539 -0.1737
  901MPD2    H713262   3.744   4.408  12.906 -0.7852  1.8466 -1.8433
  902MPD2     C13263   3.263   3.387  12.669  0.3111  0.3769  0.1343
  902MPD2    C113264   3.333   3.506  12.686 -0.2869  0.0998 -0.2681
  902MPD2    C213265   3.448   3.516  12.613 -0.1311  0.1262  0.1581
  902MPD2    C313266   3.496   3.416  12.534 -0.2127  0.1948 -0.2974
  902MPD2    C413267   3.425   3.301  12.525  0.6998 -0.0030 -0.1249
  902MPD2    C513268   3.307   3.289  12.581 -0.7844 -0.1677  0.0508
  902MPD2     H13269   3.498   3.611  12.621 -0.0482 -0.0609  1.9142
  902MPD2    H113270   3.462   3.211  12.478 -1.1538 -1.1669  0.6302
  902MPD2    H213271   3.165   3.376  12.714  0.2261  2.4657  0.4870
  902MPD2    H313272   3.247   3.200  12.567 -0.3384 -0.0875 -2.4367
  902MPD2     N13273   3.625   3.415  12.462 -0.3634 -0.0444  0.2855
  902MPD2    H513274   3.633   3.337  12.397 -1.7993  1.4643 -1.7144
  902MPD2    N113275   3.275   3.612  12.758  0.3692  0.4783  0.5135
  902MPD2    H713276   3.174   3.610  12.764  0.3402  1.7495  0.4999
  903MPD2     C13277   3.737   4.099  12.287 -0.2059  0.1533  0.2121
  903MPD2    C113278   3.684   4.007  12.193  0.0997 -0.4632  0.3628
  903MPD2    C213279   3.570   4.041  12.121  0.0808  0.6019 -0.1544
  903MPD2    C313280   3.501   4.158  12.149  0.4285  0.1844 -0.7007
  903MPD2    C413281   3.551   4.246  12.245  0.8507  0.2094  0.4473
  903MPD2    C513282   3.670   4.218  12.311 -0.4584  0.0539  0.0090
  903MPD2     H13283   3.527   3.965  12.057 -1.1134  1.5675 -0.4903
  903MPD2    H113284   3.493   4.329  12.283 -0.4920 -0.7483  0.4807
  903MPD2    H213285   3.830   4.076  12.338 -0.4617 -1.3797  0.0051
  903MPD2    H313286   3.689   4.285  12.394 -1.8529  1.9068 -1.1511
  903MPD2     N13287   3.374   4.170  12.072  0.7369  0.0410 -0.1762
  903MPD2    H513288   3.349   4.094  12.009 -0.6120  0.4881 -0.1855
  903MPD2    N113289   3.762   3.891  12.182  0.7026  0.1420 -0.0367
  903MPD2    H713290   3.835   3.880  12.252 -0.1180 -0.2944  0.7416
  904MPD2     C13291   2.914   2.748  14.301  0.3755 -0.1565 -0.2102
  904MPD2    C113292   3.008   2.803  14.213  0.2845 -0.5754 -0.4249
  904MPD2    C213293   3.137   2.821  14.256  0.1182 -0.3081  0.6045
  904MPD2    C313294   3.171   2.762  14.379  0.9254 -0.0331 -0.1843
  904MPD2    C413295   3.074   2.691  14.448  0.3887  0.8140 -0.1997
  904MPD2    C513296   2.947   2.680  14.409  0.3795 -0.1040  0.0539
  904MPD2     H13297   3.211   2.878  14.200 -3.7969  2.1835 -2.0442
  904MPD2    H113298   3.100   2.647  14.543 -0.2234  3.2798  1.1303
  904MPD2    H213299   2.809   2.759  14.278  0.0427  2.2253  2.4328
  904MPD2    H313300   2.875   2.632  14.476  0.8141 -1.3276 -0.3542
  904MPD2     N13301   3.305   2.786  14.427  0.5411  0.1927  0.1998
  904MPD2    H513302   3.370   2.841  14.372 -0.5647  2.9477  1.6881
  904MPD2    N113303   2.971   2.858  14.091 -0.8303 -0.3680 -0.3302
  904MPD2    H713304   3.039   2.903  14.032  0.5086  0.6717  2.0354
  905MPD2     C13305   2.804   2.425  13.494  0.0121 -0.2667 -0.5337
  905MPD2    C113306   2.876   2.542  13.511 -0.1895  0.3584  0.2636
  905MPD2    C213307   3.011   2.534  13.504 -0.0200  0.4922  0.0298
  905MPD2    C313308   3.076   2.413  13.467 -0.7309  0.1637 -0.1776
  905MPD2    C413309   2.998   2.306  13.433  0.0451 -0.1349  0.3619
  905MPD2    C513310   2.858   2.317  13.447 -0.0788  0.4381  1.0137
  905MPD2     H13311   3.073   2.621  13.519  1.9116 -1.0349  0.8594
  905MPD2    H113312   3.039   2.219  13.383 -0.5915  0.4515 -1.1927
  905MPD2    H213313   2.695   2.428  13.500 -0.0230 -0.2487 -1.1680
  905MPD2    H313314   2.800   2.231  13.417  0.5580  1.1647 -2.3888
  905MPD2     N13315   3.215   2.391  13.470  0.0207 -0.5083  1.0658
  905MPD2    H513316   3.242   2.293  13.475  1.0044 -0.3177 -0.4438
  905MPD2    N113317   2.815   2.659  13.560  0.0470  0.7956  0.3082
  905MPD2    H713318   2.725   2.658  13.608  0.8539  0.4456  1.7864
  906MPD2     C13319   4.638   2.478  11.355 -0.3802  0.5831  0.6220
  906MPD2    C113320   4.538   2.523  11.264 -0.1732  0.3191  0.2196
  906MPD2    C213321   4.411   2.474  11.285 -0.3476  0.3109  0.2791
  906MPD2    C313322   4.376   2.382  11.382  0.4215  0.5609  0.8356
  906MPD2    C413323   4.476   2.345  11.470  0.9505  0.3064  0.0513
  906MPD2    C513324   4.602   2.390  11.454 -0.2150 -0.1171 -0.2915
  906MPD2     H13325   4.334   2.519  11.225 -1.8374 -0.9114  1.2691
  906MPD2    H113326   4.441   2.271  11.541 -0.6948 -0.4489 -1.5453
  906MPD2    H213327   0.004   2.508  11.350 -0.2492  0.1187  0.5538
  906MPD2    H313328   4.679   2.355  11.522 -0.0626 -0.5437 -0.6816
  906MPD2     N13329   4.240   2.342  11.411  0.5211  0.6689  0.0212
  906MPD2    H513330   4.219   2.282  11.490  2.5107 -0.0128  0.0346
  906MPD2    N113331   4.565   2.621  11.156  0.3213 -0.4408  0.1234
  906MPD2    H713332   4.491   2.641  11.090 -1.3288 -3.8053  0.9685
  907MPD2     C13333   3.940   2.553  15.502  0.0730  0.4838 -0.0101
  907MPD2    C113334   3.963   2.418  15.478 -0.4781 -0.6789  0.0494
  907MPD2    C213335   4.061   2.354  15.545  0.0359  0.3297  0.6041
  907MPD2    C313336   4.149   2.417  15.625 -0.1276  0.1863  0.4525
  907MPD2    C413337   4.136   2.555  15.640  0.2785 -0.4250  0.7463
  907MPD2    C513338   4.025   2.618  15.583  0.0888  0.2979  0.3319
  907MPD2     H13339   4.069   2.246  15.543  2.3862  0.5228 -1.0496
  907MPD2    H113340   4.201   2.616  15.703 -0.9940  1.9021 -0.2217
  907MPD2    H213341   3.846   2.594  15.464  0.7979  2.6349  0.4866
  907MPD2    H313342   4.006   2.723  15.604 -2.2634 -0.3603  1.4418
  907MPD2     N13343   4.253   2.340  15.684 -0.1342 -0.4954 -0.4792
  907MPD2    H513344   4.255   2.243  15.655  2.4735 -0.7764  0.6904
  907MPD2    N113345   3.876   2.341  15.392 -0.6155 -0.4909  0.0217
  907MPD2    H713346   3.880   2.240  15.398  0.0191 -0.3751  1.3900
  908MPD2     C13347   1.159   3.191  10.002  0.4915 -0.4412 -0.5791
  908MPD2    C113348   1.293   3.225  10.006 -0.1979  0.0572  0.2162
  908MPD2    C213349   1.340   3.271  10.129  0.1333 -0.1847  0.1474
  908MPD2    C313350   1.259   3.306  10.234  0.2369  0.4399 -0.4615
  908MPD2    C413351   1.128   3.268  10.232  0.1768 -0.7064 -0.7970
  908MPD2    C513352   1.082   3.207  10.118  1.0475  0.0238 -0.2534
  908MPD2     H13353   1.439   3.315  10.134  0.0288  0.1468 -0.6863
  908MPD2    H113354   1.056   3.278  10.312 -0.5413  1.1228 -1.6734
  908MPD2    H213355   1.099   3.165   9.916  1.0202 -0.2808 -1.0016
  908MPD2    H313356   0.978   3.187  10.097  0.9784  3.1616 -2.8913
  908MPD2     N13357   1.322   3.359  10.347 -0.3747  0.0213  0.0604
  908MPD2    H513358   1.421   3.375  10.337 -0.1827  0.1424  2.1419
  908MPD2    N113359   1.370   3.209   9.891  0.4391  0.3475  0.5240
  908MPD2    H713360   1.326   3.185   9.803 -1.2063  0.7308  1.2444
  909MPD2     C13361   1.770   0.971  11.423 -0.7308  0.2492  0.1790
  909MPD2    C113362   1.798   1.104  11.442  0.5658 -0.8807  0.1772
  909MPD2    C213363   1.779   1.165  11.562 -0.3423  0.0134  0.4706
  909MPD2    C313364   1.718   1.093  11.663 -0.6130  0.2820  0.0498
  909MPD2    C413365   1.685   0.961  11.640 -0.5769 -0.0204 -0.7976
  909MPD2    C513366   1.712   0.900  11.524 -0.0731  0.1122  0.0364
  909MPD2     H13367   1.805   1.270  11.566  2.4673 -0.6560 -0.6018
  909MPD2    H113368   1.621   0.906  11.708 -0.5791  1.4017  0.3508
  909MPD2    H213369   1.794   0.921  11.330 -0.0051  0.5417  0.2046
  909MPD2    H313370   1.688   0.797  11.501  1.6193  0.0736 -1.5601
  909MPD2     N13371   1.693   1.156  11.794 -0.4764 -0.0367 -0.4857
  909MPD2    H513372   1.705   1.256  11.804 -1.4189 -0.0214  0.4046
  909MPD2    N113373   1.877   1.185  11.356 -0.3112 -0.1064 -0.3370
  909MPD2    H713374   1.919   1.269  11.394 -0.0938  0.0317 -0.8914
  910MPD2     C13375   3.650   2.600  15.706  0.8693 -1.1554 -0.3019
  910MPD2    C113376   3.623   2.497  15.630  0.1494  0.4654 -0.2859
  910MPD2    C213377   3.565   2.515  15.508  0.6424 -0.3370  0.3373
  910MPD2    C313378   3.529   2.641  15.449  0.0506  0.5734  0.3761
  910MPD2    C413379   3.570   2.748  15.526  0.1722 -0.1011 -0.1069
  910MPD2    C513380   3.629   2.731  15.656 -1.2339 -0.3452  0.1415
  910MPD2     H13381   3.531   2.422  15.465  2.7269 -1.0053  0.1793
  910MPD2    H113382   3.569   2.851  15.490  2.5303 -0.5538 -1.4963
  910MPD2    H213383   3.701   2.608  15.802  0.9650  1.0538 -0.5269
  910MPD2    H313384   3.656   2.827  15.697 -2.6073  1.1243 -2.3935
  910MPD2     N13385   3.452   2.658  15.332 -0.6557  0.4049  0.5167
  910MPD2    H513386   3.423   2.752  15.307  0.4041  0.9551  1.3649
  910MPD2    N113387   3.643   2.368  15.676 -0.5593  0.9080  0.0963
  910MPD2    H713388   3.615   2.295  15.611  0.4726  0.1049  0.5345
  911MPD2     C13389   1.553   3.422  16.309 -0.0188  0.7152 -0.1058
  911MPD2    C113390   1.625   3.521  16.381  0.1406  0.7906  0.2327
  911MPD2    C213391   1.577   3.646  16.392 -0.0762  0.4452 -0.0297
  911MPD2    C313392   1.464   3.677  16.311  0.0729 -0.6176 -0.6184
  911MPD2    C413393   1.392   3.579  16.256 -0.0318  0.3151  0.0816
  911MPD2    C513394   1.433   3.455  16.256  0.5420  0.4839 -0.5751
  911MPD2     H13395   1.637   3.720  16.444 -0.0117  0.1618  0.2968
  911MPD2    H113396   1.304   3.601  16.197 -1.5521 -1.4809  1.6819
  911MPD2    H213397   1.585   3.320  16.292  1.0829  1.1092 -0.4018
  911MPD2    H313398   1.386   3.384  16.188  2.2796  0.7052 -2.0250
  911MPD2     N13399   1.417   3.809  16.290  0.3089  0.1843 -0.1237
  911MPD2    H513400   1.333   3.821  16.234 -0.1139 -0.1192  0.4412
  911MPD2    N113401   1.744   3.480  16.434 -0.3696 -0.1510  0.0529
  911MPD2    H713402   1.760   3.381  16.421  0.8309  0.0387  0.1255
  912MPD2     C13403   1.424   3.632  15.707  0.5707 -0.0709  0.2497
  912MPD2    C113404   1.356   3.663  15.818 -0.2505  0.0926  0.4274
  912MPD2    C213405   1.295   3.556  15.888  0.4518 -0.3696  0.3188
  912MPD2    C313406   1.297   3.421  15.845  0.0198  0.6339  0.3644
  912MPD2    C413407   1.369   3.401  15.731  0.1371 -0.3281  0.2770
  912MPD2    C513408   1.430   3.499  15.666  0.7827  0.3541 -0.0668
  912MPD2     H13409   1.250   3.580  15.983 -2.5592 -0.6819 -1.0105
  912MPD2    H113410   1.364   3.300  15.690 -1.9975  0.0094 -0.2957
  912MPD2    H213411   1.468   3.710  15.645 -1.4606 -0.3757 -1.5632
  912MPD2    H313412   1.482   3.470  15.575 -0.9210  0.2844 -1.0100
  912MPD2     N13413   1.242   3.316  15.927 -0.1738  0.4374 -0.1213
  912MPD2    H513414   1.181   3.342  16.004  0.0261 -3.2999  1.2648
  912MPD2    N113415   1.356   3.794  15.857 -0.1979  0.0388 -0.4934
  912MPD2    H713416   1.412   3.861  15.805 -0.1555  0.2464 -0.1816
  913MPD2     C13417   1.000   4.561  10.340  0.0826  0.4520 -0.1748
  913MPD2    C113418   1.028   4.679  10.401  0.4594 -0.8222  0.1286
  913MPD2    C213419   1.051   0.050  10.318  0.6368 -0.4675 -0.3879
  913MPD2    C313420   1.045   0.033  10.181 -0.1383 -0.3419 -0.1869
  913MPD2    C413421   1.018   4.654  10.129 -0.6744 -0.1601  0.1804
  913MPD2    C513422   1.005   4.545  10.206  0.6588  0.8722 -0.2443
  913MPD2     H13423   1.085   0.145  10.358 -0.4652 -0.1865 -0.1113
  913MPD2    H113424   1.017   4.632  10.023 -0.0858  2.0768 -0.2896
  913MPD2    H213425   0.967   4.477  10.401 -0.8274  1.4645  0.7474
  913MPD2    H313426   0.980   4.449  10.164  0.2437  0.8300  0.0949
  913MPD2     N13427   1.079   0.139  10.096 -0.2310  0.0745  0.2795
  913MPD2    H513428   1.059   0.121   9.998 -0.9279  3.8050 -0.2609
  913MPD2    N113429   1.034   4.681  10.550  0.4689 -0.4035  0.1555
  913MPD2    H713430   1.032   4.589  10.593  1.2703 -0.0836  0.8791
  914MPD2     C13431   3.854   0.076  12.236  0.1348  1.1375  0.2862
  914MPD2    C113432   3.901   0.111  12.362  0.0059  0.8932 -0.6390
  914MPD2    C213433   3.911   0.010  12.462  0.0404  0.4154  0.0930
  914MPD2    C313434   3.910   4.616  12.427 -0.1608 -0.9096 -0.3441
  914MPD2    C413435   3.866   4.585  12.295 -0.5620 -0.3878  0.3586
  914MPD2    C513436   3.833   4.682  12.205 -0.6492  0.2818  0.5756
  914MPD2     H13437   3.946   0.026  12.564  1.1565 -0.9980 -0.0750
  914MPD2    H113438   3.857   4.485  12.254 -3.6686  0.1245 -0.2632
  914MPD2    H213439   3.832   0.147  12.158 -1.6755  0.5487  0.2601
  914MPD2    H313440   3.796   4.674  12.104 -1.1539 -2.7969  1.0113
  914MPD2     N13441   3.947   4.515  12.514  0.0814  0.1583  0.0493
  914MPD2    H513442   3.945   4.533  12.614 -1.1838 -0.7683  0.1855
  914MPD2    N113443   3.913   0.248  12.390  0.3009  0.3696  0.1213
  914MPD2    H713444   3.901   0.312  12.313  0.2805  0.0102 -0.1743
  915MPD2     C13445   2.878   0.089  15.671 -0.0022 -0.9277 -0.5039
  915MPD2    C113446   2.773   0.146  15.613 -0.5319  0.3705 -0.2234
  915MPD2    C213447   2.698   0.239  15.679 -0.3625 -0.1271  0.3823
  915MPD2    C313448   2.722   0.259  15.811  1.2744 -0.6191  0.1234
  915MPD2    C413449   2.837   0.199  15.876  0.2657 -0.3286 -0.0440
  915MPD2    C513450   2.905   0.103  15.804  0.0490 -0.0569 -0.4799
  915MPD2     H13451   2.619   0.297  15.632 -0.0530 -0.6724 -0.8180
  915MPD2    H113452   2.866   0.217  15.979  1.0745 -0.3671 -0.2658
  915MPD2    H213453   2.944   0.028  15.610 -0.8365  0.5332 -2.8900
  915MPD2    H313454   2.997   0.065  15.848  1.2977  3.8507  0.3068
  915MPD2     N13455   2.637   0.344  15.885 -0.1418 -0.2434  0.3698
  915MPD2    H513456   2.565   0.398  15.838 -0.9336 -0.8483  0.8813
  915MPD2    N113457   2.745   0.112  15.482  0.4860  0.2324 -0.2692
  915MPD2    H713458   2.787   0.029  15.441  0.9435  1.3888 -2.1605
  916MPD2     C13459   0.882   3.355  15.858 -0.3494  0.4189 -0.9872
  916MPD2    C113460   0.854   3.256  15.955 -0.0936  0.9563 -0.0350
  916MPD2    C213461   0.826   3.126  15.909  0.2680 -0.4956  0.0390
  916MPD2    C313462   0.829   3.101  15.771  1.1108 -1.1107  0.7018
  916MPD2    C413463   0.868   3.197  15.681 -0.8706 -0.8353  0.0741
  916MPD2    C513464   0.882   3.324  15.724  0.2558  0.2118 -0.3807
  916MPD2     H13465   0.795   3.047  15.976 -1.3526 -0.7178 -0.9822
  916MPD2    H113466   0.863   3.185  15.573  0.0845 -1.1466  0.0668
  916MPD2    H213467   0.918   3.452  15.891  0.5012  1.1371 -4.0919
  916MPD2    H313468   0.902   3.406  15.656 -4.0662 -0.1761 -2.0721
  916MPD2     N13469   0.814   2.967  15.736 -1.0010 -0.5121 -0.2576
  916MPD2    H513470   0.792   2.895  15.804  1.4169 -1.1298 -0.1440
  916MPD2    N113471   0.837   3.294  16.093  0.0426 -0.9693 -0.3043
  916MPD2    H713472   0.837   3.393  16.117  0.2802 -1.0955  0.2274
  917MPD2     C13473   0.523   0.839  11.198  0.7849 -0.1493  0.3397
  917MPD2    C113474   0.533   0.924  11.307  0.1751 -0.5016  0.5960
  917MPD2    C213475   0.585   1.046  11.293  0.1774 -0.4001 -0.1036
  917MPD2    C313476   0.609   1.096  11.166 -0.2731 -0.0574  0.1089
  917MPD2    C413477   0.588   1.017  11.056 -0.1292 -0.5329  0.2445
  917MPD2    C513478   0.550   0.880  11.072  0.2816 -0.9174 -0.2983
  917MPD2     H13479   0.607   1.110  11.378 -0.1709 -0.9428  0.3957
  917MPD2    H113480   0.597   1.057  10.956 -2.2843  0.8110  0.5813
  917MPD2    H213481   0.484   0.738  11.196  0.8258 -0.1851  1.1513
  917MPD2    H313482   0.538   0.814  10.986 -2.2151  0.4975 -1.0313
  917MPD2     N13483   0.670   1.221  11.136 -0.8401 -0.7441  0.3684
  917MPD2    H513484   0.687   1.232  11.037  1.2368 -1.3038  0.6569
  917MPD2    N113485   0.496   0.868  11.430 -0.5899  0.4945 -0.0676
  917MPD2    H713486   0.471   0.770  11.425 -0.9047  0.6880 -2.5887
  918MPD2     C13487   0.606   1.035  12.424 -0.9099  0.3030 -0.5288
  918MPD2    C113488   0.680   1.073  12.315  0.6801  0.0751 -0.2234
  918MPD2    C213489   0.637   1.034  12.193  0.7284 -0.2677 -0.5888
  918MPD2    C313490   0.512   0.977  12.179  0.4052 -0.1390 -0.0907
  918MPD2    C413491   0.436   0.947  12.285 -0.4048  0.2803 -0.5995
  918MPD2    C513492   0.487   0.971  12.407 -0.0656 -1.1843 -0.6446
  918MPD2     H13493   0.698   1.051  12.105  3.9105 -1.6708  1.3556
  918MPD2    H113494   0.348   0.884  12.274 -3.1790  4.1190 -0.3245
  918MPD2    H213495   0.638   1.051  12.527 -1.8477 -1.2913  0.0133
  918MPD2    H313496   0.440   0.932  12.497  1.2831 -1.2817  0.0210
  918MPD2     N13497   0.489   0.930  12.046  0.0252  0.6306 -0.5188
  918MPD2    H513498   0.551   0.944  11.967  0.1966 -0.0966 -0.5145
  918MPD2    N113499   0.815   1.111  12.323  0.1535  0.0641 -0.2902
  918MPD2    H713500   0.862   1.114  12.233  2.3264  0.5263  0.8473
  919MPD2     C13501   1.640   4.587  12.016 -0.1985  0.0887 -0.9779
  919MPD2    C113502   1.509   4.566  11.989 -0.2931 -0.0673  0.9242
  919MPD2    C213503   1.440   4.668  11.930 -0.5014 -0.1977 -0.4813
  919MPD2    C313504   1.501   0.044  11.879 -0.2124  0.2161 -0.4806
  919MPD2    C413505   1.639   0.063  11.904 -0.2629  0.1622 -0.1924
  919MPD2    C513506   1.702   4.701  11.972 -0.7712 -0.5629 -0.2855
  919MPD2     H13507   1.334   4.653  11.910 -0.4200 -4.8712  2.5117
  919MPD2    H113508   1.692   0.152  11.872 -0.1374  1.4427  3.5353
  919MPD2    H213509   1.696   4.510  12.070 -0.9017 -0.6740 -1.3402
  919MPD2    H313510   1.809   4.709  11.981 -1.0627  1.0766  1.7001
  919MPD2     N13511   1.434   0.151  11.816 -0.0372  0.7956 -0.3769
  919MPD2    H513512   1.478   0.242  11.815  0.4640  0.5542 -0.5819
  919MPD2    N113513   1.445   4.447  12.025 -0.4416 -0.4578  0.5592
  919MPD2    H713514   1.505   4.365  12.023  0.8432  0.4723  0.7927
  920MPD2     C13515   1.080   0.464  10.935  0.3764 -0.0638  0.0884
  920MPD2    C113516   0.990   0.370  10.982 -0.5398 -0.3743 -0.4510
  920MPD2    C213517   1.010   0.339  11.118 -0.6275  0.1754  0.0835
  920MPD2    C313518   1.105   0.404  11.190  0.5429  0.7573  0.4785
  920MPD2    C413519   1.188   0.500  11.136  0.5456 -0.5430 -0.2602
  920MPD2    C513520   1.180   0.525  11.004  0.4627  0.1795  0.4144
  920MPD2     H13521   0.948   0.260  11.161  0.7016 -0.0411  1.6009
  920MPD2    H113522   1.262   0.564  11.182  0.4182 -0.6363  0.0792
  920MPD2    H213523   1.079   0.487  10.829 -0.6410  0.0064  0.1207
  920MPD2    H313524   1.242   0.602  10.960 -0.4663 -0.4025 -1.8990
  920MPD2     N13525   1.117   0.377  11.323 -0.1677  0.1023 -0.4883
  920MPD2    H513526   1.060   0.296  11.346 -0.0682 -0.1262 -1.0242
  920MPD2    N113527   0.889   0.304  10.901  0.2736 -0.1575  0.1127
  920MPD2    H713528   0.826   0.247  10.956 -1.8169  1.7689 -0.2954
  921MPD2     C13529   2.660   3.630  16.896  0.0085 -0.2535  0.3589
  921MPD2    C113530   2.608   3.510  16.939 -0.6402 -0.4548  0.2602
  921MPD2    C213531   2.504   3.459  16.871 -0.4326 -0.0066 -0.2063
  921MPD2    C313532   2.428   3.537  16.782  0.2522  0.3093 -0.5036
  921MPD2    C413533   2.482   3.658  16.746  0.1070 -0.3912  0.0296
  921MPD2    C513534   2.592   3.703  16.804 -0.0192 -0.0323 -0.2970
  921MPD2     H13535   2.470   3.357  16.884  2.0438 -0.5910  1.6849
  921MPD2    H113536   2.433   3.734  16.685 -0.2532 -0.8084 -0.2009
  921MPD2    H213537   2.753   3.665  16.941 -0.3380  2.6082 -1.1515
  921MPD2    H313538   2.638   3.799  16.782 -0.8593  0.6334  0.8589
  921MPD2     N13539   2.305   3.506  16.730 -0.0706  0.1496  0.2612
  921MPD2    H513540   2.260   3.572  16.669 -1.3787 -1.5836 -0.6664
  921MPD2    N113541   2.685   3.441  17.034 -0.0997 -0.7327 -0.3608
  921MPD2    H713542   2.779   3.473  17.055 -0.6511 -0.3221  1.4359
  922MPD2     C13543   2.757   1.087   0.259  0.1682  0.4909  0.5355
  922MPD2    C113544   2.788   1.193   0.176  0.7272 -0.2243  0.3169
  922MPD2    C213545   2.754   1.192   0.044  0.7167  0.3814  0.1772
  922MPD2    C313546   2.696   1.077  17.740  0.3783  0.2033  0.5549
  922MPD2    C413547   2.672   0.968   0.070 -0.1465 -0.3321 -0.3436
  922MPD2    C513548   2.699   0.977   0.206  0.1587 -0.3634 -0.5588
  922MPD2     H13549   2.777   1.278  17.735  1.5081  0.8268  1.0800
  922MPD2    H113550   2.628   0.873   0.044 -1.5369  0.1484  0.2435
  922MPD2    H213551   2.763   1.096   0.367 -0.1619  0.8177  0.5271
  922MPD2    H313552   2.669   0.896   0.272 -0.5353  0.2410 -0.1309
  922MPD2     N13553   2.658   1.079  17.609 -0.3926 -0.1335 -0.9337
  922MPD2    H513554   2.673   1.160  17.550  0.6047  1.2559  1.2352
  922MPD2    N113555   2.840   1.320   0.216  0.0930 -0.3522  0.1832
  922MPD2    H713556   2.888   1.373   0.144  2.2900 -0.8533  1.2766
  923MPD2     C13557   3.752   3.802   8.679 -0.5180  1.1856  0.2281
  923MPD2    C113558   3.683   3.803   8.799  0.0674  0.1815 -0.7636
  923MPD2    C213559   3.750   3.772   8.919 -0.2986 -0.5095 -0.4604
  923MPD2    C313560   3.887   3.741   8.917 -0.1903 -0.0256  0.6286
  923MPD2    C413561   3.950   3.722   8.796 -0.1959  0.0089  0.2196
  923MPD2    C513562   3.879   3.755   8.682 -0.5295 -0.2367 -0.0934
  923MPD2     H13563   3.695   3.765   9.012 -0.3247 -0.6819 -0.4891
  923MPD2    H113564   4.049   3.678   8.790  0.3440  0.4791  5.3633
  923MPD2    H213565   3.716   3.837   8.583 -1.3313 -0.5825 -0.1146
  923MPD2    H313566   3.934   3.750   8.589 -2.2252 -2.3333 -0.9925
  923MPD2     N13567   3.959   3.711   9.039 -0.4496  0.2148 -0.4545
  923MPD2    H513568   4.049   3.666   9.024 -0.8994 -1.0259  0.5898
  923MPD2    N113569   3.555   3.858   8.792 -0.1230  0.4760  0.0325
  923MPD2    H713570   3.507   3.880   8.705 -0.0985  2.4655  0.5322
  924MPD2     C13571   0.100   1.985  15.383 -0.2689  0.0314 -0.5625
  924MPD2    C113572   0.081   1.920  15.499  0.2731 -0.2762  0.4282
  924MPD2    C213573   0.060   1.998  15.616  0.1059 -0.4729 -0.4191
  924MPD2    C313574   0.055   2.137  15.610  0.9289  0.0213 -1.2142
  924MPD2    C413575   0.080   2.197  15.490  0.1452  0.2372  0.3325
  924MPD2    C513576   0.092   2.122  15.377  0.0678 -0.9611  0.6024
  924MPD2     H13577   0.035   1.952  15.711 -1.0430 -1.4185 -1.1805
  924MPD2    H113578   0.077   2.305  15.482  1.5117  0.2567  0.0876
  924MPD2    H213579   0.130   1.924  15.299  0.9391  1.7095 -1.3353
  924MPD2    H313580   0.108   2.181  15.288 -2.1815  0.1550  0.9686
  924MPD2     N13581   0.022   2.220  15.721  0.3736 -0.3216  0.0978
  924MPD2    H513582   4.736   2.317  15.709 -0.3360 -0.1353  3.1630
  924MPD2    N113583   0.080   1.780  15.498  1.1226  0.2397 -0.3216
  924MPD2    H713584   0.095   1.737  15.408 -0.7034 -2.3482  0.6072
  925MPD2     C13585   3.403   4.090  14.846 -0.0521 -0.1558 -0.3860
  925MPD2    C113586   3.275   4.062  14.808  0.4356  0.6619 -0.0001
  925MPD2    C213587   3.171   4.097  14.894  0.1640 -0.9150 -0.3562
  925MPD2    C313588   3.200   4.131  15.023  0.2387  0.6076  0.2396
  925MPD2    C413589   3.331   4.162  15.060  0.0060 -0.5445  0.1861
  925MPD2    C513590   3.428   4.150  14.968 -0.1668  0.1250  0.1830
  925MPD2     H13591   3.074   4.072  14.854  0.2738 -1.3436 -0.3490
  925MPD2    H113592   3.363   4.187  15.161  2.2048 -0.9868 -0.3996
  925MPD2    H213593   3.493   4.063  14.791  0.5890 -0.0588  0.6260
  925MPD2    H313594   3.533   4.161  14.991 -0.0875  1.1686 -0.6816
  925MPD2     N13595   3.094   4.138  15.119  0.1276 -0.3359 -0.0742
  925MPD2    H513596   3.120   4.150  15.217 -0.2137 -0.5531  0.0440
  925MPD2    N113597   3.246   3.993  14.684  0.4063 -0.0642  0.1964
  925MPD2    H713598   3.162   3.939  14.665  0.9213 -0.8664  0.1769
  926MPD2     C13599   1.845   2.349  13.633  0.2235  0.3117 -0.0536
  926MPD2    C113600   1.791   2.467  13.590 -0.3863  0.5892 -0.4686
  926MPD2    C213601   1.852   2.542  13.490  0.2771 -0.3009  0.0012
  926MPD2    C313602   1.967   2.496  13.433 -0.0978 -0.4239 -0.6698
  926MPD2    C413603   2.022   2.380  13.468 -0.0060 -0.5173  0.3644
  926MPD2    C513604   1.962   2.307  13.572 -0.3117  0.1635 -0.4695
  926MPD2     H13605   1.809   2.637  13.460 -1.5545 -0.8467  0.8635
  926MPD2    H113606   2.115   2.347  13.424  0.4323  1.3334 -0.0730
  926MPD2    H213607   1.793   2.283  13.701  0.8870  2.9830  3.0161
  926MPD2    H313608   2.004   2.210  13.596 -1.6780 -0.6193 -1.2180
  926MPD2     N13609   2.036   2.572  13.338 -0.2110 -0.5157 -0.1061
  926MPD2    H513610   2.127   2.545  13.301 -0.3930  0.3280 -1.1969
  926MPD2    N113611   1.669   2.526  13.644  0.2170  0.3641 -0.7427
  926MPD2    H713612   1.654   2.622  13.614 -1.5407  0.2507 -0.2500
  927MPD2     C13613   1.637   0.064  17.602 -0.4555 -0.0547 -0.0104
  927MPD2    C113614   1.654   4.670  17.627 -0.3671 -0.4633  0.5146
  927MPD2    C213615   1.782   4.613  17.593  0.1001  0.3701 -0.6045
  927MPD2    C313616   1.880   4.683  17.527 -0.1484 -0.3267 -0.3009
  927MPD2    C413617   1.858   0.079  17.513 -0.0833  0.2102 -0.2589
  927MPD2    C513618   1.744   0.137  17.558  0.3634  0.6626 -0.1529
  927MPD2     H13619   1.799   4.507  17.604 -1.5786 -0.0666 -2.3085
  927MPD2    H113620   1.929   0.139  17.457 -0.7243  1.7139  0.5506
  927MPD2    H213621   1.547   0.119  17.624 -0.4548 -0.3897  0.8130
  927MPD2    H313622   1.734   0.245  17.556 -3.2212  0.4009  3.0539
  927MPD2     N13623   2.001   4.615  17.478  0.9280  0.2546  0.4578
  927MPD2    H513624   2.011   4.516  17.501 -1.7121 -0.1922 -0.2916
  927MPD2    N113625   1.549   4.611  17.701  0.3305 -0.1009  0.2543
  927MPD2    H713626   1.467   4.670  17.715 -0.2119 -0.6881 -0.4797
  928MPD2     C13627   0.142   2.988   1.090  0.0283  0.4477 -0.4389
  928MPD2    C113628   0.141   3.127   1.087 -0.5953 -0.1559 -0.7417
  928MPD2    C213629   0.146   3.202   0.969  0.8405  0.3969 -1.0243
  928MPD2    C313630   0.149   3.133   0.849 -1.0588 -0.3335 -0.2294
  928MPD2    C413631   0.138   2.993   0.847 -0.2316 -0.0970  1.0499
  928MPD2    C513632   0.135   2.928   0.968 -0.1662 -0.7124  0.5190
  928MPD2     H13633   0.157   3.310   0.967  1.9076  0.2643 -2.3439
  928MPD2    H113634   0.129   2.933   0.757 -1.7722  0.2712  0.9514
  928MPD2    H213635   0.142   2.931   1.182 -1.5860  0.3685 -0.4778
  928MPD2    H313636   0.127   2.820   0.965  2.2008 -0.9024  0.9051
  928MPD2     N13637   0.170   3.198   0.724 -0.7672  0.2902 -0.1747
  928MPD2    H513638   0.190   3.134   0.648 -2.1580  1.9994 -2.0172
  928MPD2    N113639   0.153   3.200   1.208 -0.2378 -0.5961  0.3912
  928MPD2    H713640   0.172   3.134   1.282 -0.5295 -1.6219 -0.4516
  929MPD2     C13641   3.557   3.405   9.605  0.6929 -0.0398 -0.5493
  929MPD2    C113642   3.507   3.288   9.671 -0.4600  0.2686  0.1912
  929MPD2    C213643   3.380   3.242   9.639 -0.4611 -0.9663  0.2754
  929MPD2    C313644   3.300   3.307   9.548 -0.3101 -0.0743  0.0084
  929MPD2    C413645   3.347   3.412   9.480  0.4786 -1.1019  0.6061
  929MPD2    C513646   3.473   3.455   9.505 -0.4300 -0.1150 -0.2767
  929MPD2     H13647   3.347   3.148   9.682 -0.5005  0.2277  2.8674
  929MPD2    H113648   3.285   3.451   9.401  0.5512  0.1297  1.1686
  929MPD2    H213649   3.657   3.447   9.612 -0.0701  1.8601 -0.8420
  929MPD2    H313650   3.513   3.542   9.454  0.4598 -0.7325 -0.6181
  929MPD2     N13651   3.164   3.275   9.523 -1.0875  0.2185  0.4976
  929MPD2    H513652   3.108   3.347   9.478 -0.2139  0.4128 -0.2953
  929MPD2    N113653   3.578   3.245   9.783  0.6559  0.7315  0.1158
  929MPD2    H713654   3.671   3.283   9.799  0.3264  0.6162  2.3337
  930MPD2     C13655   1.283   0.258  14.362  0.2042  0.3223 -0.4908
  930MPD2    C113656   1.415   0.277  14.316 -0.2123  0.8126  0.0212
  930MPD2    C213657   1.434   0.253  14.179  0.2424  0.1434  0.1365
  930MPD2    C313658   1.332   0.226  14.089 -0.0765 -0.2300 -0.2471
  930MPD2    C413659   1.208   0.203  14.144  0.1224 -0.7608 -0.1590
  930MPD2    C513660   1.187   0.207  14.281 -0.2948  0.5062  0.4479
  930MPD2     H13661   1.523   0.292  14.131  0.2691  1.2519  1.0835
  930MPD2    H113662   1.118   0.188  14.086 -1.3976 -0.4710  2.1774
  930MPD2    H213663   1.263   0.291  14.464  1.3385  0.5607 -0.3434
  930MPD2    H313664   1.088   0.186  14.321  0.6163 -1.7280  1.5543
  930MPD2     N13665   1.346   0.255  13.952  0.0701 -0.1698 -0.4907
  930MPD2    H513666   1.258   0.247  13.902 -1.8120  2.4653  2.3880
  930MPD2    N113667   1.506   0.348  14.397 -0.5635  0.0618  0.3468
  930MPD2    H713668   1.463   0.403  14.471 -4.0302 -1.9537 -0.2125
  931MPD2     C13669   1.108   3.840   0.300  0.4548 -0.2178  0.3540
  931MPD2    C113670   1.212   3.927   0.311  0.1779 -0.8867 -0.3744
  931MPD2    C213671   1.317   3.889   0.390 -0.3947 -0.3941  0.3712
  931MPD2    C313672   1.297   3.770   0.467  0.0482 -0.3229  0.5714
  931MPD2    C413673   1.195   3.688   0.450  0.2273 -0.9763 -0.1667
  931MPD2    C513674   1.093   3.718   0.362 -0.7116 -0.0238  0.0575
  931MPD2     H13675   1.400   3.956   0.409  0.8758 -1.3428 -1.8567
  931MPD2    H113676   1.182   3.602   0.515 -1.6317 -0.0281  0.7144
  931MPD2    H213677   1.023   3.862   0.237  1.9435 -2.2249 -2.3282
  931MPD2    H313678   0.996   3.671   0.369 -0.9358  0.4023 -0.2383
  931MPD2     N13679   1.396   3.744   0.562 -0.0853 -0.0705 -0.4754
  931MPD2    H513680   1.458   3.822   0.580  0.2694  0.0338 -2.1569
  931MPD2    N113681   1.211   4.034   0.216 -0.0796  0.6742 -0.5642
  931MPD2    H713682   1.132   4.059   0.158 -2.0406  1.0686  2.2806
  932MPD2     C13683   2.725   3.915  11.761 -0.0333  0.1471  0.1571
  932MPD2    C113684   2.779   3.933  11.641 -0.8665  0.0648 -0.0836
  932MPD2    C213685   2.839   3.831  11.578 -0.2262 -1.2357  0.5527
  932MPD2    C313686   2.864   3.706  11.636  0.9030  0.1790 -0.4795
  932MPD2    C413687   2.800   3.686  11.758  0.4408 -0.8741  0.0903
  932MPD2    C513688   2.733   3.791  11.816 -0.3218  0.0319 -0.1846
  932MPD2     H13689   2.879   3.845  11.478 -0.8630 -0.6782  0.3832
  932MPD2    H113690   2.796   3.593  11.814 -0.8470 -2.2280 -2.2454
  932MPD2    H213691   2.670   3.989  11.819 -0.0293  1.0662 -1.0186
  932MPD2    H313692   2.693   3.761  11.912 -0.6250 -0.3045 -0.4163
  932MPD2     N13693   2.937   3.588  11.584  0.0029  0.1460 -0.3138
  932MPD2    H513694   2.944   3.510  11.649  2.5276  1.0437  0.4976
  932MPD2    N113695   2.793   4.061  11.584  0.4279  0.4023  0.5315
  932MPD2    H713696   2.833   4.063  11.491 -2.1223 -1.6652 -0.6325
  933MPD2     C13697   0.317   3.844   1.858 -0.0798  0.2602  0.0410
  933MPD2    C113698   0.259   3.851   1.735  0.1578 -0.0459 -0.0456
  933MPD2    C213699   0.210   3.975   1.692 -0.4910  0.7917  0.6751
  933MPD2    C313700   0.234   4.094   1.762  0.4801  0.7453  0.5655
  933MPD2    C413701   0.289   4.079   1.892 -0.2078  0.5741  0.5402
  933MPD2    C513702   0.326   3.957   1.940 -0.0386  0.1839  0.0084
  933MPD2     H13703   0.144   3.994   1.609 -2.2529 -1.6799  1.5147
  933MPD2    H113704   0.306   4.161   1.961 -3.2939  1.7397 -0.0875
  933MPD2    H213705   0.370   3.755   1.889  1.0330  0.5441 -1.0656
  933MPD2    H313706   0.387   3.952   2.029 -1.2030  0.5673  0.8250
  933MPD2     N13707   0.198   4.213   1.706  0.0146  0.3685 -1.1834
  933MPD2    H513708   0.130   4.216   1.631  1.0314 -2.3870 -2.2295
  933MPD2    N113709   0.252   3.729   1.661 -0.6090 -0.9320 -0.1059
  933MPD2    H713710   0.277   3.646   1.714  0.2016 -0.3952  0.3420
  934MPD2     C13711   1.390   1.254   1.425  0.8812 -0.1128 -0.3692
  934MPD2    C113712   1.442   1.185   1.318 -0.0884  0.2951 -0.6582
  934MPD2    C213713   1.358   1.131   1.226  0.7998  0.1919 -0.1107
  934MPD2    C313714   1.217   1.122   1.251 -0.1902  0.0232 -0.3686
  934MPD2    C413715   1.171   1.191   1.364  0.2827 -0.4735 -0.0355
  934MPD2    C513716   1.256   1.270   1.434 -0.4199 -1.1171 -0.2669
  934MPD2     H13717   1.395   1.105   1.128  0.3987 -0.0167 -0.2066
  934MPD2    H113718   1.067   1.187   1.394  0.0492 -1.2058 -0.9431
  934MPD2    H213719   1.446   1.312   1.498  3.2769  0.2425 -2.4897
  934MPD2    H313720   1.210   1.324   1.516 -0.1278 -0.9376 -0.2227
  934MPD2     N13721   1.117   1.076   1.158  0.0263  0.1420 -0.9081
  934MPD2    H513722   1.021   1.078   1.190 -0.0499  0.0990 -1.1322
  934MPD2    N113723   1.581   1.168   1.304 -0.8463  0.5242  0.6455
  934MPD2    H713724   1.619   1.121   1.223  0.5055  0.2018  1.4644
  935MPD2     C13725   1.054   0.195   0.790 -0.6699 -0.3908  0.2658
  935MPD2    C113726   0.942   0.251   0.725 -0.0003  0.9457  0.1650
  935MPD2    C213727   0.926   0.391   0.732 -0.1019 -0.0018  0.3178
  935MPD2    C313728   1.014   0.458   0.811  0.0609  0.3032  0.4664
  935MPD2    C413729   1.122   0.398   0.870  0.0524 -0.6118  0.7681
  935MPD2    C513730   1.142   0.267   0.860 -0.0719 -0.0998  0.0553
  935MPD2     H13731   0.840   0.439   0.687 -0.3207  0.4725  1.2523
  935MPD2    H113732   1.182   0.460   0.936  1.8051  0.5611 -1.9082
  935MPD2    H213733   1.066   0.087   0.797 -0.8452 -0.2468  2.7366
  935MPD2    H313734   1.228   0.232   0.915  0.2970  1.4449  0.4619
  935MPD2     N13735   0.999   0.599   0.839  0.6253 -0.4196 -0.2615
  935MPD2    H513736   1.074   0.639   0.894  0.7717 -0.2383 -0.5936
  935MPD2    N113737   0.845   0.175   0.647  0.5595 -0.5688 -0.4160
  935MPD2    H713738   0.770   0.228   0.604  1.2015  0.7610  0.1087
  936MPD2     C13739   3.029   1.701  12.526  0.0708 -0.6662  0.5371
  936MPD2    C113740   3.002   1.818  12.594  0.0570  0.2183 -0.8256
  936MPD2    C213741   3.006   1.934  12.520  0.2122  1.1291  0.1244
  936MPD2    C313742   3.033   1.939  12.385  0.2396  0.8879  0.2627
  936MPD2    C413743   3.060   1.822  12.318 -0.4037 -0.4967 -0.1304
  936MPD2    C513744   3.055   1.705  12.389 -0.6910  0.1604 -0.5906
  936MPD2     H13745   3.003   2.032  12.567  2.0435  1.5662 -0.6825
  936MPD2    H113746   3.085   1.826  12.212  1.4758 -0.1434  0.3270
  936MPD2    H213747   3.029   1.601  12.569 -2.9792 -0.6322  0.5765
  936MPD2    H313748   3.071   1.607  12.343 -0.6612  0.4546 -1.2153
  936MPD2     N13749   3.044   2.056  12.309  0.3995 -0.0996 -0.1593
  936MPD2    H513750   3.102   2.059  12.226 -0.1597  2.2383 -0.4626
  936MPD2    N113751   2.969   1.825  12.729  0.6485  0.0657  0.1967
  936MPD2    H713752   2.971   1.916  12.773  2.2579  1.3486 -2.4975
  937MPD2     C13753   1.452   3.756  11.858  0.4531  0.4696  0.2149
  937MPD2    C113754   1.414   3.872  11.789  0.2416 -0.4622 -0.8440
  937MPD2    C213755   1.496   3.912  11.686  0.0484  0.4930  0.0267
  937MPD2    C313756   1.593   3.831  11.635  0.1758 -0.2811 -0.0150
  937MPD2    C413757   1.632   3.716  11.709  0.1511  0.1758 -0.1923
  937MPD2    C513758   1.556   3.681  11.814 -0.2161  0.6157  0.8224
  937MPD2     H13759   1.486   4.007  11.635  0.3305  1.5422  1.9445
  937MPD2    H113760   1.717   3.654  11.684  1.1419  0.6978  1.9438
  937MPD2    H213761   1.408   3.725  11.952  0.6929  0.9154  0.4801
  937MPD2    H313762   1.568   3.582  11.858  1.9470  0.5038 -0.0074
  937MPD2     N13763   1.678   3.893  11.537 -0.5322 -0.1860 -0.6875
  937MPD2    H513764   1.655   3.986  11.501 -0.0398  0.5189  0.8016
  937MPD2    N113765   1.344   3.979  11.851 -0.1312 -0.5283  0.1166
  937MPD2    H713766   1.338   4.070  11.806  0.8442  0.1824  1.4282
  938MPD2     C13767   4.478   0.945  17.738  0.5780 -0.5571 -0.3577
  938MPD2    C113768   4.551   0.990   0.090  0.3507  0.8767  0.3909
  938MPD2    C213769   4.585   0.902   0.196 -0.1289 -0.2695  0.1351
  938MPD2    C313770   4.553   0.763   0.198 -0.2553 -0.0720  0.2648
  938MPD2    C413771   4.482   0.716   0.090  0.2732  1.0734  0.7505
  938MPD2    C513772   4.447   0.805  17.740 -0.2295 -0.5751  0.6645
  938MPD2     H13773   4.650   0.940   0.274 -2.2527  0.6233  1.4490
  938MPD2    H113774   4.464   0.609   0.092 -1.8899  1.4018 -0.7743
  938MPD2    H213775   4.450   0.999  17.648 -0.6464 -1.4113 -0.4813
  938MPD2    H313776   4.391   0.761  17.659  0.4715  1.0111 -0.6873
  938MPD2     N13777   4.574   0.673   0.309  0.0059 -0.2117 -0.5721
  938MPD2    H513778   4.534   0.580   0.303  0.5804 -0.4797 -0.2024
  938MPD2    N113779   4.586   1.125   0.101  0.0230  0.2094 -0.5115
  938MPD2    H713780   4.641   1.140   0.185  1.0139  2.0670 -1.4778
  939MPD2     C13781   0.727   1.292   0.717 -0.1279 -0.3164 -0.2630
  939MPD2    C113782   0.858   1.313   0.688 -0.4508 -0.5578 -0.1413
  939MPD2    C213783   0.920   1.225   0.605 -0.0856  0.0991 -0.5432
  939MPD2    C313784   0.860   1.107   0.556 -0.0657  0.5075 -0.3315
  939MPD2    C413785   0.737   1.080   0.606 -0.2639  0.1444 -0.3579
  939MPD2    C513786   0.670   1.171   0.679 -0.4853 -0.0241 -0.2043
  939MPD2     H13787   1.022   1.246   0.575 -0.0350  2.0150  0.9338
  939MPD2    H113788   0.695   0.981   0.593  0.1165 -0.1449  0.6365
  939MPD2    H213789   0.672   1.356   0.784  0.3161  1.4998 -1.6319
  939MPD2    H313790   0.574   1.139   0.717 -1.2454  1.8161 -0.5995
  939MPD2     N13791   0.932   1.024   0.468  0.2932  0.0847  0.2178
  939MPD2    H513792   1.018   1.066   0.435 -1.5270  2.7361 -1.1631
  939MPD2    N113793   0.907   1.435   0.736 -0.2056 -0.0042  0.5793
  939MPD2    H713794   0.842   1.480   0.799 -2.1604 -0.1990 -1.2925
  940MPD2     C13795   3.543   2.110  13.812 -0.8107  0.1712  0.3488
  940MPD2    C113796   3.668   2.163  13.822  0.5960 -0.2566 -0.6605
  940MPD2    C213797   3.763   2.140  13.724 -0.7560  0.8148 -0.0328
  940MPD2    C313798   3.727   2.066  13.611 -0.1186 -0.3913 -0.3631
  940MPD2    C413799   3.598   2.013  13.605 -0.8135 -0.2378  0.4666
  940MPD2    C513800   3.512   2.024  13.715 -0.2773  0.0124  0.2511
  940MPD2     H13801   3.867   2.171  13.736 -0.5370  0.0349  0.1150
  940MPD2    H113802   3.577   1.950  13.518  0.7924  0.2397 -0.2586
  940MPD2    H213803   3.455   2.130  13.872  0.0612  0.6472  1.4675
  940MPD2    H313804   3.417   1.972  13.719  0.0707 -0.7294 -1.1170
  940MPD2     N13805   3.812   2.045  13.494 -0.1649 -0.2774  1.2486
  940MPD2    H513806   3.768   1.989  13.422 -0.1672  0.3913  0.7276
  940MPD2    N113807   3.706   2.238  13.939 -0.0409  0.1842 -0.7123
  940MPD2    H713808   3.785   2.298  13.921 -0.4704  1.0132  0.1594
  941MPD2     C13809   2.718   1.892   9.641 -0.7042  0.1127  0.0831
  941MPD2    C113810   2.825   1.860   9.718 -0.6026  0.1021  0.8351
  941MPD2    C213811   2.831   1.736   9.770 -0.0293  0.2836  0.2301
  941MPD2    C313812   2.739   1.639   9.753  0.2397  0.3158  0.2649
  941MPD2    C413813   2.624   1.678   9.684  0.0277  0.1800 -0.4348
  941MPD2    C513814   2.615   1.801   9.630  0.5603  0.4305 -0.5232
  941MPD2     H13815   2.924   1.711   9.819  1.0310 -1.8265 -2.8486
  941MPD2    H113816   2.540   1.611   9.672 -0.8492  0.9047  1.6418
  941MPD2    H213817   2.703   1.994   9.606  0.3091 -0.0593 -0.8405
  941MPD2    H313818   2.531   1.823   9.565  1.5208 -0.6690 -2.1423
  941MPD2     N13819   2.744   1.511   9.814  0.0152 -0.0553 -0.3784
  941MPD2    H513820   2.670   1.443   9.804 -0.6171  0.8308 -1.8568
  941MPD2    N113821   2.930   1.954   9.737  0.4957 -0.0019  0.3741
  941MPD2    H713822   3.009   1.908   9.780  0.1456 -1.8253 -0.9459
  942MPD2     C13823   2.392   4.034   9.337  0.9702  0.8407  0.4995
  942MPD2    C113824   2.370   3.909   9.289  0.0784  0.0210 -0.1353
  942MPD2    C213825   2.475   3.847   9.224 -0.4139  0.5151 -0.1053
  942MPD2    C313826   2.600   3.906   9.210 -0.7673 -0.0731 -0.1420
  942MPD2    C413827   2.626   4.031   9.271  0.6610 -0.3098  0.3390
  942MPD2    C513828   2.520   4.087   9.339 -0.0562 -0.0891 -0.1784
  942MPD2     H13829   2.455   3.745   9.192  0.9249 -0.0469  0.8477
  942MPD2    H113830   2.722   4.080   9.270  0.0311  0.9234  0.2211
  942MPD2    H213831   2.314   4.093   9.383 -0.7667 -0.8905 -0.2411
  942MPD2    H313832   2.533   4.178   9.396  1.4287 -0.6870  0.4366
  942MPD2     N13833   2.705   3.858   9.132  0.1643 -0.2417 -0.1392
  942MPD2    H513834   2.789   3.913   9.123 -0.3656  0.7466  0.9325
  942MPD2    N113835   2.249   3.841   9.296 -0.4004  0.0302 -0.1416
  942MPD2    H713836   2.254   3.749   9.253 -1.8635 -0.7128  1.2944
  943MPD2     C13837   1.877   1.752   9.460 -0.4807  0.6253 -0.5125
  943MPD2    C113838   1.858   1.647   9.554  0.1081  0.2517 -0.2142
  943MPD2    C213839   1.890   1.674   9.686 -0.5032  0.0570  0.2738
  943MPD2    C313840   1.920   1.799   9.731 -0.5078  0.3703  0.3541
  943MPD2    C413841   1.941   1.902   9.637  0.8376  0.0693  0.0149
  943MPD2    C513842   1.908   1.878   9.505  0.1428 -0.1071 -0.5587
  943MPD2     H13843   1.881   1.587   9.750 -0.0091 -0.0283  0.2262
  943MPD2    H113844   1.969   2.001   9.672 -0.8926  0.4439  0.3417
  943MPD2    H213845   1.872   1.741   9.352 -0.0451 -0.2842 -0.4385
  943MPD2    H313846   1.929   1.953   9.430 -2.0387  0.2502 -0.8034
  943MPD2     N13847   1.940   1.816   9.870 -0.0295 -0.8407 -0.0349
  943MPD2    H513848   1.955   1.909   9.906  1.9578 -0.7937 -0.9961
  943MPD2    N113849   1.820   1.518   9.502  0.1145  0.1581 -0.2535
  943MPD2    H713850   1.791   1.514   9.404  1.3064 -0.9562 -0.5645
  944MPD2     C13851   1.240   1.123  10.649  0.4098 -0.3257 -0.2039
  944MPD2    C113852   1.285   1.019  10.725  0.1885  0.4027  0.4921
  944MPD2    C213853   1.353   1.047  10.840 -0.0998  0.2858  0.0859
  944MPD2    C313854   1.352   1.170  10.897 -0.2278  0.8448 -0.4328
  944MPD2    C413855   1.296   1.272  10.819  0.5304  0.0722 -0.5557
  944MPD2    C513856   1.241   1.246  10.698 -0.4519  0.6000 -0.7003
  944MPD2     H13857   1.400   0.968  10.897  3.3298  1.0973 -1.6070
  944MPD2    H113858   1.276   1.375  10.844 -2.2944 -0.9002  1.1603
  944MPD2    H213859   1.198   1.099  10.552 -1.6957 -2.4509  1.2324
  944MPD2    H313860   1.203   1.325  10.633 -4.0744  0.1145  0.8019
  944MPD2     N13861   1.389   1.212  11.031  0.0906 -0.4902  0.4547
  944MPD2    H513862   1.370   1.310  11.049 -0.9039 -0.4564 -0.7856
  944MPD2    N113863   1.270   0.894  10.670 -0.2923  0.0302 -0.0248
  944MPD2    H713864   1.208   0.884  10.590 -1.9767  0.7954  1.1833
    1TMC1    C113865   0.834   1.214  14.769 -0.0990 -0.1268  0.2627
    1TMC1    C213866   0.737   1.135  14.716  0.0864  0.4531  0.5769
    1TMC1    C313867   0.762   1.003  14.714 -0.2753 -0.1727 -0.4375
    1TMC1    C413868   0.964   1.175  14.798 -0.2938 -0.7483  0.1170
    1TMC1    C513869   0.984   1.039  14.769  0.1907  0.5207 -0.5304
    1TMC1    C613870   0.888   0.953  14.729  0.1147  0.2562 -0.4415
    1TMC1     C13871   0.816   1.360  14.780  0.1784  0.1427  0.1088
    1TMC1     O13872   0.890   1.423  14.854 -0.0347 -0.0018 -0.1882
    1TMC1     H13873   0.633   1.163  14.704  0.9841  2.0329 -3.6011
    1TMC1    H113874   1.042   1.247  14.823  0.2650 -1.0863 -0.6323
    1TMC1    H213875   0.913   0.852  14.700 -0.7376  0.0239 -0.3848
    1TMC1    C713876   1.111   0.970  14.797 -0.2950 -0.5786  0.2176
    1TMC1    C813877   0.650   0.912  14.704 -0.5870  0.3892 -0.1548
    1TMC1    O113878   1.114   0.854  14.829  0.1512 -0.1221 -0.4277
    1TMC1    O213879   0.535   0.942  14.676 -0.2938  0.5072  0.2754
    1TMC1    O313880   1.218   1.053  14.771  0.9194  0.3085 -0.0429
    1TMC1    H313881   1.182   1.122  14.711 -1.7570 -1.6425 -0.6735
    1TMC1    O513882   0.671   0.823  14.802  0.3600 -0.8221 -0.6804
    1TMC1    H513883   0.756   0.831  14.850  1.9044  0.3854 -3.5968
    2MPD2     C13884   0.643   1.810  14.645  0.0972 -0.3434 -0.4227
    2MPD2    C113885   0.627   1.726  14.533  0.6095 -0.8091 -0.7617
    2MPD2    C213886   0.653   1.590  14.559  0.4526 -0.1988 -0.4430
    2MPD2    C313887   0.682   1.549  14.687 -0.0302  0.3808 -0.1456
    2MPD2    C413888   0.701   1.635  14.786 -0.2512  0.0660  0.2169
    2MPD2    C513889   0.681   1.769  14.772 -1.1151 -0.1147  0.4330
    2MPD2     H13890   0.630   1.516  14.483 -0.1194  0.0594 -0.5221
    2MPD2    H113891   0.735   1.602  14.883  1.0698 -0.0047 -0.2760
    2MPD2    H213892   0.625   1.916  14.654  1.3016 -0.1166 -0.6281
    2MPD2    H313893   0.696   1.838  14.855 -0.6059 -1.5511  1.5272
    2MPD2     N13894   0.719   1.409  14.697  0.0970  0.1581 -0.0464
    2MPD2    H513895   0.687   1.350  14.621  2.6058  0.1657 -1.0931
    2MPD2    N113896   0.598   1.788  14.408 -0.2257 -0.2319  1.2115
    2MPD2    H713897   0.593   1.889  14.417  0.8118 -0.2300  1.8399
    3TMC2    C113898   0.533   1.801  14.177 -0.6982 -0.1125 -0.0486
    3TMC2    C213899   0.480   1.732  14.068 -0.3750 -0.2119 -0.0212
    3TMC2    C313900   0.431   1.802  13.967 -0.4452 -0.3730  0.3556
    3TMC2    C413901   0.531   1.938  14.183  0.3203 -0.2328  0.6312
    3TMC2    C513902   0.480   2.007  14.073 -0.3372 -0.1510 -0.6488
    3TMC2    C613903   0.436   1.938  13.964  0.1190 -0.2156  0.0295
    3TMC2     C13904   0.555   1.715  14.298 -0.0459 -0.0088  0.5414
    3TMC2     O13905   0.546   1.595  14.276 -0.0455 -0.1912  0.1140
    3TMC2     H13906   0.489   1.624  14.066 -0.1497 -0.2318  2.5615
    3TMC2    H113907   0.589   1.996  14.253  1.1325 -1.8828  1.3260
    3TMC2    H213908   0.406   1.985  13.871 -0.7083  1.2028  1.0067
    3TMC2    C713909   0.494   2.147  14.061  0.1986  0.1820 -0.5163
    3TMC2    C813910   0.371   1.729  13.863  0.5605  0.3248  0.8533
    3TMC2    O113911   0.578   2.200  14.133 -0.3535  0.7180 -0.3370
    3TMC2    O213912   0.409   1.624  13.813  0.6306  0.0557  0.1882
    3TMC2    O513913   0.244   1.782  13.859 -0.0480 -0.5149  0.2847
    3TMC2    H513914   0.226   1.867  13.904 -0.5439  0.0728 -1.0018
    4TMC2    C113915   4.536   2.515  13.391 -0.3835 -1.0507  0.3540
    4TMC2    C213916   4.583   2.628  13.316 -0.1468  0.7921 -0.4054
    4TMC2    C313917   4.698   2.676  13.370 -0.0577  0.4434  0.0858
    4TMC2    C413918   4.598   2.461  13.503 -0.1700 -0.7440 -0.3680
    4TMC2    C513919   4.723   2.512  13.543  0.3190 -0.0030 -0.7464
    4TMC2    C613920   0.022   2.626  13.477  0.5005  0.2923 -0.1724
    4TMC2     C13921   4.396   2.481  13.372 -0.3245  0.2899 -0.3007
    4TMC2     O13922   4.332   2.446  13.470  0.3049 -0.3855  0.2597
    4TMC2     H13923   4.519   2.688  13.253  0.0865  0.5770 -0.8458
    4TMC2    H113924   4.562   2.366  13.542  1.6248 -0.4438  1.9943
    4TMC2    H213925   0.108   2.683  13.509  0.8623 -1.1538  1.4464
    4TMC2    C713926   0.071   2.437  13.634 -0.4954  0.0584  0.2175
    4TMC2    C813927   0.017   2.799  13.313  0.5764 -0.2250 -0.6710
    4TMC2    O113928   0.055   2.316  13.658 -0.0859 -0.1233  0.3770
    4TMC2    O213929   0.090   2.880  13.362 -0.3440 -0.1349  0.2166
    4TMC2    O513930   4.729   2.797  13.180 -0.3131  0.9583 -0.1685
    4TMC2    H513931   4.696   2.715  13.138  0.8203 -0.5111  1.7890
    5MPD2     C13932   4.001   2.381  13.057  0.1325  0.4507  0.0039
    5MPD2    C113933   4.109   2.421  12.983  0.0459 -0.2095  0.0795
    5MPD2    C213934   4.228   2.458  13.041 -0.5417  0.0665 -0.1000
    5MPD2    C313935   4.237   2.449  13.181  0.6900 -0.2315  0.8414
    5MPD2    C413936   4.130   2.412  13.254  0.2045 -1.0002 -0.6463
    5MPD2    C513937   4.014   2.379  13.197 -0.4440  0.4830  0.1469
    5MPD2     H13938   4.314   2.445  12.977 -0.1208 -0.7685  0.6468
    5MPD2    H113939   4.136   2.418  13.362  1.2422  1.9056 -0.8745
    5MPD2    H213940   3.903   2.363  13.013  0.7293 -1.6586 -0.4907
    5MPD2    H313941   3.928   2.352  13.256  0.1102 -0.6475  0.4382
    5MPD2     N13942   4.363   2.482  13.238  0.2692  0.4096 -0.0263
    5MPD2    H513943   4.439   2.505  13.175 -0.2340  0.4631 -0.6085
    5MPD2    N113944   4.088   2.427  12.842  0.6444 -0.3555  0.0258
    5MPD2    H713945   3.995   2.407  12.806  1.2580 -1.5524 -0.9030
    6MPD1     C13946   3.438   3.926  13.278  0.7548 -0.3534 -0.2832
    6MPD1    C113947   3.342   3.837  13.226  0.8583  0.8982 -0.1798
    6MPD1    C213948   3.377   3.727  13.155 -0.6841 -0.4617 -0.3673
    6MPD1    C313949   3.510   3.698  13.136 -1.1080  0.5494 -0.9031
    6MPD1    C413950   3.603   3.780  13.191  0.2915  0.1360 -0.3309
    6MPD1    C513951   3.568   3.891  13.262 -0.1011 -0.2964  0.5044
    6MPD1     H13952   3.302   3.658  13.117  0.7388 -1.9770 -0.4391
    6MPD1    H113953   3.709   3.764  13.181  0.0459 -1.8690  0.2758
    6MPD1    H213954   3.416   4.022  13.322  0.1581 -0.8104  0.4216
    6MPD1    H313955   3.647   3.954  13.301  2.2147 -1.6472 -2.0608
    6MPD1     N13956   3.555   3.584  13.064  0.6217 -0.7453 -0.6021
    6MPD1    H513957   3.652   3.587  13.033  0.6095 -0.4432 -0.6089
    6MPD1    N113958   3.208   3.871  13.254 -0.3853  1.0504 -0.4205
    6MPD1    H613959   3.155   3.839  13.173  0.9242  1.9024 -1.6204
    6MPD1    H713960   3.191   3.971  13.251  0.5501  1.2118 -0.2958
    7MPD2     C13961   3.569   2.692  12.995  0.5936 -0.2494 -0.2128
    7MPD2    C113962   3.610   2.779  12.896 -0.4575  0.3530  0.4379
    7MPD2    C213963   3.674   2.714  12.787 -0.1800  0.0266  0.5267
    7MPD2    C313964   3.681   2.575  12.773  0.0033 -0.7589  0.5641
    7MPD2    C413965   3.640   2.496  12.870 -0.2771  0.0756  0.5226
    7MPD2    C513966   3.593   2.559  12.985  0.0993 -0.2115  0.8287
    7MPD2     H13967   3.710   2.778  12.708 -1.8930  1.6744  1.0544
    7MPD2    H113968   3.651   2.389  12.877  0.0820  0.0851  0.0428
    7MPD2    H213969   3.527   2.737  13.085  3.5799  2.3522 -0.1086
    7MPD2    H313970   3.566   2.498  13.071  0.0420  0.0804  1.0192
    7MPD2     N13971   3.748   2.524  12.660  0.0118 -0.0324  0.3497
    7MPD2    H513972   3.758   2.584  12.579 -0.1610 -0.4080  0.0529
    7MPD2    N113973   3.603   2.925  12.885 -0.2357 -0.2034 -0.2109
    7MPD2    H713974   3.626   2.969  12.797  0.6875  0.1492  0.2171
    8TMC3    C113975   3.907   2.403  12.547  0.1279 -0.3482  0.1304
    8TMC3    C213976   4.019   2.357  12.601 -0.2534 -0.1479 -0.0797
    8TMC3    C313977   4.120   2.455  12.605 -0.2882  0.5612  0.6718
    8TMC3    C413978   3.904   2.512  12.459  0.0478 -0.2307  0.0074
    8TMC3    C513979   4.013   2.598  12.455  0.7369 -0.0874  0.4401
    8TMC3    C613980   4.124   2.569  12.531  0.1840  0.1054 -0.1607
    8TMC3     C13981   3.811   2.409  12.657  0.2856  0.2742 -0.0227
    8TMC3     O13982   3.831   2.331  12.750  0.7311 -0.2134  0.7073
    8TMC3     H13983   4.022   2.259  12.648 -0.8121  1.1784  2.7664
    8TMC3    H113984   3.806   2.535  12.418 -1.1486  0.1733  3.0706
    8TMC3    H213985   4.211   2.634  12.528 -0.5926  1.1749  0.6914
    8TMC3    C713986   3.959   2.734  12.460 -0.1484  0.6439 -0.1017
    8TMC3    C813987   4.174   2.476  12.743 -0.2067 -0.1855  0.3726
    8TMC3    O113988   3.848   2.749  12.509  0.3798  0.0128 -0.0553
    8TMC3    O213989   4.281   2.538  12.755  0.4576 -0.4080 -0.1130
    9TMC3    C113990   3.546   3.368  12.963 -0.4017  0.1824  0.1727
    9TMC3    C213991   3.638   3.403  12.862  0.1198 -0.8434  0.2277
    9TMC3    C313992   3.708   3.291  12.813 -0.4325 -0.1238  0.7634
    9TMC3    C413993   3.531   3.246  13.020  0.0836  0.2385 -0.8713
    9TMC3    C513994   3.600   3.140  12.961  0.1021 -0.7622 -0.0869
    9TMC3    C613995   3.685   3.161  12.857 -0.0935  0.4363  1.0992
    9TMC3     C13996   3.478   3.473  13.033 -0.3386 -0.2361 -0.7612
    9TMC3     O13997   3.372   3.434  13.084  0.3553 -0.0739  0.1755
    9TMC3     H13998   3.639   3.499  12.812  2.1011 -0.7334  0.4969
    9TMC3    H113999   3.457   3.218  13.095  1.3618 -0.6609  0.0471
    9TMC3    H214000   3.752   3.084  12.820 -0.1061  0.9538 -0.0196
    9TMC3    C714001   3.562   3.003  12.990 -0.1150 -0.8499 -0.1816
    9TMC3    C814002   3.813   3.306  12.713  0.2432  0.2506  0.2850
    9TMC3    O114003   3.515   2.979  13.101  0.4940  0.4408  0.7090
    9TMC3    O214004   3.870   3.415  12.701 -0.2085  0.0107  0.2986
   10MPD2     C14005   4.132   3.052  12.414 -0.4905  0.5161  0.1968
   10MPD2    C114006   4.040   2.962  12.467  0.3755 -0.1097  0.4655
   10MPD2    C214007   3.930   3.015  12.526 -0.1290 -0.4728 -0.0775
   10MPD2    C314008   3.917   3.154  12.549 -0.5831 -0.0679  0.5350
   10MPD2    C414009   4.009   3.245  12.500 -0.3667 -0.5177  0.0126
   10MPD2    C514010   4.115   3.188  12.431  0.3321  0.1245  0.0589
   10MPD2     H14011   3.867   2.949  12.584  0.0099 -0.3621  0.1995
   10MPD2    H114012   4.013   3.352  12.518  0.3730 -0.6533  0.6640
   10MPD2    H214013   4.218   3.021  12.357 -1.0366 -1.1189  0.2833
   10MPD2    H314014   4.194   3.244  12.382  0.1916  0.7876  0.5824
   10MPD2     N14015   3.820   3.184  12.647 -0.5625 -0.4698 -0.6424
   10MPD2    H514016   3.753   3.111  12.667 -0.5850 -0.3002 -0.1113
   10MPD2    N114017   4.058   2.827  12.435  0.6039  0.7609 -0.0238
   10MPD2    H714018   4.146   2.802  12.391  0.4403 -1.3174  0.8467
   11MPD2     C14019   0.464   2.426  13.972 -0.7352 -0.4048  0.7911
   11MPD2    C114020   0.390   2.326  13.927  0.4776  0.8397  0.1148
   11MPD2    C214021   0.285   2.350  13.841  0.5795  0.2973 -0.0832
   11MPD2    C314022   0.264   2.483  13.794  0.1660 -0.8660 -0.9514
   11MPD2    C414023   0.332   2.587  13.851  0.0818 -0.2900 -0.5172
   11MPD2    C514024   0.430   2.557  13.938 -0.1525  0.8196  0.3338
   11MPD2     H14025   0.244   2.275  13.774  2.0477  0.9108 -1.6653
   11MPD2    H114026   0.329   2.683  13.802 -0.6950  0.4225  0.9138
   11MPD2    H214027   0.552   2.416  14.035 -0.2865  0.5309  0.3048
   11MPD2    H314028   0.484   2.638  13.987 -2.1812  1.1083  2.1298
   11MPD2     N14029   0.161   2.517  13.701 -0.1527  0.3138  0.0581
   11MPD2    H514030   0.141   2.614  13.680 -2.4359 -0.0179  0.6676
   11MPD2    N114031   0.409   2.189  13.968 -0.0103  0.3142 -0.8924
   11MPD2    H714032   0.333   2.125  13.946 -0.4224  0.2818  0.6104
    1MPD1     C14033   4.212   4.183  16.210 -0.6067 -0.9340  0.2914
    1MPD1    C114034   4.262   4.064  16.265 -0.1257 -0.1189  0.4139
    1MPD1    C214035   4.189   3.944  16.251  0.0367 -0.0063  0.1731
    1MPD1    C314036   4.071   3.946  16.183  0.2454  0.1071  0.4970
    1MPD1    C414037   4.033   4.060  16.108  0.3896 -0.0740  1.1381
    1MPD1    C514038   4.109   4.175  16.120 -0.2755 -0.0646 -0.2502
    1MPD1     H14039   4.223   3.857  16.305  0.5598 -1.0581 -1.8549
    1MPD1    H114040   3.946   4.071  16.045  1.4303  1.2054 -0.0670
    1MPD1    H214041   4.272   4.271  16.230 -0.3309 -1.2432  0.8393
    1MPD1    H314042   4.085   4.261  16.059 -0.4309 -1.0751 -1.5885
    1MPD1     N14043   3.984   3.836  16.174  0.3378 -0.4022  0.4077
    1MPD1    H514044   3.889   3.849  16.141  0.6781  0.6585 -0.1580
    1MPD1    N114045   4.358   4.084  16.359 -0.3849  0.2446  0.5922
    1MPD1    H614046   4.429   4.013  16.372  0.3119  0.7349 -0.5734
    1MPD1    H714047   4.402   4.170  16.328 -0.4181  0.0473  0.0078
    2MPD1     C14048   3.685   2.834  16.533 -0.0327  0.9064  0.6279
    2MPD1    C114049   3.582   2.888  16.455 -0.7643 -0.0126  0.5837
    2MPD1    C214050   3.606   3.011  16.399  0.0125  0.0828  0.1281
    2MPD1    C314051   3.718   3.082  16.411  0.4291 -0.2810 -0.3482
    2MPD1    C414052   3.823   3.025  16.478 -0.3493 -0.3095 -0.3679
    2MPD1    C514053   3.805   2.906  16.540 -0.2209  0.3047  0.0709
    2MPD1     H14054   3.527   3.057  16.340 -1.5231  0.3538  2.3500
    2MPD1    H114055   3.921   3.069  16.486 -0.4249 -0.4686  1.5166
    2MPD1    H214056   3.680   2.735  16.576 -0.9596  0.2873 -0.9164
    2MPD1    H314057   3.888   2.859  16.592 -2.3659 -1.1398  2.2087
    2MPD1     N14058   3.734   3.212  16.352  0.2088  0.0518  0.4016
    2MPD1    H514059   3.651   3.259  16.317 -0.4870 -0.7647  0.9621
    2MPD1    N114060   3.476   2.807  16.426  0.2716 -0.7434 -0.5144
    2MPD1    H614061   3.460   2.749  16.509 -0.6061 -0.6830 -0.6427
    2MPD1    H714062   3.397   2.870  16.413  0.4892 -0.0206  1.5383
    3TMC3    C114063   3.813   3.422  16.301 -0.2776 -0.4912  0.3821
    3TMC3    C214064   3.690   3.471  16.337  0.5469  0.3187  0.1834
    3TMC3    C314065   3.678   3.607  16.316  0.3027 -0.3235  0.2033
    3TMC3    C414066   3.921   3.496  16.251  0.3128  0.2313  0.1686
    3TMC3    C514067   3.906   3.626  16.233 -0.2075 -0.1595 -0.5890
    3TMC3    C614068   3.783   3.688  16.268 -0.2045  0.2997  0.6847
    3TMC3     C14069   3.851   3.287  16.351  0.4200 -0.8453 -0.7586
    3TMC3     O14070   3.966   3.274  16.379 -0.3550 -0.7531 -0.3231
    3TMC3     H14071   3.624   3.415  16.403  0.4563 -1.5861 -1.5472
    3TMC3    H114072   4.013   3.444  16.227  0.4124 -0.5819  2.2896
    3TMC3    H214073   3.771   3.796  16.270  2.4857  0.6157 -0.4027
    3TMC3    C714074   4.018   3.706  16.200 -0.5216 -1.2313 -0.2293
    3TMC3    C814075   3.574   3.670  16.394  0.2642  0.5278  0.7377
    3TMC3    O114076   4.133   3.658  16.218 -0.2924 -0.2285 -0.0519
    3TMC3    O214077   3.590   3.786  16.411  0.4949 -0.0704 -0.1283
    4MPD1     C14078   3.158   3.658  16.709 -0.2368  0.2194 -0.6521
    4MPD1    C114079   3.170   3.528  16.649  0.3733 -0.3677  0.3859
    4MPD1    C214080   3.280   3.511  16.566 -0.0943 -0.7335 -0.1170
    4MPD1    C314081   3.364   3.615  16.524 -0.2608  0.3465  0.7979
    4MPD1    C414082   3.343   3.739  16.573 -0.1653  0.2006  0.5916
    4MPD1    C514083   3.238   3.759  16.660  0.0612  0.3150 -0.0633
    4MPD1     H14084   3.298   3.414  16.521  1.4137  0.5118 -2.2567
    4MPD1    H114085   3.398   3.825  16.536 -0.0448 -1.7153 -3.6706
    4MPD1    H214086   3.088   3.691  16.785 -0.3028  0.3077 -0.7513
    4MPD1    H314087   3.229   3.862  16.692  0.4371  0.6031 -0.9063
    4MPD1     N14088   3.477   3.584  16.444  0.5463 -0.1052 -0.6951
    4MPD1    H514089   3.480   3.488  16.412  0.7519 -0.2972 -0.1038
    4MPD1    N114090   3.097   3.417  16.695 -0.4156  0.4902  0.4108
    4MPD1    H614091   3.080   3.346  16.625 -2.3524  0.4150  0.9567
    4MPD1    H714092   3.005   3.457  16.715  0.2784  2.9192 -1.2613
    1TCq1    O114093   4.022   3.368  11.625  0.0711  0.5916  0.0438
    1TCq1    C114094   3.912   3.413  11.693 -0.2589  1.1130  0.1664
    1TCq1    O214095   3.917   3.477  11.799  0.0002 -0.0324  0.0099
    1TCq1    C214096   3.804   3.432  11.592  0.1896  0.3067  0.5360
    1TCq1    C314097   3.801   3.352  11.480  0.1135  0.3107  0.4428
    1TCq1    C414098   3.690   3.369  11.395 -0.7273  0.0349  0.2965
    1TCq1    C514099   3.582   3.448  11.437  0.0878  0.4362  0.3330
    1TCq1    C614100   3.594   3.532  11.550 -0.1228 -0.6042 -0.7013
    1TCq1    C714101   3.703   3.519  11.630 -0.2791  0.3882 -0.4191
    1TCq1    C814102   3.489   3.631  11.581  0.6687 -0.9267  0.3296
    1TCq1    O414103   3.486   3.670  11.695 -0.3000 -0.4816  0.5512
    1TCq1    C914104   3.652   3.255  11.313  0.0798  0.0049 -0.1738
    1TCq1    O514105   3.533   3.227  11.300 -0.0463 -0.3434  0.2527
    1TCq1    O614106   3.745   3.187  11.265 -0.8014 -0.4137 -0.0659
    1TCq1    H114107   4.003   3.368  11.529  0.1904  2.0524  0.0184
    1TCq1    H214108   3.851   3.256  11.480 -0.6783 -0.1014  0.7761
    1TCq1    H314109   3.486   3.453  11.386  0.3911 -0.5431 -0.3336
    1TCq1    H414110   3.717   3.586  11.714  0.0484  1.5323 -1.3681
    2MPD1     C14111   3.140   3.992  11.505 -0.3690 -0.3261  0.3804
    2MPD1    C114112   3.206   3.980  11.382 -0.4481  0.0808  0.3842
    2MPD1    C214113   3.287   3.869  11.373  0.4385 -0.2114  0.2256
    2MPD1    C314114   3.313   3.785  11.482  0.3483 -0.4978  0.0260
    2MPD1    C414115   3.246   3.802  11.601  0.7268  0.6018 -0.5975
    2MPD1    C514116   3.154   3.905  11.610 -0.5937 -0.6544  0.0618
    2MPD1     H14117   3.342   3.854  11.281 -0.0317 -1.3741  0.1423
    2MPD1    H114118   3.261   3.732  11.683 -0.4013 -1.6813 -2.3495
    2MPD1    H214119   3.060   4.063  11.519  1.9174  2.8803 -2.8724
    2MPD1    H314120   3.093   3.925  11.698 -2.9282  0.9712 -1.9337
    2MPD1     N14121   3.417   3.692  11.476 -0.5158  1.0506  0.0211
    2MPD1    H514122   3.460   3.681  11.385  0.3835  0.6580  0.4872
    2MPD1    N114123   3.156   4.046  11.268  0.3442  0.7999  0.4053
    2MPD1    H614124   3.222   4.061  11.192  2.4714  1.5035  2.4233
    2MPD1    H714125   3.105   4.132  11.285  0.0565  0.7361 -0.1097
    1TMC1    C114126   2.509   4.027   0.529  0.1010 -0.1346 -0.1764
    1TMC1    C214127   2.526   4.157   0.494 -0.5155 -0.1436 -0.2980
    1TMC1    C314128   2.604   4.186   0.387  0.2284 -0.1780  0.5195
    1TMC1    C414129   2.560   3.926   0.461 -0.2059  0.3707 -0.2367
    1TMC1    C514130   2.645   3.958   0.368 -0.3904 -0.1240  0.2391
    1TMC1    C614131   2.663   4.089   0.317  0.2344 -0.7544 -0.0744
    1TMC1     C14132   2.392   4.007   0.616 -0.2946  0.1308 -0.3343
    1TMC1     O14133   2.353   4.095   0.690  0.3391 -0.5667  0.4358
    1TMC1     H14134   2.445   4.223   0.523  1.0134  1.2034  0.8971
    1TMC1    H114135   2.538   3.822   0.484 -0.9959  0.9730  1.7717
    1TMC1    H214136   2.740   4.107   0.243  1.1406 -0.8159  0.8545
    1TMC1    C714137   2.727   3.859   0.296 -0.1474 -0.3568 -0.6539
    1TMC1    C814138   2.645   4.326   0.372 -0.5390  0.4194 -0.3249
    1TMC1    O114139   2.788   3.889   0.195 -0.3414 -0.5232  0.3430
    1TMC1    O214140   2.632   4.409   0.462  0.3210  0.2524  0.1287
    1TMC1    O314141   2.806   3.804   0.389 -0.4488  0.2374 -0.5163
    1TMC1    H314142   2.769   3.808   0.480 -1.4180  0.0776 -0.9012
    1TMC1    O514143   2.678   4.349   0.246  0.5028 -0.2356 -0.5611
    1TMC1    H514144   2.653   4.282   0.180 -1.5466 -0.4735  0.4593
    2MPD1     C14145   2.030   3.714   0.822 -0.2844  0.6917 -0.1210
    2MPD1    C114146   2.069   3.649   0.706 -0.2388 -0.5862 -0.2809
    2MPD1    C214147   2.177   3.711   0.638  0.1473  1.5720  0.5232
    2MPD1    C314148   2.235   3.830   0.682 -0.2066  0.0420 -0.2593
    2MPD1    C414149   2.196   3.879   0.805 -0.3432  0.3426  0.3216
    2MPD1    C514150   2.086   3.824   0.867 -0.7092  0.6051 -0.2121
    2MPD1     H14151   2.207   3.668   0.543 -1.4899 -0.4076  0.8895
    2MPD1    H114152   2.239   3.968   0.848 -1.6876  0.3847  1.5708
    2MPD1    H214153   1.947   3.676   0.880  1.4035  0.3247  2.0708
    2MPD1    H314154   2.041   3.862   0.958 -1.1488 -1.7332  0.5400
    2MPD1     N14155   2.340   3.885   0.597  0.3255 -0.7315 -0.2873
    2MPD1    H514156   2.362   3.847   0.506  0.9978 -0.7564 -0.1107
    2MPD1    N114157   2.004   3.537   0.649 -0.1077  0.6847  0.3607
    2MPD1    H614158   1.939   3.497   0.716  1.5338  1.5763  2.4671
    2MPD1    H714159   2.070   3.470   0.609 -1.9104 -1.0404  0.2775
    1MPD1     C14160   1.493   3.364  12.567 -0.0573  0.2854 -0.0436
    1MPD1    C114161   1.394   3.460  12.581 -0.0781  0.2470 -0.5743
    1MPD1    C214162   1.343   3.517  12.459  0.0938  0.0388  0.6129
    1MPD1    C314163   1.376   3.464  12.336 -0.3754 -0.3057  0.4823
    1MPD1    C414164   1.466   3.362  12.333  0.2385  0.6571  0.4036
    1MPD1    C514165   1.529   3.322  12.445  0.1516 -0.5897  0.0464
    1MPD1     H14166   1.266   3.593  12.471 -0.0743  0.1127 -0.9612
    1MPD1    H114167   1.511   3.323  12.243 -1.7659 -1.6984  0.4273
    1MPD1    H214168   1.526   3.315  12.658  0.2886  1.6624  0.5677
    1MPD1    H314169   1.600   3.241  12.447  1.1432  0.2953  0.3890
    1MPD1     N14170   1.300   3.510  12.225 -0.4260 -0.5316  0.1262
    1MPD1    H514171   1.214   3.560  12.244  1.2790  3.0549 -1.6208
    1MPD1    N114172   1.334   3.487  12.709  0.3175  0.5270 -0.2330
    1MPD1    H614173   1.306   3.585  12.710 -1.4202  0.0274 -0.3624
    1MPD1    H714174   1.410   3.487  12.776 -0.5253 -0.4475  0.7176
    2MPD1     C14175   4.188   4.114  11.716  0.6105  0.0271  0.2533
    2MPD1    C114176   4.315   4.097  11.756 -0.5666  0.4259 -0.1715
    2MPD1    C214177   4.400   4.035  11.671 -0.1589 -0.6685 -0.2406
    2MPD1    C314178   4.360   3.997  11.543  0.2124  0.3610  0.0247
    2MPD1    C414179   4.228   4.022  11.506 -0.6022  0.4007  0.2654
    2MPD1    C514180   4.146   4.086  11.588 -0.5646 -0.0063 -0.3279
    2MPD1     H14181   4.502   4.008  11.696  0.4142 -0.8686 -2.8228
    2MPD1    H114182   4.201   3.992  11.405  1.2349 -1.3811  0.3039
    2MPD1    H214183   4.119   4.165  11.782 -0.5166 -0.7188 -0.3672
    2MPD1    H314184   4.042   4.107  11.564  0.1096  0.5863 -2.7343
    2MPD1     N14185   4.443   3.933  11.443 -0.6625 -0.4702 -0.3854
    2MPD1    H514186   4.399   3.905  11.356 -0.6310  0.3673 -0.6684
    2MPD1    N114187   4.354   4.116  11.893  0.0332 -0.2636  0.1430
    2MPD1    H614188   4.318   4.206  11.924 -0.3701  0.2771 -1.9379
    2MPD1    H714189   4.456   4.127  11.894 -0.2865  2.4507  3.4437
    3MPD1     C14190   4.169   3.302  10.978 -0.1904 -0.0029 -0.1182
    3MPD1    C114191   4.125   3.406  11.052  0.7610  1.2734 -0.0721
    3MPD1    C214192   4.219   3.487  11.107  0.2253 -0.0065  0.1243
    3MPD1    C314193   4.348   3.488  11.061 -0.2624 -0.3554 -0.4817
    3MPD1    C414194   4.394   3.384  10.983 -0.2488 -0.2769 -0.2156
    3MPD1    C514195   4.302   3.288  10.948 -0.4572 -0.3263  0.2866
    3MPD1     H14196   4.194   3.560  11.184  1.0849  0.3283  0.0890
    3MPD1    H114197   4.495   3.373  10.947  0.5948 -0.9704  2.3463
    3MPD1    H214198   4.108   3.220  10.940 -0.6011 -0.6433  1.9349
    3MPD1    H314199   4.327   3.195  10.900  1.5354  1.2000 -1.6224
    3MPD1     N14200   4.421   3.601  11.104 -0.0285 -0.3049 -0.0115
    3MPD1    H514201   4.368   3.662  11.165  0.6667 -0.3489  0.6345
    3MPD1    N114202   3.999   3.410  11.116 -0.2299 -0.6043  0.1896
    3MPD1    H614203   3.965   3.499  11.151  1.5885 -0.3239  1.2240
    3MPD1    H714204   3.921   3.370  11.064 -0.1604 -0.7226  0.1749
    4MPD2     C14205   0.788   3.986  11.961 -0.0253  0.5572  0.1209
    4MPD2    C114206   0.890   3.938  11.877 -0.0259  0.3227  1.0558
    4MPD2    C214207   0.926   4.008  11.767  0.5266 -0.4453  0.3641
    4MPD2    C314208   0.870   4.125  11.734 -0.2358  0.5484  0.2100
    4MPD2    C414209   0.787   4.186  11.825  0.0882  0.4290  0.4211
    4MPD2    C514210   0.735   4.116  11.937 -0.6592 -0.5269  0.2578
    4MPD2     H14211   1.010   3.968  11.712 -0.6887 -0.4760 -1.4949
    4MPD2    H114212   0.761   4.290  11.813  0.0614  0.3282 -0.4406
    4MPD2    H214213   0.760   3.942  12.056  0.5709  0.3911  0.2227
    4MPD2    H314214   0.661   4.173  11.991 -2.4598 -0.6826 -2.0330
    4MPD2     N14215   0.907   4.194  11.612  0.0994  0.2296 -0.1998
    4MPD2    H514216   0.843   4.270  11.589 -0.3313  0.2354  1.0124
    4MPD2    N114217   0.947   3.810  11.886 -0.3771 -0.3960  0.9308
    4MPD2    H714218   0.996   3.775  11.805 -0.1913  1.5055  0.2189
    5TMC3    C114219   0.993   3.585  11.968  0.0012 -0.4960  0.0308
    5TMC3    C214220   1.093   3.556  12.056 -0.1674 -0.0380 -0.0818
    5TMC3    C314221   1.218   3.517  12.009 -0.0719  0.3685  0.1320
    5TMC3    C414222   1.017   3.578  11.831  0.3000 -0.4488  0.5466
    5TMC3    C514223   1.138   3.541  11.786 -0.0271  0.4148  0.0599
    5TMC3    C614224   1.238   3.514  11.878  0.7159 -0.7021  0.3580
    5TMC3     C14225   0.932   3.718  11.994  0.5238  0.4593  0.1672
    5TMC3     O14226   0.908   3.744  12.111 -0.6228 -0.0881  0.4204
    5TMC3     H14227   1.059   3.555  12.159 -1.0046  4.0503 -0.2929
    5TMC3    H114228   0.933   3.610  11.770  3.2712  2.8916 -1.7575
    5TMC3    H214229   1.341   3.495  11.850  1.2462  0.2988  1.5954
    5TMC3    C714230   1.169   3.629  11.678  0.1231 -0.1581 -0.0520
    5TMC3    C814231   1.317   3.471  12.095 -0.5495 -0.3064 -0.5385
    5TMC3    O114232   1.123   3.742  11.690  0.6109  0.7796 -0.0910
    5TMC3    O214233   1.419   3.430  12.043 -0.5306  0.4050  0.2220
    6TMC3    C114234   4.629   3.879  11.314  0.5007  0.3871 -0.7646
    6TMC3    C214235   4.556   3.790  11.250  0.5111 -0.2274 -0.2684
    6TMC3    C314236   4.607   3.748  11.130  0.5786 -0.6359  0.0485
    6TMC3    C414237   0.010   3.938  11.264 -0.4733 -0.1979  0.4911
    6TMC3    C514238   0.049   3.898  11.140 -0.4654  0.2997 -0.2518
    6TMC3    C614239   4.721   3.805  11.069  0.2686  0.3673  0.3961
    6TMC3     C14240   4.582   3.933  11.440 -0.2600  0.6653 -0.2537
    6TMC3     O14241   4.650   3.989  11.525  0.0639 -0.0857 -0.5482
    6TMC3     H14242   4.462   3.748  11.284  0.2162 -0.3209 -1.1850
    6TMC3    H114243   0.066   4.007  11.327 -0.0324 -0.6905  0.6439
    6TMC3    H214244   0.029   3.755  10.985 -0.0354  0.5658  0.1085
    6TMC3    C714245   0.195   3.900  11.125 -0.0893 -0.4997  0.1397
    6TMC3    C814246   4.555   3.627  11.072  0.8364  0.0649  0.7281
    6TMC3    O114247   0.262   3.924  11.226 -0.4533  0.1726  0.0367
    6TMC3    O214248   4.624   3.580  10.983  0.0151 -0.6735  0.8341
    7MPD2     C14249   1.340   3.747  11.208 -0.7651  0.1553 -0.6520
    7MPD2    C114250   1.270   3.817  11.299  0.5032  0.3688 -1.0164
    7MPD2    C214251   1.250   3.762  11.426 -0.3387  0.1189 -0.3657
    7MPD2    C314252   1.278   3.632  11.453 -1.0202 -0.2405  0.5230
    7MPD2    C414253   1.340   3.558  11.359 -0.2391 -0.2015  0.4100
    7MPD2    C514254   1.372   3.617  11.239  0.1246  0.3416  0.4809
    7MPD2     H14255   1.190   3.818  11.496 -0.1490  1.3935 -1.2218
    7MPD2    H114256   1.358   3.453  11.376  0.2342  0.1358  2.0131
    7MPD2    H214257   1.371   3.787  11.112  0.5374 -2.9245 -1.5260
    7MPD2    H314258   1.419   3.553  11.165 -0.6253  0.3414  0.0075
    7MPD2     N14259   1.239   3.573  11.574 -0.2015 -0.2547 -0.2792
    7MPD2    H514260   1.268   3.477  11.590 -0.3255 -0.2976 -0.3173
    7MPD2    N114261   1.209   3.946  11.282  0.0460 -0.4031  0.3528
    7MPD2    H714262   1.180   3.988  11.370  1.7000 -1.4413  1.4084
    8TMC3    C114263   1.072   4.105  11.191  0.2149  0.1797  0.2951
    8TMC3    C214264   0.946   4.082  11.143  0.2675 -0.1436 -0.1149
    8TMC3    C314265   0.842   4.131  11.222 -0.1952  0.0189  0.3954
    8TMC3    C414266   1.095   4.171  11.307 -0.2064 -1.0824 -0.3881
    8TMC3    C514267   0.993   4.200  11.390 -0.2460 -0.0827 -0.2934
    8TMC3    C614268   0.866   4.179  11.348  0.0243 -0.5336 -0.3087
    8TMC3     C14269   1.169   3.998  11.167  0.1821  0.4650  0.1405
    8TMC3     O14270   1.175   3.945  11.057 -0.3065  0.3656 -0.0611
    8TMC3     H14271   0.927   4.011  11.063 -0.3625 -1.1559  0.9417
    8TMC3    H114272   1.198   4.168  11.339 -0.0026 -0.6074 -0.9785
    8TMC3    H214273   0.777   4.182  11.411 -0.6248  0.2014 -1.2623
    8TMC3    C714274   1.014   4.164  11.531 -0.1390 -0.4714  0.5522
    8TMC3    C814275   0.713   4.094  11.175  0.2488  0.3973  0.4482
    8TMC3    O114276   1.109   4.089  11.553 -0.2205  0.6618  0.3821
    8TMC3    O214277   0.629   4.078  11.264  0.3192 -0.3541  0.3767
    9MPD2     C14278   0.598   4.057  10.831  0.0714 -0.2862  0.7809
    9MPD2    C114279   0.591   4.035  10.969  0.7954 -0.1144  0.2351
    9MPD2    C214280   0.478   3.987  11.026  0.4236  0.0880 -0.1041
    9MPD2    C314281   0.368   3.944  10.949  0.1408 -0.1762  0.8303
    9MPD2    C414282   0.379   3.959  10.816  0.2206  0.1823 -0.2479
    9MPD2    C514283   0.493   4.012  10.759 -0.0758  0.6017  0.1974
    9MPD2     H14284   0.460   3.983  11.133  0.2917 -1.3653 -0.1867
    9MPD2    H114285   0.293   3.927  10.758 -0.8775  2.0056  0.3846
    9MPD2    H214286   0.670   4.125  10.788  1.3473 -0.9339  1.9084
    9MPD2    H314287   0.501   4.030  10.652 -0.5618 -0.0702  0.0519
    9MPD2     N14288   0.242   3.892  11.002  0.2793 -0.5542  0.3128
    9MPD2    H514289   0.174   3.878  10.928 -1.6949 -0.0324  2.0297
    9MPD2    N114290   0.698   4.090  11.038 -0.7316  0.1792 -0.5074
    9MPD2    H714291   0.773   4.136  10.987 -0.2024 -0.4973 -0.3376
    1MPD1     C14292   0.298   2.245  16.622 -0.4597 -0.3949 -0.0086
    1MPD1    C114293   0.345   2.127  16.566  0.0012  0.0073 -0.2375
    1MPD1    C214294   0.343   2.119  16.427  0.2889  0.0023  0.2893
    1MPD1    C314295   0.290   2.224  16.347 -0.0131 -0.0537  0.2728
    1MPD1    C414296   0.245   2.333  16.408  0.0574 -1.2015  0.1029
    1MPD1    C514297   0.231   2.336  16.547  0.5435 -0.0963 -0.1376
    1MPD1     H14298   0.385   2.026  16.389  1.2510 -0.2733  2.0123
    1MPD1    H114299   0.204   2.404  16.338 -0.7448 -2.4555 -0.6853
    1MPD1    H214300   0.300   2.255  16.730 -0.7347  1.2118 -0.1589
    1MPD1    H314301   0.186   2.429  16.577  1.0548  0.6538 -1.6847
    1MPD1     N14302   0.308   2.234  16.205  0.2922  0.4026 -0.3321
    1MPD1    H514303   0.312   2.326  16.160 -1.6521  0.9155  0.5665
    1MPD1    N114304   0.428   2.045  16.642 -0.3828  1.2045  0.1119
    1MPD1    H614305   0.425   1.951  16.601 -0.9609  1.2309  0.0959
    1MPD1    H714306   0.380   2.028  16.730 -0.3004  1.2798  0.1701
    2TMC2    C114307   0.341   2.314  15.804  0.3115  0.4852 -0.0492
    2TMC2    C214308   0.363   2.210  15.718  0.3176  0.4737  0.0823
    2TMC2    C314309   0.387   2.083  15.766 -0.0115 -0.5265 -0.6433
    2TMC2    C414310   0.322   2.294  15.937 -0.1656 -0.6987  0.4083
    2TMC2    C514311   0.346   2.166  15.983 -0.2821  0.4700  0.0458
    2TMC2    C614312   0.387   2.064  15.902  0.2468 -0.0692  0.2195
    2TMC2     C14313   0.383   2.450  15.750  0.3944 -0.2922  0.4882
    2TMC2     O14314   0.419   2.450  15.633 -0.0793 -0.5872  0.0804
    2TMC2     H14315   0.372   2.214  15.610  0.7747 -0.9510  0.0655
    2TMC2    H114316   0.280   2.370  16.003  0.6021  0.5375 -0.5375
    2TMC2    H214317   0.425   1.970  15.940 -0.9819 -0.9153 -0.6688
    2TMC2    C714318   0.318   2.129  16.117 -0.0787 -0.0511 -1.0331
    2TMC2    C814319   0.439   1.977  15.681 -0.3225 -0.2418 -0.3471
    2TMC2    O114320   0.334   2.009  16.152 -0.3111 -0.1493  0.0006
    2TMC2    O214321   0.490   2.004  15.574  0.2145  0.2595  1.0560
    2TMC2    O514322   0.407   1.857  15.734 -0.1803 -0.1821  0.0676
    2TMC2    H514323   0.335   1.869  15.800  1.1247 -1.8315  1.7850
    3MPD1     C14324   0.416   2.964  15.775 -0.5087  0.2616 -0.0143
    3MPD1    C114325   0.420   2.914  15.904 -0.2373  0.5391  0.3214
    3MPD1    C214326   0.422   2.779  15.920  0.3401  0.7317 -0.2859
    3MPD1    C314327   0.393   2.691  15.816 -0.6023 -0.6674  0.0211
    3MPD1    C414328   0.391   2.738  15.689  0.6046  0.2074 -0.2242
    3MPD1    C514329   0.397   2.872  15.672 -0.0848  0.3216 -0.2242
    3MPD1     H14330   0.426   2.751  16.025 -1.6788 -0.1247 -0.4572
    3MPD1    H114331   0.379   2.677  15.600 -1.0793  1.2234 -0.6805
    3MPD1    H214332   0.424   3.070  15.753 -0.0780  0.2255 -0.0307
    3MPD1    H314333   0.391   2.908  15.570  2.9016  0.0165 -0.5275
    3MPD1     N14334   0.381   2.552  15.846  0.1027  0.3277  0.2218
    3MPD1    H514335   0.396   2.523  15.942  0.1078  1.4128  0.5488
    3MPD1    N114336   0.462   2.994  16.006 -0.3198 -0.1541 -0.3424
    3MPD1    H614337   0.449   2.958  16.101  0.3461  0.9478  0.1603
    3MPD1    H714338   0.426   3.088  15.993 -0.3342 -0.4019 -2.1422
    1TMC1    C114339   3.511   1.312  13.162  0.3512  0.3172  0.3837
    1TMC1    C214340   3.406   1.390  13.121  0.0486 -0.4091  0.6605
    1TMC1    C314341   3.287   1.328  13.105  0.2381 -0.3207 -0.4731
    1TMC1    C414342   3.501   1.180  13.192 -0.7107  0.1255  0.1868
    1TMC1    C514343   3.379   1.127  13.181 -0.4996 -0.3371 -0.2361
    1TMC1    C614344   3.273   1.201  13.137  0.0257 -1.2725 -0.1299
    1TMC1     C14345   3.635   1.383  13.190  0.6825  0.3901  0.3779
    1TMC1     O14346   3.666   1.470  13.112  0.1688 -0.0292 -0.9072
    1TMC1     H14347   3.422   1.496  13.101 -1.3875 -0.5608 -1.2935
    1TMC1    H114348   3.591   1.132  13.228  0.0728  0.5519 -1.2334
    1TMC1    H214349   3.179   1.148  13.123 -1.4411  0.4845  3.2890
    1TMC1    C714350   3.342   1.026  13.275  0.0398  0.2739  0.2134
    1TMC1    C814351   3.195   1.390  13.015 -0.3690  0.1420  0.5111
    1TMC1    O114352   3.225   1.002  13.300 -0.0034  0.1188  0.2847
    1TMC1    O214353   3.190   1.512  13.025  0.6764 -0.1892 -0.0243
    1TMC1    O314354   3.431   0.933  13.255  0.1418 -0.2716 -0.1992
    1TMC1    H314355   3.521   0.970  13.266  0.2914 -0.9930  0.9537
    1TMC1    O514356   3.215   1.329  12.901  0.3279 -0.4854 -0.2767
    1TMC1    H514357   3.237   1.234  12.910  0.9409 -0.3082  0.0926
    2MPD2     C14358   3.917   1.461  13.291 -0.3551 -0.2348  0.2041
    2MPD2    C114359   3.835   1.369  13.348 -0.2090  0.0869 -0.1158
    2MPD2    C214360   3.879   1.306  13.462 -0.2537 -0.6130 -0.1212
    2MPD2    C314361   4.002   1.343  13.520  0.1122 -0.0585 -0.4759
    2MPD2    C414362   4.072   1.448  13.469 -0.5887 -0.9288  0.9889
    2MPD2    C514363   4.034   1.506  13.351 -0.1763  0.5053  0.2751
    2MPD2     H14364   3.828   1.220  13.502 -0.5333  0.1092  1.0852
    2MPD2    H114365   4.155   1.485  13.528 -0.0093 -2.0161  0.8526
    2MPD2    H214366   3.894   1.512  13.198 -0.4160  0.7269  0.7422
    2MPD2    H314367   4.095   1.586  13.308 -2.0698  2.7827  1.8346
    2MPD2     N14368   4.044   1.276  13.632 -0.1368 -0.7562 -0.2967
    2MPD2    H514369   3.970   1.227  13.681  0.1542 -2.3597 -1.4860
    2MPD2    N114370   3.711   1.323  13.291 -0.1224 -0.2351 -0.6007
    2MPD2    H714371   3.662   1.256  13.348  0.7235 -0.2820  0.0734
    3TCq1    O114372   4.417   1.334  14.112 -0.1719 -0.7689 -0.8921
    3TCq1    C114373   4.287   1.313  14.140  0.1612  0.1032  0.0428
    3TCq1    O214374   4.227   1.324  14.246  0.5017  0.1185 -0.3049
    3TCq1    C214375   4.235   1.225  14.043 -0.1399  0.7897  0.6571
    3TCq1    C314376   4.132   1.149  14.084  0.4632  0.2494 -0.1418
    3TCq1    C414377   4.040   1.110  13.991 -0.0009  0.3067 -1.1206
    3TCq1    C514378   4.053   1.147  13.856  0.3311 -0.5447  0.5645
    3TCq1    C614379   4.164   1.218  13.819 -0.1434  0.2011 -0.1484
    3TCq1    C714380   4.248   1.265  13.914 -1.0836  0.6038  0.2382
    3TCq1    C814381   4.165   1.281  13.691 -0.2738 -0.0104  0.1876
    3TCq1    O414382   4.266   1.337  13.656 -0.1040  0.1651  0.4396
    3TCq1    C914383   3.934   1.027  14.025  0.4354 -0.6197 -0.3628
    3TCq1    O514384   3.885   0.963  13.930  0.0722 -0.0617  0.5417
    3TCq1    O614385   3.913   0.993  14.143 -0.5327  0.0456 -0.3004
    3TCq1    H114386   4.433   1.290  14.026 -0.8438 -0.5473 -1.1300
    3TCq1    H214387   4.115   1.124  14.189  1.3233  3.8541  0.8612
    3TCq1    H314388   3.983   1.101  13.787 -0.0892 -0.5428  0.9930
    3TCq1    H414389   4.323   1.340  13.896 -0.5750  0.7435  3.0405
    1MPD2     C14390   3.046   2.118  14.937 -0.1433  0.4466 -0.1592
    1MPD2    C114391   2.948   2.076  14.850  0.2133  0.1657  0.7077
    1MPD2    C214392   2.998   2.022  14.730  0.4522 -0.1872 -0.5770
    1MPD2    C314393   3.138   2.009  14.704  0.4086  0.0079  0.3107
    1MPD2    C414394   3.228   2.050  14.799  0.3036 -0.2126  0.4422
    1MPD2    C514395   3.180   2.112  14.915 -0.4957 -0.5976  0.5334
    1MPD2     H14396   2.930   1.994  14.650  0.1578  0.7029 -0.6396
    1MPD2    H114397   3.335   2.050  14.789  0.3447  0.9654  0.9206
    1MPD2    H214398   3.015   2.177  15.024 -0.6651  0.9028 -0.6560
    1MPD2    H314399   3.252   2.155  14.983  1.0013  1.4711 -2.3780
    1MPD2     N14400   3.177   1.952  14.584 -0.2296 -0.0360 -0.0398
    1MPD2    H514401   3.096   1.944  14.523 -0.3816  1.5938 -0.0578
    1MPD2    N114402   2.812   2.084  14.891  0.0285  0.0293 -0.0540
    1MPD2    H714403   2.794   2.116  14.986  1.3956 -0.6769  0.4497
    2TMC3    C114404   2.579   2.046  14.883 -0.1353  0.0089  0.2481
    2TMC3    C214405   2.510   1.958  14.808 -1.0209 -0.1643  0.4343
    2TMC3    C314406   2.387   1.984  14.759 -0.1941 -0.2743 -0.5408
    2TMC3    C414407   2.523   2.163  14.922  0.2554 -0.0269  0.8311
    2TMC3    C514408   2.399   2.194  14.871 -0.4907  0.0878  0.0669
    2TMC3    C614409   2.335   2.106  14.788  0.3933  0.3675 -0.1424
    2TMC3     C14410   2.708   2.047  14.813  0.4691  0.0797 -0.3546
    2TMC3     O14411   2.695   2.005  14.702 -0.0257 -0.2845 -0.0607
    2TMC3     H14412   2.560   1.862  14.803 -2.0117 -0.5754 -1.3169
    2TMC3    H114413   2.575   2.227  14.992 -1.8306  3.1153 -0.4955
    2TMC3    H214414   2.244   2.134  14.736  0.5001  0.5989 -0.2015
    2TMC3    C714415   2.326   2.311  14.924  0.3982  1.7555  0.1652
    2TMC3    C814416   2.375   1.938  14.620 -0.1727  0.1181  0.2882
    2TMC3    O114417   2.209   2.320  14.900  0.5703 -0.0183  0.5005
    2TMC3    O214418   2.268   1.951  14.563  0.3550  0.1063  0.5677
    3TCq1    O114419   2.605   3.399  15.377  0.3620 -0.1116  0.3928
    3TCq1    C114420   2.724   3.364  15.327  0.6568 -0.1653  0.5450
    3TCq1    O214421   2.785   3.439  15.254  0.0687  0.4089  0.0976
    3TCq1    C214422   2.744   3.219  15.315 -1.2713  0.2150 -0.1870
    3TCq1    C314423   2.852   3.188  15.233 -0.0411  0.8083 -0.1991
    3TCq1    C414424   2.844   3.079  15.156 -0.0161 -0.4629 -0.2737
    3TCq1    C514425   2.737   2.997  15.155 -0.9179 -0.4751  0.2266
    3TCq1    C614426   2.638   3.031  15.238  0.1979 -0.3265 -0.4103
    3TCq1    C714427   2.637   3.142  15.313 -0.5260  0.1207 -0.4783
    3TCq1    C814428   2.510   2.969  15.219 -0.7041 -0.2146  0.5272
    3TCq1    O414429   2.403   3.018  15.259  0.0983 -0.0045  0.0738
    3TCq1    C914430   2.946   3.052  15.068  0.3622  1.2125  0.3596
    3TCq1    O514431   3.021   3.148  15.037 -0.0945 -0.2129 -0.3031
    3TCq1    O614432   2.941   2.938  15.018  0.4500  0.7919 -0.0757
    3TCq1    H114433   2.565   3.337  15.442  0.8966  0.5198  1.3236
    3TCq1    H214434   2.941   3.249  15.226  1.4742 -1.5242 -1.0680
    3TCq1    H314435   2.732   2.929  15.070  2.3662 -0.4869  0.0419
    3TCq1    H414436   2.548   3.162  15.373 -0.1561 -0.1760  0.1698
    4MPD2     C14437   2.311   2.777  15.134  0.1966 -0.2017 -0.1064
    4MPD2    C114438   2.445   2.742  15.134 -0.1305  0.2724  0.1889
    4MPD2    C214439   2.477   2.612  15.089 -0.3470 -0.4788  0.5782
    4MPD2    C314440   2.374   2.525  15.046 -0.7261 -0.2528 -0.0854
    4MPD2    C414441   2.240   2.571  15.054 -0.9446 -0.4020 -0.4668
    4MPD2    C514442   2.208   2.692  15.098  0.5602  0.2353 -0.0874
    4MPD2     H14443   2.580   2.578  15.087  0.0610  0.8588 -1.1565
    4MPD2    H114444   2.156   2.516  15.012 -1.7965  2.0305 -1.9754
    4MPD2    H214445   2.278   2.878  15.158 -2.7703 -1.4870  1.2619
    4MPD2    H314446   2.103   2.723  15.097  0.8379  1.2408  2.2981
    4MPD2     N14447   2.411   2.407  14.982  0.1679  0.1419 -0.1203
    4MPD2    H514448   2.505   2.372  14.997  0.1874  0.2182 -0.0672
    4MPD2    N114449   2.539   2.844  15.167  0.0499  0.1885 -0.1706
    4MPD2    H714450   2.639   2.823  15.170 -0.9862 -4.6382  0.1815
    5TMC2    C114451   3.084   1.773  14.296  0.1463 -0.1301 -0.4727
    5TMC2    C214452   3.112   1.636  14.288  0.6060 -0.3090 -0.1296
    5TMC2    C314453   3.227   1.598  14.356  0.3203 -1.6038  0.0400
    5TMC2    C414454   3.168   1.866  14.348 -0.1610  0.3013  0.5136
    5TMC2    C514455   3.278   1.819  14.417 -0.0727 -0.5844 -0.3774
    5TMC2    C614456   3.309   1.686  14.428  0.7397  0.5569 -0.0447
    5TMC2     C14457   2.949   1.795  14.347 -0.2283 -0.3034 -0.0516
    5TMC2     O14458   2.945   1.885  14.433  0.1018  0.3129  0.3260
    5TMC2     H14459   3.048   1.562  14.241 -0.1378 -0.8675  1.7607
    5TMC2    H114460   3.147   1.972  14.345  0.2284  0.4135  1.7170
    5TMC2    H214461   3.399   1.657  14.480  2.0997  0.1420 -2.6256
    5TMC2    C714462   3.294   1.888  14.548  0.4094 -0.2907  0.5128
    5TMC2    C814463   3.253   1.455  14.360 -0.2461  0.1129  1.0766
    5TMC2    O114464   3.384   1.858  14.621  0.0836 -0.2836 -0.0488
    5TMC2    O214465   3.215   1.389  14.264  0.6837 -0.2314  0.0496
    5TMC2    O514466   3.230   1.424  14.484 -0.5171 -1.1521  0.4122
    5TMC2    H514467   3.252   1.484  14.558 -2.5796 -0.3851  0.3949
    6MPD2     C14468   2.430   1.745  14.381 -0.1917 -0.3390  0.1314
    6MPD2    C114469   2.524   1.812  14.463  0.2132 -0.4499 -0.6167
    6MPD2    C214470   2.656   1.802  14.429 -0.0771  0.7862  0.1142
    6MPD2    C314471   2.709   1.729  14.323 -0.5938  0.2855  0.6510
    6MPD2    C414472   2.618   1.657  14.254  0.7550 -0.0148  0.1408
    6MPD2    C514473   2.482   1.676  14.273  0.1895  0.3238  0.1349
    6MPD2     H14474   2.726   1.865  14.483  0.1653  0.4204  0.2250
    6MPD2    H114475   2.645   1.603  14.164  1.7194  1.8740 -0.7060
    6MPD2    H214476   2.324   1.763  14.391 -0.1007 -0.2015  0.9182
    6MPD2    H314477   2.413   1.628  14.204 -0.9198  0.2030  1.3322
    6MPD2     N14478   2.850   1.715  14.292  0.2435 -0.0203 -0.0953
    6MPD2    H514479   2.884   1.664  14.211  1.3026 -0.2970  0.5229
    6MPD2    N114480   2.493   1.888  14.576  0.6369 -1.1949  0.5234
    6MPD2    H714481   2.577   1.921  14.624 -0.7461  0.4695  1.8171
  945NH3     N114482   3.873   4.220   1.195  0.4893 -0.4575  0.0768
  945NH3     H214483   3.898   4.248   1.101  0.9724 -1.4429 -0.0899
  945NH3     H314484   3.803   4.290   1.219  0.3562 -0.1917 -1.0770
  945NH3     H414485   3.813   4.144   1.164 -0.0448  0.0180 -0.0704
  946SOD     NA14486   2.516   4.668  12.513 -0.6607  0.2308 -0.2535
  947SOD     NA14487   2.616   1.272   1.606 -0.1489  0.6883 -0.0484
  948SOD     NA14488   0.513   3.663  13.618 -0.1693 -0.0812 -0.0176
  949SOD     NA14489   4.511   3.634   4.354 -0.4016 -0.1262  0.7694
  950SOD     NA14490   2.122   1.095   8.503 -0.1142 -0.0966 -0.2963
  951SOD     NA14491   3.075   4.043   7.520  0.3656  0.5779 -0.0374
  952SOD     NA14492   2.563   1.725  15.849 -0.1225 -0.6263 -0.1499
  953SOD     NA14493   3.000   3.283  14.874 -0.2420 -0.3855 -0.4299
  954SOL     OW14494   4.706   4.191   7.832  0.4002  0.0484  0.3222
  954SOL    HW114495   0.021   4.164   7.758  1.2547  2.0298  0.2003
  954SOL    HW214496   4.620   4.154   7.811 -0.6644  1.4852  2.1101
  955SOL     OW14497   3.831   1.044  10.769  0.3399 -0.2233  0.3868
  955SOL    HW114498   3.869   1.065  10.683 -1.5656  1.2731 -0.0880
  955SOL    HW214499   3.910   1.037  10.823  0.2026  2.6112  0.9476
  956SOL     OW14500   2.812   1.078  12.917  0.2688  0.3246 -0.0752
  956SOL    HW114501   2.818   1.165  12.878 -0.5380  0.5104  0.2158
  956SOL    HW214502   2.870   1.084  12.993  1.9781  0.2033 -1.3676
  957SOL     OW14503   3.823   2.667   2.355  0.1607  0.3610  0.2426
  957SOL    HW114504   3.904   2.641   2.313 -1.4265 -2.7139 -0.9290
  957SOL    HW214505   3.778   2.583   2.366  0.1629  0.3542  0.2009
  958SOL     OW14506   2.296   3.769   7.663 -0.4300 -0.0119 -0.2738
  958SOL    HW114507   2.354   3.840   7.691  0.7428 -1.8264  1.8977
  958SOL    HW214508   2.367   3.706   7.654  0.6662  1.0171  0.9985
  959SOL     OW14509   1.382   2.450   3.139 -0.5285  0.4475  0.0470
  959SOL    HW114510   1.341   2.364   3.126 -1.9498  0.8848  1.6903
  959SOL    HW214511   1.336   2.507   3.077 -1.7480 -0.1784  0.3655
  960SOL     OW14512   3.641   2.910   7.136  1.0061 -0.2304  0.7291
  960SOL    HW114513   3.568   2.955   7.093  0.4972 -0.0273  1.8017
  960SOL    HW214514   3.670   2.987   7.186 -0.9021  1.2556 -0.4655
  961SOL     OW14515   0.254   3.101  10.247 -0.2827  0.6635  0.3284
  961SOL    HW114516   0.246   3.164  10.175  0.1842  0.1576 -0.1690
  961SOL    HW214517   0.201   3.042  10.193  1.1647 -1.5802  1.3599
  962SOL     OW14518   0.957   2.909  11.296 -0.7453  0.5840 -0.3328
  962SOL    HW114519   1.051   2.890  11.293 -0.8548  0.1088 -0.7461
  962SOL    HW214520   0.951   2.978  11.231 -1.4509  1.7742  0.9877
  963SOL     OW14521   4.450   0.071   6.790 -0.1956 -0.4521  0.6198
  963SOL    HW114522   4.533   0.090   6.835  0.2971 -1.1654 -0.0049
  963SOL    HW214523   4.467   4.729   6.743 -1.6871  1.0131 -2.4063
  964SOL     OW14524   3.134   2.185   4.037 -0.1736  0.2177 -0.7904
  964SOL    HW114525   3.165   2.251   3.975  2.6547  0.2252  0.6271
  964SOL    HW214526   3.206   2.177   4.100  0.9499 -1.2212 -2.2656
  965SOL     OW14527   2.151   3.517  10.029  0.2163 -0.6884 -0.4709
  965SOL    HW114528   2.083   3.585  10.029  0.6973 -0.2135  0.0483
  965SOL    HW214529   2.175   3.515  10.122  1.1898  2.0630 -0.6713
  966SOL     OW14530   3.044   1.215  13.817  0.0093  0.2156 -0.1903
  966SOL    HW114531   3.064   1.228  13.909  0.8966  1.0908 -0.5040
  966SOL    HW214532   3.094   1.136  13.793  0.4281  0.2277  0.6481
  967SOL     OW14533   3.371   3.266   1.099 -0.4852 -0.2954 -0.5533
  967SOL    HW114534   3.310   3.340   1.103 -2.1243 -1.6221 -0.8265
  967SOL    HW214535   3.426   3.283   1.175  0.0324 -2.6202 -0.4360
  968SOL     OW14536   2.623   4.663   2.766  0.3288 -0.2494 -0.0718
  968SOL    HW114537   2.556   4.600   2.792  2.2201 -1.1887  2.4549
  968SOL    HW214538   2.566   4.733   2.734  1.6947  0.8686 -0.0551
  969SOL     OW14539   3.879   3.688   1.388  0.3636  0.3396  0.3184
  969SOL    HW114540   3.830   3.753   1.337 -2.9710 -0.5110  2.4287
  969SOL    HW214541   3.929   3.638   1.324 -1.0942  0.4762 -0.9217
  970SOL     OW14542   0.829   2.487   7.973  0.3949 -0.1254  0.3654
  970SOL    HW114543   0.828   2.539   8.053  3.4758  2.6216 -1.4030
  970SOL    HW214544   0.908   2.517   7.929  0.4304 -1.7046 -0.6682
  971SOL     OW14545   1.319   3.994   2.259 -0.1786 -0.3547 -0.4880
  971SOL    HW114546   1.239   3.946   2.239 -0.4101 -0.4837  0.7513
  971SOL    HW214547   1.355   4.001   2.171 -0.5250  1.4062 -0.4878
  972SOL     OW14548   4.225   0.918   1.394 -0.0082  0.0945  0.3609
  972SOL    HW114549   4.189   0.927   1.483  1.7386  1.8729  0.9062
  972SOL    HW214550   4.181   0.849   1.345 -0.3107  0.9570 -0.5858
  973SOL     OW14551   3.112   3.277   3.114 -0.2895 -0.0136  0.0102
  973SOL    HW114552   3.049   3.247   3.047 -1.8049  0.9972  0.9750
  973SOL    HW214553   3.169   3.331   3.060  0.8134 -0.4273  0.7703
  974SOL     OW14554   1.001   4.193   8.099 -0.0497  0.0961 -0.0358
  974SOL    HW114555   0.970   4.107   8.072  1.2167  0.6940 -3.3947
  974SOL    HW214556   0.957   4.204   8.183  1.0735  1.5021  0.3760
  975SOL     OW14557   2.461   0.270   6.940  0.4386  0.1860  0.3177
  975SOL    HW114558   2.547   0.240   6.969  0.1943  0.2035  1.0450
  975SOL    HW214559   2.430   0.190   6.897  2.7448  0.9029 -2.6614
  976SOL     OW14560   3.480   0.768  14.781  0.4558  0.1606  0.5354
  976SOL    HW114561   3.552   0.706  14.768  0.7173  0.3129  1.2559
  976SOL    HW214562   3.509   0.829  14.714 -0.2382  2.3775  2.2512
  977SOL     OW14563   3.184   3.702   0.924  0.1074  0.8763 -0.7082
  977SOL    HW114564   3.171   3.742   0.838 -2.8675  2.6416  0.5505
  977SOL    HW214565   3.213   3.617   0.892 -0.5162  1.7654 -3.6084
  978SOL     OW14566   3.570   3.202   3.303  0.1994  0.4857  0.4834
  978SOL    HW114567   3.586   3.224   3.395  1.8144  1.0008  0.0897
  978SOL    HW214568   3.504   3.134   3.314  1.8739 -1.4638 -1.6437
  979SOL     OW14569   3.789   4.591   1.141  0.1058  0.2935 -0.4538
  979SOL    HW114570   3.861   4.559   1.196 -0.7047 -3.4658 -1.5615
  979SOL    HW214571   3.817   4.570   1.052 -1.0523  2.0730 -1.2270
  980SOL     OW14572   3.558   4.142   9.338 -0.1617  0.1506  0.1043
  980SOL    HW114573   3.483   4.177   9.290 -0.6550  0.6338  1.2373
  980SOL    HW214574   3.609   4.122   9.259  0.0320 -2.1422  0.8133
  981SOL     OW14575   1.002   1.719   7.089  0.1258 -0.4524  0.8656
  981SOL    HW114576   1.033   1.632   7.066 -0.3777 -0.3343 -0.2551
  981SOL    HW214577   1.040   1.727   7.177 -1.2565 -0.2671  1.4464
  982SOL     OW14578   2.338   0.707   5.204 -0.6196 -0.1103 -0.7598
  982SOL    HW114579   2.413   0.648   5.208 -1.0909 -0.6623 -0.0487
  982SOL    HW214580   2.311   0.698   5.296  0.2550  1.2433 -0.3614
  983SOL     OW14581   4.130   1.891   6.513 -0.5029  0.2631 -0.0303
  983SOL    HW114582   4.091   1.833   6.578 -1.2840  0.4957 -0.2894
  983SOL    HW214583   4.209   1.845   6.485  0.3282  1.0874  0.9865
  984SOL     OW14584   0.190   0.999   9.271  0.2947 -0.2396 -0.0602
  984SOL    HW114585   0.247   0.987   9.347  0.5852  2.6367  0.1838
  984SOL    HW214586   0.232   1.074   9.228 -0.2770 -0.4621 -0.9891
  985SOL     OW14587   2.539   0.144   3.649 -0.4358  0.0318  0.1346
  985SOL    HW114588   2.595   0.095   3.708 -1.6032 -0.4564  0.8375
  985SOL    HW214589   2.549   0.102   3.563  2.7844  2.2524 -0.5829
  986SOL     OW14590   0.556   0.287   5.848 -0.1035 -0.2959 -0.2373
  986SOL    HW114591   0.515   0.374   5.845 -1.5931 -1.0115 -0.5111
  986SOL    HW214592   0.528   0.234   5.774  0.6481  0.4908 -1.0921
  987SOL     OW14593   0.027   3.513  16.910 -0.0142 -0.4566 -0.3352
  987SOL    HW114594   0.049   3.442  16.969  0.9625 -1.4724 -1.9037
  987SOL    HW214595   0.031   3.474  16.822  2.0504 -1.6751  0.2939
  988SOL     OW14596   2.519   1.568   8.354  0.0534  0.2078  0.2888
  988SOL    HW114597   2.611   1.568   8.382 -0.3253  4.6817  1.4812
  988SOL    HW214598   2.534   1.634   8.286 -1.8182  0.1117 -0.2157
  989SOL     OW14599   0.261   3.264   7.755 -0.0866  0.1779  0.4904
  989SOL    HW114600   0.309   3.182   7.746  0.6010  0.6186  0.2084
  989SOL    HW214601   0.201   3.230   7.822 -2.1024 -0.6056 -1.7154
  990SOL     OW14602   2.423   3.145   6.353 -0.2069 -0.2542  0.1662
  990SOL    HW114603   2.408   3.202   6.277  1.8135 -2.2193 -1.7198
  990SOL    HW214604   2.437   3.061   6.310 -0.1270 -1.6785  3.0208
  991SOL     OW14605   3.687   2.987   2.734 -0.1986  0.4280 -0.5901
  991SOL    HW114606   3.704   2.897   2.707  0.7101 -0.1739  2.0370
  991SOL    HW214607   3.773   3.000   2.773  0.8727  0.0290 -2.8032
  992SOL     OW14608   4.471   0.568   1.465 -0.1542  0.4912  0.2549
  992SOL    HW114609   4.511   0.638   1.414  1.0813 -0.2552  0.1853
  992SOL    HW214610   4.379   0.593   1.460 -0.8141 -1.8782  0.3747
  993SOL     OW14611   0.545   1.837   4.066  0.0880 -0.2562 -0.3938
  993SOL    HW114612   0.536   1.814   4.159  1.1007 -0.5519 -0.3660
  993SOL    HW214613   0.608   1.772   4.036  0.3879 -0.1576  0.0123
  994SOL     OW14614   4.345   3.586   6.315 -0.0164  0.0312 -0.0514
  994SOL    HW114615   4.362   3.679   6.331  2.4422 -0.4201 -0.0973
  994SOL    HW214616   4.338   3.565   6.408 -3.8586  0.5816 -0.1850
  995SOL     OW14617   2.741   1.365   2.602 -0.3307 -0.0867 -0.3651
  995SOL    HW114618   2.799   1.306   2.650  1.7715  0.1905 -2.5351
  995SOL    HW214619   2.801   1.402   2.537  0.0126 -0.3484 -0.1954
  996SOL     OW14620   3.549   4.316   5.836 -0.5173  0.0158 -0.7088
  996SOL    HW114621   3.628   4.278   5.796 -1.1227 -1.1337 -0.7919
  996SOL    HW214622   3.597   4.350   5.912  0.6480 -1.8118 -0.6360
  997SOL     OW14623   3.255   1.376   2.421 -0.3001  0.3185 -0.1379
  997SOL    HW114624   3.249   1.307   2.355 -0.4163 -0.7861  1.0224
  997SOL    HW214625   3.342   1.354   2.456  0.5945  2.1357 -1.2416
  998SOL     OW14626   1.104   4.484   1.135 -0.3932  0.3250 -0.3069
  998SOL    HW114627   1.051   4.561   1.154 -0.7503  0.1453 -0.5789
  998SOL    HW214628   1.041   4.412   1.133  0.6703 -0.6202 -0.1043
  999SOL     OW14629   3.501   1.098   8.887 -0.1252 -0.7169  0.1185
  999SOL    HW114630   3.472   1.187   8.911  0.9985  0.0512 -1.4123
  999SOL    HW214631   3.556   1.130   8.816 -1.4977  0.5456 -0.3803
 1000SOL     OW14632   4.682   0.953   8.030 -0.0732  0.2962  0.5090
 1000SOL    HW114633   4.722   0.868   8.009 -0.6895  0.5972 -1.9711
 1000SOL    HW214634   0.019   1.008   8.047 -0.0371  0.7214 -0.9771
 1001SOL     OW14635   0.576   4.471   9.783  0.3357 -0.1928  0.6509
 1001SOL    HW114636   0.601   4.387   9.820  2.4578 -0.6381 -1.7351
 1001SOL    HW214637   0.664   4.510   9.785  1.0835 -1.7257 -2.6344
 1002SOL     OW14638   0.562   4.206   6.701  0.6627 -0.0950 -0.0521
 1002SOL    HW114639   0.579   4.170   6.788  1.6654  0.3124 -0.0722
 1002SOL    HW214640   0.471   4.185   6.681  1.0181 -3.2446  1.6683
 1003SOL     OW14641   1.644   1.952  10.423  0.6653  0.6854 -0.0802
 1003SOL    HW114642   1.588   1.886  10.382  1.1985 -0.2198  0.6687
 1003SOL    HW214643   1.580   2.009  10.467 -1.2385 -1.4872 -0.0267
 1004SOL     OW14644   4.420   3.131   5.617  0.3695  0.1357  0.3133
 1004SOL    HW114645   4.514   3.137   5.633  0.2686 -0.0234  0.9759
 1004SOL    HW214646   4.425   3.075   5.540 -0.2981  1.3396 -0.6174
 1005SOL     OW14647   0.127   1.119   3.508 -1.1026  0.4272  0.7259
 1005SOL    HW114648   0.188   1.091   3.575 -0.2407  2.4331  0.8031
 1005SOL    HW214649   0.167   1.204   3.486  1.8818 -0.7343  1.7504
 1006SOL     OW14650   0.987   2.522   4.904 -0.4962  0.3927  0.4249
 1006SOL    HW114651   0.942   2.583   4.963 -0.0505  0.8572  0.2887
 1006SOL    HW214652   0.908   2.493   4.858  0.2844 -0.3259 -0.4680
 1007SOL     OW14653   3.158   0.983   6.278 -0.4909  0.3959 -0.6722
 1007SOL    HW114654   3.223   0.982   6.348  1.3901 -0.5714 -2.4552
 1007SOL    HW214655   3.141   0.893   6.250 -1.1455  0.3511 -0.1262
 1008SOL     OW14656   1.028   0.636   7.863 -0.1277 -0.8645  0.6789
 1008SOL    HW114657   0.945   0.642   7.911 -1.0999 -0.9780 -0.9738
 1008SOL    HW214658   1.030   0.546   7.831 -0.8312 -1.0638  1.1930
 1009SOL     OW14659   3.246   1.018   3.375  0.5134  0.0236  0.2931
 1009SOL    HW114660   3.168   1.063   3.408 -0.2590 -0.0738 -1.3971
 1009SOL    HW214661   3.323   1.066   3.405 -0.2607  1.4682 -0.0369
 1010SOL     OW14662   0.660   3.398  17.452 -0.1490  0.0089  0.0785
 1010SOL    HW114663   0.585   3.458  17.460 -0.9773 -0.6395 -3.1053
 1010SOL    HW214664   0.668   3.401  17.357 -0.7682 -0.1769  0.0159
 1011SOL     OW14665   4.648   2.202   7.335  0.2947 -0.3379  0.5738
 1011SOL    HW114666   4.710   2.130   7.328  0.1968 -0.3400 -0.3227
 1011SOL    HW214667   4.597   2.172   7.260 -0.4081  1.5595  0.2890
 1012SOL     OW14668   0.419   3.587  13.407 -0.4142  0.5076  0.6541
 1012SOL    HW114669   0.365   3.510  13.394  1.2973 -0.7460  0.9638
 1012SOL    HW214670   0.457   3.605  13.321  0.1876 -0.7013  0.6574
 1013SOL     OW14671   1.360   4.546   7.555 -0.0640  0.3470  0.1746
 1013SOL    HW114672   1.290   4.514   7.498  1.9004  0.7617 -2.4874
 1013SOL    HW214673   1.310   4.556   7.636  0.5288 -2.2836  0.8434
 1014SOL     OW14674   3.706   1.557   1.335  0.0676 -0.1919  0.2430
 1014SOL    HW114675   3.690   1.466   1.311  0.2744 -0.7589  2.2360
 1014SOL    HW214676   3.790   1.563   1.289  0.7388 -0.7803  1.3821
 1015SOL     OW14677   4.371   4.185   2.648  0.3053 -0.3554 -0.4821
 1015SOL    HW114678   4.323   4.252   2.697 -1.0964 -3.0823  1.8490
 1015SOL    HW214679   4.335   4.107   2.689  0.0244  0.8947  1.6563
 1016SOL     OW14680   4.420   4.054   4.723 -0.0175 -0.5145  0.6332
 1016SOL    HW114681   4.377   4.030   4.640 -1.3628  2.0305  0.5961
 1016SOL    HW214682   4.436   3.964   4.752  1.5350 -0.1174  1.0017
 1017SOL     OW14683   2.159   3.130   6.046  0.5746 -0.1754  0.2799
 1017SOL    HW114684   2.136   3.098   5.958  0.4014  0.2418  0.1756
 1017SOL    HW214685   2.087   3.192   6.057  1.0164  1.0272 -3.5090
 1018SOL     OW14686   1.837   4.317  16.062  0.0861 -0.4630  0.1127
 1018SOL    HW114687   1.790   4.344  15.983  0.7675 -2.0175 -0.8120
 1018SOL    HW214688   1.839   4.222  16.067  0.9832 -0.2651  3.7791
 1019SOL     OW14689   2.716   0.858  15.466 -0.3966  0.8503 -1.0269
 1019SOL    HW114690   2.672   0.776  15.445  0.9859  0.8492 -3.7894
 1019SOL    HW214691   2.808   0.849  15.441 -0.3112  0.2907 -0.5086
 1020SOL     OW14692   1.739   0.082   2.702 -0.2578 -0.3095 -0.4343
 1020SOL    HW114693   1.652   0.095   2.739  0.6223  0.0115  1.5740
 1020SOL    HW214694   1.792   0.094   2.781  0.0821 -0.7291 -0.6033
 1021SOL     OW14695   2.979   2.826   5.369  0.0045 -0.2083  0.6194
 1021SOL    HW114696   2.898   2.781   5.347  0.3501 -0.2634 -0.5424
 1021SOL    HW214697   2.960   2.907   5.322 -0.2274 -0.3237  0.5144
 1022SOL     OW14698   1.192   4.302   6.629 -0.0802  0.2553  0.1362
 1022SOL    HW114699   1.193   4.355   6.549  1.0213  2.2528  1.4676
 1022SOL    HW214700   1.152   4.367   6.687 -0.6526 -0.4324  0.5068
 1023SOL     OW14701   3.639   2.431   7.342 -0.2797  0.1589 -0.0441
 1023SOL    HW114702   3.595   2.506   7.302 -0.0948 -0.0667 -0.6699
 1023SOL    HW214703   3.571   2.369   7.315 -0.0608 -0.5492  1.0369
 1024SOL     OW14704   4.257   0.017   5.499  0.1737  0.1408 -0.1808
 1024SOL    HW114705   4.265   0.094   5.555 -2.1776 -0.7530  1.3853
 1024SOL    HW214706   4.285   0.041   5.411 -2.4058  1.3551 -0.6692
 1025SOL     OW14707   4.709   4.346   2.285  0.7039  0.2595  0.2760
 1025SOL    HW114708   4.668   4.402   2.219 -1.2159  0.6053  1.8003
 1025SOL    HW214709   4.638   4.333   2.347 -0.0656  0.1965 -0.6137
 1026SOL     OW14710   4.220   1.932   3.782  0.1101 -0.1351  0.4011
 1026SOL    HW114711   4.162   1.858   3.765 -0.3547  0.8005 -2.0251
 1026SOL    HW214712   4.165   1.986   3.840  0.9861  2.9109 -1.6002
 1027SOL     OW14713   3.616   1.148   3.016  0.4421  0.4407 -0.0601
 1027SOL    HW114714   3.625   1.054   3.027  1.3980  0.5327 -0.0369
 1027SOL    HW214715   3.594   1.154   2.924  0.1765  1.3912  0.0660
 1028SOL     OW14716   2.754   4.483  16.530  0.7899 -0.1476  0.1221
 1028SOL    HW114717   2.771   4.389  16.527  1.5763  0.0204 -1.0400
 1028SOL    HW214718   2.829   4.520  16.576  0.5196  0.3783  0.1313
 1029SOL     OW14719   1.325   1.001   5.212 -0.3403 -0.2518  0.1943
 1029SOL    HW114720   1.243   1.048   5.229 -1.0266 -2.0662  1.8696
 1029SOL    HW214721   1.332   1.004   5.117  1.9735  0.0163  0.3920
 1030SOL     OW14722   1.014   3.233   6.318 -0.8285 -0.2642  0.4039
 1030SOL    HW114723   0.931   3.191   6.338 -0.7484 -0.1614  0.9461
 1030SOL    HW214724   0.997   3.280   6.236  2.3964 -1.1220 -0.7668
 1031SOL     OW14725   1.560   2.419   7.778 -0.0726  0.3804 -0.0930
 1031SOL    HW114726   1.477   2.460   7.803 -0.7468 -1.3268  0.4179
 1031SOL    HW214727   1.516   2.338   7.753  0.3324  0.0525  0.2489
 1032SOL     OW14728   1.255   2.135   1.971 -0.2356  0.5549 -0.1951
 1032SOL    HW114729   1.334   2.120   1.920 -1.3560 -3.5736 -0.7634
 1032SOL    HW214730   1.280   2.101   2.056 -0.2255  1.3076  0.1033
 1033SOL     OW14731   0.862   4.178  13.953 -0.5615  0.3087 -0.5409
 1033SOL    HW114732   0.815   4.100  13.925  1.6487 -0.3305 -2.4075
 1033SOL    HW214733   0.890   4.220  13.872 -0.8950 -1.7440 -1.7130
 1034SOL     OW14734   2.587   3.359   4.969 -0.2415  0.3891  0.2766
 1034SOL    HW114735   2.576   3.454   4.973 -0.1091  0.3780  0.8568
 1034SOL    HW214736   2.585   3.332   5.061 -2.8255  0.9321  0.3783
 1035SOL     OW14737   3.640   0.067   3.412  0.6161 -0.2620 -0.1028
 1035SOL    HW114738   3.600   0.032   3.332  2.0771  2.3769 -2.0087
 1035SOL    HW214739   3.735   0.061   3.404  0.4886 -0.0842 -1.9347
 1036SOL     OW14740   4.376   1.690   5.729  0.3940 -0.1744  0.0823
 1036SOL    HW114741   4.349   1.764   5.674  0.9337 -0.5086 -0.6365
 1036SOL    HW214742   4.435   1.732   5.791 -0.7190 -0.2548  1.1876
 1037SOL     OW14743   2.276   0.720   9.047 -0.5213 -0.6662 -0.5978
 1037SOL    HW114744   2.216   0.677   9.108  0.4272  1.0546  1.5741
 1037SOL    HW214745   2.204   0.749   8.991  0.4191 -0.1757 -1.5419
 1038SOL     OW14746   1.812   1.149   6.511  0.0034 -0.0726 -0.1793
 1038SOL    HW114747   1.739   1.090   6.490 -1.7982  2.1021 -0.0317
 1038SOL    HW214748   1.826   1.177   6.420  0.3314  0.9152  0.1698
 1039SOL     OW14749   3.367   0.076  10.584  0.1942 -0.2939  0.0336
 1039SOL    HW114750   3.408   0.081  10.670 -0.1634  0.2022  0.1772
 1039SOL    HW214751   3.442   0.058  10.527 -1.3126  2.0961 -2.7153
 1040SOL     OW14752   0.272   1.334   6.930  0.0652 -0.1066  0.3066
 1040SOL    HW114753   0.346   1.393   6.917 -0.3192  0.4321  0.5619
 1040SOL    HW214754   0.199   1.394   6.913  0.5374  0.6301  0.8817
 1041SOL     OW14755   3.195   0.604   2.100  0.5395 -0.0298 -0.1825
 1041SOL    HW114756   3.277   0.590   2.147  1.1768 -0.9279 -1.5544
 1041SOL    HW214757   3.164   0.514   2.091 -0.3628  0.0676  2.0974
 1042SOL     OW14758   3.763   2.924   5.685  0.3627  0.1707  0.3234
 1042SOL    HW114759   3.722   3.006   5.658  1.2010  0.2154 -0.7889
 1042SOL    HW214760   3.684   2.870   5.693  1.6779 -1.6139  1.5019
 1043SOL     OW14761   2.197   2.900   7.306 -0.7381  0.1682  0.5618
 1043SOL    HW114762   2.169   2.813   7.277  2.5004 -1.2843  1.7843
 1043SOL    HW214763   2.117   2.949   7.289 -1.1184 -0.2258  1.2248
 1044SOL     OW14764   3.840   2.370   1.435  0.1960 -0.3342 -0.4531
 1044SOL    HW114765   3.874   2.460   1.437 -1.5144  0.3263 -0.4791
 1044SOL    HW214766   3.922   2.324   1.417  0.6186  0.0746  0.4433
 1045SOL     OW14767   3.182   2.571  16.414 -0.0977  0.0230 -0.1464
 1045SOL    HW114768   3.232   2.490  16.405 -0.8861 -0.3683 -1.0396
 1045SOL    HW214769   3.205   2.631  16.343  0.4924 -0.5873 -0.4668
 1046SOL     OW14770   0.091   4.042   9.738 -0.2137 -0.1154  0.3376
 1046SOL    HW114771   0.103   4.079   9.651  1.6737 -0.9907  0.2180
 1046SOL    HW214772   0.056   3.955   9.721  2.0769 -1.2732  1.5333
 1047SOL     OW14773   3.246   4.555   5.836 -0.1163 -0.1869  0.0132
 1047SOL    HW114774   3.160   4.597   5.830  0.0922  0.4128  1.2311
 1047SOL    HW214775   3.250   4.549   5.931 -0.1127  0.0428  0.0279
 1048SOL     OW14776   4.362   0.113   5.889 -0.0082 -0.3467  0.3129
 1048SOL    HW114777   4.441   0.123   5.942 -0.7405 -2.2848  1.7680
 1048SOL    HW214778   4.400   0.077   5.808  1.5524  0.9851  0.4705
 1049SOL     OW14779   4.219   2.076   4.641 -0.9285  0.0889 -0.2704
 1049SOL    HW114780   4.279   2.001   4.641 -0.5134  0.4303 -1.6820
 1049SOL    HW214781   4.191   2.083   4.732  1.0563  1.0905  0.2648
 1050SOL     OW14782   1.336   3.051  12.898  0.5764  0.3740 -0.1904
 1050SOL    HW114783   1.414   3.104  12.908  1.3781 -1.2634  2.3034
 1050SOL    HW214784   1.361   3.005  12.817 -1.3306 -3.1847  1.2222
 1051SOL     OW14785   2.639   1.400  16.395 -0.2688 -0.5898  0.1909
 1051SOL    HW114786   2.565   1.449  16.360 -1.2803 -0.3951  2.5886
 1051SOL    HW214787   2.632   1.407  16.490 -1.1843  1.5065 -0.0288
 1052SOL     OW14788   1.335   0.320   4.908  0.1823  0.2091  0.4576
 1052SOL    HW114789   1.409   0.289   4.856 -2.2723 -2.7833 -1.2354
 1052SOL    HW214790   1.388   0.344   4.985 -2.1938 -0.1013  2.1739
 1053SOL     OW14791   4.157   4.522  17.739  0.2640  0.0974 -0.1190
 1053SOL    HW114792   4.080   4.465  17.732 -0.1338  0.5164  0.8058
 1053SOL    HW214793   4.211   4.461   0.036 -0.9590 -0.8996 -0.0071
 1054SOL     OW14794   1.083   0.237   8.530  0.3254  0.5502  0.2068
 1054SOL    HW114795   1.172   0.272   8.543  0.5772 -0.1601  0.4062
 1054SOL    HW214796   1.033   0.318   8.534 -2.5699 -1.3949  2.9097
 1055SOL     OW14797   3.851   1.545   3.738  0.2983  0.0929 -0.2918
 1055SOL    HW114798   3.863   1.451   3.753  0.2846  0.3500  1.2438
 1055SOL    HW214799   3.785   1.574   3.801 -1.0161 -2.3110 -0.5582
 1056SOL     OW14800   4.200   4.546   3.771  0.1768  0.2350  0.4338
 1056SOL    HW114801   4.253   4.521   3.847  2.1676  2.5284 -0.2203
 1056SOL    HW214802   4.269   4.559   3.706  0.1853 -0.5961  0.2786
 1057SOL     OW14803   3.118   1.865   9.084  0.4147 -0.5462 -0.3991
 1057SOL    HW114804   3.077   1.781   9.062  2.0357 -0.8114 -2.4167
 1057SOL    HW214805   3.033   1.909   9.093  0.8281  0.1469  0.1480
 1058SOL     OW14806   3.473   4.555  14.411  0.7477  0.3171 -0.3954
 1058SOL    HW114807   3.563   4.559  14.443  0.7645 -0.5351 -0.3257
 1058SOL    HW214808   3.462   4.644  14.377  0.4448  0.9875  1.4814
 1059SOL     OW14809   3.606   2.731   3.684  0.5574  0.1842  0.1210
 1059SOL    HW114810   3.548   2.671   3.731 -1.3365  0.0616 -2.3674
 1059SOL    HW214811   3.678   2.674   3.655 -0.1704 -0.5262 -0.2790
 1060SOL     OW14812   2.311   1.666   7.600  0.4555  0.4647 -0.4982
 1060SOL    HW114813   2.378   1.733   7.587  1.1778 -0.8025 -3.2793
 1060SOL    HW214814   2.315   1.606   7.526  1.3703 -1.6120  1.2382
 1061SOL     OW14815   3.054   4.076   5.460  0.1477 -0.1489  0.8265
 1061SOL    HW114816   3.109   4.153   5.474  1.5737 -0.8622 -0.8671
 1061SOL    HW214817   3.123   4.012   5.444  0.1745 -0.0337  0.4959
 1062SOL     OW14818   1.560   1.486   7.664  0.3215  0.2667 -0.3032
 1062SOL    HW114819   1.473   1.452   7.685 -0.0736  1.8103  0.5856
 1062SOL    HW214820   1.603   1.401   7.655 -1.1922 -0.7704  2.1914
 1063SOL     OW14821   4.586   2.868   3.529  0.5514 -0.2648 -0.1229
 1063SOL    HW114822   4.603   2.917   3.448  0.8120  2.9183  1.8693
 1063SOL    HW214823   4.664   2.895   3.576  0.1556 -2.1884  1.6026
 1064SOL     OW14824   4.587   0.963   8.652 -0.1917 -0.4864 -0.6439
 1064SOL    HW114825   4.675   0.972   8.615  0.6207  0.4622  1.5304
 1064SOL    HW214826   4.567   1.054   8.670  0.2652 -0.0817 -2.1671
 1065SOL     OW14827   3.897   1.403  16.634 -0.0838 -0.2036 -0.1454
 1065SOL    HW114828   3.917   1.497  16.628 -0.7726  0.1517  3.0693
 1065SOL    HW214829   3.984   1.370  16.654  1.4214  3.1851 -0.9970
 1066SOL     OW14830   3.519   1.205   4.267  0.1054 -0.5254  0.0933
 1066SOL    HW114831   3.541   1.114   4.246 -2.7568 -0.8753 -1.3296
 1066SOL    HW214832   3.572   1.218   4.346  0.3103 -0.1853 -0.0969
 1067SOL     OW14833   3.510   3.658   7.698 -0.5884  0.0368 -0.0547
 1067SOL    HW114834   3.562   3.701   7.765  0.5122 -1.7952  0.2902
 1067SOL    HW214835   3.551   3.572   7.709  1.5585  1.3539  2.1473
 1068SOL     OW14836   2.517   1.331   7.276  0.6224  0.0584  0.0689
 1068SOL    HW114837   2.464   1.343   7.197 -1.0269  1.0274  1.3353
 1068SOL    HW214838   2.503   1.239   7.299  1.8950 -0.1810 -0.0755
 1069SOL     OW14839   1.123   2.731  16.576 -0.2621  0.0343  0.2142
 1069SOL    HW114840   1.188   2.800  16.592  0.5436 -1.2584  2.5467
 1069SOL    HW214841   1.176   2.655  16.599  0.1179  0.6036  1.2611
 1070SOL     OW14842   4.023   3.047  11.529  0.2988  0.0540 -0.0004
 1070SOL    HW114843   3.935   3.011  11.521 -0.2310  1.5871 -0.8680
 1070SOL    HW214844   4.035   3.097  11.449  0.2274 -1.6429 -1.0765
 1071SOL     OW14845   2.735   4.466   2.647  0.1706  0.0514 -0.3234
 1071SOL    HW114846   2.814   4.460   2.701 -0.6915  0.0188  0.9382
 1071SOL    HW214847   2.701   4.543   2.692  0.3968 -0.4482  0.7014
 1072SOL     OW14848   4.089   0.050   6.373  0.2096 -0.2067 -0.1650
 1072SOL    HW114849   4.093   0.111   6.445  0.6600  0.3916 -0.6992
 1072SOL    HW214850   4.172   0.005   6.391  0.6786  0.2240 -1.2290
 1073SOL     OW14851   0.270   1.181  11.930  0.6000 -0.1798 -0.2907
 1073SOL    HW114852   0.244   1.095  11.964  1.7864 -0.3628  0.1650
 1073SOL    HW214853   0.333   1.207  11.998  1.1501  0.3128 -0.9861
 1074SOL     OW14854   3.764   3.306   6.874 -0.2427  0.4880  0.6096
 1074SOL    HW114855   3.732   3.233   6.822 -0.0288  1.0767 -0.3506
 1074SOL    HW214856   3.796   3.366   6.806  1.7555 -1.0065  0.2500
 1075SOL     OW14857   2.375   3.685  12.787 -0.3350 -0.0476  0.3734
 1075SOL    HW114858   2.312   3.729  12.845  1.3376  3.0242 -0.1290
 1075SOL    HW214859   2.450   3.670  12.845  1.5509 -0.7237 -2.2473
 1076SOL     OW14860   3.006   2.123   6.195 -0.4631 -0.2916 -0.1374
 1076SOL    HW114861   2.934   2.176   6.229  0.2265  0.5772 -0.0389
 1076SOL    HW214862   2.966   2.038   6.217  0.2272 -0.6720 -0.3444
 1077SOL     OW14863   0.413   4.572   7.913 -0.1873  0.4023  0.5110
 1077SOL    HW114864   0.485   4.635   7.922  0.1333  0.2652 -1.0420
 1077SOL    HW214865   0.343   4.623   7.955  0.7532  1.4283  0.8480
 1078SOL     OW14866   4.667   4.357  10.138 -0.1216  0.5435 -0.2568
 1078SOL    HW114867   4.670   4.400  10.224  0.7245  0.1533 -0.0866
 1078SOL    HW214868   4.702   4.420  10.076 -0.3783  1.2813  0.3478
 1079SOL     OW14869   2.361   0.698  14.463  0.0416  0.5763  0.6480
 1079SOL    HW114870   2.275   0.724  14.498 -0.3310 -1.2534  1.0848
 1079SOL    HW214871   2.388   0.626  14.519 -0.9616  0.6626  1.2499
 1080SOL     OW14872   3.090   0.462   4.951  0.3193 -0.2170 -0.1919
 1080SOL    HW114873   3.040   0.421   4.881  1.7737  1.2211 -2.0401
 1080SOL    HW214874   3.084   0.554   4.927 -0.5412 -0.3531 -0.4716
 1081SOL     OW14875   0.782   0.243  13.141 -0.2175  0.0541  0.6548
 1081SOL    HW114876   0.742   0.271  13.058  0.9321 -0.4567 -0.0758
 1081SOL    HW214877   0.871   0.228  13.109 -0.0867 -0.5568  1.3080
 1082SOL     OW14878   3.303   4.583   2.005  0.4257 -0.1968 -0.5601
 1082SOL    HW114879   3.250   4.621   2.076 -2.0279  0.6626 -2.8622
 1082SOL    HW214880   3.247   4.575   1.928  0.2144 -2.1419 -0.2144
 1083SOL     OW14881   4.395   3.732   2.108  0.2807 -0.4640  0.5223
 1083SOL    HW114882   4.380   3.783   2.188  0.0654  2.2488 -1.2828
 1083SOL    HW214883   4.475   3.774   2.078 -0.6329 -0.0001 -1.2426
 1084SOL     OW14884   1.476   0.969   4.028 -0.0191  0.1307 -0.2238
 1084SOL    HW114885   1.555   1.022   4.027  0.8904 -1.2645 -2.8546
 1084SOL    HW214886   1.520   0.890   4.058 -0.1229 -0.0579 -0.5640
 1085SOL     OW14887   2.628   3.630   4.929  0.4521 -0.1569 -0.1956
 1085SOL    HW114888   2.723   3.642   4.925  0.4073 -0.2372 -1.3232
 1085SOL    HW214889   2.601   3.697   4.867 -0.2957 -0.8501 -0.6106
 1086SOL     OW14890   2.004   3.351   5.392 -0.0718 -0.2130  0.1412
 1086SOL    HW114891   1.946   3.427   5.403 -0.5655 -0.4077 -1.1924
 1086SOL    HW214892   1.957   3.287   5.445 -1.1766  0.4074 -0.0907
 1087SOL     OW14893   3.283   4.238   2.660 -0.4270 -0.2214 -0.8090
 1087SOL    HW114894   3.349   4.282   2.607  1.5174  2.8107  4.1257
 1087SOL    HW214895   3.196   4.260   2.628 -0.8167  0.0298  0.4122
 1088SOL     OW14896   1.518   4.035   4.372  0.2821 -0.0316  0.4935
 1088SOL    HW114897   1.537   4.112   4.319  2.2892 -0.2815  0.8122
 1088SOL    HW214898   1.477   3.967   4.319 -1.3601  1.5044 -0.1839
 1089SOL     OW14899   2.280   4.652   4.048  0.3957  0.3946  0.3423
 1089SOL    HW114900   2.242   4.687   3.967 -0.8447 -1.1518  0.2642
 1089SOL    HW214901   2.367   4.691   4.054  0.5045  0.1178  0.5823
 1090SOL     OW14902   0.713   0.781  11.849  0.1490  0.1065  0.1349
 1090SOL    HW114903   0.746   0.869  11.830  0.6415 -0.3677 -1.1924
 1090SOL    HW214904   0.693   0.783  11.943  0.4633 -1.2079  0.2353
 1091SOL     OW14905   4.708   3.626   2.336 -0.7242  0.0585 -0.6316
 1091SOL    HW114906   4.737   3.665   2.254 -0.6071  0.2672 -0.4920
 1091SOL    HW214907   4.650   3.554   2.310 -0.4514  0.2995 -1.8929
 1092SOL     OW14908   0.390   2.820   0.256 -0.1404 -0.2387 -0.2583
 1092SOL    HW114909   0.410   2.913   0.256 -0.0695 -0.2562 -1.6436
 1092SOL    HW214910   0.304   2.823   0.214 -0.5170  1.3624  0.6302
 1093SOL     OW14911   4.444   4.395  16.875  0.3737 -0.3605  0.0236
 1093SOL    HW114912   4.431   4.300  16.871  1.6565 -0.5077 -0.5775
 1093SOL    HW214913   4.355   4.421  16.899 -0.6189 -1.8734 -2.1160
 1094SOL     OW14914   0.165   3.835   8.557 -0.1468 -0.1619 -0.3619
 1094SOL    HW114915   0.207   3.794   8.632  0.3931 -0.7095 -0.9557
 1094SOL    HW214916   0.242   3.860   8.505 -0.0191 -1.1674 -0.6653
 1095SOL     OW14917   3.864   0.879   7.195  0.4195  0.1006 -0.8129
 1095SOL    HW114918   3.881   0.955   7.139  1.5588 -0.8934 -1.8084
 1095SOL    HW214919   3.833   0.831   7.118 -0.6490 -1.7095  0.7465
 1096SOL     OW14920   2.791   2.969   2.728  0.0283  0.4039  0.6746
 1096SOL    HW114921   2.858   2.967   2.660 -0.7132  2.2309 -0.0876
 1096SOL    HW214922   2.795   3.053   2.774  0.2418 -0.3773  2.0777
 1097SOL     OW14923   3.232   2.904  13.045  1.1373  0.2443 -0.4570
 1097SOL    HW114924   3.312   2.922  13.095  2.2616  1.4144 -2.6789
 1097SOL    HW214925   3.190   2.838  13.100  2.1230  0.8231  1.0034
 1098SOL     OW14926   1.938   1.230   4.534 -0.2913 -0.4733  0.4203
 1098SOL    HW114927   2.018   1.177   4.539  0.8221  1.0831 -0.7248
 1098SOL    HW214928   1.946   1.262   4.444 -0.8723 -0.4095  0.3897
 1099SOL     OW14929   1.938   2.264   7.512 -0.2415 -0.9421 -0.6522
 1099SOL    HW114930   1.991   2.343   7.511 -0.8243 -0.5296  0.6546
 1099SOL    HW214931   1.896   2.259   7.426 -1.2052  1.4383 -0.3305
 1100SOL     OW14932   0.074   1.806   9.698 -1.1406  0.0376 -0.0450
 1100SOL    HW114933   0.137   1.755   9.648 -2.5115 -0.6417 -1.0723
 1100SOL    HW214934   0.049   1.753   9.774 -1.2751  2.8576  1.8638
 1101SOL     OW14935   2.002   3.817   8.298 -0.3722  0.2292  0.9787
 1101SOL    HW114936   1.920   3.858   8.272 -0.1310 -0.3302 -0.6604
 1101SOL    HW214937   1.981   3.764   8.375 -1.0061 -0.3366  0.4113
 1102SOL     OW14938   0.576   2.576   2.687 -0.1118 -0.3964 -0.2009
 1102SOL    HW114939   0.594   2.642   2.753 -3.3843  0.1254  0.1883
 1102SOL    HW214940   0.505   2.613   2.633  0.2036  0.1691 -0.2248
 1103SOL     OW14941   1.799   0.743   2.421 -0.3310 -0.2728 -0.3550
 1103SOL    HW114942   1.768   0.784   2.340 -1.2883 -0.5225 -0.1167
 1103SOL    HW214943   1.810   0.653   2.392  1.4180 -0.5684  1.1980
 1104SOL     OW14944   3.680   3.694   4.457 -0.3902 -0.2078  0.3976
 1104SOL    HW114945   3.719   3.759   4.398 -0.4957 -0.1406  0.4010
 1104SOL    HW214946   3.616   3.754   4.495 -0.9888  1.1907 -2.7694
 1105SOL     OW14947   4.153   0.927   7.835  0.5289  0.5373 -0.2546
 1105SOL    HW114948   4.215   0.919   7.762  0.3216  0.5029 -0.4295
 1105SOL    HW214949   4.077   0.870   7.822  1.6226 -1.0103  0.0862
 1106SOL     OW14950   4.507   0.564   6.801 -0.2117  0.5490  0.3385
 1106SOL    HW114951   4.564   0.557   6.877 -1.5068 -1.3805  1.1389
 1106SOL    HW214952   4.479   0.655   6.816 -3.5413 -0.2518 -0.9047
 1107SOL     OW14953   4.659   3.761   3.517  0.2242  0.1718 -0.4594
 1107SOL    HW114954   0.001   3.718   3.487  0.1042  0.6010 -1.3886
 1107SOL    HW214955   4.660   3.758   3.612  3.8863  0.1742 -0.5134
 1108SOL     OW14956   0.192   4.285   9.857  0.3164  0.5009  0.0949
 1108SOL    HW114957   0.169   4.205   9.809  3.2361 -0.4874  0.2889
 1108SOL    HW214958   0.126   4.344   9.823 -1.9074 -0.9079  1.9700
 1109SOL     OW14959   2.905   0.775   3.598  0.2342  0.5902 -0.3535
 1109SOL    HW114960   2.933   0.849   3.651 -0.5714  3.9003 -4.5499
 1109SOL    HW214961   2.814   0.803   3.593 -0.1383 -0.5432  0.0943
 1110SOL     OW14962   3.220   0.337   4.018 -0.2630 -0.3019 -0.1226
 1110SOL    HW114963   3.154   0.353   3.951 -0.6010  0.8640  0.4796
 1110SOL    HW214964   3.256   0.425   4.018  0.2212 -0.5008  1.2134
 1111SOL     OW14965   4.734   4.381   1.921 -0.0657  0.2369  0.9352
 1111SOL    HW114966   4.643   4.409   1.916  0.1705  0.6742 -0.8721
 1111SOL    HW214967   4.727   4.295   1.880 -0.4806  0.4131  0.6411
 1112SOL     OW14968   4.242   3.760   0.450  0.0002 -0.2060  0.7491
 1112SOL    HW114969   4.285   3.757   0.535 -0.8526  0.1794  1.1985
 1112SOL    HW214970   4.241   3.666   0.433  3.4787 -0.4180  1.7596
 1113SOL     OW14971   0.562   3.372   3.782  0.3001 -0.2929 -0.0735
 1113SOL    HW114972   0.591   3.439   3.844  2.1824 -0.1630 -1.0841
 1113SOL    HW214973   0.645   3.326   3.772  0.7604  0.4811  0.1643
 1114SOL     OW14974   3.696   3.951   5.829  0.5988 -0.2994  0.0273
 1114SOL    HW114975   3.754   3.968   5.903  1.3631  0.4472 -0.7434
 1114SOL    HW214976   3.695   3.855   5.829 -0.4348 -0.2915 -0.9750
 1115SOL     OW14977   2.077   4.194   9.136  0.0468 -0.1613 -0.0827
 1115SOL    HW114978   2.131   4.168   9.211  0.6903  1.9586  0.1919
 1115SOL    HW214979   1.990   4.158   9.151  0.3837 -1.0573 -0.3184
 1116SOL     OW14980   4.564   1.210   8.746  0.2546  0.7388  0.3255
 1116SOL    HW114981   4.470   1.196   8.752  0.2478  0.3821 -0.5992
 1116SOL    HW214982   4.582   1.231   8.838 -0.9744  0.0314  0.7167
 1117SOL     OW14983   2.871   0.245   7.245 -0.1740 -0.4822  0.1454
 1117SOL    HW114984   2.855   0.338   7.257 -0.8254 -0.4197 -1.2071
 1117SOL    HW214985   2.963   0.249   7.219 -0.0794 -1.6331  0.2767
 1118SOL     OW14986   0.126   4.175   7.616 -0.1000  0.0955 -0.1584
 1118SOL    HW114987   0.194   4.237   7.642  1.1547 -0.9996 -0.8937
 1118SOL    HW214988   0.184   4.104   7.590 -1.9206 -0.7638 -1.8952
 1119SOL     OW14989   1.140   0.759   8.914  0.2427  0.2313 -0.3523
 1119SOL    HW114990   1.205   0.745   8.983  0.1226 -2.0496 -0.7118
 1119SOL    HW214991   1.066   0.787   8.969  1.1373  0.5844  0.6653
 1120SOL     OW14992   1.912   3.407   2.573 -0.3620 -0.0709 -0.1135
 1120SOL    HW114993   1.855   3.383   2.646 -0.8689 -0.1141 -0.5245
 1120SOL    HW214994   1.908   3.339   2.506 -0.9269  0.8630 -1.0319
 1121SOL     OW14995   1.805   3.918   7.478  0.4785  0.7122 -0.1043
 1121SOL    HW114996   1.890   3.931   7.435  1.1969  0.3131  1.1918
 1121SOL    HW214997   1.837   3.859   7.546 -0.5368 -0.0977 -0.3180
 1122SOL     OW14998   3.904   3.592  15.043 -0.1479  0.1038  0.3528
 1122SOL    HW114999   3.945   3.509  15.069 -0.2123  0.9481  3.1667
 1122SOL    HW215000   3.855   3.607  15.124 -0.9565 -2.0563  0.2813
 1123SOL     OW15001   2.301   0.474   3.548  0.6837  0.2250  0.0438
 1123SOL    HW115002   2.271   0.565   3.555  2.2223  0.6065  1.6998
 1123SOL    HW215003   2.388   0.484   3.509  1.0477  2.7607  1.4474
 1124SOL     OW15004   3.315   0.443   4.282  0.1623 -0.0069 -0.0907
 1124SOL    HW115005   3.245   0.378   4.275  0.4702 -0.4299  0.8799
 1124SOL    HW215006   3.385   0.396   4.327  2.4118  1.7138 -1.8195
 1125SOL     OW15007   0.775   2.493   5.058  0.4981 -0.7975  0.1332
 1125SOL    HW115008   0.702   2.490   4.996  2.5954 -0.2019 -2.3998
 1125SOL    HW215009   0.758   2.414   5.110 -0.4847 -0.6322  0.0578
 1126SOL     OW15010   3.265   4.360  12.671  0.2799 -0.3319 -0.2530
 1126SOL    HW115011   3.299   4.381  12.584  2.6681  0.0278  0.7769
 1126SOL    HW215012   3.313   4.418  12.729 -3.0182  1.6489  0.5232
 1127SOL     OW15013   3.212   1.748  11.345  0.2992  0.0531  0.0084
 1127SOL    HW115014   3.214   1.807  11.421  0.8955 -0.9607  0.7860
 1127SOL    HW215015   3.153   1.798  11.289 -0.9435 -0.2937  0.9893
 1128SOL     OW15016   3.833   2.770   3.324 -0.0939 -0.1702  0.6108
 1128SOL    HW115017   3.862   2.774   3.233  1.6811 -1.7547  1.0960
 1128SOL    HW215018   3.918   2.741   3.358  0.6031  0.5351 -0.5448
 1129SOL     OW15019   4.098   0.333   6.091  0.0767  0.3604  0.7097
 1129SOL    HW115020   4.173   0.387   6.065  1.2576 -0.9691  1.3742
 1129SOL    HW215021   4.128   0.253   6.049  1.3217  1.3166 -0.2376
 1130SOL     OW15022   3.419   2.212  17.007  0.2065 -0.1391 -0.4096
 1130SOL    HW115023   3.324   2.218  16.997 -0.0302 -1.1064  1.2555
 1130SOL    HW215024   3.441   2.121  16.986  0.8931 -0.7383  2.8233
 1131SOL     OW15025   2.594   4.234  17.505 -0.6880  0.6345 -0.8605
 1131SOL    HW115026   2.615   4.299  17.438  2.0496 -0.9039 -1.5211
 1131SOL    HW215027   2.614   4.153  17.459 -1.0045 -0.9121  1.6865
 1132SOL     OW15028   3.684   2.141  16.356  0.3072 -0.4025 -0.4333
 1132SOL    HW115029   3.689   2.106  16.267 -0.1316  0.8194 -0.9352
 1132SOL    HW215030   3.729   2.225  16.352 -0.6764  0.1195 -0.6458
 1133SOL     OW15031   2.585   3.900   1.334 -0.2318  0.0827  0.1208
 1133SOL    HW115032   2.571   3.880   1.426  0.1204  0.0712  0.1700
 1133SOL    HW215033   2.653   3.840   1.304 -0.3777  0.5146 -1.0847
 1134SOL     OW15034   3.076   3.786   3.281 -0.0012 -0.5164 -0.2623
 1134SOL    HW115035   3.050   3.833   3.361 -0.2991 -1.6467  0.3116
 1134SOL    HW215036   3.022   3.820   3.210  0.4726 -1.0928 -0.8928
 1135SOL     OW15037   4.084   0.517   8.945 -0.2250  0.2568  0.1188
 1135SOL    HW115038   4.028   0.450   8.905 -1.8438 -0.8595  4.1623
 1135SOL    HW215039   4.171   0.499   8.910 -0.8151  0.1899 -1.2939
 1136SOL     OW15040   0.295   1.788   3.963  0.5854  0.0031  0.2455
 1136SOL    HW115041   0.299   1.713   3.904  1.5453 -1.1970  1.8340
 1136SOL    HW215042   0.384   1.779   3.997  1.2491  0.6176 -1.3034
 1137SOL     OW15043   0.975   3.619   0.749 -0.2427 -0.2067  0.0177
 1137SOL    HW115044   1.012   3.537   0.717  0.2699 -0.7878  2.0944
 1137SOL    HW215045   0.883   3.625   0.724  0.6534  1.4684 -2.9219
 1138SOL     OW15046   0.815   3.328   5.009  0.1079  0.6326  0.2170
 1138SOL    HW115047   0.871   3.406   5.005  0.3206  0.4505 -0.3583
 1138SOL    HW215048   0.869   3.255   4.979 -0.4064  1.0777 -1.8408
 1139SOL     OW15049   2.543   3.329   4.307 -0.7439  0.5426  0.0574
 1139SOL    HW115050   2.616   3.334   4.244 -1.9994 -2.1885 -1.6349
 1139SOL    HW215051   2.573   3.255   4.359 -1.4918 -0.6843 -1.2731
 1140SOL     OW15052   0.311   4.033   6.657  0.0357  0.1397 -0.1289
 1140SOL    HW115053   0.221   4.055   6.682 -1.6143 -3.5169 -2.7060
 1140SOL    HW215054   0.314   3.937   6.666 -0.0577  0.2090  0.6227
 1141SOL     OW15055   2.270   1.308   2.777  0.1132 -0.1081 -0.0611
 1141SOL    HW115056   2.226   1.362   2.843 -1.1243  1.1223 -1.8901
 1141SOL    HW215057   2.220   1.227   2.782  0.5845 -0.3619  0.5364
 1142SOL     OW15058   2.587   4.498  12.632 -0.0092 -0.0191  0.4920
 1142SOL    HW115059   2.678   4.467  12.630  1.5653  4.4391  2.7860
 1142SOL    HW215060   2.543   4.426  12.676 -1.7508  0.8060  0.0879
 1143SOL     OW15061   4.370   0.265  12.708 -0.3490 -0.9075  0.2872
 1143SOL    HW115062   4.430   0.196  12.736 -1.4146 -1.7209  0.5672
 1143SOL    HW215063   4.374   0.307  12.794 -0.1761  0.1348 -0.2300
 1144SOL     OW15064   0.780   2.388  12.327  0.2619  0.1281  0.3031
 1144SOL    HW115065   0.695   2.349  12.350 -0.3782  0.8662 -0.8088
 1144SOL    HW215066   0.780   2.460  12.391 -0.1999  1.6020 -1.3615
 1145SOL     OW15067   2.087   2.192   2.963  0.0218 -0.7106 -0.1527
 1145SOL    HW115068   2.088   2.139   2.883  0.5891 -0.2522 -0.4469
 1145SOL    HW215069   1.994   2.214   2.969  0.2221 -0.5733  2.5412
 1146SOL     OW15070   3.549   2.008   3.807 -0.0706 -0.4887  0.3453
 1146SOL    HW115071   3.594   2.056   3.738 -1.4281  1.0249  0.5368
 1146SOL    HW215072   3.538   1.929   3.753 -0.8854  0.0266 -0.2302
 1147SOL     OW15073   2.003   4.152   7.087  0.3976 -0.4140 -0.2890
 1147SOL    HW115074   2.027   4.085   7.151  0.5735  1.1521  1.3081
 1147SOL    HW215075   2.008   4.225   7.149  2.4835 -0.2414 -0.6500
 1148SOL     OW15076   2.325   4.534   8.381  0.3798  0.5200 -0.0506
 1148SOL    HW115077   2.349   4.498   8.295  0.5104  0.5043 -0.0081
 1148SOL    HW215078   2.246   4.584   8.362 -0.4402 -0.3915  1.0313
 1149SOL     OW15079   3.027   3.775   6.932 -0.1394 -0.6077  0.3165
 1149SOL    HW115080   3.107   3.827   6.936  0.2410 -1.1265 -0.7409
 1149SOL    HW215081   2.976   3.811   7.005 -1.0621  0.9428 -1.0905
 1150SOL     OW15082   4.308   2.539  10.139 -0.1888  0.3838  0.4673
 1150SOL    HW115083   4.375   2.471  10.144  0.1647  0.7030 -0.0199
 1150SOL    HW215084   4.251   2.507  10.069  0.6922 -1.5800  0.6383
 1151SOL     OW15085   4.585   1.960  14.375  0.7912  0.3308  0.1519
 1151SOL    HW115086   4.603   2.000  14.290 -1.0385  2.2695  0.6880
 1151SOL    HW215087   4.590   1.867  14.355  1.9842  0.3218  0.4593
 1152SOL     OW15088   1.650   2.766   9.187  0.1482  0.5889 -0.0272
 1152SOL    HW115089   1.598   2.801   9.260  0.2052  1.2293 -0.3013
 1152SOL    HW215090   1.586   2.711   9.141 -0.0216  0.9004 -0.1620
 1153SOL     OW15091   0.264   1.582   4.341  0.2359  0.0805  0.3918
 1153SOL    HW115092   0.257   1.495   4.380 -2.0358  0.9980  1.9831
 1153SOL    HW215093   0.352   1.581   4.304  0.4394  0.6553  0.8534
 1154SOL     OW15094   3.028   2.564   8.007  0.4893 -0.2255 -0.1800
 1154SOL    HW115095   3.030   2.619   7.928 -0.5255 -1.5704 -1.1407
 1154SOL    HW215096   3.104   2.592   8.059 -1.1703 -0.4468  2.3555
 1155SOL     OW15097   0.416   4.488   2.273  0.3485 -0.1568 -0.1632
 1155SOL    HW115098   0.380   4.468   2.186  0.4086  0.0207 -0.2294
 1155SOL    HW215099   0.413   4.584   2.279 -2.7266 -0.3104  0.7928
 1156SOL     OW15100   1.670   0.586   1.451 -0.4058 -0.5874  0.5048
 1156SOL    HW115101   1.575   0.580   1.448 -0.3181 -1.4977 -0.3242
 1156SOL    HW215102   1.689   0.537   1.371  0.1512  0.0037  0.2725
 1157SOL     OW15103   0.352   3.022   7.699  0.3898 -0.6175  0.5535
 1157SOL    HW115104   0.351   2.929   7.723  0.8733 -0.2863  1.8360
 1157SOL    HW215105   0.432   3.017   7.646  1.3087 -0.6269  1.9374
 1158SOL     OW15106   3.486   2.116   8.033  0.1775 -0.5295 -0.1514
 1158SOL    HW115107   3.394   2.137   8.016 -0.2182 -0.4238  2.0922
 1158SOL    HW215108   3.526   2.199   8.009  0.5211 -0.8053 -0.5320
 1159SOL     OW15109   3.999   1.030   1.232  0.2518 -0.1455 -0.2941
 1159SOL    HW115110   4.091   1.031   1.258  0.5436 -0.6336 -1.2795
 1159SOL    HW215111   3.972   1.119   1.253  1.7346 -0.4495  2.8476
 1160SOL     OW15112   0.759   0.873   8.185 -0.4066  0.0004  0.6966
 1160SOL    HW115113   0.687   0.834   8.134  0.6090  0.1045 -0.8142
 1160SOL    HW215114   0.825   0.807   8.163 -0.4373 -0.1365  1.0167
 1161SOL     OW15115   1.905   3.672   4.026  0.1038 -0.2273  0.0641
 1161SOL    HW115116   1.965   3.696   3.956  1.0973  1.0873  1.3933
 1161SOL    HW215117   1.959   3.618   4.084 -0.2498  0.2618  0.8518
 1162SOL     OW15118   4.314   4.132   7.189  0.9639 -0.4126 -0.3094
 1162SOL    HW115119   4.338   4.120   7.097  0.3935  0.4297 -0.5683
 1162SOL    HW215120   4.330   4.226   7.192 -1.8997  0.0152  1.1709
 1163SOL     OW15121   0.030   4.270   3.687  0.2846  0.5172 -0.0918
 1163SOL    HW115122   0.004   4.300   3.775  1.1229 -0.1024  0.3728
 1163SOL    HW215123   0.050   4.355   3.648  0.3796 -0.3247 -1.8662
 1164SOL     OW15124   2.894   4.273   5.126 -0.2121  0.1166  0.8168
 1164SOL    HW115125   2.808   4.233   5.139  0.1509 -1.6170 -2.0198
 1164SOL    HW215126   2.871   4.361   5.097 -0.8594  0.3961  2.2001
 1165SOL     OW15127   1.981   3.409   1.803 -0.9723 -0.4234  0.2840
 1165SOL    HW115128   2.029   3.473   1.750 -1.0157  1.6116  2.7096
 1165SOL    HW215129   1.902   3.419   1.750 -1.5482 -1.3864  0.9674
 1166SOL     OW15130   2.928   1.139   6.230 -0.5222  0.1419  0.6469
 1166SOL    HW115131   2.922   1.149   6.135 -0.0997  2.3053  0.8461
 1166SOL    HW215132   3.005   1.084   6.247 -1.3407 -1.4124 -0.6376
 1167SOL     OW15133   2.593   4.610  16.153  0.1224 -0.4052  0.2456
 1167SOL    HW115134   2.672   4.634  16.200  0.9626  1.3396 -2.0964
 1167SOL    HW215135   2.639   4.589  16.072 -0.7047 -0.8876 -0.0974
 1168SOL     OW15136   0.445   1.991  14.836  0.1156  0.4344  0.1222
 1168SOL    HW115137   0.372   2.053  14.837  0.2438  0.5045  3.2480
 1168SOL    HW215138   0.400   1.911  14.810 -0.6403  1.8429 -2.9141
 1169SOL     OW15139   0.764   0.055   6.304 -0.3179  0.0779  0.1676
 1169SOL    HW115140   0.812   4.720   6.266 -0.9103  1.3025 -2.9387
 1169SOL    HW215141   0.773   0.127   6.241  0.9183 -1.6629 -1.6715
 1170SOL     OW15142   2.790   4.000   4.355 -0.1873 -0.3014  0.8092
 1170SOL    HW115143   2.803   3.968   4.266  0.0006  3.0051 -0.3601
 1170SOL    HW215144   2.883   4.009   4.376  0.0038 -0.3121 -0.0337
 1171SOL     OW15145   0.553   0.629   2.444 -0.8626 -0.2798  0.2539
 1171SOL    HW115146   0.487   0.580   2.494 -1.6377  0.1973 -0.3095
 1171SOL    HW215147   0.499   0.648   2.368 -0.8789 -2.3264 -0.2407
 1172SOL     OW15148   3.929   1.681   3.156 -0.0875 -0.0769  0.3174
 1172SOL    HW115149   3.955   1.774   3.153 -0.8566  0.1127 -0.5707
 1172SOL    HW215150   3.900   1.675   3.247 -3.0683  0.6815 -0.5983
 1173SOL     OW15151   3.866   0.191   2.935 -0.0482 -0.1781  0.0030
 1173SOL    HW115152   3.843   0.098   2.930 -0.5220 -0.1156  1.1943
 1173SOL    HW215153   3.859   0.196   3.030  1.0592  0.0050  0.0767
 1174SOL     OW15154   4.104   4.180   3.655  0.0136  0.0032 -0.1483
 1174SOL    HW115155   4.023   4.223   3.683 -0.6958 -1.3798 -0.0660
 1174SOL    HW215156   4.112   4.208   3.564 -0.2584 -3.5414 -1.2602
 1175SOL     OW15157   4.243   2.454   1.572  0.1702 -0.6155 -0.7689
 1175SOL    HW115158   4.193   2.479   1.650 -0.3241  0.3363 -1.4023
 1175SOL    HW215159   4.315   2.515   1.584  0.8462 -1.3909 -0.8553
 1176SOL     OW15160   2.258   2.253  10.866 -0.1485 -0.6017  0.3888
 1176SOL    HW115161   2.277   2.294  10.950 -0.9005  3.1298 -1.2429
 1176SOL    HW215162   2.337   2.200  10.856 -0.2525 -0.5422 -0.7978
 1177SOL     OW15163   4.477   1.870   8.038 -0.3837 -0.0451  0.4378
 1177SOL    HW115164   4.531   1.930   8.090 -1.3857  0.4038  0.9636
 1177SOL    HW215165   4.531   1.796   8.011 -2.3155 -0.2196 -3.0424
 1178SOL     OW15166   1.977   4.332  16.689  0.2224  0.1079  0.2594
 1178SOL    HW115167   2.024   4.273  16.748 -1.8310 -2.0904 -0.3228
 1178SOL    HW215168   1.897   4.285  16.666  0.7007 -0.1805 -0.8250
 1179SOL     OW15169   0.442   1.492  11.459  0.5393  0.2126  0.2172
 1179SOL    HW115170   0.538   1.485  11.462  0.6299  1.3988  0.2371
 1179SOL    HW215171   0.417   1.574  11.502  0.5592  1.2559 -1.7438
 1180SOL     OW15172   1.230   3.116   9.651 -0.3163  0.1788 -0.2745
 1180SOL    HW115173   1.141   3.089   9.674  0.5341 -0.6213  2.1747
 1180SOL    HW215174   1.214   3.183   9.585  0.9581  0.6365 -0.1149
 1181SOL     OW15175   4.313   4.618   1.382 -0.1208 -0.1120 -0.0827
 1181SOL    HW115176   4.315   4.695   1.325 -0.4777  0.8124  1.1670
 1181SOL    HW215177   4.256   4.550   1.348  0.1442  1.2541 -3.3086
 1182SOL     OW15178   1.906   2.210  11.517  0.2592 -0.6921 -0.2456
 1182SOL    HW115179   1.838   2.145  11.498  0.5203 -0.1705 -2.9643
 1182SOL    HW215180   1.952   2.181  11.596  0.5357 -0.6351 -0.3876
 1183SOL     OW15181   2.002   4.132  17.434  0.9263 -0.0144 -0.0739
 1183SOL    HW115182   1.945   4.188  17.488  0.9050  1.6171 -1.8088
 1183SOL    HW215183   1.941   4.059  17.431 -1.2706  1.7832  1.1908
 1184SOL     OW15184   4.597   0.283   8.236  0.4953  0.4874  0.5272
 1184SOL    HW115185   4.551   0.360   8.202 -2.6278 -2.1753 -1.2627
 1184SOL    HW215186   4.534   0.246   8.298 -0.0759  2.3796  1.0813
 1185SOL     OW15187   1.866   1.586   3.968  0.2435  0.1008  0.5292
 1185SOL    HW115188   1.776   1.614   3.950  0.1207  0.1074  1.1471
 1185SOL    HW215189   1.914   1.651   4.019 -1.5193  2.6897 -1.0767
 1186SOL     OW15190   1.632   4.521   1.193 -0.1858 -0.4709  0.0109
 1186SOL    HW115191   1.723   4.508   1.168 -0.3850 -1.3521 -0.2541
 1186SOL    HW215192   1.594   4.463   1.127 -0.3103 -1.9402  1.3740
 1187SOL     OW15193   0.178   4.526   5.780  0.6693  0.3382 -0.2218
 1187SOL    HW115194   0.200   4.619   5.787  4.6825 -0.7787  1.8906
 1187SOL    HW215195   0.086   4.529   5.805  1.4102 -0.5483  2.6776
 1188SOL     OW15196   2.803   0.514   5.187  0.1522  0.2850  0.4359
 1188SOL    HW115197   2.712   0.531   5.210 -0.0702  0.6336 -0.7244
 1188SOL    HW215198   2.828   0.605   5.170 -1.6213  0.5448 -0.8344
 1189SOL     OW15199   3.879   4.554   0.811 -0.1017  0.2686 -0.1270
 1189SOL    HW115200   3.925   4.619   0.757 -0.3005 -0.3282 -1.0262
 1189SOL    HW215201   3.859   4.476   0.759  1.2525  1.4473 -2.4539
 1190SOL     OW15202   0.600   1.240  14.481  0.0136  0.2014  0.2276
 1190SOL    HW115203   0.628   1.158  14.441 -1.3539  0.0228 -0.3852
 1190SOL    HW215204   0.521   1.254  14.428  1.2011  1.3084 -1.2659
 1191SOL     OW15205   2.677   3.317   6.119 -0.1073 -0.2092  0.4840
 1191SOL    HW115206   2.647   3.405   6.141 -1.3206 -0.0349 -1.8058
 1191SOL    HW215207   2.586   3.287   6.111 -0.0336 -0.2415 -0.2423
 1192SOL     OW15208   1.406   2.482   5.106 -0.8138  0.1122  0.7284
 1192SOL    HW115209   1.341   2.505   5.040  0.5046  2.8945  0.4086
 1192SOL    HW215210   1.491   2.504   5.068 -1.1044 -1.5102 -0.8491
 1193SOL     OW15211   4.629   0.444  10.630  0.7980  0.2743 -0.0127
 1193SOL    HW115212   4.568   0.512  10.600  0.1290 -0.9466 -1.4108
 1193SOL    HW215213   4.655   0.469  10.718  1.0111 -0.4226  0.1220
 1194SOL     OW15214   0.239   1.569  17.205  0.4019  0.5280 -0.2369
 1194SOL    HW115215   0.148   1.545  17.186  0.5695 -0.7398  0.5526
 1194SOL    HW215216   0.268   1.499  17.264  1.8997 -0.3802 -2.0420
 1195SOL     OW15217   4.725   4.445  13.573 -0.2560  0.0462 -0.5976
 1195SOL    HW115218   0.021   4.512  13.632 -1.3048 -0.1290  0.2321
 1195SOL    HW215219   0.035   4.367  13.600  0.4107  1.2643  1.7595
 1196SOL     OW15220   1.295   4.080   8.077  0.2620  0.2965 -0.3138
 1196SOL    HW115221   1.236   4.152   8.101  0.9101  0.9895 -0.7716
 1196SOL    HW215222   1.339   4.111   7.998  1.4803 -0.0634  0.2185
 1197SOL     OW15223   3.090   1.694  15.679 -0.2589  0.9918  0.5722
 1197SOL    HW115224   3.077   1.754  15.752 -0.8395 -0.4387  1.6576
 1197SOL    HW215225   3.129   1.751  15.614  2.3710  2.4683  3.4419
 1198SOL     OW15226   1.923   0.698   7.616 -0.3265 -0.7665 -0.2044
 1198SOL    HW115227   1.913   0.687   7.521 -2.1433 -0.1810 -0.0947
 1198SOL    HW215228   2.006   0.653   7.630  0.1856  0.0464 -0.6017
 1199SOL     OW15229   2.534   3.396   7.112 -0.0379 -0.5408  0.1898
 1199SOL    HW115230   2.503   3.480   7.145 -0.6644 -0.2112 -1.2079
 1199SOL    HW215231   2.480   3.327   7.152  0.7084 -0.6850  0.9276
 1200SOL     OW15232   3.836   3.816  10.337  0.3764 -0.2355 -0.3189
 1200SOL    HW115233   3.835   3.906  10.371 -1.9376  0.3477 -1.9199
 1200SOL    HW215234   3.932   3.811  10.333  0.5644  1.6938  1.9804
 1201SOL     OW15235   0.970   0.106   8.744 -0.2395  0.3730  0.0290
 1201SOL    HW115236   0.933   0.189   8.774  0.0220  0.4544  0.1264
 1201SOL    HW215237   1.019   0.136   8.668 -0.9810  0.8773 -0.2403
 1202SOL     OW15238   1.893   3.224   8.418  0.2813  0.4177 -0.1527
 1202SOL    HW115239   1.896   3.129   8.423 -0.7109  0.3729 -0.4173
 1202SOL    HW215240   1.944   3.250   8.495 -1.4795 -0.0665  1.1593
 1203SOL     OW15241   3.308   1.722   8.639 -0.3883 -0.3440  0.3095
 1203SOL    HW115242   3.394   1.758   8.616 -0.3140 -0.2891  0.6759
 1203SOL    HW215243   3.307   1.669   8.560  2.2845  0.0953 -0.0155
 1204SOL     OW15244   4.652   2.380   1.741 -0.0431  0.3792 -0.2343
 1204SOL    HW115245   4.625   2.443   1.809  0.4239 -0.6357  0.8832
 1204SOL    HW215246   4.606   2.298   1.755  2.5710 -0.8563  1.1178
 1205SOL     OW15247   1.005   1.770  15.052 -0.0635  0.1302  0.3018
 1205SOL    HW115248   1.037   1.852  15.089 -0.9387  0.9174 -0.6621
 1205SOL    HW215249   0.925   1.764  15.105 -0.0248 -1.9668  0.1301
 1206SOL     OW15250   0.185   1.578   3.789  0.0400  0.2524  0.1918
 1206SOL    HW115251   0.249   1.549   3.724  1.2982  2.7627  0.2943
 1206SOL    HW215252   0.102   1.561   3.744  0.3657 -0.4009 -0.1483
 1207SOL     OW15253   1.744   4.147   4.113  0.2665  0.2583 -0.2465
 1207SOL    HW115254   1.677   4.186   4.170  1.3855 -0.1609  1.3637
 1207SOL    HW215255   1.687   4.077   4.081 -0.1431  1.1373 -1.4234
 1208SOL     OW15256   1.253   2.484   4.863 -0.2713  0.2737 -0.4987
 1208SOL    HW115257   1.159   2.492   4.881 -0.4959 -1.0890 -1.1158
 1208SOL    HW215258   1.269   2.446   4.777  2.2860 -0.5491  0.3545
 1209SOL     OW15259   1.451   4.736   5.675 -0.0508 -0.4221  0.1300
 1209SOL    HW115260   1.500   4.686   5.610  0.7936  0.5106  0.0585
 1209SOL    HW215261   1.515   0.021   5.742  0.8591 -0.4701 -0.7247
 1210SOL     OW15262   3.053   0.596   9.540  0.2306 -0.0167 -0.2950
 1210SOL    HW115263   3.025   0.536   9.609  1.4511 -1.2852 -0.8904
 1210SOL    HW215264   2.966   0.610   9.503 -0.3299  0.0854  1.0601
 1211SOL     OW15265   3.846   1.517   5.575  0.3417 -0.2876 -0.6252
 1211SOL    HW115266   3.750   1.512   5.582  0.3747 -1.9193 -1.2731
 1211SOL    HW215267   3.882   1.517   5.663  0.3137  0.2385 -0.6095
 1212SOL     OW15268   0.022   0.189   4.611 -0.8395 -0.2196 -0.1403
 1212SOL    HW115269   0.024   0.127   4.684 -3.9150 -0.5241 -0.3335
 1212SOL    HW215270   4.668   0.211   4.610 -0.7405  0.1436 -1.4526
 1213SOL     OW15271   2.730   3.453  13.558 -0.3856  0.1032  0.5034
 1213SOL    HW115272   2.791   3.526  13.571 -0.5885  0.6185 -1.3869
 1213SOL    HW215273   2.789   3.380  13.576 -1.9778 -1.3095  0.0238
 1214SOL     OW15274   2.762   1.520   7.526  0.4037 -0.2943  0.0132
 1214SOL    HW115275   2.735   1.529   7.617 -1.5869 -0.2151 -0.5875
 1214SOL    HW215276   2.795   1.430   7.530  2.6315  0.4526 -1.7562
 1215SOL     OW15277   0.976   3.982  15.905  0.9650 -0.1513 -0.5885
 1215SOL    HW115278   0.883   3.961  15.914  1.4505 -1.9955  0.0854
 1215SOL    HW215279   0.993   4.023  15.989 -2.0668  0.6164 -0.3606
 1216SOL     OW15280   3.397   2.924  12.343  0.4126 -0.5517  0.3686
 1216SOL    HW115281   3.472   2.960  12.296  1.8091  0.3482  3.2814
 1216SOL    HW215282   3.331   2.991  12.327  0.1462 -0.5956  1.3302
 1217SOL     OW15283   0.395   3.489  13.030  0.1808 -0.2947  0.4572
 1217SOL    HW115284   0.315   3.541  13.039  1.1408  1.3629 -0.5306
 1217SOL    HW215285   0.384   3.462  12.938 -2.3928  3.7117 -0.3811
 1218SOL     OW15286   2.764   1.022   3.061 -0.4141 -0.3029  0.0596
 1218SOL    HW115287   2.802   1.056   3.143 -0.5094 -1.7541  0.7011
 1218SOL    HW215288   2.834   1.035   2.997 -1.0242  0.4297 -0.4635
 1219SOL     OW15289   0.140   1.877   1.797  0.4911 -0.1775 -0.2968
 1219SOL    HW115290   0.133   1.890   1.703 -1.0898  2.1169  0.1034
 1219SOL    HW215291   0.058   1.837   1.827  0.8713 -2.3663 -2.1948
 1220SOL     OW15292   0.857   1.050   1.289 -0.5071  0.2143  0.0575
 1220SOL    HW115293   0.833   0.964   1.323 -0.9987  0.1611 -0.4198
 1220SOL    HW215294   0.863   1.101   1.369 -3.2765 -1.0951  1.1222
 1221SOL     OW15295   0.698   0.295   2.201  0.4997  0.4763  0.4752
 1221SOL    HW115296   0.613   0.300   2.158  1.5055  2.6311 -1.2310
 1221SOL    HW215297   0.669   0.262   2.287 -0.2800 -0.6067 -0.1977
 1222SOL     OW15298   1.432   1.107   7.740 -0.1617 -0.2812  0.3984
 1222SOL    HW115299   1.390   1.190   7.715  1.5419  1.3277  2.9198
 1222SOL    HW215300   1.517   1.129   7.703 -2.0054  1.2869 -2.9437
 1223SOL     OW15301   3.270   3.577   4.249  0.0511 -1.2581 -0.1934
 1223SOL    HW115302   3.240   3.489   4.272  0.4842 -1.3355  0.0941
 1223SOL    HW215303   3.365   3.577   4.261 -0.2994 -0.0384  2.5939
 1224SOL     OW15304   0.160   3.789   2.731 -0.6000  0.1352  0.4626
 1224SOL    HW115305   0.245   3.829   2.712 -0.8470  0.0262 -0.8979
 1224SOL    HW215306   0.099   3.861   2.716 -2.1393 -1.5369 -1.3534
 1225SOL     OW15307   2.299   4.372   3.579 -0.3222 -0.1648  0.1104
 1225SOL    HW115308   2.386   4.407   3.563 -0.7302  0.0426 -1.7348
 1225SOL    HW215309   2.294   4.366   3.674 -0.3994  0.8580  0.1715
 1226SOL     OW15310   3.000   1.242   4.326  0.0277 -0.1642 -0.0062
 1226SOL    HW115311   2.932   1.292   4.280 -0.1621 -1.6628 -1.3732
 1226SOL    HW215312   2.957   1.156   4.332 -0.1993  0.0614  1.5907
 1227SOL     OW15313   2.713   1.382   0.821  0.3208  0.2353 -0.1167
 1227SOL    HW115314   2.639   1.353   0.874  0.9912  0.6042  1.0222
 1227SOL    HW215315   2.672   1.456   0.776 -0.1501  0.9549  1.4910
 1228SOL     OW15316   4.480   1.882   5.480 -0.3643  0.0790  0.1699
 1228SOL    HW115317   4.548   1.892   5.546  1.0900 -0.5701 -1.2400
 1228SOL    HW215318   4.481   1.975   5.457 -1.1408 -0.2402 -1.1712
 1229SOL     OW15319   1.439   2.748   6.394 -0.0267  0.3636 -0.4172
 1229SOL    HW115320   1.350   2.769   6.368  0.4276  2.9288  0.0394
 1229SOL    HW215321   1.478   2.815   6.337 -1.3837  1.3456 -0.1724
 1230SOL     OW15322   1.639   3.440   5.679 -0.7174  0.2535 -0.0429
 1230SOL    HW115323   1.708   3.504   5.696  0.3187 -0.9478  0.2804
 1230SOL    HW215324   1.585   3.462   5.755  1.5541  1.2005  1.2956
 1231SOL     OW15325   2.804   4.571   3.068  0.2929  0.5370  0.3586
 1231SOL    HW115326   2.840   4.556   3.156 -0.0535 -1.5517  0.1410
 1231SOL    HW215327   2.757   4.489   3.053  1.1403  0.0468  0.3763
 1232SOL     OW15328   0.074   2.089   9.363  0.2967 -0.2333 -0.0919
 1232SOL    HW115329   4.732   2.112   9.409  0.7379  1.4070 -0.1294
 1232SOL    HW215330   0.067   2.125   9.275  0.3959 -1.4746 -0.6033
 1233SOL     OW15331   4.238   1.780   5.007  0.1588  0.0024  0.2111
 1233SOL    HW115332   4.228   1.761   5.101  0.3806 -0.5266  0.1285
 1233SOL    HW215333   4.173   1.722   4.969  1.5016 -0.4466 -1.3750
 1234SOL     OW15334   2.788   3.564   7.968  0.1118 -0.3829  0.0901
 1234SOL    HW115335   2.834   3.480   7.964  1.3332  0.0998  3.7688
 1234SOL    HW215336   2.836   3.615   7.902 -0.2473  0.5560  0.5585
 1235SOL     OW15337   2.040   3.009  15.201  0.3898  0.0403  0.4245
 1235SOL    HW115338   2.032   3.102  15.220  0.2691 -0.3364  2.2656
 1235SOL    HW215339   2.105   3.007  15.131 -1.3298 -0.5297 -1.1799
 1236SOL     OW15340   0.798   0.620   7.581 -0.6408  0.1618 -0.4020
 1236SOL    HW115341   0.862   0.550   7.570  1.3903  2.0730 -0.6424
 1236SOL    HW215342   0.847   0.693   7.619 -0.1956 -1.3616  2.0263
 1237SOL     OW15343   3.448   3.709   8.027  0.4775  0.0837 -0.3273
 1237SOL    HW115344   3.496   3.629   8.005 -2.0378 -1.1713 -1.3592
 1237SOL    HW215345   3.488   3.775   7.971 -0.1324 -0.4461 -1.3860
 1238SOL     OW15346   1.798   0.289   8.804 -0.0043  0.3500 -0.3171
 1238SOL    HW115347   1.769   0.200   8.781  1.6060  0.0302 -1.1031
 1238SOL    HW215348   1.887   0.276   8.835 -0.4695 -0.7142  0.5481
 1239SOL     OW15349   1.005   0.187   2.181  0.7055 -0.1284  0.4834
 1239SOL    HW115350   1.069   0.229   2.123  0.1752 -1.6240 -1.1923
 1239SOL    HW215351   0.934   0.250   2.172 -0.7540 -1.8604 -0.0331
 1240SOL     OW15352   1.424   1.088   5.535  0.3036 -0.0390  0.4666
 1240SOL    HW115353   1.506   1.115   5.576 -0.7400  0.8624  1.9571
 1240SOL    HW215354   1.453   1.055   5.450  0.2764  0.2733  0.3385
 1241SOL     OW15355   3.764   3.367   6.096  1.0159  0.1675  0.2152
 1241SOL    HW115356   3.673   3.390   6.080  0.6559 -1.1660  0.3186
 1241SOL    HW215357   3.782   3.385   6.188  1.1225  1.6889 -0.1032
 1242SOL     OW15358   1.433   1.811   9.232 -0.8615  0.5621  0.1019
 1242SOL    HW115359   1.383   1.888   9.205 -0.5122  1.3646  1.7230
 1242SOL    HW215360   1.392   1.754   9.167  4.0987 -0.3959 -2.1299
 1243SOL     OW15361   1.570   3.967   3.381 -0.3860 -0.1667  0.0226
 1243SOL    HW115362   1.560   4.062   3.380 -2.8530 -0.4362 -1.9014
 1243SOL    HW215363   1.482   3.944   3.410  0.3234 -0.6030  1.8225
 1244SOL     OW15364   1.805   3.087   2.839 -0.1534  0.1230 -0.3164
 1244SOL    HW115365   1.781   3.180   2.835 -0.5361 -0.1704 -4.0546
 1244SOL    HW215366   1.900   3.089   2.847 -0.0356  1.9037 -2.1592
 1245SOL     OW15367   1.168   3.729   5.327 -0.3268 -0.1205 -0.3840
 1245SOL    HW115368   1.143   3.820   5.342 -0.5614  0.1488 -2.3227
 1245SOL    HW215369   1.232   3.739   5.256 -0.9382 -0.3012 -0.9602
 1246SOL     OW15370   3.810   1.653   2.670 -0.4810  0.6039  0.3256
 1246SOL    HW115371   3.825   1.639   2.763  1.7093 -1.1792 -0.2944
 1246SOL    HW215372   3.749   1.727   2.663 -0.2106  0.5285 -2.8733
 1247SOL     OW15373   3.196   4.321   8.124  0.8297 -0.3948  0.1526
 1247SOL    HW115374   3.191   4.415   8.140  3.4302 -0.1099 -0.7682
 1247SOL    HW215375   3.265   4.323   8.057 -1.3950 -0.5882 -2.1396
 1248SOL     OW15376   3.396   4.062   7.923 -0.3031 -0.0744  0.6361
 1248SOL    HW115377   3.377   4.155   7.937 -1.3626 -0.4121  1.4934
 1248SOL    HW215378   3.411   4.034   8.013 -0.1611  0.2629  0.7173
 1249SOL     OW15379   0.128   3.373   9.749  0.1641 -0.5470  0.3922
 1249SOL    HW115380   0.057   3.310   9.758 -0.0108 -0.6006 -1.4505
 1249SOL    HW215381   0.200   3.317   9.719  0.5485 -0.4578  1.1378
 1250SOL     OW15382   2.155   4.690  15.418  0.3227 -0.5157  1.1304
 1250SOL    HW115383   2.223   0.013  15.389 -1.2090 -0.0138 -1.3969
 1250SOL    HW215384   2.196   4.621  15.470  1.6852 -0.2283  0.4482
 1251SOL     OW15385   4.238   1.262   5.028  0.3521 -0.6918  0.1113
 1251SOL    HW115386   4.302   1.322   5.064 -0.5157  0.0932  0.3310
 1251SOL    HW215387   4.187   1.321   4.973  0.4354  0.3500  1.1452
 1252SOL     OW15388   0.324   3.737   4.466  0.0226 -0.8362  0.2529
 1252SOL    HW115389   0.306   3.683   4.389  0.0541 -1.3442  0.6063
 1252SOL    HW215390   0.276   3.689   4.533  0.9670 -0.6094  1.0967
 1253SOL     OW15391   0.840   0.519   9.066  0.5770  0.7215 -0.4415
 1253SOL    HW115392   0.898   0.481   9.132  0.5927 -1.2000 -1.5562
 1253SOL    HW215393   0.796   0.583   9.120  0.3672 -2.0998  2.7335
 1254SOL     OW15394   1.868   2.302  11.260  0.1757 -0.1039 -0.2777
 1254SOL    HW115395   1.926   2.376  11.277 -0.3033 -0.3503  2.4725
 1254SOL    HW215396   1.876   2.261  11.346  3.3168  1.4247  0.1425
 1255SOL     OW15397   0.170   2.802   8.822  0.1859 -0.2514  0.5071
 1255SOL    HW115398   0.115   2.724   8.832  0.4061 -0.6890 -1.7266
 1255SOL    HW215399   0.261   2.780   8.799 -0.0277  3.4553 -3.8281
 1256SOL     OW15400   3.502   0.300   4.461  0.3716  0.4181  0.2021
 1256SOL    HW115401   3.570   0.361   4.491  2.6239 -1.1303 -1.8308
 1256SOL    HW215402   3.534   0.220   4.503  0.9629 -0.4939 -2.0120
 1257SOL     OW15403   1.744   1.476   5.221  0.0991 -0.0330  0.2308
 1257SOL    HW115404   1.710   1.398   5.177  0.9349 -1.1292  1.5194
 1257SOL    HW215405   1.703   1.475   5.308  0.8735 -0.5198  0.5928
 1258SOL     OW15406   2.925   2.235   2.637 -0.7781  0.3893  0.2699
 1258SOL    HW115407   2.993   2.291   2.674 -0.6421  0.9129 -0.7808
 1258SOL    HW215408   2.854   2.238   2.701  0.4759 -1.3438  1.7807
 1259SOL     OW15409   1.758   3.606   4.873  0.3751  0.1616 -0.2240
 1259SOL    HW115410   1.703   3.547   4.925 -2.2219  0.7693 -2.2836
 1259SOL    HW215411   1.833   3.620   4.930  0.6086 -1.7429 -0.0472
 1260SOL     OW15412   3.772   3.653   3.864  0.1646 -0.4934  0.2282
 1260SOL    HW115413   3.853   3.699   3.888  1.2660 -1.5901 -1.4062
 1260SOL    HW215414   3.783   3.666   3.770 -0.6369  1.2055  0.3876
 1261SOL     OW15415   3.181   0.233   2.747  0.1029  0.3207 -0.3048
 1261SOL    HW115416   3.215   0.301   2.690 -0.8359 -0.5653 -1.9301
 1261SOL    HW215417   3.099   0.277   2.772  0.5954  2.3568 -2.3297
 1262SOL     OW15418   3.866   0.665   5.194 -0.0187 -0.1098 -0.0255
 1262SOL    HW115419   3.903   0.652   5.282 -0.2163 -0.3544  0.0220
 1262SOL    HW215420   3.918   0.611   5.134 -0.1440  0.2829 -0.4820
 1263SOL     OW15421   3.039   4.279   5.781  0.1814  0.4034 -0.2330
 1263SOL    HW115422   3.072   4.352   5.728  0.1493  0.1116 -0.6566
 1263SOL    HW215423   3.114   4.222   5.795 -1.4903 -1.8326 -0.4808
 1264SOL     OW15424   1.412   2.600  16.456 -0.0454  0.5088  0.0085
 1264SOL    HW115425   1.387   2.515  16.494  0.6491  0.2740 -0.0563
 1264SOL    HW215426   1.408   2.651  16.537  0.1973 -0.6163  0.7420
 1265SOL     OW15427   3.128   4.738  11.376  0.0589  0.2211 -0.1199
 1265SOL    HW115428   3.039   4.736  11.340  0.4176  0.2950 -0.9937
 1265SOL    HW215429   3.104   0.018  11.467 -1.0564  1.4741 -0.6900
 1266SOL     OW15430   3.747   4.547   7.398 -0.1569 -0.2975 -0.0737
 1266SOL    HW115431   3.666   4.552   7.449  1.2051  2.5004  1.8108
 1266SOL    HW215432   3.794   4.624   7.429 -0.4995  0.3656 -1.1998
 1267SOL     OW15433   0.387   2.777   8.682 -0.5121  0.1318  0.3616
 1267SOL    HW115434   0.444   2.841   8.725  0.9726  0.7275 -2.5427
 1267SOL    HW215435   0.451   2.720   8.640  1.9652  3.1065  0.1244
 1268SOL     OW15436   3.410   0.334   3.713  0.2728  0.0127  0.1170
 1268SOL    HW115437   3.388   0.427   3.705  1.0893  0.2350  0.4999
 1268SOL    HW215438   3.410   0.314   3.620  0.5330  1.5106 -0.2032
 1269SOL     OW15439   1.671   1.156  15.069 -0.0295 -0.4250 -0.2669
 1269SOL    HW115440   1.744   1.101  15.097  2.3784  1.6804 -2.4437
 1269SOL    HW215441   1.619   1.096  15.015 -1.6252 -0.4226  1.2765
 1270SOL     OW15442   0.981   4.123   4.371 -0.2324 -1.4512  0.2030
 1270SOL    HW115443   1.035   4.184   4.320  0.7450 -2.0303  0.5443
 1270SOL    HW215444   1.047   4.092   4.433  2.0571  1.4535 -0.7608
 1271SOL     OW15445   0.422   2.447  17.555 -0.0950 -0.1810 -0.2731
 1271SOL    HW115446   0.352   2.489  17.505 -0.1161  1.6343  1.2894
 1271SOL    HW215447   0.432   2.515  17.621  2.0207  0.6301 -1.4321
 1272SOL     OW15448   4.108   3.947   3.466 -0.3117  0.2334  0.0656
 1272SOL    HW115449   4.157   4.026   3.445 -2.9016  1.6661 -0.5482
 1272SOL    HW215450   4.178   3.885   3.487  0.6283  1.4221  0.4192
 1273SOL     OW15451   0.109   2.437  11.975 -0.3513  0.3931 -0.3667
 1273SOL    HW115452   0.122   2.468  11.886 -0.1637 -0.5510 -0.6628
 1273SOL    HW215453   0.150   2.351  11.973 -0.9005  0.1597 -1.4853
 1274SOL     OW15454   2.797   0.690   4.895 -0.0389  0.0441  0.5772
 1274SOL    HW115455   2.804   0.786   4.900  0.3085  0.0181  0.5781
 1274SOL    HW215456   2.886   0.666   4.869 -0.6475 -1.4313 -0.1246
 1275SOL     OW15457   2.457   3.199   3.065  0.0863 -0.1820 -0.0467
 1275SOL    HW115458   2.450   3.192   3.160  1.2997 -0.8154 -0.0004
 1275SOL    HW215459   2.386   3.248   3.025  1.0183  1.8707  0.8299
 1276SOL     OW15460   1.323   3.354   9.419 -0.3937  0.6088 -0.3366
 1276SOL    HW115461   1.321   3.360   9.323 -0.3965 -1.3861 -0.4570
 1276SOL    HW215462   1.232   3.340   9.446 -0.2680 -1.3076 -0.8709
 1277SOL     OW15463   3.464   1.049  13.715 -0.5013  0.5645  0.0766
 1277SOL    HW115464   3.410   0.971  13.711 -1.8609  1.4500  1.2491
 1277SOL    HW215465   3.395   1.102  13.753 -1.0723 -1.6616  2.1309
 1278SOL     OW15466   3.527   0.292   5.849  0.6552 -0.1170 -0.0310
 1278SOL    HW115467   3.453   0.273   5.791  1.3159 -1.0515 -0.5754
 1278SOL    HW215468   3.555   0.206   5.883  1.6438  0.3231  0.2842
 1279SOL     OW15469   3.667   1.897  17.054 -0.1618  1.3541  0.0048
 1279SOL    HW115470   3.657   1.872  16.962 -0.0553 -2.4614  0.9928
 1279SOL    HW215471   3.578   1.883  17.088 -0.8926 -1.5136 -3.0972
 1280SOL     OW15472   3.879   4.549   7.041  0.4594 -0.4473 -0.2077
 1280SOL    HW115473   3.890   4.595   7.124  0.5768  1.6000 -1.3630
 1280SOL    HW215474   3.785   4.542   7.028  0.3416  0.9737 -0.0826
 1281SOL     OW15475   2.484   1.445  10.193  0.5634  0.7134  0.3846
 1281SOL    HW115476   2.532   1.406  10.266 -0.5888  2.0387  1.8360
 1281SOL    HW215477   2.536   1.521  10.166 -1.3866  0.7961 -3.1749
 1282SOL     OW15478   2.815   0.256   5.100  0.6298  0.4292  0.2771
 1282SOL    HW115479   2.810   0.343   5.141 -1.3884 -0.5638  2.1624
 1282SOL    HW215480   2.883   0.205   5.143  1.3175 -0.9097 -2.3978
 1283SOL     OW15481   1.036   0.435   4.139 -0.2543 -0.5363  0.6147
 1283SOL    HW115482   1.065   0.359   4.190 -0.9720 -1.8918 -0.9940
 1283SOL    HW215483   1.094   0.505   4.168 -0.5653  0.7100 -1.7576
 1284SOL     OW15484   0.907   0.034  13.810 -0.2671  0.1523 -0.4969
 1284SOL    HW115485   0.932   4.733  13.726 -0.3134  1.0445 -0.9361
 1284SOL    HW215486   0.847   4.707  13.847 -1.2717  1.5271  0.3031
 1285SOL     OW15487   1.649   0.255   6.791 -0.3145  0.3308  0.6170
 1285SOL    HW115488   1.686   0.343   6.784  0.0418  0.1634  0.3668
 1285SOL    HW215489   1.723   0.198   6.810  0.2790  0.9977  0.3006
 1286SOL     OW15490   4.564   3.446   3.705 -0.4632 -0.6073 -0.2727
 1286SOL    HW115491   4.553   3.363   3.753 -0.0122  0.0005  0.8819
 1286SOL    HW215492   4.523   3.411   3.626  2.9563 -2.0743 -1.4039
 1287SOL     OW15493   2.752   1.217   4.575  0.4902 -0.3333 -0.1519
 1287SOL    HW115494   2.811   1.157   4.619 -0.5207 -0.7561  0.6208
 1287SOL    HW215495   2.785   1.302   4.603 -2.2482  0.2769  1.2674
 1288SOL     OW15496   2.035   4.261   5.854  0.0401  0.2266  0.3742
 1288SOL    HW115497   1.951   4.236   5.814 -0.3826  2.7245 -0.3148
 1288SOL    HW215498   2.081   4.281   5.772 -0.5244  1.5311  0.3820
 1289SOL     OW15499   0.152   2.296  17.330  0.1382 -0.2771  0.3620
 1289SOL    HW115500   0.091   2.366  17.308  1.4177  1.2372  1.5924
 1289SOL    HW215501   0.138   2.278  17.423 -0.5609  0.7562  0.4537
 1290SOL     OW15502   4.150   1.829  14.669  0.1713 -0.0144 -0.2470
 1290SOL    HW115503   4.220   1.822  14.604 -0.9072  0.5563 -1.4834
 1290SOL    HW215504   4.092   1.890  14.623 -1.0795 -1.0221  0.0051
 1291SOL     OW15505   0.481   0.535   9.573 -0.1718  0.8832 -0.4637
 1291SOL    HW115506   0.423   0.569   9.505 -0.2262 -1.1391 -1.4426
 1291SOL    HW215507   0.521   0.613   9.612 -1.2990  1.4920 -0.5416
 1292SOL     OW15508   0.274   0.439   2.060 -0.1405 -0.4940 -0.2165
 1292SOL    HW115509   0.293   0.516   2.007  1.9750 -0.5248  0.4850
 1292SOL    HW215510   0.189   0.408   2.032 -0.8337 -0.1780  1.5006
 1293SOL     OW15511   0.522   1.598   5.780  0.4567 -0.7524 -0.0899
 1293SOL    HW115512   0.540   1.537   5.852  0.4833  0.7725  1.1764
 1293SOL    HW215513   0.585   1.668   5.796  0.8236 -0.8180 -1.2449
 1294SOL     OW15514   0.734   0.932   8.984 -0.6850  0.3440 -0.1270
 1294SOL    HW115515   0.776   0.892   8.907  0.5179 -1.5667  1.5329
 1294SOL    HW215516   0.796   0.906   9.052 -0.0629 -0.5905 -1.0481
 1295SOL     OW15517   2.690   0.547  10.137 -0.2511 -0.2994 -0.4444
 1295SOL    HW115518   2.598   0.529  10.153 -0.4963  0.8890 -0.5007
 1295SOL    HW215519   2.716   0.465  10.095  2.2479 -0.6195  1.6561
 1296SOL     OW15520   2.076   1.191   7.234 -0.5530 -0.3118  0.0941
 1296SOL    HW115521   2.104   1.262   7.177 -1.3678 -0.1958 -0.1624
 1296SOL    HW215522   2.032   1.237   7.306  0.7866  0.0409  0.6879
 1297SOL     OW15523   2.581   1.174   2.909 -0.6389 -0.1738 -0.2246
 1297SOL    HW115524   2.620   1.258   2.933  1.3209 -1.1495  0.0258
 1297SOL    HW215525   2.646   1.122   2.956  0.0929  1.1594  0.2216
 1298SOL     OW15526   0.488   2.889  16.553  0.2381 -0.4395  0.3702
 1298SOL    HW115527   0.562   2.830  16.542 -0.2949 -1.5596  2.7032
 1298SOL    HW215528   0.479   2.901  16.648 -1.2249 -1.4298  0.3493
 1299SOL     OW15529   0.991   0.402   5.571  0.2390  0.0153 -0.2155
 1299SOL    HW115530   0.997   0.463   5.497  0.5438 -0.3620 -0.5081
 1299SOL    HW215531   0.903   0.418   5.603  0.0269  0.9754 -1.2703
 1300SOL     OW15532   2.168   1.467   5.569 -0.2508 -0.0860 -0.0979
 1300SOL    HW115533   2.100   1.464   5.502  0.4814  1.1179 -0.8945
 1300SOL    HW215534   2.227   1.539   5.546  0.9101 -1.5336 -1.6177
 1301SOL     OW15535   2.777   0.028   1.530  0.5104 -0.1579 -0.1354
 1301SOL    HW115536   2.859   0.009   1.485 -0.1027  0.8645 -1.6988
 1301SOL    HW215537   2.718   0.018   1.455  2.4133  2.4687 -2.0233
 1302SOL     OW15538   3.458   3.224   8.845 -0.0886 -0.0809  0.4829
 1302SOL    HW115539   3.485   3.315   8.856  2.0864 -0.6338 -0.2792
 1302SOL    HW215540   3.531   3.205   8.786 -0.0849  1.0389  0.1157
 1303SOL     OW15541   4.284   4.531   7.937  0.6347 -0.2102 -0.0201
 1303SOL    HW115542   4.314   4.573   8.018  1.3020 -2.5777  0.9810
 1303SOL    HW215543   4.367   4.515   7.892  0.1351 -0.8039 -0.7262
 1304SOL     OW15544   0.812   1.898  12.535  0.3471  0.2214 -0.2844
 1304SOL    HW115545   0.733   1.922  12.486 -0.6946 -0.6733  0.9670
 1304SOL    HW215546   0.870   1.970  12.511  2.3562 -0.8596  1.3451
 1305SOL     OW15547   1.996   3.915   0.464 -0.4860  0.2783  0.7358
 1305SOL    HW115548   1.935   3.842   0.472  1.2009 -1.1437  0.5777
 1305SOL    HW215549   2.032   3.917   0.553 -1.3763 -0.6448  1.1176
 1306SOL     OW15550   1.016   0.713   6.647 -0.1464 -0.6742  0.3724
 1306SOL    HW115551   0.969   0.641   6.688 -1.0193  0.4882  1.4014
 1306SOL    HW215552   0.967   0.712   6.565  0.5909  2.1086 -0.1090
 1307SOL     OW15553   0.579   0.780   2.044 -0.1884  0.7373 -0.1664
 1307SOL    HW115554   0.528   0.807   2.121  2.7344  2.6945  1.0693
 1307SOL    HW215555   0.512   0.732   1.994  1.0403  0.0105 -1.1045
 1308SOL     OW15556   2.487   3.505   1.457  0.4261  0.4636  0.0301
 1308SOL    HW115557   2.479   3.536   1.367 -2.8045  0.2347  0.2419
 1308SOL    HW215558   2.562   3.447   1.441  1.2058  0.5514  3.3712
 1309SOL     OW15559   3.129   1.022  16.343 -0.3303 -0.0323  0.6286
 1309SOL    HW115560   3.038   1.018  16.370 -0.8950 -1.1428 -1.4149
 1309SOL    HW215561   3.174   1.087  16.398  1.2340 -0.4738 -0.1250
 1310SOL     OW15562   0.850   4.024   9.758  0.0891  0.2418  0.5245
 1310SOL    HW115563   0.856   4.018   9.853  1.8067  3.0582  0.6093
 1310SOL    HW215564   0.933   3.980   9.741  0.2912 -0.1752  2.6100
 1311SOL     OW15565   0.746   1.485   8.314  0.2633 -0.2904  0.1801
 1311SOL    HW115566   0.785   1.399   8.326  1.2553  0.4514  2.2145
 1311SOL    HW215567   0.819   1.543   8.335 -0.7850  0.9099  0.5492
 1312SOL     OW15568   1.785   4.669  11.405 -0.2258 -0.4999  0.3696
 1312SOL    HW115569   1.693   4.666  11.430 -0.4158 -3.0814 -0.6308
 1312SOL    HW215570   1.782   4.664  11.309  2.1704 -3.3486  0.4591
 1313SOL     OW15571   3.260   1.481  11.326 -0.0732 -1.1390  0.3614
 1313SOL    HW115572   3.164   1.483  11.320  0.0688 -1.3075 -1.6445
 1313SOL    HW215573   3.265   1.571  11.359 -0.0063 -0.3906 -1.6873
 1314SOL     OW15574   4.490   2.098   4.105  0.5702  0.1053  0.7479
 1314SOL    HW115575   4.442   2.118   4.185 -0.1030 -1.1791  0.6578
 1314SOL    HW215576   4.552   2.171   4.110  0.1414  0.5245 -0.0361
 1315SOL     OW15577   1.689   0.304   8.392  0.1411  0.0914 -0.2268
 1315SOL    HW115578   1.749   0.359   8.443 -0.3869 -0.2230  0.7477
 1315SOL    HW215579   1.666   0.228   8.445  0.1569  1.3531  1.6017
 1316SOL     OW15580   0.702   4.576   2.105 -0.1040 -0.0850  0.3848
 1316SOL    HW115581   0.663   4.529   2.178 -1.8890  1.1612  0.2458
 1316SOL    HW215582   0.645   4.652   2.091  0.1853  0.0103 -0.3087
 1317SOL     OW15583   0.950   1.438   8.614 -0.2621  0.0663 -0.4245
 1317SOL    HW115584   0.897   1.358   8.608 -1.2919  0.5860  1.5590
 1317SOL    HW215585   1.033   1.407   8.648 -0.7450 -2.7553 -1.8474
 1318SOL     OW15586   3.899   3.163  17.727  0.1302 -0.0410  0.1142
 1318SOL    HW115587   3.982   3.163   0.021  0.2213  0.5358 -0.0413
 1318SOL    HW215588   3.873   3.071  17.725 -1.8302  0.5568 -2.0883
 1319SOL     OW15589   1.489   2.228   3.624 -0.3355  0.0375  0.1932
 1319SOL    HW115590   1.512   2.159   3.687  1.0329  0.1275 -0.2176
 1319SOL    HW215591   1.433   2.187   3.559 -1.3032 -0.1006  1.1146
 1320SOL     OW15592   0.376   0.002  10.336 -0.2290  0.3306 -0.7318
 1320SOL    HW115593   0.469   4.720  10.339 -0.5335 -0.7573  0.7665
 1320SOL    HW215594   0.345   4.687  10.409 -0.4822  0.1554 -0.9666
 1321SOL     OW15595   3.275   3.039   1.278  0.4894  0.1057  0.6349
 1321SOL    HW115596   3.366   3.063   1.262  0.1464  0.4538 -0.8147
 1321SOL    HW215597   3.263   3.073   1.366 -0.9905  0.1156  0.4330
 1322SOL     OW15598   1.011   0.358   9.203  0.5086  0.0946  0.1045
 1322SOL    HW115599   1.029   0.271   9.236 -1.7571 -0.1588  0.6690
 1322SOL    HW215600   1.096   0.394   9.230 -0.6332  1.1343  2.2867
 1323SOL     OW15601   3.968   4.097   5.258 -0.0746  0.1974  0.0488
 1323SOL    HW115602   3.908   4.026   5.283 -0.6248  0.7086  0.1963
 1323SOL    HW215603   3.898   4.151   5.220 -0.6752 -1.1160 -0.6918
 1324SOL     OW15604   3.304   2.525   4.398  0.3951  0.0357 -0.4157
 1324SOL    HW115605   3.262   2.610   4.410 -0.0940  0.0926 -2.4694
 1324SOL    HW215606   3.397   2.544   4.389  0.9938 -1.6218  2.0586
 1325SOL     OW15607   1.038   0.231   2.827  0.1024  0.5512 -0.0551
 1325SOL    HW115608   1.101   0.180   2.777 -0.7985 -0.4419 -0.1694
 1325SOL    HW215609   0.957   0.180   2.832 -0.1079  0.7798 -0.9751
 1326SOL     OW15610   0.090   4.489   6.308  0.0351 -0.1000  0.1551
 1326SOL    HW115611   0.088   4.560   6.372  0.4272 -0.1028  0.1689
 1326SOL    HW215612   0.067   4.411   6.359 -1.2375 -0.5212 -1.0715
 1327SOL     OW15613   3.427   3.002   2.300 -0.1434 -0.1778 -0.1309
 1327SOL    HW115614   3.522   2.988   2.302 -0.3003 -1.4751 -1.8095
 1327SOL    HW215615   3.404   2.917   2.262  1.2978  0.2730 -2.0124
 1328SOL     OW15616   3.135   1.494  12.133  0.0282  0.3474 -0.3950
 1328SOL    HW115617   3.108   1.571  12.083  2.4233  2.8301  2.1435
 1328SOL    HW215618   3.051   1.452  12.153 -0.7559  1.0705 -2.1583
 1329SOL     OW15619   1.438   0.489   6.631  0.0019 -0.4774 -0.1611
 1329SOL    HW115620   1.348   0.472   6.655  0.4800  1.8945  3.2339
 1329SOL    HW215621   1.469   0.399   6.621  1.6622 -0.1040  1.5108
 1330SOL     OW15622   1.259   0.626  14.276  0.2016 -0.0358  0.7575
 1330SOL    HW115623   1.341   0.675  14.266 -1.2205  2.2130 -0.0023
 1330SOL    HW215624   1.189   0.692  14.267 -2.3274 -2.8115  0.0988
 1331SOL     OW15625   4.592   2.438   4.643 -0.2329  0.0154 -0.3671
 1331SOL    HW115626   4.520   2.384   4.609  0.0828 -0.6219 -0.0227
 1331SOL    HW215627   4.660   2.426   4.577 -0.7647 -3.1428 -0.3686
 1332SOL     OW15628   2.608   1.231  12.544  0.1818 -0.4527 -0.3360
 1332SOL    HW115629   2.536   1.268  12.491  1.2896  1.7703 -0.2721
 1332SOL    HW215630   2.660   1.304  12.577 -2.4007  1.2937 -0.0578
 1333SOL     OW15631   0.090   3.224   2.756 -0.0581 -0.1981 -0.1994
 1333SOL    HW115632   0.057   3.193   2.840 -0.7822 -0.1972 -0.4766
 1333SOL    HW215633   0.134   3.304   2.784 -0.8181 -0.0722  0.6414
 1334SOL     OW15634   3.760   2.508   2.962 -0.1661  0.1966  0.5401
 1334SOL    HW115635   3.836   2.554   2.999  0.9822  0.2822 -1.9216
 1334SOL    HW215636   3.791   2.464   2.883 -0.1764 -0.0430  0.6691
 1335SOL     OW15637   2.576   1.082   1.738 -0.3613  0.1089 -0.7587
 1335SOL    HW115638   2.606   0.993   1.760 -1.1012 -0.2459 -1.1999
 1335SOL    HW215639   2.615   1.123   1.815 -2.1988  1.5124 -0.5911
 1336SOL     OW15640   1.277   3.058  13.171  0.1271  0.1173  0.1177
 1336SOL    HW115641   1.198   3.005  13.160  1.7635 -2.4688  0.7594
 1336SOL    HW215642   1.295   3.069  13.078 -0.3268  2.5406  0.3182
 1337SOL     OW15643   0.986   2.347  13.122  0.0840  0.1658  0.1609
 1337SOL    HW115644   0.947   2.319  13.039  0.2585 -1.1260  0.5080
 1337SOL    HW215645   0.913   2.376  13.176 -0.8922 -2.1408  0.0975
 1338SOL     OW15646   4.095   2.324   5.927 -0.0336 -0.2184  0.4106
 1338SOL    HW115647   4.074   2.415   5.951 -0.6111 -1.1338  3.3852
 1338SOL    HW215648   4.021   2.305   5.869 -1.0039  0.9801  1.2466
 1339SOL     OW15649   3.323   1.730  13.006 -0.2693 -0.9063 -0.8079
 1339SOL    HW115650   3.266   1.657  13.029 -0.9147  0.1242  0.8402
 1339SOL    HW215651   3.362   1.727  12.918  1.9478 -1.3696  0.2143
 1340SOL     OW15652   0.736   2.525   2.178 -0.3119  0.2110  0.2866
 1340SOL    HW115653   0.682   2.512   2.256  1.1808  0.6658  1.3747
 1340SOL    HW215654   0.825   2.529   2.213  0.2087  1.8031 -1.2344
 1341SOL     OW15655   0.950   0.359   8.807 -0.5373 -0.0381 -0.2845
 1341SOL    HW115656   0.971   0.415   8.882 -0.8373  0.3315 -0.4697
 1341SOL    HW215657   0.955   0.437   8.752 -1.4398 -0.0606 -0.3994
 1342SOL     OW15658   1.631   0.099   5.881 -0.0653 -0.0369 -0.1447
 1342SOL    HW115659   1.598   0.041   5.949 -2.2486  2.0359  0.5824
 1342SOL    HW215660   1.719   0.109   5.917 -0.3246 -1.1584  0.8019
 1343SOL     OW15661   4.066   0.126   1.229 -0.6136  0.5222  0.0675
 1343SOL    HW115662   4.026   0.077   1.301  3.7124 -0.6193  1.6903
 1343SOL    HW215663   3.991   0.156   1.178  0.6442  2.0679 -0.8566
 1344SOL     OW15664   2.681   2.729   9.344  0.0057 -0.3413 -0.1923
 1344SOL    HW115665   2.588   2.748   9.359  0.0188 -0.8691  0.5354
 1344SOL    HW215666   2.704   2.770   9.260 -0.8125 -0.6795 -0.5765
 1345SOL     OW15667   1.764   2.805  10.625  0.0616  0.7681 -0.4071
 1345SOL    HW115668   1.761   2.717  10.663  0.1493 -0.0460 -2.2882
 1345SOL    HW215669   1.675   2.830  10.651 -1.6957 -4.2580 -1.6282
 1346SOL     OW15670   2.922   3.593   6.372  0.0593  0.1343  0.2944
 1346SOL    HW115671   2.990   3.530   6.393  1.2998  1.3604 -0.0672
 1346SOL    HW215672   2.974   3.650   6.315 -0.6491  0.8661  0.3725
 1347SOL     OW15673   1.426   0.311   8.962  0.3841  0.0584 -0.0520
 1347SOL    HW115674   1.336   0.286   8.942  0.6868 -1.8001  0.9276
 1347SOL    HW215675   1.458   0.243   9.021  0.7486  1.4885  1.4074
 1348SOL     OW15676   4.516   1.190   4.723  0.0979  0.0763  0.2103
 1348SOL    HW115677   4.450   1.175   4.655 -1.5922 -0.7435  1.9886
 1348SOL    HW215678   4.589   1.219   4.669 -1.1123  1.2971 -0.7618
 1349SOL     OW15679   1.813   1.622   6.949 -0.5906 -0.3550 -0.0891
 1349SOL    HW115680   1.845   1.682   6.881 -2.0467 -1.0005 -1.3360
 1349SOL    HW215681   1.799   1.552   6.885  1.2876  1.0335 -2.0321
 1350SOL     OW15682   1.529   0.809   8.378 -0.2987  0.2416 -0.5394
 1350SOL    HW115683   1.484   0.836   8.297 -1.0347 -2.0006 -0.8677
 1350SOL    HW215684   1.605   0.758   8.349 -0.9140 -0.4025 -1.0015
 1351SOL     OW15685   1.428   2.133  14.268 -0.1536 -0.0245 -0.0551
 1351SOL    HW115686   1.466   2.054  14.308  0.8235  1.2258  1.4893
 1351SOL    HW215687   1.387   2.177  14.343  0.1658 -1.2847  0.8619
 1352SOL     OW15688   2.526   4.249  12.679 -0.1061  0.6646  0.7459
 1352SOL    HW115689   2.572   4.213  12.603 -1.7502 -0.1527  0.1482
 1352SOL    HW215690   2.445   4.198  12.679 -0.3387  1.0460 -0.3085
 1353SOL     OW15691   2.236   1.395   9.745  0.3818 -0.4587  0.3991
 1353SOL    HW115692   2.149   1.373   9.778  0.2939 -1.8601 -0.7508
 1353SOL    HW215693   2.240   1.490   9.751  0.2153 -0.4155 -0.1603
 1354SOL     OW15694   2.200   1.685   9.663  0.0534 -0.3628  0.1319
 1354SOL    HW115695   2.117   1.696   9.618 -0.2932 -2.0639  0.3415
 1354SOL    HW215696   2.255   1.634   9.603  3.0749 -0.0765  2.6176
 1355SOL     OW15697   0.976   4.401  15.720  0.0995  0.6607  0.5492
 1355SOL    HW115698   1.044   4.438  15.663  1.8317 -0.9210  1.6230
 1355SOL    HW215699   0.971   4.315  15.678  1.7204 -0.1336  2.0018
 1356SOL     OW15700   2.726   1.382   2.983  0.0929  0.3114  0.0448
 1356SOL    HW115701   2.690   1.470   2.972  1.1400  0.5594 -1.4181
 1356SOL    HW215702   2.719   1.376   3.078 -2.1634  0.4323 -0.1215
 1357SOL     OW15703   3.573   4.431   4.506 -0.2259 -0.4445  0.0715
 1357SOL    HW115704   3.489   4.462   4.537  1.1325  2.4521  0.8479
 1357SOL    HW215705   3.639   4.464   4.567 -0.8779 -1.2205  1.1993
 1358SOL     OW15706   3.822   0.646  11.970  0.0404  0.2787  0.2946
 1358SOL    HW115707   3.758   0.717  11.974 -0.0199  0.0664  3.1753
 1358SOL    HW215708   3.895   0.685  11.922 -1.4194  1.5026 -0.9063
 1359SOL     OW15709   2.399   2.737  11.071 -0.3825 -0.1325 -0.5267
 1359SOL    HW115710   2.430   2.813  11.119  1.0001  0.7536 -2.8280
 1359SOL    HW215711   2.314   2.772  11.043 -0.9577  1.1613  2.8867
 1360SOL     OW15712   0.411   0.624   4.993  0.0341 -0.1423  0.3879
 1360SOL    HW115713   0.403   0.542   4.944 -0.9667  0.9669 -1.3316
 1360SOL    HW215714   0.406   0.700   4.934  1.1648 -1.0169 -0.8184
 1361SOL     OW15715   1.971   2.695   7.602  0.4325  0.1968 -0.7340
 1361SOL    HW115716   1.900   2.654   7.651  2.1745 -1.6340  0.2749
 1361SOL    HW215717   1.920   2.743   7.537  0.5906  1.9899  0.4761
 1362SOL     OW15718   0.787   3.208   8.159 -0.1988  0.3442 -0.5507
 1362SOL    HW115719   0.834   3.291   8.165 -0.1308  0.2756 -0.1149
 1362SOL    HW215720   0.748   3.218   8.073 -0.6196 -0.0638 -0.4102
 1363SOL     OW15721   3.892   3.807   7.044  0.4539 -0.1657  0.5692
 1363SOL    HW115722   3.868   3.723   7.083 -0.7623 -1.3372 -2.6310
 1363SOL    HW215723   3.897   3.858   7.124  1.1233 -1.7986  1.5704
 1364SOL     OW15724   3.807   1.871   5.170 -0.4567 -1.0702  0.3843
 1364SOL    HW115725   3.804   1.879   5.265  1.1662  0.9575  0.2843
 1364SOL    HW215726   3.807   1.775   5.170 -1.2434 -1.0741 -0.6028
 1365SOL     OW15727   1.173   1.695   3.944 -0.6242  0.2370  0.6667
 1365SOL    HW115728   1.172   1.781   3.987 -1.2972  0.6999 -0.2880
 1365SOL    HW215729   1.240   1.650   3.996 -0.4691 -0.1021  0.1721
 1366SOL     OW15730   4.724   3.587   8.680  0.0212 -0.0129  0.0633
 1366SOL    HW115731   0.019   3.672   8.707  0.0065  0.1755 -0.5158
 1366SOL    HW215732   0.059   3.546   8.636 -1.7248 -0.5188 -2.4120
 1367SOL     OW15733   0.436   2.499  12.630 -0.1590 -0.2572 -0.5465
 1367SOL    HW115734   0.409   2.409  12.615  0.0041 -0.3740 -0.1415
 1367SOL    HW215735   0.461   2.494  12.723 -1.0273 -2.7350 -0.4606
 1368SOL     OW15736   4.278   2.974   1.208  0.5145  0.2649  0.1442
 1368SOL    HW115737   4.364   2.974   1.252 -0.1249 -0.3535  1.3987
 1368SOL    HW215738   4.228   2.973   1.290 -0.9815  1.7884 -0.7617
 1369SOL     OW15739   1.843   3.048   7.546 -0.0371 -0.0033 -0.4833
 1369SOL    HW115740   1.837   3.142   7.558  0.2956 -0.0462 -0.0021
 1369SOL    HW215741   1.876   3.026   7.633 -0.5283 -2.4946 -0.9006
 1370SOL     OW15742   2.719   4.535  16.859 -0.3296 -0.4082 -0.3340
 1370SOL    HW115743   2.649   4.596  16.838  0.8771  1.6227  1.5721
 1370SOL    HW215744   2.778   4.558  16.787  0.2914 -0.4999  0.1456
 1371SOL     OW15745   3.913   0.234   3.237 -0.5976  0.2286 -0.1714
 1371SOL    HW115746   3.853   0.288   3.289  0.3741  2.6952 -1.5885
 1371SOL    HW215747   3.905   0.148   3.279  0.3930  0.5470  0.6785
 1372SOL     OW15748   3.775   2.216  17.574  0.2637 -0.3207  0.0393
 1372SOL    HW115749   3.838   2.262  17.518  1.0182 -0.7099  0.5807
 1372SOL    HW215750   3.829   2.140  17.595  0.6752 -0.3556 -1.1031
 1373SOL     OW15751   1.321   4.072   0.714 -0.0005 -0.4762  0.4081
 1373SOL    HW115752   1.241   4.026   0.688 -0.4612  0.3886  0.2960
 1373SOL    HW215753   1.297   4.113   0.797 -1.1598 -0.4638  0.0595
 1374SOL     OW15754   1.766   2.821   3.565  0.3088  0.3012  0.1570
 1374SOL    HW115755   1.686   2.824   3.618  0.1440  1.0531 -0.1367
 1374SOL    HW215756   1.741   2.837   3.474 -1.4759 -0.2841  0.5521
 1375SOL     OW15757   2.952   0.379   8.038 -0.3716 -0.0944 -0.0103
 1375SOL    HW115758   3.024   0.437   8.013 -0.2285 -0.0090  0.6068
 1375SOL    HW215759   2.924   0.338   7.956  2.2863  2.8796 -2.3942
 1376SOL     OW15760   0.547   1.186   9.785 -0.0403  0.4220  0.0589
 1376SOL    HW115761   0.497   1.203   9.706 -0.8747 -0.4362  0.3919
 1376SOL    HW215762   0.636   1.196   9.752  0.5903 -1.4749  1.1396
 1377SOL     OW15763   3.915   3.551  17.607 -0.0765 -0.2263  0.3056
 1377SOL    HW115764   3.824   3.576  17.622 -0.3355  0.6749 -2.7603
 1377SOL    HW215765   3.936   3.595  17.525 -1.2116 -0.9149 -0.3503
 1378SOL     OW15766   2.422   3.181   5.841 -0.4086  0.3020  0.1348
 1378SOL    HW115767   2.365   3.199   5.766  0.0144  0.8457 -0.0511
 1378SOL    HW215768   2.417   3.085   5.842 -2.4367  0.3422 -4.6003
 1379SOL     OW15769   3.547   4.690   6.646 -0.0919  0.6633 -0.5485
 1379SOL    HW115770   3.487   4.658   6.714  1.4974 -1.4624 -0.1054
 1379SOL    HW215771   3.542   0.045   6.663  0.7193  0.9261 -1.7932
 1380SOL     OW15772   2.023   4.519  12.121 -0.4408 -0.0227  0.2412
 1380SOL    HW115773   2.027   4.613  12.104 -0.8713 -0.3256 -1.5370
 1380SOL    HW215774   2.017   4.491  12.030  0.9696  2.3694 -0.5719
 1381SOL     OW15775   3.697   3.262   3.544 -0.0376  0.5521 -0.1306
 1381SOL    HW115776   3.731   3.173   3.536  2.9540  1.7210 -0.3654
 1381SOL    HW215777   3.751   3.312   3.483  1.8778 -1.2403  0.1028
 1382SOL     OW15778   4.328   2.342   5.136  0.6732 -0.3175  0.0586
 1382SOL    HW115779   4.416   2.344   5.173  0.4994  0.9684  0.3950
 1382SOL    HW215780   4.292   2.272   5.190  2.5941 -0.7741  0.7514
 1383SOL     OW15781   1.727   3.879   1.394  0.0342  0.2077 -0.2320
 1383SOL    HW115782   1.772   3.869   1.310 -3.2081 -0.4954 -1.8954
 1383SOL    HW215783   1.635   3.887   1.367 -0.6490  2.3629  2.7607
 1384SOL     OW15784   1.609   2.661   5.437  0.2263 -0.3404  0.1429
 1384SOL    HW115785   1.650   2.688   5.354  1.5102  0.7749  1.1440
 1384SOL    HW215786   1.518   2.657   5.408  0.0268  0.9198  0.5980
 1385SOL     OW15787   1.137   1.166   5.603  0.5063 -0.0227 -0.2977
 1385SOL    HW115788   1.156   1.151   5.696  3.4889 -1.6968 -1.1492
 1385SOL    HW215789   1.192   1.094   5.572 -1.1927 -2.2435  1.8138
 1386SOL     OW15790   0.482   0.801   5.660 -0.3123  0.2908 -0.1004
 1386SOL    HW115791   0.451   0.711   5.669  0.6796 -0.1085 -0.7184
 1386SOL    HW215792   0.413   0.848   5.612  0.9768 -0.8929 -3.0883
 1387SOL     OW15793   0.354   1.328   3.183 -0.4079 -0.2780  0.8698
 1387SOL    HW115794   0.266   1.317   3.148 -0.0102  1.6369 -0.7114
 1387SOL    HW215795   0.368   1.420   3.161  1.1246 -0.3034  1.6725
 1388SOL     OW15796   1.391   4.682   2.797  0.3591 -0.0915 -0.3441
 1388SOL    HW115797   1.318   4.634   2.837  0.9323 -2.9924 -2.7126
 1388SOL    HW215798   1.359   4.695   2.708 -0.1901 -2.9253 -0.5513
 1389SOL     OW15799   0.007   3.129  15.576  0.5627  0.8183  0.3358
 1389SOL    HW115800   0.014   3.224  15.586  1.7077  0.9838 -2.0975
 1389SOL    HW215801   0.006   3.094  15.666 -1.2459 -1.3284 -0.4940
 1390SOL     OW15802   3.241   3.710   7.678  0.2930 -0.1679 -0.1277
 1390SOL    HW115803   3.333   3.686   7.682 -0.1575 -1.7795  0.3512
 1390SOL    HW215804   3.207   3.639   7.624  0.5011 -0.9959  0.8415
 1391SOL     OW15805   0.223   2.891  14.731  0.1908  0.0636  0.1756
 1391SOL    HW115806   0.189   2.981  14.728  0.8299  0.2601 -0.9780
 1391SOL    HW215807   0.316   2.913  14.736  0.4003 -0.4302 -1.8604
 1392SOL     OW15808   1.342   2.170  10.167 -0.2461  0.0749 -0.5089
 1392SOL    HW115809   1.399   2.242  10.195 -0.8164  0.4559 -0.3186
 1392SOL    HW215810   1.416   2.112  10.151 -0.4192 -0.0080 -1.0123
 1393SOL     OW15811   1.644   1.508   9.835 -0.3542  0.2242 -0.1877
 1393SOL    HW115812   1.691   1.443   9.782 -1.3796 -0.3781 -0.3612
 1393SOL    HW215813   1.601   1.572   9.778 -0.6671  0.0285 -0.1718
 1394SOL     OW15814   4.309   1.284   7.993  0.0106 -0.4108  0.4393
 1394SOL    HW115815   4.263   1.227   8.054  1.3248 -1.8384  0.1030
 1394SOL    HW215816   4.365   1.221   7.946  0.3960  1.2690 -1.3623
 1395SOL     OW15817   1.115   1.309   8.306  0.4181 -0.7706 -0.0058
 1395SOL    HW115818   1.132   1.403   8.315 -1.2901 -0.5215  0.5658
 1395SOL    HW215819   1.134   1.283   8.396 -3.7194  1.7691  1.5720
 1396SOL     OW15820   1.629   4.187   6.819 -0.0438  0.0557  0.1635
 1396SOL    HW115821   1.610   4.162   6.728 -2.5257  1.7351  0.2218
 1396SOL    HW215822   1.598   4.277   6.832 -0.4473  0.2696 -2.1472
 1397SOL     OW15823   3.197   3.513   5.413 -0.0257  0.3577 -0.5666
 1397SOL    HW115824   3.252   3.590   5.425 -0.7764  0.7701  0.2180
 1397SOL    HW215825   3.246   3.447   5.463 -0.7011 -0.4351 -0.9394
 1398SOL     OW15826   0.604   3.713  12.766 -0.3341  0.4685 -0.2223
 1398SOL    HW115827   0.651   3.686  12.845 -0.9460 -1.6746 -0.5852
 1398SOL    HW215828   0.678   3.753  12.721  0.7908 -2.0334 -0.6287
 1399SOL     OW15829   2.312   4.081   5.826  0.2691  0.6850 -0.2377
 1399SOL    HW115830   2.280   4.060   5.738 -0.9496  0.3435  0.2855
 1399SOL    HW215831   2.397   4.122   5.806  1.0697  0.0628  1.8862
 1400SOL     OW15832   2.172   1.407   8.079 -0.1977 -0.1911  0.3090
 1400SOL    HW115833   2.138   1.318   8.068 -1.3675  0.0363  2.0738
 1400SOL    HW215834   2.189   1.435   7.989 -0.0042  1.6749  0.9198
 1401SOL     OW15835   4.464   3.373  17.079 -0.3060 -0.2238 -0.0570
 1401SOL    HW115836   4.480   3.445  17.018  2.9275 -0.5432  0.4050
 1401SOL    HW215837   4.508   3.401  17.159  1.6162  1.4932 -1.7338
 1402SOL     OW15838   2.630   2.822  10.264  0.7651 -0.2187 -0.4321
 1402SOL    HW115839   2.558   2.873  10.228  1.1812  0.3244 -0.5108
 1402SOL    HW215840   2.592   2.742  10.298  1.2465 -0.8423 -1.3758
 1403SOL     OW15841   1.728   2.121   4.619 -0.4864  0.6970  0.0276
 1403SOL    HW115842   1.719   2.047   4.679  0.5627 -0.9682 -1.8981
 1403SOL    HW215843   1.650   2.101   4.567 -0.0909 -0.6696 -0.0282
 1404SOL     OW15844   0.025   3.499   9.333 -0.1723 -0.1386  0.3952
 1404SOL    HW115845   0.002   3.485   9.241  1.8062 -2.6233  0.2761
 1404SOL    HW215846   0.075   3.419   9.353  1.6953  0.8042 -0.4522
 1405SOL     OW15847   2.134   2.102   6.774  0.0072 -0.1116 -0.2356
 1405SOL    HW115848   2.054   2.073   6.731  0.6191  0.1528 -1.5566
 1405SOL    HW215849   2.144   2.189   6.735 -0.3579 -0.7026 -1.6419
 1406SOL     OW15850   2.540   1.843   8.155 -0.0199 -0.1142  0.6678
 1406SOL    HW115851   2.448   1.863   8.175 -0.2693 -2.3945  1.8640
 1406SOL    HW215852   2.525   1.785   8.080  1.8301 -0.4607  0.5619
 1407SOL     OW15853   2.614   3.975  11.052  0.3820 -0.0898  0.0887
 1407SOL    HW115854   2.571   4.057  11.026 -0.7032 -0.8469 -0.5154
 1407SOL    HW215855   2.544   3.924  11.011  0.2386 -0.1545  0.4124
 1408SOL     OW15856   0.220   1.985   6.782  0.0642  0.1634  0.6821
 1408SOL    HW115857   0.290   2.048   6.800  2.2686 -1.9992 -0.2699
 1408SOL    HW215858   0.190   1.975   6.872  2.1067  0.9308  1.4519
 1409SOL     OW15859   3.371   3.893   9.621  0.4970  1.0002 -0.2725
 1409SOL    HW115860   3.320   3.966   9.656 -2.1401 -0.6599 -0.5964
 1409SOL    HW215861   3.341   3.888   9.530 -0.2041  2.1312 -0.1009
 1410SOL     OW15862   2.836   1.828   6.394  0.2420 -0.5687  0.3467
 1410SOL    HW115863   2.930   1.846   6.390  0.1484 -0.0090  0.5716
 1410SOL    HW215864   2.799   1.914   6.415 -1.0004 -1.1690  0.5979
 1411SOL     OW15865   1.956   3.561   5.086  0.9573 -0.3816  1.0361
 1411SOL    HW115866   1.918   3.478   5.116  0.4541 -0.8622 -0.9095
 1411SOL    HW215867   2.048   3.538   5.070  0.6099 -1.3808  0.4757
 1412SOL     OW15868   2.549   3.122  12.073  0.3354 -0.8061 -0.3545
 1412SOL    HW115869   2.643   3.128  12.087  0.4601 -2.0126 -0.6860
 1412SOL    HW215870   2.536   3.195  12.012 -0.5375 -0.4391  0.2701
 1413SOL     OW15871   1.791   0.198   3.144 -0.2534 -0.3013  0.1863
 1413SOL    HW115872   1.715   0.163   3.191 -0.0952 -0.7694  0.0937
 1413SOL    HW215873   1.772   0.292   3.147 -0.1745 -0.2889  0.3036
 1414SOL     OW15874   2.845   4.010   4.842 -0.1661  0.5438  0.0510
 1414SOL    HW115875   2.867   3.966   4.759 -5.1160 -0.0446 -0.9134
 1414SOL    HW215876   2.904   4.086   4.842  0.6490 -0.0972  0.3251
 1415SOL     OW15877   1.333   2.865   2.833  0.8561 -0.0092 -0.3160
 1415SOL    HW115878   1.419   2.874   2.873  0.1785  0.8210  0.9440
 1415SOL    HW215879   1.352   2.865   2.739 -0.2687  0.9440 -0.5558
 1416SOL     OW15880   0.011   3.914   8.891 -0.0379 -0.1094 -0.3624
 1416SOL    HW115881   0.049   3.870   8.815  0.3335  0.9947 -0.8265
 1416SOL    HW215882   0.086   3.918   8.951 -1.1975  2.5220  0.9170
 1417SOL     OW15883   3.679   3.189   2.947 -0.4531 -0.0157  0.5654
 1417SOL    HW115884   3.739   3.114   2.946 -0.2034  0.1819  1.3705
 1417SOL    HW215885   3.600   3.135   2.942 -0.3997  0.0963 -1.8971
 1418SOL     OW15886   3.103   0.649   6.015  0.7155 -0.1866  0.1679
 1418SOL    HW115887   3.139   0.726   5.971 -1.1976  0.6717  0.0650
 1418SOL    HW215888   3.014   0.645   5.980  0.4534 -0.6019  0.8981
 1419SOL     OW15889   1.218   0.226   5.432 -0.3554  0.0753 -0.2594
 1419SOL    HW115890   1.131   0.193   5.411 -0.2494 -0.5028  0.2242
 1419SOL    HW215891   1.220   0.221   5.527  1.2845  0.8299 -0.2565
 1420SOL     OW15892   2.756   0.024   9.800  0.1587 -0.1705 -0.2673
 1420SOL    HW115893   2.665   0.022   9.828 -0.2181  1.4405 -1.3801
 1420SOL    HW215894   2.770   4.674   9.768  1.8085  0.6422 -1.8297
 1421SOL     OW15895   2.135   0.034   2.990  0.0502  0.0983 -0.3272
 1421SOL    HW115896   2.217   4.732   2.964  0.3562  0.3750  0.2034
 1421SOL    HW215897   2.082   4.694   2.998 -0.8510  0.8877  1.6492
 1422SOL     OW15898   4.481   2.157  17.242  0.0072  0.2754  0.0132
 1422SOL    HW115899   4.458   2.091  17.176  0.2366  0.1714  0.0395
 1422SOL    HW215900   4.395   2.197  17.257 -0.1135  0.2262 -0.5566
 1423SOL     OW15901   4.451   1.057  13.155  0.0930 -0.4283 -0.2081
 1423SOL    HW115902   4.524   1.020  13.203  0.5744 -0.8979 -1.2998
 1423SOL    HW215903   4.432   1.141  13.197  0.9325  0.7044 -2.0884
 1424SOL     OW15904   4.053   2.690  17.501  0.1169 -0.6212  0.1757
 1424SOL    HW115905   3.973   2.731  17.468  0.3933  0.4960  0.9008
 1424SOL    HW215906   4.029   2.706  17.593 -1.6518 -1.8795 -0.0620
 1425SOL     OW15907   4.144   2.604   7.308  0.1402  0.2360 -0.0661
 1425SOL    HW115908   4.103   2.564   7.385  0.2988  0.2745  0.0376
 1425SOL    HW215909   4.158   2.689   7.349 -1.0640  0.7986 -0.8347
 1426SOL     OW15910   3.673   3.655   9.847  0.0027  0.4315 -0.4061
 1426SOL    HW115911   3.579   3.646   9.831 -0.0207 -0.5053  0.2466
 1426SOL    HW215912   3.676   3.749   9.863  3.4414  0.3984 -0.8006
 1427SOL     OW15913   2.132   3.675   6.966  0.4056 -0.4695  0.2171
 1427SOL    HW115914   2.202   3.611   6.949  0.4682  0.5467 -3.3392
 1427SOL    HW215915   2.052   3.624   6.954 -0.2931  0.2076  2.1485
 1428SOL     OW15916   4.235   2.749   7.079 -0.0210 -0.2648  0.1613
 1428SOL    HW115917   4.194   2.835   7.082  0.6049  0.0594 -0.6363
 1428SOL    HW215918   4.196   2.709   7.157  0.3418  1.2862  1.1435
 1429SOL     OW15919   1.684   1.160   2.625 -0.2594 -0.2507 -0.3986
 1429SOL    HW115920   1.695   1.159   2.721 -0.1537  2.0242 -0.3849
 1429SOL    HW215921   1.611   1.099   2.618 -0.8092  0.2809  0.6019
 1430SOL     OW15922   1.670   3.836  13.492 -0.5379  0.4300 -0.2127
 1430SOL    HW115923   1.670   3.889  13.572 -0.8178 -0.7775  0.5820
 1430SOL    HW215924   1.759   3.851  13.460  0.1807  1.8072  2.4414
 1431SOL     OW15925   4.176   4.491   9.217  0.1302  0.0126  0.2176
 1431SOL    HW115926   4.175   4.507   9.312 -0.0356 -0.8028  0.3514
 1431SOL    HW215927   4.141   4.402   9.210 -0.5590  0.3458 -0.4811
 1432SOL     OW15928   0.848   4.242   8.503 -0.4412 -0.2004 -0.4472
 1432SOL    HW115929   0.779   4.244   8.568  0.1923 -0.2383  0.2260
 1432SOL    HW215930   0.804   4.205   8.426 -1.9927 -0.0437  0.3768
 1433SOL     OW15931   2.855   0.532   3.710  0.4008 -0.4913 -0.0854
 1433SOL    HW115932   2.888   0.610   3.665 -0.6604 -0.7708 -1.3384
 1433SOL    HW215933   2.879   0.472   3.639  2.9628 -1.1970  1.3747
 1434SOL     OW15934   3.534   1.446   9.056 -0.6354 -0.5947  0.2532
 1434SOL    HW115935   3.486   1.513   9.103  1.5461  2.2369 -1.5405
 1434SOL    HW215936   3.473   1.430   8.985 -2.3956  2.3932  1.1166
 1435SOL     OW15937   3.003   1.781   4.023  0.1495 -1.0131 -0.6123
 1435SOL    HW115938   3.045   1.732   3.952  2.1482 -0.2058 -0.0033
 1435SOL    HW215939   3.003   1.870   3.987  1.1866 -0.3656  1.0135
 1436SOL     OW15940   3.568   2.951   4.199 -0.0154  0.4427  0.6587
 1436SOL    HW115941   3.601   2.947   4.109  0.2790  1.3440  0.7302
 1436SOL    HW215942   3.614   3.029   4.228 -0.9547  0.3142  2.4538
 1437SOL     OW15943   3.575   3.930   5.582 -0.1236  0.2390 -0.1479
 1437SOL    HW115944   3.640   3.961   5.644  1.0645 -1.1070 -0.7287
 1437SOL    HW215945   3.501   3.916   5.641 -1.5286  0.6741 -1.8033
 1438SOL     OW15946   4.621   0.257   7.641 -0.3808 -0.0089 -0.1186
 1438SOL    HW115947   4.669   0.308   7.706 -0.0809 -1.8932  1.1197
 1438SOL    HW215948   4.561   0.212   7.700  0.8838 -2.2671 -0.5523
 1439SOL     OW15949   3.997   4.262   3.084 -0.2912  0.2742  0.0343
 1439SOL    HW115950   3.987   4.317   3.161  0.2960  1.2247 -0.5738
 1439SOL    HW215951   3.915   4.214   3.071 -1.5291  2.4922 -0.3514
 1440SOL     OW15952   4.123   0.726   7.247  0.0932 -0.4354 -0.6111
 1440SOL    HW115953   4.033   0.755   7.258 -0.1060 -0.8186 -1.2567
 1440SOL    HW215954   4.125   0.712   7.153 -1.0148  0.8823 -0.8333
 1441SOL     OW15955   2.080   3.003   5.837  0.7768  0.0700  0.3405
 1441SOL    HW115956   2.141   2.995   5.764  0.8106 -1.1097  0.5003
 1441SOL    HW215957   1.993   3.001   5.799  0.1929 -2.0564  1.7985
 1442SOL     OW15958   2.824   0.953   6.820  0.1086 -0.8209  0.4400
 1442SOL    HW115959   2.817   1.049   6.821 -1.7594 -0.9598 -0.1463
 1442SOL    HW215960   2.888   0.929   6.887  1.2944  1.6585  0.1941
 1443SOL     OW15961   0.267   4.263  10.978 -0.3300 -1.0396 -0.3268
 1443SOL    HW115962   0.317   4.181  10.978  0.0473 -0.8080  0.3693
 1443SOL    HW215963   0.268   4.296  11.068 -1.1081 -1.9096  0.0150
 1444SOL     OW15964   0.807   3.817   1.049  0.2449  0.2416  0.1659
 1444SOL    HW115965   0.805   3.735   0.999 -0.2458  0.3660 -0.0227
 1444SOL    HW215966   0.713   3.829   1.064 -0.1136 -1.5978 -0.5170
 1445SOL     OW15967   3.385   1.436   6.691  0.0456  0.3427  0.2845
 1445SOL    HW115968   3.299   1.461   6.725 -0.2350 -0.2719  0.0170
 1445SOL    HW215969   3.353   1.399   6.609  0.2235  3.0428 -0.9764
 1446SOL     OW15970   0.109   0.431   9.423 -0.3572  0.1850 -0.4168
 1446SOL    HW115971   0.034   0.458   9.370  0.0622 -2.2109 -2.2882
 1446SOL    HW215972   0.085   0.451   9.513 -2.6312  3.4714 -1.7781
 1447SOL     OW15973   1.400   1.931   1.029  0.6896  0.6660  0.1242
 1447SOL    HW115974   1.479   1.892   1.065 -0.7209 -1.7991  0.5588
 1447SOL    HW215975   1.375   1.984   1.105  0.9253  0.8145  0.0959
 1448SOL     OW15976   0.746   2.416   3.591 -0.3268  0.1255 -0.0739
 1448SOL    HW115977   0.774   2.362   3.665  2.3975  1.0699 -0.3930
 1448SOL    HW215978   0.773   2.503   3.620  1.6300 -0.6397  0.4118
 1449SOL     OW15979   0.123   2.021   5.270  0.2612 -0.0353  0.1256
 1449SOL    HW115980   0.089   1.969   5.196 -1.5501  2.1587 -0.5728
 1449SOL    HW215981   0.193   2.069   5.227 -0.4253 -1.7600 -2.9646
 1450SOL     OW15982   0.833   2.710   8.134  0.6728 -0.2607  0.3761
 1450SOL    HW115983   0.884   2.769   8.189 -1.8000 -0.6530  3.1296
 1450SOL    HW215984   0.753   2.759   8.116  0.8592  0.1427  0.6489
 1451SOL     OW15985   3.024   3.244   2.071 -0.6687  0.1304 -0.0693
 1451SOL    HW115986   2.974   3.322   2.095  0.1477  0.8674 -0.7629
 1451SOL    HW215987   3.047   3.207   2.156  1.1832  0.8768 -0.2605
 1452SOL     OW15988   1.605   2.538  14.030 -0.4670 -0.2365 -0.2513
 1452SOL    HW115989   1.701   2.533  14.029 -0.4204  0.5656  1.5380
 1452SOL    HW215990   1.591   2.443  14.027 -0.9434 -0.1075 -2.0703
 1453SOL     OW15991   4.014   1.715   9.069  0.5437  0.1525  0.1157
 1453SOL    HW115992   4.055   1.702   9.154 -0.9327  0.8612  0.9267
 1453SOL    HW215993   4.059   1.793   9.034  0.5050  0.1688  0.1020
 1454SOL     OW15994   1.734   4.323   9.675 -0.3689 -0.0887 -0.2046
 1454SOL    HW115995   1.793   4.362   9.740 -1.1179 -1.2480  1.1664
 1454SOL    HW215996   1.684   4.256   9.722  0.8300  0.3327  1.6952
 1455SOL     OW15997   0.564   3.860   4.485  0.1443  0.2421 -0.6121
 1455SOL    HW115998   0.500   3.803   4.528  0.0315 -0.0885 -1.2148
 1455SOL    HW215999   0.514   3.941   4.492 -0.2419  0.1408 -2.1142
 1456SOL     OW16000   4.382   0.071  13.035 -0.3871 -0.7560 -0.0308
 1456SOL    HW116001   4.321   0.141  13.014  0.3108 -0.2284 -0.2959
 1456SOL    HW216002   4.317   0.009  13.070 -0.0092 -1.0778  0.1037
 1457SOL     OW16003   1.162   1.738   4.710  0.6980  0.5845  0.1496
 1457SOL    HW116004   1.130   1.686   4.783  1.1921 -1.2926 -0.9906
 1457SOL    HW216005   1.216   1.796   4.765 -0.4766  0.6102  1.2854
 1458SOL     OW16006   2.275   3.868   8.376  0.2388  0.0218  0.1594
 1458SOL    HW116007   2.192   3.845   8.334  1.7574  0.0927 -2.8834
 1458SOL    HW216008   2.244   3.928   8.444 -2.3713  1.1848 -2.0541
 1459SOL     OW16009   1.069   0.235   4.965  0.4139 -0.0384  0.2208
 1459SOL    HW116010   1.164   0.246   4.968  0.6107 -1.8654  0.3097
 1459SOL    HW216011   1.058   0.154   5.013 -1.5676  1.2905  2.0203
 1460SOL     OW16012   0.504   0.279   8.938 -0.4788 -0.3504 -0.0526
 1460SOL    HW116013   0.579   0.302   8.993 -1.8623 -0.3002  1.8201
 1460SOL    HW216014   0.436   0.320   8.991 -0.7834  0.1931 -0.8628
 1461SOL     OW16015   2.066   2.495   7.458 -0.0415  0.4773 -0.3186
 1461SOL    HW116016   2.034   2.568   7.511  1.0456  0.5960  0.1586
 1461SOL    HW216017   2.077   2.537   7.372 -0.6316 -1.1383 -1.1822
 1462SOL     OW16018   1.722   1.425   8.106  0.0885  0.1365 -0.1986
 1462SOL    HW116019   1.654   1.483   8.138 -0.2033  0.5030 -1.4740
 1462SOL    HW216020   1.707   1.342   8.151 -0.7058  0.5159  0.2280
 1463SOL     OW16021   3.464   3.888   4.506 -0.3760 -0.5366  0.7023
 1463SOL    HW116022   3.370   3.877   4.491 -0.9234  0.9824  2.9529
 1463SOL    HW216023   3.466   3.939   4.587 -1.3567  1.6736 -0.6438
 1464SOL     OW16024   2.595   1.611   0.729  0.1851  0.1299 -0.2952
 1464SOL    HW116025   2.542   1.670   0.782  0.7784  0.1815  0.2413
 1464SOL    HW216026   2.680   1.648   0.754 -1.0898  2.8854 -0.0546
 1465SOL     OW16027   1.493   2.907   8.288 -0.0664  0.0557 -0.7019
 1465SOL    HW116028   1.504   2.887   8.381 -3.5868  0.0309 -0.3023
 1465SOL    HW216029   1.543   2.834   8.250 -1.7034 -0.4910 -1.7753
 1466SOL     OW16030   0.196   3.037   8.175 -0.2416 -0.1959  0.0639
 1466SOL    HW116031   0.122   2.995   8.219  0.7458 -2.7542 -0.7100
 1466SOL    HW216032   0.154   3.074   8.097 -1.7356 -2.1502 -0.0665
 1467SOL     OW16033   4.703   4.352  12.590  0.2415  0.8005 -0.3090
 1467SOL    HW116034   4.657   4.372  12.508 -0.5408  1.3139  0.2492
 1467SOL    HW216035   4.672   4.429  12.638  1.6336  2.1031 -1.4936
 1468SOL     OW16036   2.567   2.127   2.501  0.2836  0.0057  0.2693
 1468SOL    HW116037   2.661   2.109   2.511  0.1855  0.5581  2.2053
 1468SOL    HW216038   2.535   2.085   2.581 -0.9983 -0.0738 -0.2864
 1469SOL     OW16039   3.727   2.190   7.614 -0.0403  0.5821 -0.2018
 1469SOL    HW116040   3.676   2.271   7.625  0.0101  0.2502  2.5908
 1469SOL    HW216041   3.776   2.196   7.696 -2.9827 -0.6097  1.6580
 1470SOL     OW16042   1.919   4.193   1.966 -0.5254 -0.1926  0.6075
 1470SOL    HW116043   1.944   4.113   2.013 -1.0655  0.5598  2.1977
 1470SOL    HW216044   1.845   4.151   1.922 -1.0831 -0.5310  1.8615
 1471SOL     OW16045   0.059   0.177   7.901 -0.2612 -0.1089  0.1890
 1471SOL    HW116046   0.128   0.113   7.885 -0.7493 -0.3618 -0.8819
 1471SOL    HW216047   0.102   0.230   7.969  0.6235 -0.5824  0.0111
 1472SOL     OW16048   3.977   3.004   2.413  0.1403 -0.2101  0.0484
 1472SOL    HW116049   4.029   2.926   2.394 -0.1551 -0.2806 -0.4594
 1472SOL    HW216050   3.983   3.041   2.325 -1.9214  1.9247  0.7905
 1473SOL     OW16051   2.983   0.881  13.313 -0.1711 -0.1727 -0.1115
 1473SOL    HW116052   3.068   0.837  13.314 -0.9730 -1.7661 -1.7252
 1473SOL    HW216053   2.969   0.898  13.406  0.3967 -2.3487  0.3687
 1474SOL     OW16054   2.120   1.334   0.063  0.8243  0.9361  0.2338
 1474SOL    HW116055   2.061   1.403   0.033 -1.0143 -0.2896  1.0573
 1474SOL    HW216056   2.105   1.338   0.157 -1.6804  1.1418 -0.1899
 1475SOL     OW16057   2.340   4.438   8.092  0.1968  0.1550 -0.1713
 1475SOL    HW116058   2.375   4.394   8.014  1.5919  1.5302 -0.3347
 1475SOL    HW216059   2.391   4.518   8.077 -0.1750  0.3175 -0.5794
 1476SOL     OW16060   2.204   0.213   6.621 -0.4700 -0.4963 -0.3732
 1476SOL    HW116061   2.292   0.244   6.598  0.1771 -0.3295  2.2885
 1476SOL    HW216062   2.166   0.290   6.664  0.2039  0.2413 -1.0838
 1477SOL     OW16063   1.385   3.796   8.298  0.5461 -0.9470 -0.8306
 1477SOL    HW116064   1.464   3.804   8.351 -0.5750  2.4110  0.3313
 1477SOL    HW216065   1.385   3.700   8.289 -0.2080 -0.8845 -1.5324
 1478SOL     OW16066   0.226   2.796   3.814  0.4636 -0.6273  0.5307
 1478SOL    HW116067   0.206   2.703   3.814 -1.5787 -0.1824 -0.2399
 1478SOL    HW216068   0.271   2.825   3.893  2.0629 -0.7376 -0.3291
 1479SOL     OW16069   4.628   2.230  17.454 -0.0124  0.0080 -0.4365
 1479SOL    HW116070   4.581   2.212  17.372  0.6306 -0.5739 -0.6752
 1479SOL    HW216071   4.653   2.147  17.495 -1.4522  0.8705  2.1911
 1480SOL     OW16072   2.578   0.368   9.510 -0.2297 -0.2157 -0.6463
 1480SOL    HW116073   2.504   0.323   9.551 -1.0884  0.2348 -1.6801
 1480SOL    HW216074   2.632   0.291   9.495 -1.1870 -0.5942 -2.2084
 1481SOL     OW16075   0.736   4.147   6.448 -0.3067  0.2130 -0.1336
 1481SOL    HW116076   0.644   4.121   6.455  0.2151 -1.0938  1.8839
 1481SOL    HW216077   0.747   4.179   6.538 -1.8653 -2.5562  1.0587
 1482SOL     OW16078   3.556   2.653   3.085  0.0077 -0.7244  0.1331
 1482SOL    HW116079   3.602   2.571   3.066 -0.3154 -0.9909  0.5043
 1482SOL    HW216080   3.547   2.695   2.999 -0.0343 -0.5617  0.2167
 1483SOL     OW16081   1.586   0.608   3.503 -0.2016 -0.3022 -0.5998
 1483SOL    HW116082   1.514   0.585   3.561 -1.2629  0.4191 -1.6394
 1483SOL    HW216083   1.654   0.549   3.534  0.3900  0.3762 -0.5876
 1484SOL     OW16084   4.628   2.249  14.545  0.0676 -0.1239 -0.3153
 1484SOL    HW116085   4.543   2.208  14.555  0.6317 -0.3061  3.7330
 1484SOL    HW216086   4.646   2.274  14.635 -0.0907 -1.1050 -0.0216
 1485SOL     OW16087   2.514   3.039  10.145  0.0998 -0.4830  0.1842
 1485SOL    HW116088   2.567   3.052  10.066  0.6924 -0.2634  0.6158
 1485SOL    HW216089   2.548   3.098  10.213  2.6515  0.6440 -2.0667
 1486SOL     OW16090   0.227   4.135  10.269 -0.5501  0.7604 -0.3195
 1486SOL    HW116091   0.210   4.108  10.178 -0.2789  1.0726 -0.4641
 1486SOL    HW216092   0.254   4.225  10.249  0.0759  0.4738 -0.7676
 1487SOL     OW16093   1.800   0.006   8.827 -0.0419 -0.1565 -0.1592
 1487SOL    HW116094   1.725   4.705   8.872  0.4138  0.0882  0.8338
 1487SOL    HW216095   1.874   4.684   8.823 -0.3509 -0.5058 -0.4436
 1488SOL     OW16096   3.378   4.416   5.650 -0.2191  0.3106  0.0154
 1488SOL    HW116097   3.415   4.380   5.730  2.9605  0.8834 -1.1863
 1488SOL    HW216098   3.339   4.485   5.703  1.5376  1.2563  0.0912
 1489SOL     OW16099   0.990   1.575   4.563 -0.7803  0.1390 -0.9903
 1489SOL    HW116100   1.060   1.637   4.585 -0.0870 -0.3503 -1.8469
 1489SOL    HW216101   0.934   1.594   4.638 -1.3371 -2.5036 -0.7403
 1490SOL     OW16102   2.068   4.158   0.915 -0.5461 -0.3070 -0.1607
 1490SOL    HW116103   2.163   4.154   0.932  0.0011 -0.2211 -3.1225
 1490SOL    HW216104   2.054   4.248   0.942 -0.9989 -1.0418  2.0615
 1491SOL     OW16105   4.363   3.561   8.073 -0.4438  0.4081  0.4651
 1491SOL    HW116106   4.396   3.560   8.162 -0.9297  0.4895  0.6494
 1491SOL    HW216107   4.432   3.613   8.031 -0.0839 -1.6203 -1.4939
 1492SOL     OW16108   3.267   0.526   6.660 -0.3156  0.3933  0.3667
 1492SOL    HW116109   3.230   0.563   6.580  0.8179 -1.0451 -0.8342
 1492SOL    HW216110   3.190   0.480   6.692  0.7873 -0.3124  2.0173
 1493SOL     OW16111   0.918   1.382  12.179 -0.2203 -0.2010  0.0098
 1493SOL    HW116112   0.856   1.362  12.249 -1.6160  1.2973 -0.8087
 1493SOL    HW216113   0.895   1.470  12.152 -1.2923  0.3048  2.5942
 1494SOL     OW16114   3.026   2.159  14.212 -0.3026 -0.4543  0.1961
 1494SOL    HW116115   2.994   2.249  14.210  0.0278 -0.4102 -2.3367
 1494SOL    HW216116   2.956   2.109  14.169 -0.7852  0.4337 -0.0363
 1495SOL     OW16117   0.521   1.212   7.534  0.4264  0.1225  0.4878
 1495SOL    HW116118   0.556   1.124   7.541  0.0912 -0.1352 -0.9945
 1495SOL    HW216119   0.453   1.202   7.467  1.3350  1.9999 -0.7487
 1496SOL     OW16120   2.969   2.213   3.654  0.2528 -0.2179  0.1031
 1496SOL    HW116121   2.906   2.196   3.583 -0.2660  0.7709  0.3264
 1496SOL    HW216122   3.014   2.293   3.629  1.4964 -0.1560  2.6437
 1497SOL     OW16123   4.523   3.676  11.642  0.1821 -0.4651  0.1376
 1497SOL    HW116124   4.562   3.761  11.663  1.3345 -0.9931  0.1252
 1497SOL    HW216125   4.548   3.620  11.715 -2.1199  1.2385  2.2133
 1498SOL     OW16126   3.000   3.537  15.850 -0.1691 -0.5140 -0.4676
 1498SOL    HW116127   3.005   3.453  15.894  2.6262 -0.6216 -0.9941
 1498SOL    HW216128   2.906   3.550  15.833 -0.7304  0.6836  3.6025
 1499SOL     OW16129   1.958   1.802   1.152  0.1712 -0.2034 -0.2164
 1499SOL    HW116130   1.999   1.868   1.208  1.0727  1.0929 -2.3877
 1499SOL    HW216131   1.992   1.718   1.182 -0.2659 -0.2721  0.0803
 1500SOL     OW16132   4.052   3.242   8.386  0.1029  0.2470  0.4721
 1500SOL    HW116133   4.057   3.205   8.474 -0.4107 -0.2392  0.3006
 1500SOL    HW216134   4.113   3.315   8.391  0.9663 -0.1571 -3.8879
 1501SOL     OW16135   0.971   3.321   8.907 -0.3412  0.3768 -0.7145
 1501SOL    HW116136   0.998   3.352   8.820  1.2835  0.1543 -0.2715
 1501SOL    HW216137   0.876   3.337   8.901 -0.9434 -2.7269  0.4656
 1502SOL     OW16138   1.532   1.196  16.183 -0.3842 -0.4526 -0.2169
 1502SOL    HW116139   1.471   1.130  16.152 -2.4728  0.4933  1.8711
 1502SOL    HW216140   1.564   1.234  16.101 -1.6148  0.3794 -0.3070
 1503SOL     OW16141   4.057   2.633   3.484  0.3816  0.1602  0.1304
 1503SOL    HW116142   4.131   2.580   3.512  2.1267  1.7653 -1.3746
 1503SOL    HW216143   4.074   2.712   3.535 -1.7389  0.6012  0.1625
 1504SOL     OW16144   0.098   1.176  10.117 -0.6002 -0.1063 -0.0693
 1504SOL    HW116145   0.154   1.137  10.184  1.4015 -1.2373 -2.4102
 1504SOL    HW216146   0.038   1.220  10.177  1.5286  1.3571  0.9660
 1505SOL     OW16147   2.426   3.280   7.780  0.1045  0.1333  0.1693
 1505SOL    HW116148   2.346   3.321   7.811 -0.5740 -2.7450  2.2676
 1505SOL    HW216149   2.492   3.343   7.808 -0.6506 -0.1125  2.4524
 1506SOL     OW16150   1.045   3.871   2.924 -0.0659  0.0815  0.0047
 1506SOL    HW116151   1.057   3.777   2.912 -2.4712 -0.3796  1.3168
 1506SOL    HW216152   0.994   3.899   2.848  1.5198  2.3331 -0.2433
 1507SOL     OW16153   3.249   2.146  17.330 -0.4193 -0.0256 -0.5041
 1507SOL    HW116154   3.237   2.165  17.423  1.7870 -2.0406  0.1782
 1507SOL    HW216155   3.345   2.153  17.324 -0.1607 -3.1352  0.2551
 1508SOL     OW16156   1.879   1.434   6.770  0.3684  0.7438 -0.0467
 1508SOL    HW116157   1.940   1.451   6.699  2.0210  0.7939  1.3733
 1508SOL    HW216158   1.798   1.408   6.725  0.5268  0.0701  0.0590
 1509SOL     OW16159   1.892   4.719  15.444  0.2561  0.5357 -0.2746
 1509SOL    HW116160   1.911   0.030  15.523 -0.7724 -0.7109  0.7535
 1509SOL    HW216161   1.982   4.705  15.414  0.1548 -1.4221  0.3628
 1510SOL     OW16162   4.164   0.227   3.172  0.5433 -0.0483 -0.0861
 1510SOL    HW116163   4.159   0.135   3.145  0.6404  0.3346 -1.3887
 1510SOL    HW216164   4.070   0.240   3.179  0.4165 -1.9998  1.9433
 1511SOL     OW16165   2.797   2.142  15.170 -0.7008 -0.0545  0.0404
 1511SOL    HW116166   2.794   2.238  15.169  0.1375 -0.0306 -0.9184
 1511SOL    HW216167   2.856   2.136  15.245 -0.1733  0.5142 -0.3301
 1512SOL     OW16168   2.197   3.735  16.581  0.2964 -0.0537  0.0596
 1512SOL    HW116169   2.250   3.813  16.598 -0.5435  0.2686  1.2196
 1512SOL    HW216170   2.168   3.756  16.492  0.6274  1.2930  0.2566
 1513SOL     OW16171   4.024   0.825  13.154 -0.8564  0.0758  0.0371
 1513SOL    HW116172   4.117   0.819  13.176 -1.0216  2.0471  1.1797
 1513SOL    HW216173   4.016   0.899  13.095 -2.2249 -0.6681 -0.7100
 1514SOL     OW16174   0.204   4.123   9.462 -0.2518  0.4851  0.5503
 1514SOL    HW116175   0.198   4.193   9.398 -2.6376  0.3048  0.5672
 1514SOL    HW216176   0.132   4.066   9.436  0.1083  1.4387 -2.4989
 1515SOL     OW16177   4.377   1.553   2.897 -0.3212  0.1741 -0.3659
 1515SOL    HW116178   4.401   1.640   2.929  1.6410 -0.9503  1.2057
 1515SOL    HW216179   4.305   1.573   2.837 -1.0489 -0.4935  0.2891
 1516SOL     OW16180   3.089   3.614   9.475  0.0012  0.2603  0.4981
 1516SOL    HW116181   3.020   3.596   9.411  1.7375 -0.5072 -1.1798
 1516SOL    HW216182   3.119   3.696   9.437 -1.2863  0.6842  0.4046
 1517SOL     OW16183   1.904   2.792   0.699 -0.1451  0.2144  0.2438
 1517SOL    HW116184   1.813   2.774   0.676  0.4502  0.3720 -2.2540
 1517SOL    HW216185   1.877   2.858   0.762 -0.2170 -1.1420  1.6303
 1518SOL     OW16186   2.270   4.222   2.772  0.1704  0.3440  0.3288
 1518SOL    HW116187   2.306   4.233   2.683 -0.6235 -1.8860 -0.2760
 1518SOL    HW216188   2.176   4.205   2.768 -0.1863  2.0103  1.5646
 1519SOL     OW16189   0.686   3.314   2.826 -0.1694  0.0752  0.4633
 1519SOL    HW116190   0.628   3.351   2.759 -0.7357  0.2336  1.0407
 1519SOL    HW216191   0.670   3.363   2.906  1.8555  2.2942 -0.4888
 1520SOL     OW16192   2.268   2.012   7.028  0.2698  0.3202  0.0447
 1520SOL    HW116193   2.238   1.934   6.981  2.0537 -0.0962 -0.3758
 1520SOL    HW216194   2.227   2.080   6.975 -2.3314 -2.4819 -1.5912
 1521SOL     OW16195   0.581   1.929   3.695  0.3676 -0.1534 -0.3969
 1521SOL    HW116196   0.668   1.893   3.677 -0.2615 -2.8415  1.9028
 1521SOL    HW216197   0.567   1.969   3.609 -1.1658  0.3560  0.0923
 1522SOL     OW16198   3.671   0.652  12.657  0.0156 -0.0658  0.6779
 1522SOL    HW116199   3.744   0.707  12.686 -0.6306  1.1144  0.0899
 1522SOL    HW216200   3.674   0.669  12.562 -2.1172  2.6396  1.1039
 1523SOL     OW16201   3.612   0.843   9.600 -0.1836  0.1864  0.4906
 1523SOL    HW116202   3.574   0.767   9.643  0.0307  0.5201  1.2809
 1523SOL    HW216203   3.617   0.812   9.510  1.4672  0.1598  0.5869
 1524SOL     OW16204   4.338   1.185   2.085  0.6888 -0.1645  0.2262
 1524SOL    HW116205   4.431   1.200   2.105  0.9792 -1.8511  0.1544
 1524SOL    HW216206   4.306   1.125   2.152 -0.3755  0.5686  0.3830
 1525SOL     OW16207   3.225   2.966   6.186  0.0696 -0.2126  0.2835
 1525SOL    HW116208   3.176   2.947   6.106  1.1021  0.2989 -0.4700
 1525SOL    HW216209   3.309   2.999   6.154  0.8788 -2.4749  0.0761
 1526SOL     OW16210   0.865   0.874  15.797  0.6454 -0.2149  0.3835
 1526SOL    HW116211   0.853   0.892  15.704  1.6644  0.7611  0.4394
 1526SOL    HW216212   0.947   0.921  15.810  0.4209  0.0661  0.7775
 1527SOL     OW16213   1.177   2.512   6.442  0.2903  1.1353 -0.0558
 1527SOL    HW116214   1.219   2.493   6.359 -0.2330  0.0230 -0.0674
 1527SOL    HW216215   1.091   2.543   6.412  0.2047  0.4439 -0.5191
 1528SOL     OW16216   4.595   0.353   9.737 -0.1532  0.1091  0.5469
 1528SOL    HW116217   4.564   0.350   9.647  0.1625  0.7016  0.4171
 1528SOL    HW216218   4.669   0.413   9.726  0.5060 -1.1342 -1.7146
 1529SOL     OW16219   3.757   4.632   5.013 -0.1502 -0.0925  0.2020
 1529SOL    HW116220   3.850   4.612   5.017 -0.2085 -0.1891  1.2431
 1529SOL    HW216221   3.749   4.702   4.949  2.6858 -1.1878 -1.3117
 1530SOL     OW16222   0.962   1.711  16.152 -0.2967 -1.0200 -0.0921
 1530SOL    HW116223   0.985   1.802  16.169 -0.1223 -0.9081 -0.9224
 1530SOL    HW216224   0.873   1.704  16.187 -0.3355 -0.3080 -0.0658
 1531SOL     OW16225   0.956   1.934  15.360 -0.4067  0.3708  0.1730
 1531SOL    HW116226   0.894   1.878  15.407 -0.8926 -0.3538 -1.3369
 1531SOL    HW216227   1.006   1.974  15.432 -1.1859  2.2070 -0.2987
 1532SOL     OW16228   0.538   4.116   6.149 -1.2043 -0.0819  0.0383
 1532SOL    HW116229   0.497   4.032   6.129  0.9337 -0.3582 -3.0194
 1532SOL    HW216230   0.536   4.113   6.245  0.7395 -0.7056  0.0459
 1533SOL     OW16231   3.741   3.369   0.444 -0.6211  0.2681  0.5596
 1533SOL    HW116232   3.765   3.289   0.491 -1.4138 -0.8270 -0.8831
 1533SOL    HW216233   3.676   3.335   0.381  0.8592  0.8447 -1.2834
 1534SOL     OW16234   3.346   4.010   4.033  0.2289  0.1626 -0.3429
 1534SOL    HW116235   3.378   3.996   4.122 -0.0345 -1.5977 -0.5335
 1534SOL    HW216236   3.396   3.953   3.975  0.7579  1.0767 -0.7867
 1535SOL     OW16237   1.627   4.184   7.717  0.3151  0.5091  0.2933
 1535SOL    HW116238   1.675   4.121   7.662  0.8855  1.9755 -0.8949
 1535SOL    HW216239   1.686   4.260   7.714 -0.2340  0.8594 -1.5005
 1536SOL     OW16240   0.320   3.073  14.278 -0.1048 -0.2636 -0.0199
 1536SOL    HW116241   0.367   3.086  14.195  0.4049  3.1093  0.8305
 1536SOL    HW216242   0.230   3.060  14.250 -0.3279  1.1012  0.0777
 1537SOL     OW16243   1.475   4.711   6.805 -0.1629  0.6750  0.0835
 1537SOL    HW116244   1.432   4.716   6.720  1.5635  2.7031 -0.6769
 1537SOL    HW216245   1.411   0.014   6.863 -1.2697 -1.6887  0.5702
 1538SOL     OW16246   2.901   2.765   9.487  0.0673 -0.7719  0.3286
 1538SOL    HW116247   2.947   2.683   9.506  1.7705  0.2094  0.4061
 1538SOL    HW216248   2.824   2.741   9.435 -1.0735 -0.0204  1.6871
 1539SOL     OW16249   2.067   2.432   4.052  0.0948 -0.2364 -0.6396
 1539SOL    HW116250   2.032   2.519   4.067  1.8745  0.5361 -0.9914
 1539SOL    HW216251   2.036   2.416   3.963 -2.3931 -2.3704  0.6261
 1540SOL     OW16252   1.633   2.847   1.196 -0.0694 -0.2540 -0.3586
 1540SOL    HW116253   1.686   2.844   1.117  0.4701  1.1329 -0.0372
 1540SOL    HW216254   1.543   2.826   1.170 -0.4370  1.6498 -0.5816
 1541SOL     OW16255   3.120   2.114   2.280 -0.2815  0.5497 -0.0849
 1541SOL    HW116256   3.068   2.039   2.252  0.2775 -0.3306  1.2050
 1541SOL    HW216257   3.056   2.183   2.292 -0.7638  0.0466  0.2375
 1542SOL     OW16258   1.736   3.529   8.117  0.1630  0.2916  0.0277
 1542SOL    HW116259   1.813   3.537   8.173  1.3792  0.6876 -1.6793
 1542SOL    HW216260   1.667   3.565   8.171 -0.1168  0.3130 -0.3438
 1543SOL     OW16261   4.719   2.530   3.726 -0.1934  0.0473 -0.8527
 1543SOL    HW116262   4.729   2.538   3.631 -1.9353 -0.3967 -1.0806
 1543SOL    HW216263   0.071   2.537   3.752 -1.0202  0.8223  1.8259
 1544SOL     OW16264   0.454   2.907  10.340  0.3189  0.5392  0.5926
 1544SOL    HW116265   0.404   2.825  10.347 -0.5974  1.1259  0.8209
 1544SOL    HW216266   0.384   2.956  10.298  0.6654  1.1623  0.7535
 1545SOL     OW16267   3.059   3.919   7.883  0.5479 -0.5896 -0.1149
 1545SOL    HW116268   3.080   3.826   7.894 -1.7079 -1.2155 -1.1546
 1545SOL    HW216269   3.022   3.943   7.968  2.1746 -0.4327  0.5525
 1546SOL     OW16270   2.312   1.862   7.912  0.2003  0.3864  0.1302
 1546SOL    HW116271   2.234   1.815   7.939 -0.6986  2.0245  0.4052
 1546SOL    HW216272   2.298   1.870   7.818  3.7610  0.1365 -0.4141
 1547SOL     OW16273   2.910   3.281   5.066  0.2489  0.0287 -0.1778
 1547SOL    HW116274   2.868   3.266   4.982 -1.9232  2.5316  0.4606
 1547SOL    HW216275   2.997   3.318   5.052 -0.1611  1.0007 -0.1534
 1548SOL     OW16276   2.512   2.059   7.140 -0.5524 -0.2245  0.3709
 1548SOL    HW116277   2.427   2.038   7.100 -1.0936  0.9998  0.8511
 1548SOL    HW216278   2.527   1.973   7.178 -2.2762 -1.3672 -1.5325
 1549SOL     OW16279   4.662   2.785  11.427 -0.4425 -0.7711  0.4446
 1549SOL    HW116280   4.705   2.747  11.351 -0.8443 -0.8786  0.2688
 1549SOL    HW216281   4.696   2.873  11.411  0.0887 -1.1165 -0.3242
 1550SOL     OW16282   4.509   2.601  13.855 -0.1687  0.6943  1.0981
 1550SOL    HW116283   4.547   2.566  13.936 -0.0334 -0.6838  0.4316
 1550SOL    HW216284   4.446   2.532  13.836 -0.6103  1.1157  1.0438
 1551SOL     OW16285   4.173   2.381   3.750  0.1039 -0.1436 -0.5636
 1551SOL    HW116286   4.205   2.362   3.838 -2.3271 -0.0305  0.3699
 1551SOL    HW216287   4.239   2.443   3.720 -0.8490  0.4463 -1.4358
 1552SOL     OW16288   0.130   3.991   5.780 -0.3004  0.1818  0.0814
 1552SOL    HW116289   0.163   4.051   5.713  0.4055  0.3949  0.6192
 1552SOL    HW216290   0.075   4.045   5.837 -0.3182  0.1973  0.0498
 1553SOL     OW16291   0.379   0.043   3.569  0.3764 -0.1499  0.0692
 1553SOL    HW116292   0.308   0.106   3.576  1.1870  0.7378  0.2773
 1553SOL    HW216293   0.451   0.080   3.620  0.1349  0.5556 -0.1033
 1554SOL     OW16294   3.588   2.243   1.423 -0.1881 -0.1338  0.3336
 1554SOL    HW116295   3.661   2.304   1.413  0.2823 -0.2305  2.9992
 1554SOL    HW216296   3.538   2.278   1.497 -0.2417 -0.9058  0.6621
 1555SOL     OW16297   1.573   3.108   2.493  0.2468 -0.1269 -0.2300
 1555SOL    HW116298   1.604   3.092   2.404 -0.0738 -0.7026 -0.2431
 1555SOL    HW216299   1.509   3.178   2.481  1.0722  0.5732 -0.4919
 1556SOL     OW16300   2.226   2.335   5.048 -0.0022 -0.2074 -0.3434
 1556SOL    HW116301   2.239   2.312   4.956 -2.1257  0.6562 -0.8636
 1556SOL    HW216302   2.262   2.424   5.055  2.4613 -1.2834  0.7660
 1557SOL     OW16303   1.621   0.742   2.636  0.0613  0.3859 -0.1292
 1557SOL    HW116304   1.693   0.735   2.573 -0.9229 -1.6533 -1.0096
 1557SOL    HW216305   1.584   0.826   2.610  1.2883  0.6955 -0.8634
 1558SOL     OW16306   3.348   3.587   8.737 -0.1284  0.1591  0.4532
 1558SOL    HW116307   3.406   3.593   8.662  0.0224 -1.4954  0.4330
 1558SOL    HW216308   3.412   3.557   8.802  0.8960  0.2896 -0.5029
 1559SOL     OW16309   0.711   2.937   3.993 -0.3359 -0.6057  0.0659
 1559SOL    HW116310   0.716   2.946   3.898 -1.1854 -1.8963 -0.0924
 1559SOL    HW216311   0.674   3.022   4.018  0.2607 -0.5837  0.8738
 1560SOL     OW16312   1.994   1.341   9.890 -0.8442 -0.2005 -0.5194
 1560SOL    HW116313   1.926   1.375   9.831 -0.9886  2.0153  0.9210
 1560SOL    HW216314   1.996   1.410   9.956 -0.0369  0.5032 -1.2716
 1561SOL     OW16315   4.384   0.143  17.457  0.4367 -0.4766  0.4280
 1561SOL    HW116316   4.309   0.198  17.433  0.6410  0.3999  1.7518
 1561SOL    HW216317   4.353   0.053  17.458  1.3049 -0.7841 -1.3006
 1562SOL     OW16318   3.995   2.046  17.676  0.1168 -0.3647 -0.2346
 1562SOL    HW116319   4.050   1.981  17.720  0.2959  0.0565  0.1666
 1562SOL    HW216320   4.043   2.119  17.715 -0.5323 -0.1789  0.2224
 1563SOL     OW16321   3.439   1.596  17.646 -0.1350 -0.1217 -0.7101
 1563SOL    HW116322   3.446   1.511  17.689  2.6153  0.7959  0.6974
 1563SOL    HW216323   3.531   1.622  17.635  0.6546 -1.6120  2.4429
 1564SOL     OW16324   0.538   4.351   4.100 -0.4709 -0.5614  0.2792
 1564SOL    HW116325   0.617   4.335   4.049  1.3297  1.3678  2.4432
 1564SOL    HW216326   0.566   4.324   4.188 -2.0944  0.9367  1.2640
 1565SOL     OW16327   3.256   2.461   4.689 -0.9338 -0.1453 -0.2095
 1565SOL    HW116328   3.269   2.461   4.594  0.6902  0.0232  0.0275
 1565SOL    HW216329   3.179   2.518   4.692 -0.5603  0.2144  2.0751
 1566SOL     OW16330   1.267   1.904  10.256  0.2180  0.0306  0.9412
 1566SOL    HW116331   1.357   1.895  10.287 -0.1854  1.3551  2.5051
 1566SOL    HW216332   1.269   1.999  10.241 -1.4471 -0.2142 -0.8179
 1567SOL     OW16333   3.889   1.097  14.657  0.5939 -0.1467 -0.4584
 1567SOL    HW116334   3.829   1.055  14.596  2.8126  0.4939 -3.1290
 1567SOL    HW216335   3.853   1.184  14.641 -0.4799 -0.3810  0.6936
 1568SOL     OW16336   0.589   0.018   6.891  0.0415  0.3108 -0.3345
 1568SOL    HW116337   0.671   0.032   6.938 -0.3653  0.6793  0.2787
 1568SOL    HW216338   0.604   4.687   6.828 -0.0168  0.4226 -0.4729
 1569SOL     OW16339   4.334   3.728   4.183 -0.7126  0.0600 -0.1703
 1569SOL    HW116340   4.337   3.656   4.120  1.0558  0.7886 -0.9348
 1569SOL    HW216341   4.243   3.749   4.202  0.2225  0.6904  3.7020
 1570SOL     OW16342   0.605   2.686  12.902  0.4044  0.0480  0.2149
 1570SOL    HW116343   0.533   2.747  12.918 -0.8942 -1.8493  1.7110
 1570SOL    HW216344   0.562   2.601  12.896  1.0135 -0.2152 -0.3556
 1571SOL     OW16345   3.838   3.922   1.837  0.2355 -0.9070  0.3551
 1571SOL    HW116346   3.891   3.857   1.883  1.8240  1.2880  1.6544
 1571SOL    HW216347   3.901   3.980   1.794 -3.0195  2.0089 -0.5150
 1572SOL     OW16348   3.245   3.023  17.365  0.3077 -0.3647 -0.2900
 1572SOL    HW116349   3.175   3.060  17.419  1.2088  0.8855  0.0326
 1572SOL    HW216350   3.310   3.093  17.372 -0.4013  0.2467  0.1920
 1573SOL     OW16351   2.371   0.010   2.035  0.8768  0.1360 -0.1517
 1573SOL    HW116352   2.330   0.069   2.098  2.4178  2.0074 -0.8737
 1573SOL    HW216353   2.340   4.662   2.060 -0.8212  1.2212  1.4870
 1574SOL     OW16354   0.181   0.793  11.037  1.0411  0.2926 -0.4735
 1574SOL    HW116355   0.094   0.821  11.065  0.5426  0.8887 -2.6615
 1574SOL    HW216356   0.213   0.879  11.009 -0.3878  0.8119 -0.4934
 1575SOL     OW16357   4.045   3.749   4.881 -0.3446  0.3919 -0.4048
 1575SOL    HW116358   4.032   3.688   4.954 -3.9604 -0.4416 -1.7159
 1575SOL    HW216359   4.132   3.782   4.902 -0.8911  1.2582  0.5077
 1576SOL     OW16360   3.063   2.847   4.036 -0.1360 -0.3169 -0.3986
 1576SOL    HW116361   3.080   2.798   3.956  0.7842  1.7761 -1.5000
 1576SOL    HW216362   3.156   2.854   4.055 -0.6903 -1.4252  2.6826
 1577SOL     OW16363   2.588   2.182  14.541  0.0575  0.2401 -0.3477
 1577SOL    HW116364   2.636   2.214  14.464  0.2983 -1.8373 -1.0652
 1577SOL    HW216365   2.647   2.117  14.579  1.2710  1.4341 -0.1502
 1578SOL     OW16366   0.732   2.370   6.313  0.2487 -0.0039  0.3701
 1578SOL    HW116367   0.655   2.387   6.258  0.2970 -0.5342  0.1446
 1578SOL    HW216368   0.695   2.395   6.398 -1.5225  0.3033 -0.4951
 1579SOL     OW16369   0.280   2.420  14.317  0.1457  0.1681  0.0017
 1579SOL    HW116370   0.319   2.334  14.333 -0.8530 -0.4445 -0.9025
 1579SOL    HW216371   0.222   2.431  14.393 -0.6387 -5.7093  0.2526
 1580SOL     OW16372   0.391   2.886  14.473  0.0340  0.5793 -0.3101
 1580SOL    HW116373   0.312   2.833  14.462  1.1047 -1.4784  1.7309
 1580SOL    HW216374   0.375   2.950  14.404 -0.1018 -0.9250 -1.6772
 1581SOL     OW16375   4.396   0.828   6.818 -0.4239 -0.1339  0.4003
 1581SOL    HW116376   4.354   0.819   6.733  1.1585  4.3571 -0.8915
 1581SOL    HW216377   4.325   0.855   6.876 -2.2692 -2.9930 -0.5280
 1582SOL     OW16378   3.577   4.558  12.530 -0.0493 -0.1980 -0.0664
 1582SOL    HW116379   3.564   4.488  12.594  1.5492 -0.2054  0.2475
 1582SOL    HW216380   3.610   4.622  12.594  0.1621  0.0981 -0.4684
 1583SOL     OW16381   3.688   4.108   7.653 -0.1899 -0.1042 -0.0720
 1583SOL    HW116382   3.753   4.144   7.593 -2.4707  0.1592 -2.3785
 1583SOL    HW216383   3.727   4.022   7.670 -1.6191 -0.6347  0.5446
 1584SOL     OW16384   0.180   1.761   2.576  0.1434  0.0574  0.0405
 1584SOL    HW116385   0.172   1.668   2.600 -1.4513  0.3844  0.7940
 1584SOL    HW216386   0.127   1.756   2.496 -1.6491  4.0919  0.9915
 1585SOL     OW16387   2.646   0.464   0.557  0.1141  0.9381 -0.3470
 1585SOL    HW116388   2.732   0.457   0.598  0.3784 -1.1336 -1.2232
 1585SOL    HW216389   2.649   0.395   0.491 -0.1983  1.1021 -0.5330
 1586SOL     OW16390   4.076   3.420   4.182 -0.8501 -0.2086  0.4072
 1586SOL    HW116391   4.165   3.390   4.201 -0.6881 -0.2470 -0.3910
 1586SOL    HW216392   4.097   3.511   4.161  0.0722 -0.3927  0.5421
 1587SOL     OW16393   0.209   3.254   7.261 -0.5222 -0.7470 -0.0096
 1587SOL    HW116394   0.297   3.218   7.247  0.1629  0.6766  0.6539
 1587SOL    HW216395   0.178   3.200   7.334  1.8150 -1.0000  0.7819
 1588SOL     OW16396   1.115   2.307   3.552  0.3230 -0.4577 -0.3678
 1588SOL    HW116397   1.070   2.302   3.467 -1.2099  0.7951  0.3594
 1588SOL    HW216398   1.197   2.268   3.522 -0.2096 -1.2935 -0.7604
 1589SOL     OW16399   1.993   2.863  15.423  0.3151  0.0520 -0.3912
 1589SOL    HW116400   2.003   2.895  15.334 -1.3628  0.4970 -0.4204
 1589SOL    HW216401   1.906   2.826  15.405  1.5940 -2.1710 -1.9511
 1590SOL     OW16402   0.111   0.262   2.927  0.0020  0.5528  0.0267
 1590SOL    HW116403   0.184   0.323   2.936  0.3028  0.2373 -0.2901
 1590SOL    HW216404   0.074   0.260   3.015 -1.1300 -0.1761 -0.4521
 1591SOL     OW16405   0.126   0.969  11.725  0.1227 -0.2716  0.6321
 1591SOL    HW116406   0.089   0.896  11.775  2.2910 -2.4415 -0.9251
 1591SOL    HW216407   0.081   1.045  11.762  1.8133  1.2314 -0.3976
 1592SOL     OW16408   0.249   3.574   4.892  0.1280 -0.6785 -0.5341
 1592SOL    HW116409   0.155   3.572   4.911  0.3609  2.0368  0.9947
 1592SOL    HW216410   0.281   3.503   4.947  0.7948 -1.4141 -1.8755
 1593SOL     OW16411   2.672   0.482   9.097  0.7024 -0.1851 -0.3140
 1593SOL    HW116412   2.703   0.404   9.051 -2.4793  1.2497 -4.9315
 1593SOL    HW216413   2.604   0.448   9.155  0.3556  0.7280 -0.1895
 1594SOL     OW16414   3.192   2.570  17.212  0.1300  0.4575  0.2254
 1594SOL    HW116415   3.285   2.547  17.204  0.6893  1.4636  3.7911
 1594SOL    HW216416   3.165   2.564  17.121  0.9492 -1.5679  0.1237
 1595SOL     OW16417   4.323   1.356   5.975  0.4030  0.1635 -0.0158
 1595SOL    HW116418   4.264   1.432   5.975  1.5996  1.1155 -1.3184
 1595SOL    HW216419   4.344   1.346   6.068 -0.0810  0.7215  0.1539
 1596SOL     OW16420   0.674   1.345   9.288  0.2136  0.1576  0.8241
 1596SOL    HW116421   0.609   1.393   9.338 -0.3524  0.8834 -0.6095
 1596SOL    HW216422   0.621   1.286   9.234  0.1938  0.0741  0.9337
 1597SOL     OW16423   0.522   1.838   6.922  0.2089 -0.2338 -0.2488
 1597SOL    HW116424   0.602   1.798   6.957 -1.7747 -3.3755  0.6233
 1597SOL    HW216425   0.458   1.824   6.991  0.0476 -1.8806 -0.7417
 1598SOL     OW16426   2.618   1.975   7.723 -0.2635 -0.6443  0.4679
 1598SOL    HW116427   2.627   2.027   7.803 -3.7342  1.2023 -0.3353
 1598SOL    HW216428   2.654   1.893   7.757 -0.7971 -0.6522  1.0195
 1599SOL     OW16429   0.851   2.724  10.973 -0.4913  0.1764 -0.1289
 1599SOL    HW116430   0.830   2.762  10.888  2.9661  1.3830 -0.4678
 1599SOL    HW216431   0.905   2.651  10.942 -0.5236  0.2754 -0.4140
 1600SOL     OW16432   4.022   0.687   4.805  0.2077  0.0091 -0.1310
 1600SOL    HW116433   3.975   0.770   4.814 -0.1859  0.0503 -2.4532
 1600SOL    HW216434   3.958   0.625   4.841  1.5893  1.5514  4.9267
 1601SOL     OW16435   2.137   3.147   1.279  0.3735  0.5395  0.4324
 1601SOL    HW116436   2.084   3.115   1.352 -0.3609  2.7999  0.8877
 1601SOL    HW216437   2.118   3.239   1.293  1.4638  0.5491  1.8501
 1602SOL     OW16438   3.763   0.094   4.348 -0.2353 -0.4776 -0.1297
 1602SOL    HW116439   3.702   0.037   4.302  0.6660 -0.1860 -1.6584
 1602SOL    HW216440   3.713   0.096   4.430  0.1556 -1.7500  0.1394
 1603SOL     OW16441   0.305   4.248   4.528 -0.0549 -0.0317  0.1298
 1603SOL    HW116442   0.346   4.243   4.614 -2.5109  1.6896  1.4035
 1603SOL    HW216443   0.284   4.155   4.520 -1.9558  0.3927  0.0508
 1604SOL     OW16444   3.541   3.913   6.089  0.1579  0.6437  0.3067
 1604SOL    HW116445   3.534   3.989   6.031 -0.9147 -0.1503 -0.5866
 1604SOL    HW216446   3.594   3.954   6.158  0.1292  1.1406  0.0316
 1605SOL     OW16447   0.161   2.567  14.109  0.0864 -0.2601  0.3930
 1605SOL    HW116448   0.224   2.553  14.039 -0.8387  0.0589 -0.5136
 1605SOL    HW216449   0.200   2.503  14.168 -1.5162 -0.4837  1.2192
 1606SOL     OW16450   0.199   0.092   9.261  0.0841 -0.0918  0.3261
 1606SOL    HW116451   0.192   0.165   9.199  1.0463  1.2525  1.8263
 1606SOL    HW216452   0.207   0.137   9.345  0.6908 -0.3961  0.4276
 1607SOL     OW16453   1.435   3.043  10.447 -0.0609 -0.1482  0.1279
 1607SOL    HW116454   1.483   3.014  10.525 -2.4212 -1.2173  1.1716
 1607SOL    HW216455   1.495   3.097  10.395 -1.1361  1.4485  0.5240
 1608SOL     OW16456   0.345   3.785   0.050 -0.2658 -0.5249  1.0264
 1608SOL    HW116457   0.374   3.761   0.138 -0.4189 -0.2645  1.1459
 1608SOL    HW216458   0.264   3.831   0.074  0.8635  0.9130  2.0391
 1609SOL     OW16459   0.219   0.122   7.315 -0.0007 -0.1923  0.3271
 1609SOL    HW116460   0.186   0.191   7.373  1.9358 -1.5149  3.0582
 1609SOL    HW216461   0.186   0.154   7.232 -0.5234 -0.5698  0.3888
 1610SOL     OW16462   4.628   3.273   3.984  0.4207 -0.1277 -0.3019
 1610SOL    HW116463   4.595   3.187   4.011  0.0348  0.5404  1.3744
 1610SOL    HW216464   4.671   3.248   3.902  1.4207  2.1160 -0.4614
 1611SOL     OW16465   2.702   0.122  16.336  0.2795  0.5101  0.3019
 1611SOL    HW116466   2.747   0.037  16.339  0.2945  0.5386  0.9132
 1611SOL    HW216467   2.700   0.140  16.242  0.7358 -0.3598  0.1200
 1612SOL     OW16468   4.112   2.209   2.083  0.0676 -0.4612 -0.1464
 1612SOL    HW116469   4.121   2.241   2.173 -0.7340 -1.8453  0.4267
 1612SOL    HW216470   4.170   2.259   2.025 -1.3519  1.2483 -0.0998
 1613SOL     OW16471   0.558   3.040   5.395 -0.6178 -0.0458 -0.2487
 1613SOL    HW116472   0.526   3.116   5.443  0.8365  0.2310  0.2674
 1613SOL    HW216473   0.574   3.080   5.310  0.1369  0.1290 -0.0201
 1614SOL     OW16474   0.833   0.051   5.364  0.2479 -0.1722  0.1567
 1614SOL    HW116475   0.820   0.075   5.455 -1.6219  0.2420 -0.2268
 1614SOL    HW216476   0.750   0.091   5.340  0.8312  1.0634  0.1846
 1615SOL     OW16477   4.512   4.562   9.099 -0.1161 -0.0289  0.0546
 1615SOL    HW116478   4.512   4.504   9.175 -0.5350  1.2327  1.0166
 1615SOL    HW216479   4.606   4.570   9.088 -0.2690 -0.2789 -1.4141
 1616SOL     OW16480   4.045   0.763  17.541  0.2238  0.2972  0.3353
 1616SOL    HW116481   4.014   0.767  17.632 -0.5663 -2.4343  0.2066
 1616SOL    HW216482   4.067   0.670  17.535 -1.6617 -0.2128  1.1933
 1617SOL     OW16483   1.659   2.663   5.157  0.1797  0.4301 -0.4747
 1617SOL    HW116484   1.688   2.750   5.129  0.0722  0.5093 -0.3387
 1617SOL    HW216485   1.629   2.622   5.075  0.1501  0.8234 -0.6640
 1618SOL     OW16486   0.356   2.221  12.609 -0.4870  0.5085 -0.5547
 1618SOL    HW116487   0.280   2.204  12.553  0.2496  0.2599 -1.4891
 1618SOL    HW216488   0.340   2.161  12.681  1.5607  1.0876  0.3659
 1619SOL     OW16489   2.123   1.317   8.973  0.3656 -0.2582 -0.2550
 1619SOL    HW116490   2.076   1.234   8.974  0.5758 -0.3658  0.5239
 1619SOL    HW216491   2.057   1.385   8.979  0.0181 -0.2943 -3.3440
 1620SOL     OW16492   2.877   1.498   4.969  0.8370 -0.4225 -0.2029
 1620SOL    HW116493   2.824   1.535   5.039  1.8827 -1.0038  0.8861
 1620SOL    HW216494   2.937   1.449   5.024 -0.0929  0.5626  1.6886
 1621SOL     OW16495   1.455   2.054   3.819  0.7130  0.2201 -0.7820
 1621SOL    HW116496   1.474   2.124   3.881  0.4114  0.5353 -1.0543
 1621SOL    HW216497   1.362   2.043   3.837  0.8254 -0.9378 -0.8937
 1622SOL     OW16498   4.550   3.776   6.052 -0.7303  0.3744 -0.2926
 1622SOL    HW116499   4.515   3.824   6.127 -2.8878  0.3353 -1.2817
 1622SOL    HW216500   4.545   3.687   6.087 -0.0348  0.3430 -0.2729
 1623SOL     OW16501   1.772   4.436  14.811  0.5111  0.3510 -0.5169
 1623SOL    HW116502   1.742   4.490  14.737  2.0275  2.0689  0.1287
 1623SOL    HW216503   1.684   4.409  14.839  0.8256 -0.5273 -0.3827
 1624SOL     OW16504   4.400   2.778  10.419  0.0799 -0.0322  0.5518
 1624SOL    HW116505   4.404   2.874  10.419  0.6568 -0.0548  0.7479
 1624SOL    HW216506   4.444   2.758  10.337  1.5245 -0.5427  1.4433
 1625SOL     OW16507   0.139   1.353   7.620  0.0962 -0.3625  0.5508
 1625SOL    HW116508   0.179   1.341   7.534 -0.9434 -1.1852  0.1802
 1625SOL    HW216509   0.156   1.444   7.645 -2.8868 -0.1289  1.7509
 1626SOL     OW16510   2.919   1.912  11.862  0.0845 -0.6125 -0.2515
 1626SOL    HW116511   2.978   1.987  11.873  1.1055 -1.2509 -1.3661
 1626SOL    HW216512   2.853   1.947  11.802 -0.5525 -0.8466  0.3141
 1627SOL     OW16513   3.075   3.478   6.988 -0.0901 -0.3360 -0.0435
 1627SOL    HW116514   3.169   3.480   7.005 -0.4000  0.6496  1.4701
 1627SOL    HW216515   3.061   3.552   6.928 -0.3034 -1.2169 -1.0909
 1628SOL     OW16516   3.755   3.289   3.838  0.3780 -0.2876 -0.0873
 1628SOL    HW116517   3.725   3.344   3.766 -0.0006 -0.6166 -0.1832
 1628SOL    HW216518   3.724   3.331   3.918  0.2725 -1.2125  0.3579
 1629SOL     OW16519   0.331   0.824  10.452 -0.0555 -0.0135 -0.2469
 1629SOL    HW116520   0.419   0.798  10.477  0.2598  2.2316  0.9220
 1629SOL    HW216521   0.322   0.767  10.375 -1.9623  0.9393 -0.7264
 1630SOL     OW16522   2.412   3.397  10.138 -0.1615  0.6634 -0.0758
 1630SOL    HW116523   2.395   3.479  10.184 -0.0853  0.7009 -0.1145
 1630SOL    HW216524   2.472   3.352  10.198  2.9583  1.3591 -2.6559
 1631SOL     OW16525   1.437   3.982   2.006 -0.2494  0.5443 -0.4275
 1631SOL    HW116526   1.382   4.027   1.941  0.3630  2.1553  0.1718
 1631SOL    HW216527   1.434   3.891   1.978 -1.6991  1.0502 -1.9392
 1632SOL     OW16528   1.241   3.159   4.774  0.2076  0.0081  0.2749
 1632SOL    HW116529   1.219   3.074   4.737 -1.3076 -0.1456  1.5686
 1632SOL    HW216530   1.331   3.165   4.740  0.4144  0.7231  0.9526
 1633SOL     OW16531   4.208   2.148  15.342 -0.1181 -0.4265  0.1189
 1633SOL    HW116532   4.163   2.105  15.269  0.8946 -1.7578  0.2855
 1633SOL    HW216533   4.215   2.073  15.401 -3.6171 -0.0620  0.9882
 1634SOL     OW16534   4.403   1.289   3.607  0.2129  0.1027  0.2706
 1634SOL    HW116535   4.440   1.352   3.546  2.1366 -1.2647  0.0594
 1634SOL    HW216536   4.414   1.212   3.551  1.0116 -0.2494  0.9204
 1635SOL     OW16537   0.095   0.046   3.733  0.4515  0.1794  0.1600
 1635SOL    HW116538   0.019   0.026   3.678  0.5723 -1.0654  0.4448
 1635SOL    HW216539   0.148   0.121   3.706 -0.0660  0.0511 -1.2034
 1636SOL     OW16540   2.262   4.315  15.529  0.3334  0.2154 -0.4553
 1636SOL    HW116541   2.314   4.268  15.463  0.1445 -1.4545  0.5768
 1636SOL    HW216542   2.195   4.353  15.472 -0.2812  1.1806  0.9378
 1637SOL     OW16543   3.071   3.553   2.243 -0.2458 -0.3107  0.1738
 1637SOL    HW116544   3.101   3.546   2.152 -1.1297  1.7739 -0.2768
 1637SOL    HW216545   3.053   3.645   2.258  0.4176 -0.2965  0.8872
 1638SOL     OW16546   3.231   3.297   9.939 -0.5864  0.7599 -0.5920
 1638SOL    HW116547   3.232   3.212   9.896 -0.5167  0.4000  0.1115
 1638SOL    HW216548   3.293   3.349   9.889 -0.1336  2.6156  1.8985
 1639SOL     OW16549   0.251   2.684   9.373 -0.3425  0.0945 -0.2392
 1639SOL    HW116550   0.308   2.635   9.313  0.0767  0.8509 -0.4754
 1639SOL    HW216551   0.193   2.617   9.407  0.2912  0.1448  0.9439
 1640SOL     OW16552   4.462   4.084   3.492  0.1716 -0.1459  0.2322
 1640SOL    HW116553   4.463   4.005   3.438  2.9284  0.0837 -0.0690
 1640SOL    HW216554   4.370   4.108   3.483  0.0657 -0.6527  0.0064
 1641SOL     OW16555   3.449   3.057   2.998 -0.1963 -0.2998 -0.1440
 1641SOL    HW116556   3.453   3.040   3.092  1.5098 -0.6133 -0.2915
 1641SOL    HW216557   3.374   3.008   2.962  0.6000 -2.1721  0.7596
 1642SOL     OW16558   2.205   1.474  12.981 -0.0214 -0.4979  1.3279
 1642SOL    HW116559   2.266   1.524  13.035 -0.5744  1.5446  0.0668
 1642SOL    HW216560   2.186   1.538  12.912  2.6914 -1.0944  0.0255
 1643SOL     OW16561   2.768   3.609   6.923 -0.0541 -0.2255 -0.1994
 1643SOL    HW116562   2.829   3.668   6.880 -1.4233  0.9642 -0.5214
 1643SOL    HW216563   2.744   3.550   6.851  0.0498  0.9609 -1.1940
 1644SOL     OW16564   3.968   2.151  14.124  0.0875  0.0530 -0.3335
 1644SOL    HW116565   3.981   2.221  14.060  0.8337  0.3566  0.1452
 1644SOL    HW216566   4.024   2.190  14.191 -2.1928 -2.0895  2.8431
 1645SOL     OW16567   2.623   2.959   4.836 -0.0545 -0.0642  0.1720
 1645SOL    HW116568   2.563   2.887   4.816 -0.6492  0.2898  0.6801
 1645SOL    HW216569   2.617   2.950   4.931  0.5964  1.3775  0.3516
 1646SOL     OW16570   3.388   3.999   2.610  0.2312 -0.1337  0.0234
 1646SOL    HW116571   3.340   4.059   2.667 -0.6146 -2.5902  1.8839
 1646SOL    HW216572   3.479   4.024   2.627  0.1793  1.3586 -1.9397
 1647SOL     OW16573   0.071   1.832   4.836 -0.6043 -0.2221 -0.3821
 1647SOL    HW116574   0.092   1.796   4.749 -2.4404  0.2838 -1.0326
 1647SOL    HW216575   4.733   1.879   4.803 -1.8224 -1.2645  0.9761
 1648SOL     OW16576   1.679   4.546   1.473  0.2137 -0.0734  0.2014
 1648SOL    HW116577   1.761   4.591   1.452 -1.0413  0.7382 -2.8600
 1648SOL    HW216578   1.643   4.527   1.386  1.2319 -1.6227  0.1191
 1649SOL     OW16579   3.994   0.222   2.473 -0.1228  0.1194  0.2999
 1649SOL    HW116580   4.051   0.183   2.540 -0.2323 -0.4155  0.0748
 1649SOL    HW216581   3.947   0.144   2.445  1.9221  0.3513 -3.7037
 1650SOL     OW16582   4.671   4.679   1.993  0.0190 -0.3544 -0.0937
 1650SOL    HW116583   0.010   4.657   1.942 -1.3411 -1.3975 -1.7233
 1650SOL    HW216584   4.653   0.028   1.960 -0.4279  0.3558  2.0081
 1651SOL     OW16585   0.058   4.296   8.590  0.1217  0.5968  0.1449
 1651SOL    HW116586   0.142   4.279   8.549 -0.5037  1.7108 -1.6166
 1651SOL    HW216587   0.070   4.280   8.683  0.7473 -1.6524 -0.3416
 1652SOL     OW16588   2.654   1.221  16.129  0.0741 -0.0637  0.0497
 1652SOL    HW116589   2.568   1.251  16.101 -0.4233 -0.9149  0.6378
 1652SOL    HW216590   2.691   1.304  16.158  0.7085  0.7391 -3.1253
 1653SOL     OW16591   1.381   3.148   1.991  0.3625  0.8185  0.3006
 1653SOL    HW116592   1.293   3.178   2.014  1.2422  3.1285  0.6582
 1653SOL    HW216593   1.398   3.193   1.908  0.1080 -0.5724 -0.5057
 1654SOL     OW16594   2.572   3.061  13.851 -0.6032 -0.2452  0.0487
 1654SOL    HW116595   2.610   3.112  13.779 -1.8723  0.7422  0.0808
 1654SOL    HW216596   2.515   2.992  13.814  0.9047 -0.6301 -1.5510
 1655SOL     OW16597   0.438   1.729   9.445 -0.3104  0.2324  0.4120
 1655SOL    HW116598   0.507   1.664   9.441 -0.5235 -0.0649  1.8575
 1655SOL    HW216599   0.462   1.782   9.369 -1.5453 -1.0611 -0.8877
 1656SOL     OW16600   1.962   4.527   8.771  0.3645  0.0281  0.5887
 1656SOL    HW116601   1.978   4.511   8.679 -0.0778  0.4115  0.4436
 1656SOL    HW216602   1.905   4.453   8.791  0.3496  0.2272  1.3013
 1657SOL     OW16603   3.188   3.844   1.546  0.3304 -0.0286 -0.0950
 1657SOL    HW116604   3.258   3.907   1.567  1.4825 -1.2423 -0.2542
 1657SOL    HW216605   3.237   3.788   1.486 -2.1195 -1.6059 -0.5966
 1658SOL     OW16606   4.456   3.899   6.288 -0.2090 -0.0590 -0.4979
 1658SOL    HW116607   4.379   3.922   6.340 -0.5915  0.4072 -1.2666
 1658SOL    HW216608   4.520   3.964   6.317 -1.5436 -1.1055  4.7178
 1659SOL     OW16609   1.829   2.946   5.695 -0.0556 -0.4503  0.4094
 1659SOL    HW116610   1.736   2.930   5.679 -0.1244  1.0261 -0.7058
 1659SOL    HW216611   1.859   2.856   5.686  1.7620  0.2599 -0.7063
 1660SOL     OW16612   0.107   0.739   7.940  0.0949 -0.4327  0.0582
 1660SOL    HW116613   0.200   0.718   7.934  0.9544  3.6523 -0.8525
 1660SOL    HW216614   0.080   0.679   8.010  1.6816  0.5804  1.5420
 1661SOL     OW16615   3.308   3.491   0.791  0.1956  0.1398  0.1957
 1661SOL    HW116616   3.318   3.559   0.725  0.9220  0.7533  0.9391
 1661SOL    HW216617   3.399   3.461   0.794 -0.2842 -1.3862 -0.2692
 1662SOL     OW16618   4.136   3.418  14.737  0.0667  0.4646  0.2549
 1662SOL    HW116619   4.075   3.491  14.741 -1.1498 -0.5972  1.1077
 1662SOL    HW216620   4.095   3.336  14.766 -2.4322  1.1903 -1.2584
 1663SOL     OW16621   1.294   2.019   1.270 -0.3588  0.3469 -0.6285
 1663SOL    HW116622   1.258   1.931   1.281 -0.6580  0.5467  0.0298
 1663SOL    HW216623   1.225   2.074   1.308 -0.1710  1.0996 -1.3896
 1664SOL     OW16624   1.669   4.209   5.076  0.6904 -0.4449  0.4008
 1664SOL    HW116625   1.749   4.160   5.091  1.6801  0.3661 -2.1078
 1664SOL    HW216626   1.689   4.244   4.989  1.7217 -0.4304  0.6450
 1665SOL     OW16627   2.083   4.355   2.399 -0.5038  0.5331 -0.4010
 1665SOL    HW116628   2.062   4.412   2.325  0.6247 -0.8852 -1.8040
 1665SOL    HW216629   2.060   4.276   2.351 -2.3437  1.3390 -0.8372
 1666SOL     OW16630   2.032   0.797   8.967  0.4815 -0.8502  0.8531
 1666SOL    HW116631   2.054   0.757   8.883 -1.3533  0.5586 -0.2708
 1666SOL    HW216632   1.941   0.819   8.949  1.0955 -0.0076 -1.1534
 1667SOL     OW16633   0.294   4.193   2.276 -0.3860  0.0325  0.2201
 1667SOL    HW116634   0.347   4.222   2.202 -0.0446 -0.2671  0.3490
 1667SOL    HW216635   0.267   4.279   2.309  0.2257  0.3040  0.0130
 1668SOL     OW16636   4.580   0.747   8.963  0.0646  0.5524  0.2190
 1668SOL    HW116637   4.631   0.668   8.983  0.9791  0.9098 -0.7156
 1668SOL    HW216638   4.497   0.716   8.998  0.4496  1.9478  2.3031
 1669SOL     OW16639   2.516   1.407   4.793 -0.1213  0.5739 -0.3947
 1669SOL    HW116640   2.496   1.429   4.884 -0.5779  0.6218 -0.5046
 1669SOL    HW216641   2.551   1.319   4.807  2.2463  1.6617  0.3928
 1670SOL     OW16642   0.359   1.035  10.654 -0.4802 -0.0460 -0.3441
 1670SOL    HW116643   0.310   0.968  10.607 -0.5214  1.2736 -2.1496
 1670SOL    HW216644   0.366   0.979  10.732 -0.0736  0.3868 -0.0721
 1671SOL     OW16645   1.673   3.538   7.057  0.6373  0.2661 -0.6921
 1671SOL    HW116646   1.624   3.482   7.116  0.6274  1.5497  0.5042
 1671SOL    HW216647   1.652   3.623   7.096 -1.7080  0.0115 -1.4048
 1672SOL     OW16648   2.704   0.288   5.503  0.0856  0.2199 -0.2775
 1672SOL    HW116649   2.762   0.350   5.459  0.4751  0.0666  0.0303
 1672SOL    HW216650   2.649   0.283   5.424  0.0618  0.0130 -0.2478
 1673SOL     OW16651   3.538   1.361  11.264  0.0681  0.5361 -0.6307
 1673SOL    HW116652   3.448   1.387  11.248 -0.0984 -0.8315 -2.0257
 1673SOL    HW216653   3.566   1.345  11.173 -3.4539 -2.0120 -1.2883
 1674SOL     OW16654   4.257   4.311  12.058  0.1245  0.2893 -0.1648
 1674SOL    HW116655   4.246   4.393  12.107 -1.1699 -0.0446  0.0851
 1674SOL    HW216656   4.239   4.251  12.130 -1.5863 -2.4118 -2.8410
 1675SOL     OW16657   1.800   0.507   3.654  0.2549  0.0626 -0.7873
 1675SOL    HW116658   1.869   0.441   3.653  1.2235  1.0648 -0.6732
 1675SOL    HW216659   1.859   0.581   3.640  0.2385  0.1840 -0.2070
 1676SOL     OW16660   4.324   3.702   5.527 -0.5228  0.2446 -0.3301
 1676SOL    HW116661   4.332   3.708   5.622  1.9540 -1.7506 -0.4431
 1676SOL    HW216662   4.382   3.631   5.503  2.4477  1.8394  2.1192
 1677SOL     OW16663   3.658   1.697  12.992  0.8539 -0.3596  0.4082
 1677SOL    HW116664   3.667   1.611  13.032  0.0418 -1.4572 -1.7156
 1677SOL    HW216665   3.736   1.741  13.025 -0.5062  0.5160  2.4240
 1678SOL     OW16666   3.084   1.220  14.081 -0.6036  0.6515  0.3257
 1678SOL    HW116667   3.077   1.146  14.140  1.6820 -1.4176 -1.9921
 1678SOL    HW216668   3.134   1.282  14.135  2.5934 -0.2974 -1.5476
 1679SOL     OW16669   1.698   1.360   3.943 -0.0132 -0.0878 -0.0734
 1679SOL    HW116670   1.686   1.441   3.894 -0.0138 -0.8352 -1.2892
 1679SOL    HW216671   1.657   1.294   3.887 -3.2067  1.6067  0.2321
 1680SOL     OW16672   4.167   1.615   5.914 -0.4525  0.5326 -0.4018
 1680SOL    HW116673   4.240   1.635   5.855 -0.9444  0.8950 -0.8833
 1680SOL    HW216674   4.162   1.689   5.974 -0.4901 -0.0174  0.2738
 1681SOL     OW16675   3.404   2.127  13.393 -1.2701 -0.4268 -0.4447
 1681SOL    HW116676   3.322   2.096  13.354 -1.3137 -0.9335  0.0479
 1681SOL    HW216677   3.393   2.106  13.485  0.6793  0.7779  0.0538
 1682SOL     OW16678   1.605   2.879   2.938  0.1849 -0.0598  0.5638
 1682SOL    HW116679   1.582   2.872   3.030 -3.1215 -2.1401 -0.4310
 1682SOL    HW216680   1.669   2.950   2.936  1.0751 -0.9228 -1.7199
 1683SOL     OW16681   2.340   2.520   2.093  0.1633 -0.7751 -0.6145
 1683SOL    HW116682   2.371   2.587   2.032  1.4127 -0.0264  0.8463
 1683SOL    HW216683   2.377   2.443   2.050 -1.8190 -1.7166 -0.6098
 1684SOL     OW16684   0.951   4.185   9.447  0.6601 -0.2916  0.0298
 1684SOL    HW116685   0.974   4.129   9.373 -0.1844  1.3565 -1.4899
 1684SOL    HW216686   0.886   4.229   9.392  0.6008  1.0761  1.2051
 1685SOL     OW16687   3.909   1.158  14.926 -0.4512 -0.0488  0.2117
 1685SOL    HW116688   3.916   1.180  14.833 -0.1192 -1.2537 -0.0376
 1685SOL    HW216689   3.817   1.184  14.935 -0.1486  1.4837 -1.0280
 1686SOL     OW16690   1.552   4.479   0.729 -0.4474 -0.1925  0.6760
 1686SOL    HW116691   1.532   4.563   0.687  0.3758 -0.0695  0.5456
 1686SOL    HW216692   1.523   4.489   0.820 -1.3628  1.4868  0.2036
 1687SOL     OW16693   0.703   0.959   6.191 -0.0207  0.2739  0.1400
 1687SOL    HW116694   0.611   0.958   6.166 -0.6768 -2.5218  2.7589
 1687SOL    HW216695   0.737   1.041   6.156  1.9884 -1.3509 -1.7290
 1688SOL     OW16696   3.464   2.171   2.598 -0.4309 -0.2306  0.2085
 1688SOL    HW116697   3.451   2.115   2.521 -0.7419 -0.6600  0.5727
 1688SOL    HW216698   3.431   2.120   2.672 -2.2876  1.4600  0.5200
 1689SOL     OW16699   3.456   3.598   5.260 -0.0496  0.6557  0.0900
 1689SOL    HW116700   3.434   3.661   5.329 -1.9237 -0.5727  0.6105
 1689SOL    HW216701   3.536   3.550   5.282 -0.2875  0.9134  1.5471
 1690SOL     OW16702   3.114   2.315   6.964 -0.6005 -0.7772 -0.3252
 1690SOL    HW116703   3.203   2.351   6.967 -0.6897 -0.3425 -2.5720
 1690SOL    HW216704   3.102   2.290   7.056 -0.5972 -0.3336 -0.2057
 1691SOL     OW16705   1.179   2.342   3.855 -0.3400  0.5477 -0.3315
 1691SOL    HW116706   1.268   2.376   3.848 -0.1643 -0.0688 -1.2081
 1691SOL    HW216707   1.182   2.279   3.783 -0.8694  0.2895 -0.1290
 1692SOL     OW16708   1.571   3.414  11.604 -0.1797 -0.5763  0.1779
 1692SOL    HW116709   1.628   3.400  11.527  0.8892  0.5073  0.7774
 1692SOL    HW216710   1.550   3.505  11.586 -0.6638 -0.3078  2.2017
 1693SOL     OW16711   3.228   4.497   7.820  0.7297 -0.1090 -0.1923
 1693SOL    HW116712   3.246   4.479   7.728  0.0101  0.4418 -0.4450
 1693SOL    HW216713   3.279   4.421   7.848 -2.0452 -2.2533 -0.9741
 1694SOL     OW16714   3.352   1.672   6.424 -0.6214  1.0048 -0.7216
 1694SOL    HW116715   3.418   1.603   6.433 -0.2290  1.0951 -2.7568
 1694SOL    HW216716   3.379   1.704   6.338  1.6085 -1.1230 -0.8220
 1695SOL     OW16717   1.158   4.018   4.536  0.4098  0.7210  0.0475
 1695SOL    HW116718   1.242   4.063   4.549  1.0566 -0.0520 -1.5429
 1695SOL    HW216719   1.192   3.929   4.529 -1.1979  0.1607 -0.4617
 1696SOL     OW16720   0.050   3.500   6.316 -0.2169 -0.0521 -0.0574
 1696SOL    HW116721   0.077   3.464   6.231 -0.0981 -1.4945  0.5934
 1696SOL    HW216722   0.053   3.419   6.367  0.8343 -1.0766 -1.7018
 1697SOL     OW16723   3.538   2.067   1.138 -0.6367  0.6521  0.1558
 1697SOL    HW116724   3.574   1.999   1.195  1.0572  2.1555  0.8837
 1697SOL    HW216725   3.497   2.020   1.065  0.1810  1.4077 -0.7947
 1698SOL     OW16726   2.327   3.486   6.889  0.0401 -0.4932  0.2661
 1698SOL    HW116727   2.412   3.516   6.920 -0.7274 -0.8027  2.6596
 1698SOL    HW216728   2.311   3.402   6.930  0.6582 -1.3827 -1.3054
 1699SOL     OW16729   4.071   2.579  15.235 -0.1573  0.0395 -0.4786
 1699SOL    HW116730   4.094   2.614  15.321 -0.3875 -0.6060 -0.1563
 1699SOL    HW216731   3.983   2.548  15.255  0.2973 -0.0520  1.3910
 1700SOL     OW16732   3.800   2.199   2.124  0.0022  0.2396  0.0664
 1700SOL    HW116733   3.832   2.246   2.047 -0.4775 -2.5670 -1.8061
 1700SOL    HW216734   3.879   2.149   2.147 -0.5110 -1.8866 -2.9609
 1701SOL     OW16735   1.311   4.254  10.199  0.0401 -0.4570  0.6991
 1701SOL    HW116736   1.233   4.278  10.149  0.1386  0.9567  1.2251
 1701SOL    HW216737   1.284   4.282  10.287 -1.4126 -1.2758  0.5234
 1702SOL     OW16738   2.385   3.667   8.023  0.2126 -0.2869 -0.3992
 1702SOL    HW116739   2.376   3.762   8.026  0.5142 -0.3065  1.2680
 1702SOL    HW216740   2.293   3.639   8.032 -0.5049  2.1387 -0.1749
 1703SOL     OW16741   4.403   1.888   4.527  0.1336 -0.3010  0.1554
 1703SOL    HW116742   4.450   1.827   4.470  1.5698  0.0103  0.9871
 1703SOL    HW216743   4.381   1.951   4.459 -1.4559  0.3641  1.2871
 1704SOL     OW16744   3.541   2.358   4.521  0.1893 -0.0865  0.8893
 1704SOL    HW116745   3.509   2.290   4.580 -0.5533 -0.6385 -0.1490
 1704SOL    HW216746   3.558   2.300   4.447  2.4831 -0.3700  1.6394
 1705SOL     OW16747   0.341   4.435   5.564 -0.4321 -0.0181 -0.0396
 1705SOL    HW116748   0.403   4.500   5.597 -0.3305  0.2359 -0.7227
 1705SOL    HW216749   0.264   4.461   5.614  0.6041  2.0167  0.5067
 1706SOL     OW16750   1.364   0.773   4.778  0.2236 -0.5726  0.2122
 1706SOL    HW116751   1.438   0.745   4.833 -0.6888 -3.3683  0.0071
 1706SOL    HW216752   1.396   0.752   4.691  0.8137  0.3376  0.2026
 1707SOL     OW16753   1.586   2.280  16.477 -0.1335  0.1913  0.6368
 1707SOL    HW116754   1.602   2.266  16.383 -0.6208 -1.4751  0.7944
 1707SOL    HW216755   1.582   2.190  16.508  1.5921 -0.6532 -1.5282
 1708SOL     OW16756   0.960   3.472   8.635 -0.2143  0.3603  0.4933
 1708SOL    HW116757   0.922   3.428   8.559 -1.9862  3.3037 -0.3587
 1708SOL    HW216758   1.051   3.485   8.607  0.1202 -2.4086  0.3490
 1709SOL     OW16759   3.999   3.291   1.598  0.2203  0.9596  0.3076
 1709SOL    HW116760   3.922   3.348   1.604 -0.0428  0.6359  0.0424
 1709SOL    HW216761   4.069   3.355   1.581  0.4795  0.8722  1.0576
 1710SOL     OW16762   1.077   2.911   5.899  0.4164 -0.1106  0.0749
 1710SOL    HW116763   1.006   2.947   5.846 -0.3973 -1.4822  0.2263
 1710SOL    HW216764   1.141   2.981   5.886 -1.0278  1.1870 -0.1148
 1711SOL     OW16765   1.734   4.191   2.393  0.4679 -0.0300 -0.0907
 1711SOL    HW116766   1.640   4.184   2.379  0.1751  1.3898  1.1442
 1711SOL    HW216767   1.762   4.142   2.316  0.1931  0.1477 -0.3031
 1712SOL     OW16768   3.934   1.177   2.740 -0.0488  0.2122  0.5445
 1712SOL    HW116769   3.902   1.198   2.828  0.5410 -0.8299  1.0093
 1712SOL    HW216770   4.025   1.201   2.758 -0.0539 -0.2710  1.2291
 1713SOL     OW16771   4.188   0.849   9.172 -0.4066  0.2392  0.2095
 1713SOL    HW116772   4.187   0.855   9.077 -2.5737 -4.1090 -0.0406
 1713SOL    HW216773   4.225   0.933   9.200  1.2655  0.0448 -1.4354
 1714SOL     OW16774   0.937   0.179   3.241  0.3110  0.1988 -0.2720
 1714SOL    HW116775   0.947   0.273   3.225 -1.2144  0.3344 -0.4378
 1714SOL    HW216776   0.865   0.176   3.304 -0.0291 -2.4570 -0.8034
 1715SOL     OW16777   2.109   1.976   3.572 -0.1140  0.3326 -0.5215
 1715SOL    HW116778   2.096   1.891   3.615 -1.6330  0.9394  0.2188
 1715SOL    HW216779   2.195   2.001   3.605  0.0985 -0.4012 -0.5239
 1716SOL     OW16780   0.740   3.509   7.951  0.2586 -0.4476  0.0434
 1716SOL    HW116781   0.776   3.507   8.040 -0.8877  2.5349  0.5913
 1716SOL    HW216782   0.821   3.522   7.903  0.1219  1.5919  0.3446
 1717SOL     OW16783   0.865   3.786  11.475 -0.5748  0.4166 -0.4137
 1717SOL    HW116784   0.933   3.776  11.541  0.5434 -0.1400 -1.6283
 1717SOL    HW216785   0.804   3.848  11.514 -0.2228  2.2894 -2.8060
 1718SOL     OW16786   0.890   0.608  14.104 -0.1598  0.1869  0.0401
 1718SOL    HW116787   0.966   0.664  14.119  0.1810 -0.6345  1.4282
 1718SOL    HW216788   0.823   0.675  14.092 -0.6751 -0.2867  0.2707
 1719SOL     OW16789   0.815   3.738   5.265  0.1438  0.4250 -0.6786
 1719SOL    HW116790   0.752   3.799   5.303  2.2495  1.8553  0.4902
 1719SOL    HW216791   0.768   3.654   5.266  0.4482  0.2577 -0.5024
 1720SOL     OW16792   4.263   2.151   4.290  0.4113  0.3885 -0.2694
 1720SOL    HW116793   4.178   2.117   4.316 -0.2547  0.0705 -2.8648
 1720SOL    HW216794   4.245   2.241   4.263  0.4921  0.6237  0.4553
 1721SOL     OW16795   4.169   1.233  14.614 -0.6269  0.0370 -0.0007
 1721SOL    HW116796   4.211   1.210  14.531 -1.3379 -0.8752 -0.1133
 1721SOL    HW216797   4.081   1.196  14.601 -0.5507 -0.2881  0.4077
 1722SOL     OW16798   3.839   4.535   3.528 -0.0728  0.3200 -0.5420
 1722SOL    HW116799   3.862   4.524   3.620 -1.4727  1.6377 -0.0281
 1722SOL    HW216800   3.748   4.506   3.532 -0.1267  0.5731  0.1024
 1723SOL     OW16801   4.700   1.581   6.607 -0.5793 -0.3821  0.0104
 1723SOL    HW116802   4.640   1.654   6.620 -0.5535 -0.0618 -1.6574
 1723SOL    HW216803   4.645   1.517   6.562  0.5604 -2.6689  1.8422
 1724SOL     OW16804   2.982   1.150   5.962  0.4779 -0.0301 -0.5217
 1724SOL    HW116805   2.963   1.123   5.872 -0.3699 -1.3828  0.0681
 1724SOL    HW216806   3.074   1.125   5.974  0.5369 -0.1545 -1.2163
 1725SOL     OW16807   0.283   2.439  14.761  0.3509 -0.6633  0.1678
 1725SOL    HW116808   0.294   2.530  14.788 -0.8132 -0.7510  0.9153
 1725SOL    HW216809   0.325   2.386  14.829 -2.5444 -0.0331  2.3960
 1726SOL     OW16810   3.472   2.125  12.871 -0.7470  0.0254  0.9012
 1726SOL    HW116811   3.431   2.096  12.790  1.0931 -0.9906  0.3146
 1726SOL    HW216812   3.410   2.099  12.939 -1.2193  0.1246  0.5032
 1727SOL     OW16813   0.188   2.048   5.886  1.0183  0.6192 -0.2423
 1727SOL    HW116814   0.111   2.010   5.844  1.9404  0.5004 -1.8445
 1727SOL    HW216815   0.239   2.048   5.805  2.8566 -0.0914  0.9153
 1728SOL     OW16816   2.953   3.466  15.012 -0.0051  0.6046  0.0822
 1728SOL    HW116817   2.962   3.560  15.024 -0.8118  0.6812  0.1115
 1728SOL    HW216818   2.916   3.440  15.097 -1.1497  1.6005 -0.1069
 1729SOL     OW16819   1.886   2.669   4.049 -0.3528 -0.2974  0.3231
 1729SOL    HW116820   1.917   2.750   4.010  0.4345 -1.2755 -1.0973
 1729SOL    HW216821   1.852   2.627   3.970 -0.3495  1.8664 -0.8100
 1730SOL     OW16822   1.920   3.076  16.036 -0.7014  0.0061  0.1035
 1730SOL    HW116823   1.954   3.101  16.123  1.6449  0.9387 -1.0839
 1730SOL    HW216824   1.828   3.089  16.056 -0.6745 -1.0060  0.9311
 1731SOL     OW16825   2.508   1.455   5.120  0.2366  0.1644  0.1112
 1731SOL    HW116826   2.417   1.485   5.116  0.5366  1.0507  0.1011
 1731SOL    HW216827   2.499   1.368   5.160  1.7154  0.1102  0.3213
 1732SOL     OW16828   3.380   1.872  17.096 -0.2374  0.3824  0.6743
 1732SOL    HW116829   3.284   1.875  17.091 -0.1356 -0.1558 -1.5232
 1732SOL    HW216830   3.393   1.822  17.177  0.0168  0.0792  0.4412
 1733SOL     OW16831   3.746   0.951   1.609  0.2861 -0.2026 -0.0803
 1733SOL    HW116832   3.670   0.906   1.645  0.1720  1.5804  1.9584
 1733SOL    HW216833   3.712   1.038   1.588 -1.9184 -0.4890  2.3094
 1734SOL     OW16834   3.400   3.878   0.856 -0.4640 -0.2343 -0.0981
 1734SOL    HW116835   3.328   3.936   0.832  0.0872  0.2670 -0.5595
 1734SOL    HW216836   3.419   3.831   0.774 -0.3700  0.7173 -0.6265
 1735SOL     OW16837   1.160   4.339   7.433  0.5932 -0.2218 -0.2632
 1735SOL    HW116838   1.201   4.349   7.348  1.0312  2.2973  0.2473
 1735SOL    HW216839   1.068   4.358   7.414  0.6734  1.0529  0.5704
 1736SOL     OW16840   3.769   3.248   8.377  0.7825  0.3803 -0.1911
 1736SOL    HW116841   3.738   3.323   8.326  1.7913 -0.0816 -1.4839
 1736SOL    HW216842   3.851   3.227   8.333 -0.1152 -2.3688 -0.5314
 1737SOL     OW16843   2.457   1.624   2.602  0.7596  0.0586 -0.2254
 1737SOL    HW116844   2.416   1.558   2.546  0.4297  1.3793 -1.5670
 1737SOL    HW216845   2.496   1.569   2.670 -1.2960 -1.0891  0.0183
 1738SOL     OW16846   3.075   1.454  14.929  0.2235 -0.6062 -0.4984
 1738SOL    HW116847   3.095   1.424  15.017  0.2202 -0.1379 -0.3387
 1738SOL    HW216848   2.981   1.435  14.920  0.6587 -0.5117 -5.1867
 1739SOL     OW16849   4.305   2.439   9.467 -0.1587  0.2352  1.1418
 1739SOL    HW116850   4.232   2.488   9.504 -2.3705 -1.7043 -0.6487
 1739SOL    HW216851   4.280   2.347   9.480 -0.5433  0.3550  1.2561
 1740SOL     OW16852   4.686   2.981   7.691 -0.0066 -0.5101 -0.0947
 1740SOL    HW116853   4.725   2.982   7.603  0.3574  0.0549  0.0699
 1740SOL    HW216854   4.666   2.888   7.696  0.5915 -0.7223 -1.5689
 1741SOL     OW16855   1.929   0.259   1.977  0.2224 -0.1982 -0.4345
 1741SOL    HW116856   1.859   0.319   1.999 -0.0571 -0.4316 -0.6748
 1741SOL    HW216857   1.993   0.267   2.048 -0.3905  3.7802 -0.3533
 1742SOL     OW16858   0.064   1.024   4.337  0.0392  0.0971 -0.2605
 1742SOL    HW116859   0.017   0.953   4.381  1.3582 -0.6613 -0.0918
 1742SOL    HW216860   0.151   1.020   4.376  0.2181 -1.1684 -0.7958
 1743SOL     OW16861   1.993   4.449   0.696 -0.6200  0.1849 -0.6281
 1743SOL    HW116862   1.957   4.538   0.695 -1.9364 -0.3338  0.8750
 1743SOL    HW216863   1.924   4.401   0.650 -0.1955 -0.3060 -0.7577
 1744SOL     OW16864   3.771   1.665  14.525  0.2516 -0.3670  0.0219
 1744SOL    HW116865   3.858   1.677  14.563  0.1909 -1.6007  0.5463
 1744SOL    HW216866   3.707   1.708  14.581 -0.5568  1.1066 -2.0188
 1745SOL     OW16867   4.270   1.395   4.651  0.3730 -0.6429  0.2144
 1745SOL    HW116868   4.358   1.401   4.612  0.8172  0.9047  1.4155
 1745SOL    HW216869   4.255   1.488   4.671  1.7743 -0.4750  0.5508
 1746SOL     OW16870   3.813   1.706   9.448  0.1165  0.0068  0.0644
 1746SOL    HW116871   3.773   1.618   9.451  0.8739 -0.3354  0.1284
 1746SOL    HW216872   3.755   1.749   9.386 -0.2299 -0.5964 -0.0292
 1747SOL     OW16873   2.120   1.016   3.070  0.3533 -0.6623 -0.1822
 1747SOL    HW116874   2.201   1.024   3.019 -0.4345  0.2315 -1.2880
 1747SOL    HW216875   2.102   0.923   3.056 -1.9108  0.2352 -3.1234
 1748SOL     OW16876   4.716   3.560   9.596  0.1990  0.7793  0.3564
 1748SOL    HW116877   4.722   3.540   9.502 -0.3786  0.8726  0.2992
 1748SOL    HW216878   0.018   3.483   9.635 -1.1397 -0.1819 -0.1148
 1749SOL     OW16879   4.654   1.901  16.737  0.4240  0.0349  0.2493
 1749SOL    HW116880   4.669   1.963  16.666  1.7142 -1.6266 -0.9420
 1749SOL    HW216881   4.686   1.954  16.811  1.0926  0.3086 -0.2372
 1750SOL     OW16882   3.071   4.497  16.329  0.1784 -0.8151  0.2853
 1750SOL    HW116883   3.162   4.529  16.325 -0.1283 -0.0782 -0.7642
 1750SOL    HW216884   3.081   4.406  16.359 -1.2201 -0.8748  0.5515
 1751SOL     OW16885   2.547   0.621   9.413  0.2787 -0.0558  0.2002
 1751SOL    HW116886   2.560   0.529   9.437 -2.0558 -0.4326  0.0072
 1751SOL    HW216887   2.496   0.654   9.487  0.3996 -0.0664  0.2886
 1752SOL     OW16888   2.473   3.518  11.971  0.4048 -0.1840  0.2082
 1752SOL    HW116889   2.540   3.538  12.037  1.6809 -1.3770 -0.7254
 1752SOL    HW216890   2.430   3.601  11.953  0.3422  0.5975  3.8758
 1753SOL     OW16891   2.188   2.704   5.934  0.2522 -0.3885 -0.0612
 1753SOL    HW116892   2.125   2.632   5.929  0.8950 -0.9919  0.5122
 1753SOL    HW216893   2.130   2.750   5.994  0.8701 -0.2836  0.4634
 1754SOL     OW16894   1.395   0.071   8.522 -0.4357 -0.4161 -0.0416
 1754SOL    HW116895   1.368   0.162   8.511 -0.7630 -0.2563  2.2153
 1754SOL    HW216896   1.484   0.069   8.556 -0.4322 -2.1367 -0.1424
 1755SOL     OW16897   2.791   1.071   3.353  0.1723 -0.1609  0.0426
 1755SOL    HW116898   2.799   1.135   3.424  0.0778 -1.9506  1.6733
 1755SOL    HW216899   2.843   0.999   3.389  1.4129  0.4290 -0.6103
 1756SOL     OW16900   3.112   1.157   3.764  0.2777 -0.0153 -0.3577
 1756SOL    HW116901   3.066   1.233   3.799 -0.2489 -0.5762  0.1608
 1756SOL    HW216902   3.169   1.127   3.835 -0.9760  2.5768  1.7188
 1757SOL     OW16903   3.443   3.006   5.700  0.1478  0.0880  0.5394
 1757SOL    HW116904   3.361   3.045   5.730  1.2436  3.6401 -1.1580
 1757SOL    HW216905   3.457   3.075   5.635  0.9198 -1.7647 -1.2588
 1758SOL     OW16906   1.573   4.234   3.289 -0.1009  0.0138 -0.3284
 1758SOL    HW116907   1.664   4.261   3.300 -0.7487  0.9517  2.7084
 1758SOL    HW216908   1.549   4.254   3.199 -1.2341 -0.0654 -0.0481
 1759SOL     OW16909   4.279   0.809  16.032 -0.6481  0.1359  0.6146
 1759SOL    HW116910   4.334   0.884  16.052  0.6718 -0.6166 -0.1788
 1759SOL    HW216911   4.191   0.841  16.053 -0.9040 -0.0572 -0.1770
 1760SOL     OW16912   2.644   2.603   5.025  0.3859 -0.2039  0.0237
 1760SOL    HW116913   2.671   2.522   5.068  2.6934 -0.3359 -1.6575
 1760SOL    HW216914   2.706   2.614   4.953  0.1616 -2.3286 -0.4975
 1761SOL     OW16915   0.700   3.595   8.574  0.0853  0.4155  0.3483
 1761SOL    HW116916   0.753   3.565   8.648  0.0494  0.4218  0.3764
 1761SOL    HW216917   0.743   3.679   8.557 -1.0974  1.1014  0.7120
 1762SOL     OW16918   3.592   4.087   5.353 -0.7455 -0.1603 -0.4152
 1762SOL    HW116919   3.604   4.037   5.433 -0.7856 -0.8343 -0.8252
 1762SOL    HW216920   3.564   4.172   5.387  0.4024  1.1083 -2.5908
 1763SOL     OW16921   3.574   0.149   8.615 -0.8104 -0.2619  0.0129
 1763SOL    HW116922   3.628   0.192   8.681  0.3168 -0.1756 -0.9604
 1763SOL    HW216923   3.601   0.212   8.547  0.2029 -2.4588 -1.6184
 1764SOL     OW16924   2.934   0.951   8.982  0.5659 -0.3225  0.5272
 1764SOL    HW116925   2.922   1.025   9.042  2.0227 -0.1924  0.6408
 1764SOL    HW216926   2.894   0.879   9.032 -1.5483  0.6138  0.2061
 1765SOL     OW16927   0.691   1.350   2.204  0.0896 -0.2912  0.8194
 1765SOL    HW116928   0.767   1.407   2.217 -0.5304  0.4842  1.0226
 1765SOL    HW216929   0.626   1.391   2.261  2.3818  1.0929  2.4196
 1766SOL     OW16930   1.208   0.976   8.754  0.7967 -0.0201  0.0797
 1766SOL    HW116931   1.189   0.895   8.802  1.8697 -0.4187 -0.1760
 1766SOL    HW216932   1.156   1.041   8.803  1.1140 -0.4990  1.0640
 1767SOL     OW16933   2.485   2.625   4.358  0.0157  0.5403 -0.1341
 1767SOL    HW116934   2.528   2.540   4.364 -0.5869  0.2571  0.2074
 1767SOL    HW216935   2.497   2.637   4.264  3.2106 -0.0834  0.2083
 1768SOL     OW16936   2.751   3.170   8.179 -0.2493 -0.3253 -0.2869
 1768SOL    HW116937   2.723   3.259   8.202  0.2044  0.0637 -1.2454
 1768SOL    HW216938   2.667   3.124   8.184  0.6658 -1.5898  3.1796
 1769SOL     OW16939   4.569   1.987   9.206  0.2262 -0.5977  0.4388
 1769SOL    HW116940   4.506   2.007   9.275 -1.3525  2.2650 -1.8157
 1769SOL    HW216941   4.637   2.052   9.224  0.3643 -1.3878  2.7462
 1770SOL     OW16942   1.945   1.467   4.221 -0.1044 -0.1552  0.5444
 1770SOL    HW116943   1.957   1.535   4.288 -0.4487 -0.0852  0.5357
 1770SOL    HW216944   1.872   1.507   4.173 -0.1778 -1.0724 -0.1176
 1771SOL     OW16945   2.793   2.548  11.619  0.0831 -0.5684 -0.5837
 1771SOL    HW116946   2.832   2.601  11.689 -2.4700  0.7130 -0.1471
 1771SOL    HW216947   2.712   2.594  11.598  0.3781  0.4679  0.5136
 1772SOL     OW16948   2.584   2.100   0.193  0.4065  0.5075 -0.0247
 1772SOL    HW116949   2.639   2.063   0.123 -3.4834 -2.5352 -1.5030
 1772SOL    HW216950   2.578   2.193   0.171 -0.3050  0.3312 -0.6151
 1773SOL     OW16951   3.712   0.085   1.878 -0.1993 -0.8668 -0.3577
 1773SOL    HW116952   3.804   0.102   1.856 -0.1640  1.1822  1.3780
 1773SOL    HW216953   3.691   0.041   1.796 -2.8530 -1.1928  0.4865
 1774SOL     OW16954   4.343   1.977   3.152  0.4158 -0.0525  0.4244
 1774SOL    HW116955   4.268   1.933   3.112  2.1622 -0.6423 -2.2284
 1774SOL    HW216956   4.343   1.929   3.235  0.3188  0.4014  0.6893
 1775SOL     OW16957   0.379   1.389   5.961  0.9314 -0.3682 -1.0874
 1775SOL    HW116958   0.293   1.387   6.002  1.5134 -2.5823  0.0336
 1775SOL    HW216959   0.438   1.369   6.034 -0.5392 -1.0623 -0.1026
 1776SOL     OW16960   3.225   3.354   7.979 -0.0607  0.0160  0.0470
 1776SOL    HW116961   3.169   3.292   8.026  1.0880 -2.6987 -2.1985
 1776SOL    HW216962   3.164   3.408   7.929  1.5355  0.9714 -0.8885
 1777SOL     OW16963   1.085   2.178   1.461 -0.2483  0.2410  0.0599
 1777SOL    HW116964   1.009   2.187   1.518 -0.7050  1.3208 -0.7152
 1777SOL    HW216965   1.038   2.192   1.379  1.1965  3.5240 -0.2270
 1778SOL     OW16966   0.636   4.170   2.225 -0.0274 -0.3436  0.3558
 1778SOL    HW116967   0.722   4.192   2.190 -0.8390 -1.2609 -2.2194
 1778SOL    HW216968   0.573   4.195   2.157 -1.2532  1.6717  2.2315
 1779SOL     OW16969   1.456   1.673  12.862 -0.0579  0.3562 -0.2637
 1779SOL    HW116970   1.505   1.683  12.781  1.6531 -0.7452  0.6392
 1779SOL    HW216971   1.497   1.742  12.914  1.6246 -2.8899  2.7588
 1780SOL     OW16972   0.105   2.081  14.495 -0.1190  0.0117  0.4395
 1780SOL    HW116973   0.059   2.164  14.505 -1.3058 -0.6660  0.6198
 1780SOL    HW216974   0.041   2.021  14.457 -0.7387  1.4068 -0.7226
 1781SOL     OW16975   4.214   1.042  15.336 -0.1297  0.6923  0.2897
 1781SOL    HW116976   4.200   1.025  15.243  1.8135 -0.0627  0.1441
 1781SOL    HW216977   4.129   1.071  15.369 -0.1241  1.7216 -0.5981
 1782SOL     OW16978   4.246   3.413   4.971 -0.2236  0.0178  0.1967
 1782SOL    HW116979   4.294   3.407   4.888  2.2211  1.9489  1.5120
 1782SOL    HW216980   4.305   3.371   5.034  0.3768  0.0494 -0.3449
 1783SOL     OW16981   0.415   2.319  15.195  0.0562  0.2173  0.1097
 1783SOL    HW116982   0.461   2.381  15.138  1.1227 -0.1747  0.5334
 1783SOL    HW216983   0.450   2.332  15.284 -2.2796 -0.2265  1.0875
 1784SOL     OW16984   3.330   2.042   9.092  0.2864  0.7042 -0.2143
 1784SOL    HW116985   3.270   1.971   9.115  2.4288 -1.1584 -0.2485
 1784SOL    HW216986   3.298   2.107   9.154  0.4988 -0.7681  1.4738
 1785SOL     OW16987   3.805   3.617   7.211 -0.1331  0.2228  0.0435
 1785SOL    HW116988   3.772   3.542   7.260 -0.2677  0.3450  0.1411
 1785SOL    HW216989   3.880   3.649   7.263  0.3221  0.5684 -0.8328
 1786SOL     OW16990   2.911   0.963   3.813  0.3774  0.2273 -0.3043
 1786SOL    HW116991   2.982   1.028   3.813  0.2180  0.4146  0.6806
 1786SOL    HW216992   2.847   1.004   3.755  0.1651  2.6511  1.5974
 1787SOL     OW16993   1.901   4.317   6.299 -0.1523 -0.4337 -0.2845
 1787SOL    HW116994   1.923   4.241   6.246 -0.0436 -0.9809  0.5568
 1787SOL    HW216995   1.865   4.275   6.377  0.1206 -0.7985 -0.3554
 1788SOL     OW16996   3.133   0.964  10.310  0.3819 -0.5365  0.1001
 1788SOL    HW116997   3.091   0.887  10.273  0.5318 -0.1686 -0.8365
 1788SOL    HW216998   3.066   1.005  10.365  2.1130 -0.3511  2.1085
 1789SOL     OW16999   1.894   2.408   5.035 -0.5443  0.1222 -0.3618
 1789SOL    HW117000   1.850   2.427   5.117  1.3577  1.4726  0.3584
 1789SOL    HW217001   1.989   2.403   5.050 -0.5876  1.5798  0.3658
 1790SOL     OW17002   0.183   0.368   3.871  0.0959 -0.6385 -0.2080
 1790SOL    HW117003   0.256   0.412   3.915  1.4257 -0.5317 -2.5183
 1790SOL    HW217004   0.174   0.290   3.926  1.0817 -0.6923 -0.1294
 1791SOL     OW17005   1.158   0.369   3.058  0.7669 -0.0214  0.9118
 1791SOL    HW117006   1.120   0.307   2.996 -0.8117  1.4238  0.4531
 1791SOL    HW217007   1.089   0.435   3.054 -0.9538 -1.9240 -0.4981
 1792SOL     OW17008   0.551   1.857  15.065 -0.6166  0.0257 -0.6301
 1792SOL    HW117009   0.529   1.931  15.009 -0.8577  1.3158  1.1488
 1792SOL    HW217010   0.531   1.785  15.006 -1.8919 -1.5774  1.7526
 1793SOL     OW17011   3.022   1.253  11.654  0.8904 -0.6806  0.3766
 1793SOL    HW117012   2.968   1.330  11.670  1.7277 -0.0711  0.3177
 1793SOL    HW217013   3.050   1.247  11.745  1.2311  0.0162  0.3193
 1794SOL     OW17014   0.872   1.985   4.551 -0.1865 -0.8314 -0.3343
 1794SOL    HW117015   0.787   2.025   4.532  0.7721  0.7229 -1.3793
 1794SOL    HW217016   0.849   1.897   4.578 -0.7386 -0.6070 -0.0808
 1795SOL     OW17017   4.411   0.588   3.503 -0.1151 -0.1047  0.5580
 1795SOL    HW117018   4.367   0.639   3.571  2.7430  1.3334  1.3387
 1795SOL    HW217019   4.343   0.538   3.459 -0.3585  2.5525 -2.0318
 1796SOL     OW17020   2.953   0.941   7.671  0.0882  0.1831  0.1622
 1796SOL    HW117021   2.912   0.859   7.643  0.7562 -0.5418  1.2828
 1796SOL    HW217022   3.023   0.909   7.728  1.6818  0.6711 -1.5499
 1797SOL     OW17023   0.314   3.633   6.502  0.1013 -0.2501  0.0952
 1797SOL    HW117024   0.233   3.600   6.462  0.1793 -3.3301  2.5103
 1797SOL    HW217025   0.287   3.682   6.579 -0.2243 -1.3062  0.6499
 1798SOL     OW17026   0.626   3.341   3.363  0.3678  0.3166  0.1292
 1798SOL    HW117027   0.580   3.349   3.279  2.8350 -2.7283 -1.4795
 1798SOL    HW217028   0.562   3.379   3.424  0.8675 -0.4662  1.1367
 1799SOL     OW17029   3.722   0.505  16.125 -0.3381  0.7606 -0.1065
 1799SOL    HW117030   3.738   0.463  16.040  1.5369 -0.2622  0.7537
 1799SOL    HW217031   3.642   0.551  16.100 -0.6584 -0.2416 -0.9620
 1800SOL     OW17032   4.379   1.826   6.324  0.0907 -0.1365 -0.7399
 1800SOL    HW117033   4.468   1.792   6.328  0.7509  1.4531 -1.9170
 1800SOL    HW217034   4.402   1.919   6.323  0.9241 -0.3391 -0.4592
 1801SOL     OW17035   4.701   3.411   7.255  0.4705 -0.0469  0.0475
 1801SOL    HW117036   0.019   3.484   7.278 -1.9373  1.1053  2.3726
 1801SOL    HW217037   0.021   3.336   7.252  0.8445  0.2558 -0.2013
 1802SOL     OW17038   0.430   2.125   3.816 -0.7006  0.2322  0.1854
 1802SOL    HW117039   0.472   2.051   3.773  1.4553  2.7252 -1.9796
 1802SOL    HW217040   0.413   2.182   3.741 -0.9707 -0.0628  0.0207
 1803SOL     OW17041   1.536   0.204   6.533 -0.0911 -0.5088  0.1407
 1803SOL    HW117042   1.581   0.201   6.617 -2.4240  2.1225  1.5038
 1803SOL    HW217043   1.476   0.130   6.541 -0.2016 -0.2904  1.3034
 1804SOL     OW17044   1.078   1.205  11.285 -0.0112  0.3457 -0.0359
 1804SOL    HW117045   1.074   1.151  11.364 -1.6138 -2.0552 -1.7360
 1804SOL    HW217046   1.013   1.269  11.314  0.6390  1.3330 -0.7613
 1805SOL     OW17047   1.269   2.218   3.094  0.4681 -0.0385 -0.1879
 1805SOL    HW117048   1.317   2.141   3.123 -3.3191 -1.6728  1.8426
 1805SOL    HW217049   1.238   2.189   3.008 -1.4638  0.5465  0.3050
 1806SOL     OW17050   3.851   1.724   7.890 -0.4182  0.2820  0.2276
 1806SOL    HW117051   3.888   1.801   7.933 -0.7365  0.9666 -0.7398
 1806SOL    HW217052   3.757   1.724   7.913 -0.6223 -0.8340 -0.6408
 1807SOL     OW17053   0.596   3.866  13.543 -0.0349  0.1725 -0.0403
 1807SOL    HW117054   0.664   3.855  13.477 -0.7098 -1.9478 -0.3748
 1807SOL    HW217055   0.622   3.935  13.604  1.2640 -0.7373  0.4346
 1808SOL     OW17056   2.797   1.468   6.970 -0.1398  0.1012  0.1392
 1808SOL    HW117057   2.769   1.477   7.061  0.5782 -1.7240  0.5418
 1808SOL    HW217058   2.870   1.529   6.982  0.0096  0.2597 -1.4763
 1809SOL     OW17059   2.481   0.652   3.157  0.2107  0.1412 -0.5082
 1809SOL    HW117060   2.508   0.744   3.150 -0.1966  0.0603 -3.3060
 1809SOL    HW217061   2.552   0.614   3.208  1.5448  1.7074 -1.1926
 1810SOL     OW17062   3.202   3.270   3.376  0.1304 -0.5047  0.2219
 1810SOL    HW117063   3.147   3.272   3.297  0.5086 -2.7449 -0.1067
 1810SOL    HW217064   3.183   3.181   3.405 -1.1134 -0.3605 -0.1338
 1811SOL     OW17065   0.009   2.795   5.517 -0.8528  0.7359 -0.2971
 1811SOL    HW117066   0.021   2.886   5.488  0.7574  0.7620  0.4614
 1811SOL    HW217067   4.681   2.802   5.585 -0.3759 -1.2297  0.3706
 1812SOL     OW17068   2.530   0.322  11.489  0.0398  0.4312 -0.2940
 1812SOL    HW117069   2.534   0.236  11.448 -1.4732 -0.1077  0.6814
 1812SOL    HW217070   2.566   0.379  11.421  1.9189  0.3766  0.6549
 1813SOL     OW17071   0.894   0.523   6.846 -0.1288  0.0004 -0.0670
 1813SOL    HW117072   0.920   0.433   6.866 -0.6591 -0.0660  0.3208
 1813SOL    HW217073   0.815   0.535   6.898  0.8412  1.6444  1.0088
 1814SOL     OW17074   1.392   3.562   6.159  1.0089 -0.7285  0.0292
 1814SOL    HW117075   1.341   3.643   6.165  0.7715 -1.0006  1.4988
 1814SOL    HW217076   1.365   3.504   6.230 -1.0549  0.8389  0.4996
 1815SOL     OW17077   2.577   2.011   8.739 -0.0570  0.5938  0.0469
 1815SOL    HW117078   2.531   2.001   8.655  2.1127 -0.8414 -0.9407
 1815SOL    HW217079   2.622   1.928   8.751 -0.9749  0.0652 -0.1942
 1816SOL     OW17080   3.436   4.039   4.281  0.4479  0.1429  0.2671
 1816SOL    HW117081   3.372   4.101   4.318 -1.7598 -1.7201 -0.4336
 1816SOL    HW217082   3.450   3.981   4.355 -0.3588  0.3405  0.5750
 1817SOL     OW17083   4.288   1.931  15.088  0.1839 -0.1637 -0.1927
 1817SOL    HW117084   4.368   1.905  15.133  0.0958  1.2498  0.7913
 1817SOL    HW217085   4.275   1.859  15.026 -0.9254  0.6106 -0.8664
 1818SOL     OW17086   1.186   0.878   5.603  0.1604 -0.2197 -0.2781
 1818SOL    HW117087   1.273   0.895   5.639  1.4762 -2.1230 -2.5654
 1818SOL    HW217088   1.136   0.888   5.684  0.2945 -0.6220 -0.1435
 1819SOL     OW17089   3.239   3.146  12.267  0.5161  0.4166  0.1669
 1819SOL    HW117090   3.145   3.134  12.252  0.2509  0.7053  1.6610
 1819SOL    HW217091   3.248   3.241  12.265 -0.4905  0.5349  1.3076
 1820SOL     OW17092   3.901   0.792   3.928 -0.0765 -0.3551  0.7064
 1820SOL    HW117093   3.934   0.708   3.896 -0.7791 -1.4717  2.9186
 1820SOL    HW217094   3.948   0.802   4.011 -2.2336 -0.5418  1.9322
 1821SOL     OW17095   2.822   1.860   7.924 -0.1188  0.0219 -0.2497
 1821SOL    HW117096   2.908   1.864   7.966  0.3399 -0.9854 -1.1012
 1821SOL    HW217097   2.818   1.771   7.888  1.8796 -0.4809  0.7861
 1822SOL     OW17098   4.194   0.685   6.650 -0.5578  0.3235  0.6604
 1822SOL    HW117099   4.181   0.634   6.729  1.1297 -0.9908  0.0937
 1822SOL    HW217100   4.268   0.639   6.612 -2.3218 -0.9234 -1.2464
 1823SOL     OW17101   4.246   3.512   8.940  0.3616  0.0436 -0.0974
 1823SOL    HW117102   4.211   3.461   8.866  0.2399  1.6945 -1.1786
 1823SOL    HW217103   4.316   3.556   8.892  0.9010 -0.9625 -0.2341
 1824SOL     OW17104   3.786   2.146   4.938 -0.3486  0.6423  0.1364
 1824SOL    HW117105   3.749   2.215   4.993 -0.1132  1.4060 -0.6634
 1824SOL    HW217106   3.869   2.135   4.983  0.9155 -3.4762 -3.1754
 1825SOL     OW17107   0.182   1.384   3.419  0.0434  0.1145 -0.8390
 1825SOL    HW117108   0.228   1.358   3.339 -1.6944  0.0452 -1.8030
 1825SOL    HW217109   0.104   1.421   3.379  0.7370  0.4326 -1.9162
 1826SOL     OW17110   0.160   1.267  16.640  0.2848 -0.4126 -0.2195
 1826SOL    HW117111   0.121   1.180  16.634 -2.1979  0.6225  0.9617
 1826SOL    HW217112   0.137   1.299  16.727 -0.3373 -1.1717 -0.1068
 1827SOL     OW17113   1.793   0.083   9.863 -0.3178  0.3368  0.0461
 1827SOL    HW117114   1.766   4.732   9.846 -1.8645  1.0502 -1.3032
 1827SOL    HW217115   1.807   0.089   9.958 -1.6595  2.9538  0.0864
 1828SOL     OW17116   2.652   4.492   9.432 -0.3564  0.0417  0.4239
 1828SOL    HW117117   2.612   4.444   9.359 -1.6805  0.3448  0.9479
 1828SOL    HW217118   2.743   4.492   9.404 -0.6911 -2.4812 -0.6997
 1829SOL     OW17119   2.760   2.391   5.211  0.2246  0.2139  0.1828
 1829SOL    HW117120   2.692   2.329   5.239 -0.0036  1.2571  1.9052
 1829SOL    HW217121   2.836   2.353   5.256 -0.0095  0.3101  0.6564
 1830SOL     OW17122   0.299   1.564  14.469 -0.3869  0.1247 -0.1808
 1830SOL    HW117123   0.389   1.575  14.500 -1.2931 -0.7737  2.6752
 1830SOL    HW217124   0.293   1.483  14.419 -0.6332  1.6764 -2.7167
 1831SOL     OW17125   0.559   3.421   9.587 -0.0755 -0.3718  0.1860
 1831SOL    HW117126   0.591   3.343   9.540  1.2367 -0.5090  1.3248
 1831SOL    HW217127   0.603   3.417   9.672 -2.9474  0.1912  1.6782
 1832SOL     OW17128   4.315   2.401   8.536  0.0709 -0.2582  0.3538
 1832SOL    HW117129   4.296   2.481   8.487  1.1762 -1.4495 -2.0220
 1832SOL    HW217130   4.226   2.383   8.566  0.9874 -2.1099  1.9305
 1833SOL     OW17131   2.322   0.776   2.563 -0.4414 -0.0082 -0.1223
 1833SOL    HW117132   2.252   0.803   2.504 -1.2652 -2.5083 -0.2866
 1833SOL    HW217133   2.316   0.858   2.611 -0.0333  0.3506 -0.6899
 1834SOL     OW17134   1.477   3.630  14.311 -0.5347 -0.3831  0.3922
 1834SOL    HW117135   1.492   3.538  14.291  2.1081  0.4239 -1.3925
 1834SOL    HW217136   1.443   3.613  14.399 -1.1387  0.2922  0.2864
 1835SOL     OW17137   1.650   3.643  15.271  0.6236  0.0539 -0.3108
 1835SOL    HW117138   1.650   3.549  15.255  0.3173  0.2065 -1.2127
 1835SOL    HW217139   1.677   3.640  15.363  1.1788 -2.0551 -0.5412
 1836SOL     OW17140   0.727   2.818  12.597 -0.9667 -0.4243 -0.1308
 1836SOL    HW117141   0.757   2.867  12.673 -0.2958  0.9956 -1.3060
 1836SOL    HW217142   0.777   2.850  12.521  0.0256  0.5655  0.9445
 1837SOL     OW17143   2.977   1.242   6.487  0.9822 -0.3780 -0.7531
 1837SOL    HW117144   3.003   1.225   6.396 -0.5390 -0.8753 -1.0976
 1837SOL    HW217145   2.980   1.152   6.519  1.2084 -0.9404 -2.3487
 1838SOL     OW17146   2.768   1.815  15.824 -0.4076 -0.0227  0.2113
 1838SOL    HW117147   2.802   1.784  15.740 -2.3553 -2.7306  0.4406
 1838SOL    HW217148   2.829   1.870  15.873 -0.4846  0.8352 -0.6594
 1839SOL     OW17149   3.028   1.680   6.680  0.1408 -0.6223  1.0318
 1839SOL    HW117150   2.965   1.619   6.642 -2.7441  2.8821  0.1516
 1839SOL    HW217151   2.962   1.743   6.710  0.5233  0.1068  0.3203
 1840SOL     OW17152   0.705   3.356   8.833 -0.2377  0.0474 -0.0450
 1840SOL    HW117153   0.610   3.361   8.846 -0.1299  0.0471  0.7519
 1840SOL    HW217154   0.729   3.448   8.848  1.0988 -0.3853  0.3800
 1841SOL     OW17155   2.087   1.857   7.617  0.0927  0.3400  0.1664
 1841SOL    HW117156   2.152   1.788   7.628 -0.5689 -0.5157 -1.2191
 1841SOL    HW217157   2.142   1.900   7.551 -1.8811  0.3807 -1.4771
 1842SOL     OW17158   0.904   0.495   3.470  0.3200 -0.0033  0.4509
 1842SOL    HW117159   0.982   0.451   3.501  0.0107  0.6694  2.1654
 1842SOL    HW217160   0.833   0.440   3.503  1.4667 -1.2251  0.8480
 1843SOL     OW17161   3.486   0.606  15.991  0.2433 -0.0313  0.0484
 1843SOL    HW117162   3.531   0.577  15.911 -1.1720  2.1215 -1.5364
 1843SOL    HW217163   3.429   0.676  15.960 -0.4510 -2.1511 -3.5922
 1844SOL     OW17164   0.794   3.277   3.742 -0.3377  0.0792  0.3411
 1844SOL    HW117165   0.795   3.313   3.653 -0.4351 -1.3035 -0.2155
 1844SOL    HW217166   0.839   3.196   3.719 -0.8242  0.3858 -1.7439
 1845SOL     OW17167   2.569   0.607  13.740  0.2570 -0.9452 -0.1852
 1845SOL    HW117168   2.526   0.589  13.656 -0.2475 -0.6032 -0.0018
 1845SOL    HW217169   2.510   0.672  13.779  0.8791 -1.0307  0.9103
 1846SOL     OW17170   0.922   3.100   4.210  0.2415 -0.1723 -0.1484
 1846SOL    HW117171   0.878   3.022   4.244 -2.9192  0.4506 -2.8101
 1846SOL    HW217172   0.935   3.078   4.118 -0.5196  0.2267 -0.3574
 1847SOL     OW17173   4.294   1.391  17.424 -0.0251  0.3882 -0.3311
 1847SOL    HW117174   4.278   1.326  17.356 -1.4869  0.0806  0.3183
 1847SOL    HW217175   4.286   1.468  17.367  1.0120 -0.0542 -1.0690
 1848SOL     OW17176   4.466   3.786  12.286  0.2536  0.2259 -0.7382
 1848SOL    HW117177   4.443   3.848  12.217  1.2695 -0.2812 -1.5172
 1848SOL    HW217178   4.381   3.784  12.330  1.8859  1.0485  2.4673
 1849SOL     OW17179   0.855   2.739   2.951  0.2185 -0.0335 -0.1817
 1849SOL    HW117180   0.764   2.749   2.922 -0.1811 -0.5750  0.8912
 1849SOL    HW217181   0.876   2.831   2.966  0.8386 -0.0209 -1.1590
 1850SOL     OW17182   4.453   4.408   7.551  0.1500  0.4307 -0.3115
 1850SOL    HW117183   4.411   4.486   7.516 -1.0792 -0.6312 -1.1704
 1850SOL    HW217184   4.538   4.415   7.506 -0.5081 -1.3171 -1.8346
 1851SOL     OW17185   1.855   1.096   8.440  0.2748  0.3434 -0.9185
 1851SOL    HW117186   1.810   1.108   8.523  1.4262  0.2019 -0.2640
 1851SOL    HW217187   1.780   1.118   8.385 -0.1782  0.3898 -0.2854
 1852SOL     OW17188   0.153   4.486   0.679  0.1008 -0.1131  0.3326
 1852SOL    HW117189   0.247   4.471   0.675  0.3555  1.7255 -0.7622
 1852SOL    HW217190   0.139   4.532   0.762  2.5519  0.4878  0.4231
 1853SOL     OW17191   2.956   2.189   8.051 -0.1428 -0.5198  0.3721
 1853SOL    HW117192   3.013   2.259   8.020 -0.7147 -0.0543  0.3859
 1853SOL    HW217193   3.010   2.112   8.032  1.8279  0.9475 -0.0277
 1854SOL     OW17194   0.894   0.123  15.952  0.2152  0.1219  0.0565
 1854SOL    HW117195   0.864   0.080  15.872  0.2540  0.1938  0.0035
 1854SOL    HW217196   0.976   0.163  15.924 -1.2053  2.5380 -0.7115
 1855SOL     OW17197   2.909   0.422   7.474  0.0960 -0.2526 -0.5845
 1855SOL    HW117198   2.825   0.380   7.455 -0.1668  0.4603 -1.0264
 1855SOL    HW217199   2.880   0.496   7.528 -0.1257 -0.5224 -0.3331
 1856SOL     OW17200   0.140   2.566   4.089 -0.1109  0.5896  0.1779
 1856SOL    HW117201   0.229   2.597   4.100 -0.4768  1.4099  0.7876
 1856SOL    HW217202   0.167   2.490   4.036 -0.3476  1.1962 -0.8195
 1857SOL     OW17203   2.684   4.610  14.747 -0.5193 -0.1493 -0.0198
 1857SOL    HW117204   2.731   4.565  14.677 -0.4888 -0.6805  0.3411
 1857SOL    HW217205   2.661   4.531  14.796  0.3337 -0.2055  0.2772
 1858SOL     OW17206   3.231   2.741   1.334 -0.4504 -0.1912  0.9019
 1858SOL    HW117207   3.304   2.698   1.289 -0.6343  1.0962 -0.6022
 1858SOL    HW217208   3.256   2.830   1.309  1.3358 -0.6342  1.0959
 1859SOL     OW17209   3.319   0.681   0.678  0.4795 -0.4168  0.2548
 1859SOL    HW117210   3.364   0.689   0.761 -2.2631 -0.2879  1.7233
 1859SOL    HW217211   3.364   0.752   0.632 -2.4511  1.9518  1.0845
 1860SOL     OW17212   1.894   4.647   2.546 -0.1851 -0.3012  0.1075
 1860SOL    HW117213   1.833   4.594   2.494 -1.2492  2.1062 -1.1206
 1860SOL    HW217214   1.833   4.713   2.580  2.1627  1.1698  1.4631
 1861SOL     OW17215   2.335   0.719   0.328 -0.1108 -0.1064  0.0428
 1861SOL    HW117216   2.306   0.632   0.354 -1.9529  0.0790 -1.3919
 1861SOL    HW217217   2.332   0.698   0.235 -1.7855  0.7642 -0.1075
 1862SOL     OW17218   0.683   1.869  15.430 -0.4302  0.4242 -0.5461
 1862SOL    HW117219   0.610   1.929  15.443 -0.3498  0.4204 -0.0736
 1862SOL    HW217220   0.713   1.869  15.521 -1.1786  0.3302 -0.3025
 1863SOL     OW17221   3.811   0.364   9.431 -0.0447 -0.2783 -0.3402
 1863SOL    HW117222   3.725   0.373   9.392  0.5364 -0.5360 -1.6864
 1863SOL    HW217223   3.837   0.456   9.437  1.7856 -0.8278  0.3932
 1864SOL     OW17224   1.901   3.975   3.203 -0.3284 -0.3489 -0.7429
 1864SOL    HW117225   1.898   4.042   3.134  0.0409  0.2752 -0.1505
 1864SOL    HW217226   1.818   3.935   3.178 -0.4921  0.4272 -1.4269
 1865SOL     OW17227   1.517   1.601   4.713  0.1355  0.1413  0.2472
 1865SOL    HW117228   1.450   1.655   4.754  1.8912  1.6504  1.1205
 1865SOL    HW217229   1.484   1.512   4.702 -0.5894  0.2146  1.8393
 1866SOL     OW17230   2.751   2.938   1.987 -0.1177  1.1068  0.0637
 1866SOL    HW117231   2.666   2.956   2.026  0.3092  2.5490  0.3384
 1866SOL    HW217232   2.779   3.028   1.969  0.6423  1.0597  0.9711
 1867SOL     OW17233   3.037   4.278   2.491  0.5281 -0.0268  0.4484
 1867SOL    HW117234   3.040   4.291   2.396  1.7281  2.6159  0.8354
 1867SOL    HW217235   3.007   4.189   2.508 -1.4720  0.8039  1.2664
 1868SOL     OW17236   3.795   3.690  10.855  0.5248 -0.1170  0.5839
 1868SOL    HW117237   3.837   3.621  10.804 -1.2150  1.0243 -2.3830
 1868SOL    HW217238   3.765   3.640  10.931 -1.3862  0.2741  0.0924
 1869SOL     OW17239   1.583   4.192  15.654 -0.2212  0.1886  0.1066
 1869SOL    HW117240   1.512   4.254  15.670 -0.5495 -0.5121  1.3260
 1869SOL    HW217241   1.649   4.238  15.705 -1.6036  2.0417  0.1875
 1870SOL     OW17242   1.281   2.769  11.573  0.2019 -0.4635 -0.0267
 1870SOL    HW117243   1.193   2.750  11.607  0.4794 -3.5221 -0.9780
 1870SOL    HW217244   1.268   2.800  11.483  0.5941 -2.4294 -0.7635
 1871SOL     OW17245   1.258   0.467   3.298  0.1320 -0.5037  0.5539
 1871SOL    HW117246   1.220   0.405   3.234 -0.2690  1.2613 -0.9188
 1871SOL    HW217247   1.220   0.545   3.257 -0.4581 -0.7862  0.5534
 1872SOL     OW17248   1.278   0.635  10.266  0.0857  0.3020  0.3337
 1872SOL    HW117249   1.248   0.710  10.215  2.0130 -0.0786 -1.3725
 1872SOL    HW217250   1.333   0.685  10.326 -0.3695  0.5350  0.5513
 1873SOL     OW17251   4.545   3.739   2.545 -0.1063 -0.0141  0.8943
 1873SOL    HW117252   4.595   3.699   2.473 -0.7191  1.0154 -0.1130
 1873SOL    HW217253   4.593   3.821   2.538 -0.2032 -0.0578 -0.4131
 1874SOL     OW17254   1.218   0.546   8.246  1.1125 -0.5377  0.0834
 1874SOL    HW117255   1.196   0.638   8.236  0.5353 -0.5336  1.4316
 1874SOL    HW217256   1.200   0.541   8.340  0.0137 -0.4282 -0.1257
 1875SOL     OW17257   0.759   0.435  13.910 -0.3894  0.6362  0.0092
 1875SOL    HW117258   0.849   0.452  13.938 -0.3732  2.2670 -1.0230
 1875SOL    HW217259   0.750   0.523  13.872  2.0691  0.7943 -0.2272
 1876SOL     OW17260   4.068   2.397   3.289 -0.3441  0.5389 -0.1345
 1876SOL    HW117261   3.974   2.383   3.282 -0.0099 -1.1623 -1.2163
 1876SOL    HW217262   4.076   2.447   3.370 -2.9701  0.4705  0.1391
 1877SOL     OW17263   2.732   0.771   8.848 -0.0847  0.1404 -0.0738
 1877SOL    HW117264   2.638   0.767   8.864 -0.1347  1.3889 -0.0695
 1877SOL    HW217265   2.754   0.858   8.879  1.7583 -0.1907 -0.4421
 1878SOL     OW17266   0.669   2.152  12.176  0.9069 -0.3131 -0.3975
 1878SOL    HW117267   0.644   2.159  12.268 -0.7340 -1.2845 -0.7849
 1878SOL    HW217268   0.585   2.134  12.135  0.0480  1.9253  0.3452
 1879SOL     OW17269   0.349   1.858   8.894 -0.0040  0.0499 -0.6619
 1879SOL    HW117270   0.374   1.838   8.803  0.2893 -5.0742  0.5171
 1879SOL    HW217271   0.286   1.930   8.889  0.1818  0.2246 -0.4690
 1880SOL     OW17272   3.681   2.546  17.069  0.4080  0.4007  0.2207
 1880SOL    HW117273   3.745   2.617  17.075  1.0193 -0.0950 -0.5126
 1880SOL    HW217274   3.708   2.525  16.980  0.8434 -1.6755  0.8567
 1881SOL     OW17275   2.519   1.248   4.431  0.0109 -0.2356  0.3320
 1881SOL    HW117276   2.602   1.229   4.475 -1.6674 -1.3958  3.0163
 1881SOL    HW217277   2.520   1.344   4.422 -2.3760 -0.1746  0.7351
 1882SOL     OW17278   0.870   1.508   2.308 -0.4189  0.0522  0.4187
 1882SOL    HW117279   0.889   1.586   2.256 -1.1592 -0.2097 -0.2377
 1882SOL    HW217280   0.854   1.550   2.393 -0.4643  0.5819  0.1477
 1883SOL     OW17281   3.506   4.097   8.649  0.2242 -0.4246  0.5002
 1883SOL    HW117282   3.595   4.126   8.629 -0.1462 -1.0313 -2.0908
 1883SOL    HW217283   3.456   4.167   8.608 -1.7493 -1.2724  1.4686
 1884SOL     OW17284   3.397   4.495  16.590  0.4887  0.0621 -0.4816
 1884SOL    HW117285   3.438   4.409  16.581  0.8806  0.0349  1.4918
 1884SOL    HW217286   3.476   4.548  16.586 -0.5123  1.5101 -0.7432
 1885SOL     OW17287   0.050   3.188   1.819  0.0494  0.2602 -0.0350
 1885SOL    HW117288   0.068   3.213   1.909  0.0126 -1.5663  0.4629
 1885SOL    HW217289   0.134   3.153   1.787 -0.7103 -2.3509  0.8749
 1886SOL     OW17290   3.651   0.164   7.206 -0.2046  0.3102  0.3626
 1886SOL    HW117291   3.563   0.132   7.224 -1.2670  3.4163  0.6278
 1886SOL    HW217292   3.660   0.144   7.113  1.9450 -1.1755  0.8808
 1887SOL     OW17293   2.315   3.923   4.186 -0.5584  0.1581 -0.1993
 1887SOL    HW117294   2.250   3.946   4.252  0.5831  2.7006  0.0177
 1887SOL    HW217295   2.384   3.980   4.218  0.9659 -1.2159 -1.0331
 1888SOL     OW17296   1.691   4.614   2.365  0.5826 -0.5263  0.3468
 1888SOL    HW117297   1.607   4.659   2.355  1.5805  1.6383  1.6322
 1888SOL    HW217298   1.738   4.677   2.310 -0.1152  1.2929  1.8094
 1889SOL     OW17299   3.386   0.049   9.231 -0.0824  0.2184 -0.2279
 1889SOL    HW117300   3.470   0.085   9.200 -1.6698  2.4469 -1.9456
 1889SOL    HW217301   3.336   0.130   9.228 -0.0139  0.2135 -1.5447
 1890SOL     OW17302   3.335   4.430  10.432  0.4777 -0.3658  0.2796
 1890SOL    HW117303   3.319   4.380  10.352 -0.4314 -0.5477  0.5782
 1890SOL    HW217304   3.254   4.418  10.482 -0.2728  0.6486 -0.6910
 1891SOL     OW17305   1.528   0.436  11.775 -0.3217 -0.1814  0.1147
 1891SOL    HW117306   1.549   0.466  11.687 -2.0363  1.3582  0.2374
 1891SOL    HW217307   1.586   0.489  11.828 -1.1783  1.6561 -0.7938
 1892SOL     OW17308   0.783   4.186   6.064 -0.1933 -0.0277 -0.2984
 1892SOL    HW117309   0.700   4.148   6.091  0.0697 -0.7809 -0.5295
 1892SOL    HW217310   0.763   4.221   5.978 -1.4038 -1.5011 -0.6190
 1893SOL     OW17311   4.169   0.061  11.794  0.3595  0.3104 -0.5130
 1893SOL    HW117312   4.080   0.036  11.769  0.8234 -1.1418 -0.6673
 1893SOL    HW217313   4.177   0.020  11.880 -0.9692 -0.7710 -0.9003
 1894SOL     OW17314   4.092   3.498   8.138  0.3293  0.4477 -0.5542
 1894SOL    HW117315   4.123   3.472   8.224  0.0216  0.1277 -0.5386
 1894SOL    HW217316   4.166   3.543   8.097 -0.4463  3.5156  1.4664
 1895SOL     OW17317   1.770   0.482   3.158 -0.3554 -0.5008 -0.0944
 1895SOL    HW117318   1.814   0.532   3.226 -2.4180  0.1267  0.7979
 1895SOL    HW217319   1.764   0.549   3.090  0.9604  0.1709  0.4674
 1896SOL     OW17320   2.500   1.444   2.822 -0.2902 -0.0563 -0.0358
 1896SOL    HW117321   2.423   1.393   2.796  0.9293 -1.5696 -0.5962
 1896SOL    HW217322   2.576   1.401   2.783  1.8592  1.1011  2.8987
 1897SOL     OW17323   3.269   4.603   6.752 -0.1689 -0.7781 -0.6428
 1897SOL    HW117324   3.235   4.616   6.663  2.4355  0.1047 -1.5124
 1897SOL    HW217325   3.211   4.533   6.781 -2.4091 -0.3811 -4.2354
 1898SOL     OW17326   3.986   2.657   3.040 -0.0633  0.7379 -0.1153
 1898SOL    HW117327   4.064   2.631   3.089 -1.1950  0.6228  1.6045
 1898SOL    HW217328   3.994   2.752   3.035  1.0162  0.5882 -1.2425
 1899SOL     OW17329   2.909   1.477  17.689  0.6693 -0.0286 -0.1480
 1899SOL    HW117330   2.998   1.447  17.672 -0.1639 -2.1400 -0.8190
 1899SOL    HW217331   2.888   1.512  17.602 -2.0580 -1.0214  0.1263
 1900SOL     OW17332   4.627   2.580   6.476 -0.1726 -0.3961  0.1678
 1900SOL    HW117333   4.649   2.666   6.441  3.3412 -1.9682 -1.5031
 1900SOL    HW217334   4.571   2.597   6.552  0.5965 -1.0002  0.8715
 1901SOL     OW17335   4.335   4.295   3.789  0.3260 -0.0818  0.4250
 1901SOL    HW117336   4.310   4.323   3.877  2.8432 -0.7910  1.3675
 1901SOL    HW217337   4.246   4.270   3.763  0.2332  1.4015 -0.6909
 1902SOL     OW17338   3.542   2.153  15.523 -0.5783  0.7395 -0.0380
 1902SOL    HW117339   3.465   2.179  15.472  0.6423  1.7361 -1.4003
 1902SOL    HW217340   3.571   2.083  15.464 -0.2160  0.3609  0.5873
 1903SOL     OW17341   3.531   1.952   7.031 -0.1012  0.8088  0.0997
 1903SOL    HW117342   3.532   2.007   6.953  1.4547  0.3292 -0.2239
 1903SOL    HW217343   3.539   1.868   6.986  1.8075  0.5618  0.9028
 1904SOL     OW17344   3.104   3.743  15.698 -0.0707 -0.0587  0.0710
 1904SOL    HW117345   3.065   3.676  15.755  1.6265 -2.1590 -1.2171
 1904SOL    HW217346   3.039   3.747  15.628 -0.6109 -5.4817  0.2071
 1905SOL     OW17347   1.855   4.692   4.365  0.2345  0.2418  0.2154
 1905SOL    HW117348   1.818   4.690   4.276  1.9993  2.1503 -0.5673
 1905SOL    HW217349   1.776   4.711   4.416 -0.1777 -0.2073 -0.2628
 1906SOL     OW17350   1.193   0.713   7.183 -0.5111  0.0005 -0.1335
 1906SOL    HW117351   1.139   0.719   7.105 -0.1666  2.2911 -0.1804
 1906SOL    HW217352   1.274   0.672   7.153 -0.9744  0.8565 -2.5486
 1907SOL     OW17353   4.593   1.494  12.081 -0.4203  0.3916  0.2408
 1907SOL    HW117354   4.509   1.534  12.104 -0.7731  0.8209 -1.8062
 1907SOL    HW217355   4.650   1.560  12.121 -1.9389  1.7588  0.1343
 1908SOL     OW17356   4.109   4.024  16.774 -0.2902  0.4866 -0.8576
 1908SOL    HW117357   4.028   4.007  16.727  0.5935 -1.4885 -1.6630
 1908SOL    HW217358   4.162   4.089  16.728  1.2247  1.0862  1.7540
 1909SOL     OW17359   2.276   0.639  11.274 -0.0623  0.7606 -0.3566
 1909SOL    HW117360   2.248   0.719  11.318  1.2658  1.0304 -0.0139
 1909SOL    HW217361   2.285   0.575  11.345 -0.8456  2.3480  1.1649
 1910SOL     OW17362   3.313   0.294   8.336  0.5764 -0.0934 -0.0855
 1910SOL    HW117363   3.352   0.354   8.399 -1.3367  2.0122 -0.9101
 1910SOL    HW217364   3.263   0.244   8.400 -0.3297  0.0446 -0.6712
 1911SOL     OW17365   3.396   3.914   4.822  0.3432  0.4225 -0.2149
 1911SOL    HW117366   3.307   3.919   4.786  1.3991 -1.7591 -3.1622
 1911SOL    HW217367   3.431   3.990   4.775 -1.0986  1.3423  0.2049
 1912SOL     OW17368   2.872   3.951  15.832  0.2226 -0.1463 -0.2243
 1912SOL    HW117369   2.863   4.045  15.816 -1.0998 -0.3109 -0.4005
 1912SOL    HW217370   2.934   3.932  15.762  0.6057  2.8775 -0.7242
 1913SOL     OW17371   4.278   2.783   6.366  0.4496 -0.0615 -0.6012
 1913SOL    HW117372   4.318   2.745   6.444  1.9068  1.9972 -0.3586
 1913SOL    HW217373   4.347   2.783   6.300  1.0409  1.4975  0.0291
 1914SOL     OW17374   3.825   1.063   8.002  0.0737 -0.1254 -0.1153
 1914SOL    HW117375   3.835   0.978   7.959  2.7083 -0.6689  1.5166
 1914SOL    HW217376   3.898   1.107   7.957  0.7667  0.1264  1.2484
 1915SOL     OW17377   2.741   1.955   6.108 -0.1031  0.8846 -0.8071
 1915SOL    HW117378   2.753   2.013   6.033 -0.0831  2.1192  0.1642
 1915SOL    HW217379   2.791   1.876   6.086 -0.0843  0.6482  0.0662
 1916SOL     OW17380   4.592   0.005   3.917 -0.1505 -0.0896  0.2887
 1916SOL    HW117381   4.678   0.024   3.955 -0.1157  0.3711 -0.0242
 1916SOL    HW217382   4.618   4.717   3.829  1.2720  0.1651  0.6329
 1917SOL     OW17383   1.099   2.002  15.152 -0.4121 -0.1621 -0.2426
 1917SOL    HW117384   1.065   2.091  15.141 -0.2161  0.0686  1.0878
 1917SOL    HW217385   1.059   1.982  15.236 -1.2274 -0.6367 -0.7406
 1918SOL     OW17386   2.679   3.553   6.280 -0.1892  0.1689  0.1124
 1918SOL    HW117387   2.773   3.556   6.300  0.5303 -0.1197 -3.2457
 1918SOL    HW217388   2.650   3.473   6.325 -2.2409  0.8760  0.0235
 1919SOL     OW17389   3.228   2.755  13.876  0.4749 -0.0094  0.0525
 1919SOL    HW117390   3.312   2.749  13.921 -0.8613  1.7109  2.7811
 1919SOL    HW217391   3.203   2.664  13.893 -1.4372  0.2632 -1.2586
 1920SOL     OW17392   1.461   0.248   9.385  0.0089 -0.5914 -0.0225
 1920SOL    HW117393   1.452   0.163   9.427  0.7238 -1.3155 -1.3267
 1920SOL    HW217394   1.481   0.226   9.294 -2.1543 -3.5389  0.2152
 1921SOL     OW17395   3.899   1.104   6.431  0.6114  0.0426 -0.0713
 1921SOL    HW117396   3.958   1.060   6.370  0.8099  1.7507 -1.1408
 1921SOL    HW217397   3.846   1.146   6.363  2.0535 -0.6748 -1.6230
 1922SOL     OW17398   0.615   3.883  13.116 -0.0870 -0.2835  0.5733
 1922SOL    HW117399   0.553   3.928  13.173  0.1885  1.4792 -0.5306
 1922SOL    HW217400   0.598   3.793  13.144 -1.6369 -0.2520 -0.2363
 1923SOL     OW17401   0.402   2.156   6.569  0.7259  0.5425  0.9059
 1923SOL    HW117402   0.442   2.070   6.573 -0.1694  0.0485 -0.6280
 1923SOL    HW217403   0.387   2.149   6.474 -0.1268  1.0175  1.0005
 1924SOL     OW17404   3.654   1.639   7.584 -0.3508 -0.1109  0.2694
 1924SOL    HW117405   3.706   1.683   7.517 -0.5394 -2.3459 -1.3482
 1924SOL    HW217406   3.595   1.710   7.609 -0.8065 -0.1712 -0.6335
 1925SOL     OW17407   1.989   4.033   1.701  0.0274  0.2227 -0.4325
 1925SOL    HW117408   1.969   4.054   1.610 -2.7452  1.0226  0.3562
 1925SOL    HW217409   1.899   4.021   1.733 -0.0280  0.2629 -0.5750
 1926SOL     OW17410   0.873   2.298   0.101 -0.3597  0.6305  0.1898
 1926SOL    HW117411   0.957   2.294   0.055 -0.1004  1.9467  0.5616
 1926SOL    HW217412   0.854   2.204   0.103  1.0485  0.3346 -0.3537
 1927SOL     OW17413   0.874   4.564  11.815 -0.4666 -0.4963 -0.3144
 1927SOL    HW117414   0.798   4.622  11.811  0.3357  0.4629 -1.4095
 1927SOL    HW217415   0.865   4.520  11.900 -0.7094 -1.4316 -0.8200
 1928SOL     OW17416   0.007   2.403   7.204  0.0768 -0.5087 -0.0266
 1928SOL    HW117417   4.704   2.339   7.262 -0.4403  1.5499  1.8910
 1928SOL    HW217418   4.707   2.384   7.119  0.9489  0.0233 -0.5458
 1929SOL     OW17419   0.260   2.296   8.013  0.1715  0.0608 -0.2373
 1929SOL    HW117420   0.287   2.220   7.962  2.3664 -0.8993  2.3334
 1929SOL    HW217421   0.336   2.352   8.004  1.1809 -1.4666 -1.2331
 1930SOL     OW17422   1.619   0.682  11.268  0.1543  0.2085  0.1295
 1930SOL    HW117423   1.601   0.690  11.174  2.1496 -2.1881 -0.4346
 1930SOL    HW217424   1.681   0.610  11.267 -0.7507 -0.5702 -0.1992
 1931SOL     OW17425   4.341   0.461   8.793  0.0540  0.3129 -0.3151
 1931SOL    HW117426   4.390   0.533   8.754 -0.1576  1.5639  1.7389
 1931SOL    HW217427   4.311   0.421   8.711 -0.1498  1.1673 -0.6532
 1932SOL     OW17428   1.453   0.870   8.051 -0.0550  0.0290 -0.3136
 1932SOL    HW117429   1.394   0.831   7.987  1.8214 -0.3101 -1.8631
 1932SOL    HW217430   1.444   0.963   8.033 -0.5788  0.0344 -0.0007
 1933SOL     OW17431   3.983   4.687  10.425 -0.0715  0.0606 -0.1194
 1933SOL    HW117432   4.053   4.683  10.360 -0.7625 -0.7714 -0.8090
 1933SOL    HW217433   3.914   4.634  10.385 -1.7656  1.7074  0.6074
 1934SOL     OW17434   1.603   4.524  11.583  0.0394  0.1807 -0.0711
 1934SOL    HW117435   1.549   4.478  11.648 -1.0696  0.1598 -1.0244
 1934SOL    HW217436   1.692   4.526  11.621 -0.3928 -2.3032  1.0671
 1935SOL     OW17437   4.555   4.430   7.807  0.4165 -0.0744 -0.0811
 1935SOL    HW117438   4.524   4.425   7.716  0.1012 -0.5979  0.0586
 1935SOL    HW217439   4.616   4.357   7.813 -1.0414 -1.1967  0.9597
 1936SOL     OW17440   0.577   1.639   7.296  0.3722 -0.5595 -0.4252
 1936SOL    HW117441   0.656   1.689   7.316  0.8898 -1.9525  1.0062
 1936SOL    HW217442   0.611   1.564   7.248  1.2426 -1.7804  2.0957
 1937SOL     OW17443   3.573   1.561   8.380  0.0638  0.5035 -0.2035
 1937SOL    HW117444   3.599   1.573   8.289 -1.9142  3.0387 -0.4381
 1937SOL    HW217445   3.643   1.508   8.417 -0.8824  0.0590  0.9472
 1938SOL     OW17446   0.244   2.132   7.001  0.1141 -0.4358 -0.1960
 1938SOL    HW117447   0.294   2.141   7.082 -0.6389  1.4248  0.0517
 1938SOL    HW217448   0.278   2.206   6.951 -0.3708  0.4404  0.7856
 1939SOL     OW17449   2.946   2.477   2.772 -0.5265 -0.2551  0.2973
 1939SOL    HW117450   2.884   2.505   2.840  0.5350  0.3438  1.0051
 1939SOL    HW217451   2.965   2.552   2.716 -0.8298  1.2666  2.2260
 1940SOL     OW17452   2.734   1.948   5.350 -0.4074 -0.1220  0.2372
 1940SOL    HW117453   2.810   1.896   5.373  1.5424  1.9981 -1.3294
 1940SOL    HW217454   2.785   2.029   5.345 -0.2441 -0.3182 -1.2177
 1941SOL     OW17455   0.089   2.188   5.496 -0.1109 -0.0594  0.1045
 1941SOL    HW117456   0.075   2.280   5.471 -1.4950  0.1720  1.7535
 1941SOL    HW217457   0.081   2.137   5.415 -0.3702  0.1789 -0.0185
 1942SOL     OW17458   0.212   3.626   6.960 -0.6794 -0.4985 -0.7974
 1942SOL    HW117459   0.256   3.676   7.028 -0.5370 -0.4404 -0.9326
 1942SOL    HW217460   0.271   3.551   6.951 -1.1328 -0.9164 -0.2381
 1943SOL     OW17461   3.661   3.735   1.739  0.7005  0.0516  0.4475
 1943SOL    HW117462   3.588   3.686   1.777  0.3549 -0.4441 -0.8581
 1943SOL    HW217463   3.683   3.802   1.803  2.4699  0.6558 -0.7781
 1944SOL     OW17464   3.619   3.083   7.516  0.3493  0.1478  0.2354
 1944SOL    HW117465   3.624   3.078   7.421  1.0945 -3.5521  0.4456
 1944SOL    HW217466   3.710   3.065   7.538  0.1286 -1.4383 -0.1445
 1945SOL     OW17467   3.450   2.778   2.860 -0.1795  0.0758 -0.0340
 1945SOL    HW117468   3.498   2.861   2.860  0.2441 -0.1845  1.5264
 1945SOL    HW217469   3.481   2.747   2.774 -0.7328  0.9888 -0.5667
 1946SOL     OW17470   2.042   3.641   2.624 -0.5010 -0.6024 -0.0112
 1946SOL    HW117471   2.045   3.634   2.720 -1.3409  0.9513  0.1231
 1946SOL    HW217472   2.021   3.550   2.602 -2.8232  0.0497 -0.4749
 1947SOL     OW17473   4.142   3.674   5.770 -0.3557 -0.0413 -0.3860
 1947SOL    HW117474   4.104   3.742   5.713 -2.7635 -0.5572  0.6160
 1947SOL    HW217475   4.233   3.704   5.779  0.5440 -2.7954 -0.3806
 1948SOL     OW17476   2.552   2.509   6.565  0.0530 -0.3102  0.7748
 1948SOL    HW117477   2.511   2.423   6.567 -1.9767  0.6860  2.6458
 1948SOL    HW217478   2.500   2.557   6.500  0.6790  1.1639  1.3446
 1949SOL     OW17479   3.536   3.647   7.406 -0.1831 -0.2000  0.0286
 1949SOL    HW117480   3.493   3.701   7.472 -2.1745  0.5980 -1.9262
 1949SOL    HW217481   3.584   3.720   7.369 -2.9242  1.6561  0.1731
 1950SOL     OW17482   2.719   3.749  11.305  0.4855 -0.2663 -0.5490
 1950SOL    HW117483   2.745   3.840  11.288  0.2703 -0.3240 -1.1695
 1950SOL    HW217484   2.807   3.718  11.328 -0.6921 -1.7881  1.8409
 1951SOL     OW17485   1.137   1.462   7.042  0.1060  0.4688 -0.1767
 1951SOL    HW117486   1.142   1.378   7.088 -0.0060  0.8857  0.6051
 1951SOL    HW217487   1.214   1.510   7.070  0.6622 -2.2338  2.9556
 1952SOL     OW17488   4.580   3.464   5.803  0.4833  0.2586 -0.0221
 1952SOL    HW117489   4.660   3.454   5.752  0.2291 -1.5122 -0.0719
 1952SOL    HW217490   4.601   3.472   5.896  0.4946 -0.8370  0.0698
 1953SOL     OW17491   0.491   2.298   7.793  0.1783 -0.3131  0.1460
 1953SOL    HW117492   0.502   2.379   7.843 -3.4254  1.2930 -1.7212
 1953SOL    HW217493   0.534   2.332   7.714  1.1717  0.5706  1.0607
 1954SOL     OW17494   3.019   0.631   2.443 -0.3129  0.1510 -0.5364
 1954SOL    HW117495   2.980   0.593   2.365 -2.0450  2.6965 -0.9066
 1954SOL    HW217496   2.961   0.590   2.507 -1.0656  0.7326 -0.8498
 1955SOL     OW17497   1.334   3.703   2.412  0.3080  0.2710  0.6225
 1955SOL    HW117498   1.272   3.755   2.361  3.9520  1.6005 -2.4764
 1955SOL    HW217499   1.388   3.764   2.462  0.9385  0.5885 -0.4379
 1956SOL     OW17500   2.780   4.335   7.069 -0.0954 -0.3527 -0.5724
 1956SOL    HW117501   2.835   4.275   7.020  1.5296 -0.3489  1.2595
 1956SOL    HW217502   2.691   4.301   7.068  1.1536 -3.5236 -1.2714
 1957SOL     OW17503   1.472   2.551   5.843 -0.0664 -0.0910  0.0897
 1957SOL    HW117504   1.406   2.546   5.911  0.2495 -0.0339  0.3999
 1957SOL    HW217505   1.436   2.618   5.784  2.5922 -0.0377 -1.4947
 1958SOL     OW17506   0.351   1.743  12.271 -0.5637  0.2763  0.5448
 1958SOL    HW117507   0.298   1.817  12.238  1.5836  1.4945 -0.1856
 1958SOL    HW217508   0.343   1.744  12.366 -1.8455  3.1191  0.4242
 1959SOL     OW17509   1.333   1.809   2.085 -0.2563 -0.1477  0.3802
 1959SOL    HW117510   1.268   1.822   2.016 -0.1390  0.4373  0.3774
 1959SOL    HW217511   1.272   1.832   2.156 -1.8843  0.3683 -1.1825
 1960SOL     OW17512   0.902   2.725   0.698  0.0271  0.1298  0.0521
 1960SOL    HW117513   0.830   2.766   0.650 -1.1748 -2.4877 -0.3304
 1960SOL    HW217514   0.931   2.658   0.636  0.5964 -0.3788  0.8663
 1961SOL     OW17515   3.683   0.396   3.699 -0.1066 -0.3049  0.1722
 1961SOL    HW117516   3.593   0.380   3.728  0.4981  0.3078  2.4108
 1961SOL    HW217517   3.727   0.312   3.710  0.1104 -0.5819 -3.0178
 1962SOL     OW17518   0.611   2.335  16.892  0.1109  0.4660  0.1146
 1962SOL    HW117519   0.571   2.421  16.901  0.8822  0.8185  0.1517
 1962SOL    HW217520   0.571   2.302  16.811 -0.2085 -0.5747  0.6874
 1963SOL     OW17521   3.065   2.659   4.706  0.0290  0.2296 -0.2726
 1963SOL    HW117522   2.993   2.607   4.670  0.1837  0.2344 -0.5789
 1963SOL    HW217523   3.024   2.744   4.725  1.0636  0.6134  0.2110
 1964SOL     OW17524   1.910   1.293  13.146 -0.1769 -0.1763  0.1779
 1964SOL    HW117525   1.959   1.369  13.177  0.7570 -0.6772 -0.0855
 1964SOL    HW217526   1.972   1.256  13.083 -1.5032  0.3660 -1.4641
 1965SOL     OW17527   3.656   4.045  16.435  0.3006  0.0394  0.2439
 1965SOL    HW117528   3.751   4.054  16.442  0.1952  0.1511  1.4487
 1965SOL    HW217529   3.642   3.951  16.425 -0.7502  0.2935 -0.6279
 1966SOL     OW17530   3.817   1.596   1.601 -0.4781 -0.1169  0.6839
 1966SOL    HW117531   3.775   1.616   1.517  0.3672  0.2335  0.3426
 1966SOL    HW217532   3.801   1.677   1.650 -1.5172 -0.3160  0.6627
 1967SOL     OW17533   2.567   3.274  13.679 -1.0457  0.0284  0.2544
 1967SOL    HW117534   2.506   3.333  13.724  1.6875  1.4584  2.0783
 1967SOL    HW217535   2.624   3.331  13.628  0.0866 -0.3537  1.0997
 1968SOL     OW17536   1.963   2.307   6.448 -0.5460 -0.4698  0.0306
 1968SOL    HW117537   2.005   2.342   6.526 -0.1484 -1.5668  0.3007
 1968SOL    HW217538   2.001   2.219   6.441  2.5849  0.9823 -1.3090
 1969SOL     OW17539   1.664   4.579  15.515  0.8676  0.0741 -0.6452
 1969SOL    HW117540   1.725   4.518  15.556  2.8573  1.2614 -1.7647
 1969SOL    HW217541   1.723   4.626  15.455  2.1485  1.4294  1.6691
 1970SOL     OW17542   0.911   0.454   3.184 -0.3177 -0.4578 -0.5819
 1970SOL    HW117543   0.925   0.486   3.273 -3.9595 -0.8001  0.1235
 1970SOL    HW217544   0.874   0.528   3.137  0.6831 -0.9907 -2.2117
 1971SOL     OW17545   1.945   0.182   2.894  0.3034  0.5680  0.4959
 1971SOL    HW117546   1.895   0.200   2.974  2.6796 -1.8613  2.5268
 1971SOL    HW217547   2.026   0.143   2.927  0.5084  0.1066 -0.5631
 1972SOL     OW17548   1.036   0.811   5.822  0.0525  0.1311  0.1350
 1972SOL    HW117549   1.098   0.861   5.875  1.2044 -0.7767 -0.3625
 1972SOL    HW217550   0.980   0.761   5.881 -1.9223  0.8917 -1.0797
 1973SOL     OW17551   2.406   3.209   3.359 -0.4187 -0.1924 -0.0377
 1973SOL    HW117552   2.454   3.131   3.389 -1.0015 -0.9754 -1.1218
 1973SOL    HW217553   2.325   3.192   3.408  0.2682 -4.8270 -0.4418
 1974SOL     OW17554   4.644   0.178   6.492  1.0330 -0.0591 -0.0155
 1974SOL    HW117555   4.657   0.221   6.576 -0.4329 -0.3482  0.3672
 1974SOL    HW217556   4.550   0.163   6.502  1.1981 -0.1276  1.4777
 1975SOL     OW17557   3.857   1.892  17.517 -0.0591  0.3943 -0.3538
 1975SOL    HW117558   3.915   1.945  17.572 -0.4590 -0.7953  1.2086
 1975SOL    HW217559   3.900   1.895  17.432  1.0251  1.4742  0.2211
 1976SOL     OW17560   0.135   4.509   3.634 -0.1585 -0.1413  0.1531
 1976SOL    HW117561   0.148   4.599   3.663  1.3462 -0.8672  1.8147
 1976SOL    HW217562   0.146   4.516   3.540 -1.9088 -3.2395 -0.2890
 1977SOL     OW17563   4.279   1.988  12.359  0.7669 -1.0075  0.6927
 1977SOL    HW117564   4.193   1.970  12.320  1.1244 -2.7369  0.7286
 1977SOL    HW217565   4.303   1.914  12.414  3.2708  0.8095  2.0593
 1978SOL     OW17566   0.492   0.606  13.727 -0.1108 -0.5218 -0.0647
 1978SOL    HW117567   0.581   0.623  13.756 -0.9135  0.2773  1.9521
 1978SOL    HW217568   0.452   0.584  13.811 -0.3899  2.2227  0.4965
 1979SOL     OW17569   2.586   1.037   2.680  0.0101 -0.2750  0.2660
 1979SOL    HW117570   2.588   1.098   2.753  0.7085  0.2674 -0.1998
 1979SOL    HW217571   2.578   1.098   2.607  0.4569  0.6467  0.9796
 1980SOL     OW17572   2.300   1.588   4.138 -0.2158  0.2545  0.0053
 1980SOL    HW117573   2.301   1.567   4.232 -1.9962 -3.2052 -0.7596
 1980SOL    HW217574   2.380   1.640   4.131 -0.0487 -0.1466 -0.9822
 1981SOL     OW17575   0.948   3.112   1.932  0.0095  0.0800 -0.0076
 1981SOL    HW117576   0.864   3.153   1.910  2.0147  2.1911 -3.6616
 1981SOL    HW217577   0.959   3.061   1.852  2.4513 -1.8603  1.5702
 1982SOL     OW17578   0.570   3.950   9.241  0.4576 -0.4943  0.1285
 1982SOL    HW117579   0.488   3.915   9.276  1.4238 -1.7670  1.1596
 1982SOL    HW217580   0.546   3.937   9.149 -1.4286 -0.2375  0.5820
 1983SOL     OW17581   3.334   0.770   9.213 -0.5858 -0.0079 -0.1586
 1983SOL    HW117582   3.325   0.719   9.294  0.6091  0.4952  0.2925
 1983SOL    HW217583   3.244   0.796   9.194 -0.5537  0.2913  0.0908
 1984SOL     OW17584   0.637   0.829   2.656  0.3142  0.0133 -0.2329
 1984SOL    HW117585   0.588   0.780   2.589 -0.5267  0.0529  0.3530
 1984SOL    HW217586   0.725   0.794   2.644 -0.0645 -0.9353 -0.2391
 1985SOL     OW17587   1.999   0.828   3.823 -0.8702 -0.1327  0.2282
 1985SOL    HW117588   2.071   0.796   3.876 -1.6299  0.1889  1.4448
 1985SOL    HW217589   1.975   0.912   3.863 -2.4242 -1.3168  1.7403
 1986SOL     OW17590   2.292   1.128   3.501 -0.1571  0.4195  0.0049
 1986SOL    HW117591   2.258   1.057   3.556  1.1590  0.5133  0.9277
 1986SOL    HW217592   2.370   1.084   3.466 -0.0705  0.1770  0.5065
 1987SOL     OW17593   4.059   2.172   7.222 -0.1863 -0.1142 -0.4995
 1987SOL    HW117594   4.119   2.241   7.248  0.3457 -0.0764 -1.8241
 1987SOL    HW217595   3.981   2.189   7.276  0.2070  1.6209 -0.4867
 1988SOL     OW17596   2.386   3.195   7.257 -0.0022  0.7023  0.3881
 1988SOL    HW117597   2.309   3.157   7.214 -0.9497  2.2079  0.7656
 1988SOL    HW217598   2.351   3.217   7.343  1.7134  0.0156  1.2468
 1989SOL     OW17599   1.596   3.072  13.001 -0.5424  0.4463 -0.2442
 1989SOL    HW117600   1.570   2.986  13.035  3.1359 -0.9003 -0.9054
 1989SOL    HW217601   1.633   3.056  12.915  0.5584 -0.1559  0.3373
 1990SOL     OW17602   2.637   3.332   6.483 -0.2891  0.0966 -0.2761
 1990SOL    HW117603   2.560   3.279   6.461 -0.0188  0.5091 -2.1857
 1990SOL    HW217604   2.686   3.263   6.528 -1.4437  1.6929  3.4164
 1991SOL     OW17605   2.580   0.471   3.477 -0.5621  0.4870  0.2879
 1991SOL    HW117606   2.646   0.448   3.543 -0.2444 -0.2866 -0.2914
 1991SOL    HW217607   2.630   0.484   3.396  0.0979  0.6048  0.7105
 1992SOL     OW17608   2.492   2.248   5.760  0.5418 -0.3310  0.3951
 1992SOL    HW117609   2.410   2.280   5.797  0.3057 -1.2529  0.6840
 1992SOL    HW217610   2.461   2.208   5.678  0.0086  1.2054 -0.1454
 1993SOL     OW17611   1.990   3.761   7.227  0.0268  0.0554 -0.3645
 1993SOL    HW117612   2.058   3.753   7.293  0.2499 -1.5130 -0.7809
 1993SOL    HW217613   2.050   3.744   7.154 -0.9575  0.6842 -1.3387
 1994SOL     OW17614   1.909   0.226   9.685  0.4639 -0.3524  0.1570
 1994SOL    HW117615   1.865   0.182   9.611 -1.1782  0.2483  0.7872
 1994SOL    HW217616   1.861   0.191   9.759  2.3810 -0.9671  1.1121
 1995SOL     OW17617   2.282   1.479   7.829 -0.2774 -0.4032 -0.6100
 1995SOL    HW117618   2.266   1.552   7.769 -0.1206 -0.4594 -0.7221
 1995SOL    HW217619   2.307   1.414   7.762 -0.1812  0.6490 -1.5932
 1996SOL     OW17620   3.471   3.089   6.054  0.3670  0.8093  0.6374
 1996SOL    HW117621   3.406   3.110   5.987  0.6386 -1.0051 -0.1940
 1996SOL    HW217622   3.548   3.125   6.009  1.3578  0.0014  1.6875
 1997SOL     OW17623   0.975   1.762   6.377 -0.0384 -0.0513  0.1951
 1997SOL    HW117624   0.907   1.736   6.439 -0.2322 -0.2464 -0.0984
 1997SOL    HW217625   1.046   1.709   6.413  0.1799  0.8920  1.1373
 1998SOL     OW17626   3.312   0.039   1.653 -0.2927  0.2127  0.1545
 1998SOL    HW117627   3.244   0.095   1.615  1.1659  1.3073 -0.8446
 1998SOL    HW217628   3.257   0.016   1.728 -0.5537 -3.8879 -1.2771
 1999SOL     OW17629   4.672   2.486  17.338 -0.1778  0.2406  0.5147
 1999SOL    HW117630   4.628   2.422  17.393  0.9447  0.4625  1.6666
 1999SOL    HW217631   0.004   2.519  17.393 -1.1664  1.8870  0.7820
 2000SOL     OW17632   2.828   3.903   2.725 -0.0178 -0.7361  0.5395
 2000SOL    HW117633   2.747   3.890   2.774  0.2420 -2.0441  0.6088
 2000SOL    HW217634   2.876   3.829   2.763 -0.2301 -2.4872 -2.6634
 2001SOL     OW17635   1.935   2.952   8.435  0.1890  0.3229  0.4287
 2001SOL    HW117636   2.027   2.962   8.411  0.2074  0.1605  0.4301
 2001SOL    HW217637   1.920   2.866   8.395 -1.2167  1.4032 -1.3610
 2002SOL     OW17638   0.127   1.174   3.032  0.6777  0.0916  0.1516
 2002SOL    HW117639   0.108   1.266   3.012  0.5839 -0.0063 -0.2106
 2002SOL    HW217640   0.052   1.135   2.988  0.8240  0.6586 -0.6067
 2003SOL     OW17641   3.891   0.472   2.358  0.1685 -0.1793 -0.2975
 2003SOL    HW117642   3.799   0.445   2.349  0.2578 -0.4454 -0.4046
 2003SOL    HW217643   3.931   0.388   2.381  1.8543  0.4100 -1.1186
 2004SOL     OW17644   0.197   1.584   3.138 -0.1470 -0.1067 -0.2867
 2004SOL    HW117645   0.118   1.628   3.169  0.8199 -0.6839  3.0377
 2004SOL    HW217646   0.260   1.607   3.207 -0.7263 -1.6041  0.7295
 2005SOL     OW17647   4.375   1.810   6.895  0.7160 -0.1964 -0.3745
 2005SOL    HW117648   4.404   1.748   6.962 -1.4664 -1.0784 -0.2175
 2005SOL    HW217649   4.401   1.887   6.945 -0.1805 -1.5525  2.2050
 2006SOL     OW17650   2.644   1.399  10.403  0.5613  0.2737  0.7472
 2006SOL    HW117651   2.635   1.309  10.434 -1.9113 -1.1841 -4.1946
 2006SOL    HW217652   2.734   1.412  10.431  0.7787  0.0143  0.1791
 2007SOL     OW17653   3.121   1.424   6.801  0.1936  0.4988 -0.1433
 2007SOL    HW117654   3.074   1.480   6.739 -1.1446  0.0614  0.4715
 2007SOL    HW217655   3.099   1.463   6.886 -1.5547 -0.9936  0.0852
 2008SOL     OW17656   4.314   4.619   6.470  0.4043 -0.5034 -0.3456
 2008SOL    HW117657   4.287   4.528   6.482  1.1155 -0.6187  0.3391
 2008SOL    HW217658   4.403   4.617   6.503  0.1781 -0.1675  0.2814
 2009SOL     OW17659   0.342   2.283   8.848 -0.3443  0.0816  0.4766
 2009SOL    HW117660   0.385   2.232   8.779  0.3197 -1.8854  2.3473
 2009SOL    HW217661   0.270   2.221   8.843  0.0049 -0.3979  1.3988
 2010SOL     OW17662   3.438   4.349   7.960 -0.0219 -0.3441  0.2439
 2010SOL    HW117663   3.474   4.422   8.010  1.5892 -1.0452  0.1170
 2010SOL    HW217664   3.520   4.316   7.924 -0.0110  1.3573 -1.2534
 2011SOL     OW17665   0.050   4.678   4.774 -0.4120 -0.4630  0.6910
 2011SOL    HW117666   0.066   4.586   4.798  0.2220 -0.3768  0.6165
 2011SOL    HW217667   0.061   4.677   4.679 -0.4765 -1.9664  0.6900
 2012SOL     OW17668   3.938   2.075   9.684  0.2036  0.0678  0.0106
 2012SOL    HW117669   3.857   2.066   9.735 -0.7544  2.1705 -1.1327
 2012SOL    HW217670   3.970   1.987   9.663 -1.6115 -0.9992  1.6902
 2013SOL     OW17671   4.434   1.261   4.097  0.7997  0.8718  0.5398
 2013SOL    HW117672   4.435   1.245   4.003  1.6215  0.7433  0.5689
 2013SOL    HW217673   4.508   1.321   4.103  1.5909 -0.0216 -0.2975
 2014SOL     OW17674   0.287   0.682   2.691 -0.2713  0.0022  0.5587
 2014SOL    HW117675   0.346   0.612   2.662 -1.4374 -0.2782 -1.1525
 2014SOL    HW217676   0.319   0.697   2.780 -0.3101 -1.3272  0.8007
 2015SOL     OW17677   0.009   1.302   6.335  0.0216  0.4528  0.0687
 2015SOL    HW117678   0.093   1.345   6.353  1.7720 -3.0735  0.3658
 2015SOL    HW217679   0.040   1.214   6.356 -0.1861  0.2546 -0.4556
 2016SOL     OW17680   0.569   2.741  10.085  0.1395 -0.2479  0.1580
 2016SOL    HW117681   0.537   2.800  10.152 -2.1773 -0.9299 -0.3463
 2016SOL    HW217682   0.660   2.726  10.111 -0.6177 -3.8043  0.7276
 2017SOL     OW17683   4.370   2.483  12.197  0.6477  0.2024 -0.2333
 2017SOL    HW117684   4.378   2.396  12.235  1.3594  0.4546  0.1902
 2017SOL    HW217685   4.459   2.486  12.162  0.4484  4.1423 -0.4373
 2018SOL     OW17686   3.607   1.248   6.374  0.1153 -0.8342  0.4626
 2018SOL    HW117687   3.588   1.283   6.287 -0.7522 -1.8911  0.2234
 2018SOL    HW217688   3.573   1.325   6.421 -0.2601 -0.7574  0.0669
 2019SOL     OW17689   3.062   4.050   4.442  0.1699 -0.0519  0.3456
 2019SOL    HW117690   3.144   4.000   4.444 -0.8431 -1.8096 -2.1831
 2019SOL    HW217691   3.087   4.112   4.374 -0.6008  0.8677  0.9001
 2020SOL     OW17692   3.843   2.215   0.462  0.5998  0.5678 -0.4786
 2020SOL    HW117693   3.751   2.200   0.439  0.6852 -2.7046  1.4045
 2020SOL    HW217694   3.841   2.202   0.556 -1.9439 -4.3756 -1.2122
 2021SOL     OW17695   1.533   1.884  16.268 -0.1040 -0.0465 -0.4916
 2021SOL    HW117696   1.477   1.837  16.207 -1.5019 -2.2734  2.5235
 2021SOL    HW217697   1.587   1.819  16.313 -0.5740 -0.2492 -0.2269
 2022SOL     OW17698   3.038   3.199  14.311  0.2364  0.1465  0.0490
 2022SOL    HW117699   3.092   3.215  14.234  1.9009 -1.2973  0.9296
 2022SOL    HW217700   3.098   3.133  14.345  0.1865 -0.5059 -1.1377
 2023SOL     OW17701   1.403   1.897   6.230 -0.2245 -0.3341 -0.5334
 2023SOL    HW117702   1.495   1.899   6.203 -0.8064  1.5662 -2.3101
 2023SOL    HW217703   1.400   1.964   6.298  1.2658 -0.3095 -0.4764
 2024SOL     OW17704   2.276   3.263   3.703 -0.3581  0.0643 -0.2031
 2024SOL    HW117705   2.223   3.192   3.666 -1.4463  1.2421 -0.8821
 2024SOL    HW217706   2.298   3.215   3.783  1.3242 -1.3002 -1.4737
 2025SOL     OW17707   2.835   2.073   4.861 -0.2583 -0.6207 -0.1517
 2025SOL    HW117708   2.911   2.014   4.869 -0.9504 -1.5357 -0.2826
 2025SOL    HW217709   2.758   2.020   4.879  0.3510 -1.9301 -1.3925
 2026SOL     OW17710   4.465   0.656   5.703 -0.2762  0.1131 -0.3659
 2026SOL    HW117711   4.478   0.745   5.672 -2.5983  0.4300 -0.4228
 2026SOL    HW217712   4.424   0.618   5.624  1.3326  2.2133 -2.1929
 2027SOL     OW17713   2.944   2.621   3.025  0.2422  0.4146  0.3940
 2027SOL    HW117714   3.032   2.640   2.991  0.3076  0.0159  0.3402
 2027SOL    HW217715   2.895   2.693   2.987 -1.1813 -0.4922  0.5362
 2028SOL     OW17716   0.125   2.293   3.115 -0.1731  0.3512  0.4845
 2028SOL    HW117717   0.080   2.212   3.091  1.8666  0.1553 -2.6572
 2028SOL    HW217718   0.182   2.315   3.042 -4.5672  2.2867 -2.3647
 2029SOL     OW17719   2.738   1.428   7.808  0.2193 -0.4449  0.5240
 2029SOL    HW117720   2.666   1.377   7.771 -0.7368  1.1945  0.1328
 2029SOL    HW217721   2.758   1.383   7.890  1.3729  1.6223  1.3780
 2030SOL     OW17722   2.369   1.489   6.077 -0.0271 -1.0463  0.3463
 2030SOL    HW117723   2.319   1.533   6.146 -0.1898  1.2604 -1.2477
 2030SOL    HW217724   2.336   1.533   5.999 -2.8461 -1.5831  1.2359
 2031SOL     OW17725   0.157   2.757   5.028 -0.0676  0.0024  0.0322
 2031SOL    HW117726   0.235   2.775   5.079 -0.9300 -1.0928  1.7414
 2031SOL    HW217727   0.186   2.690   4.966 -0.2744 -1.2608  1.2905
 2032SOL     OW17728   3.708   4.365  15.733 -0.0982 -0.2229 -0.2357
 2032SOL    HW117729   3.761   4.350  15.812  0.6738 -1.0604 -0.9167
 2032SOL    HW217730   3.762   4.316  15.671  0.4229  0.0458  0.0039
 2033SOL     OW17731   3.452   3.432  12.071  0.9094 -0.6465 -0.0371
 2033SOL    HW117732   3.428   3.455  12.161 -3.2614 -0.9051 -1.0873
 2033SOL    HW217733   3.452   3.519  12.030 -2.0491 -1.4667 -1.8356
 2034SOL     OW17734   2.164   3.972   6.390 -0.4238 -0.4844  0.3133
 2034SOL    HW117735   2.080   4.001   6.427  0.2303 -0.5166  1.8290
 2034SOL    HW217736   2.170   4.026   6.312 -1.5923  0.2046  0.6956
 2035SOL     OW17737   4.037   3.577   5.091  0.5798 -0.3657 -0.0941
 2035SOL    HW117738   4.107   3.617   5.143  0.5251 -0.5931  0.1525
 2035SOL    HW217739   4.089   3.503   5.059 -0.3746 -1.3476  0.6334
 2036SOL     OW17740   1.320   4.238   6.292  0.5985  0.4551 -0.2999
 2036SOL    HW117741   1.360   4.324   6.304  0.5370  0.2084  1.6204
 2036SOL    HW217742   1.251   4.263   6.231  0.5356 -1.7748 -1.1657
 2037SOL     OW17743   3.541   4.365  14.752 -0.6752  0.1063 -0.0287
 2037SOL    HW117744   3.476   4.434  14.740  0.9720  1.9860  1.9342
 2037SOL    HW217745   3.507   4.289  14.704 -0.1152  0.5127 -1.0738
 2038SOL     OW17746   0.747   2.165   6.486 -0.1249 -0.0281 -0.2693
 2038SOL    HW117747   0.768   2.240   6.431 -0.5503  2.6811  3.2595
 2038SOL    HW217748   0.671   2.131   6.438  0.0076  0.0289 -0.5220
 2039SOL     OW17749   3.227   0.517   7.469  0.4830 -0.0740 -0.5275
 2039SOL    HW117750   3.136   0.487   7.461  0.4362  0.2026 -1.0742
 2039SOL    HW217751   3.245   0.562   7.386 -2.8453  2.3433  0.0373
 2040SOL     OW17752   2.799   1.349   1.164 -0.4676  0.1039 -0.8907
 2040SOL    HW117753   2.777   1.441   1.157 -1.3903 -0.2650 -2.6667
 2040SOL    HW217754   2.825   1.326   1.075  0.3329 -2.1449 -0.0867
 2041SOL     OW17755   1.838   0.747   6.871 -0.5789  0.2378  0.2272
 2041SOL    HW117756   1.778   0.800   6.923  1.5018  2.8704 -0.0184
 2041SOL    HW217757   1.921   0.765   6.915  0.3041 -1.9461 -0.5162
 2042SOL     OW17758   0.163   2.821   9.803 -0.2653  0.6059 -0.2803
 2042SOL    HW117759   0.231   2.820   9.736 -1.5805 -0.8982 -1.5745
 2042SOL    HW217760   0.097   2.775   9.751  2.7102 -1.4035 -2.2322
 2043SOL     OW17761   3.830   2.135   1.051 -0.0751 -0.1676 -0.1820
 2043SOL    HW117762   3.753   2.096   1.091 -0.3747 -0.2058 -0.7972
 2043SOL    HW217763   3.799   2.222   1.023  0.9600  1.1437  2.7792
 2044SOL     OW17764   2.914   3.793  12.392  0.0554  0.7100 -0.4129
 2044SOL    HW117765   2.889   3.859  12.327  1.1887  1.2812 -0.2729
 2044SOL    HW217766   2.936   3.846  12.468  2.8143 -1.8908  0.5756
 2045SOL     OW17767   2.342   1.374  11.634  0.0752 -0.7270  0.1168
 2045SOL    HW117768   2.326   1.379  11.729 -0.5968  3.4235 -0.2290
 2045SOL    HW217769   2.253   1.391  11.603  0.0965  1.2068  1.1141
 2046SOL     OW17770   1.054   4.573   8.120 -0.5005 -0.3961  0.1248
 2046SOL    HW117771   1.095   4.638   8.178  0.3508  0.1293 -1.0763
 2046SOL    HW217772   0.962   4.578   8.149 -1.5158  1.6508 -3.4548
 2047SOL     OW17773   4.186   2.335   8.243  0.9310 -0.1885 -0.0529
 2047SOL    HW117774   4.264   2.284   8.265  0.8072 -0.5848 -0.5259
 2047SOL    HW217775   4.203   2.380   8.160  0.7643  0.5147  0.2919
 2048SOL     OW17776   0.859   2.503  16.756  0.5539  0.1722  0.5399
 2048SOL    HW117777   0.844   2.444  16.682 -0.6428  1.0234  0.1162
 2048SOL    HW217778   0.922   2.566  16.720  1.2416 -1.7328 -1.5992
 2049SOL     OW17779   3.202   0.036   3.248  0.1219 -0.1249 -0.3400
 2049SOL    HW117780   3.293   0.062   3.233  0.3619 -0.7314  0.0498
 2049SOL    HW217781   3.160   0.099   3.190 -1.8935 -1.1173  0.0621
 2050SOL     OW17782   1.798   0.878   6.101  0.3196  0.2760 -0.4357
 2050SOL    HW117783   1.718   0.868   6.152 -0.6349  1.0789 -1.7884
 2050SOL    HW217784   1.848   0.810   6.147  1.5689  1.0523 -0.6556
 2051SOL     OW17785   1.309   4.286   6.919  0.2178  0.0665 -0.3010
 2051SOL    HW117786   1.397   4.324   6.915 -0.3556  1.4473  0.1592
 2051SOL    HW217787   1.254   4.362   6.899  2.6878  2.2481  1.2271
 2052SOL     OW17788   3.618   1.176   2.718  0.2824 -0.0851 -0.2014
 2052SOL    HW117789   3.679   1.119   2.671  0.0121 -1.6244  1.2673
 2052SOL    HW217790   3.556   1.180   2.646  0.1133  2.1098  0.0712
 2053SOL     OW17791   1.353   2.776   7.869 -0.1184  0.1555  0.1569
 2053SOL    HW117792   1.262   2.805   7.879 -0.5401 -1.9759  2.3875
 2053SOL    HW217793   1.344   2.681   7.874  4.1558 -0.3085 -0.8466
 2054SOL     OW17794   1.914   4.691  13.477 -0.1089  0.4716  0.0706
 2054SOL    HW117795   1.920   0.045  13.500  0.9821 -0.2323  2.6757
 2054SOL    HW217796   1.901   4.651  13.564  1.7086  0.0491  0.1392
 2055SOL     OW17797   4.264   0.255   2.360  0.2711  0.1642 -0.5897
 2055SOL    HW117798   4.230   0.307   2.287 -0.2105  1.8617  0.8339
 2055SOL    HW217799   4.178   0.246   2.401  0.3420 -1.1634 -0.7157
 2056SOL     OW17800   1.358   1.010   4.278  0.2299 -0.5507  0.1959
 2056SOL    HW117801   1.445   1.042   4.303 -1.1535  2.5903  0.9820
 2056SOL    HW217802   1.386   0.973   4.194 -0.2977 -0.5314  0.0168
 2057SOL     OW17803   4.457   4.130   6.437  0.4798 -0.3727 -0.3959
 2057SOL    HW117804   4.381   4.083   6.402 -0.9391  1.7771 -0.2023
 2057SOL    HW217805   4.421   4.166   6.518 -0.2278 -1.2075 -0.3359
 2058SOL     OW17806   0.628   1.565  17.744  0.0938  0.5544  0.2533
 2058SOL    HW117807   0.668   1.481  17.721  2.1315  1.6125 -0.0511
 2058SOL    HW217808   0.706   1.620  17.749 -1.5486  2.6328  2.6909
 2059SOL     OW17809   2.184   1.546  13.954 -0.0052  0.0558  0.0292
 2059SOL    HW117810   2.242   1.589  14.017  1.2036 -1.0558 -0.3223
 2059SOL    HW217811   2.239   1.502  13.889  0.4425 -1.1315  1.2243
 2060SOL     OW17812   4.342   1.932   7.183  0.2423  0.2540  0.0183
 2060SOL    HW117813   4.392   2.013   7.183  0.3449  0.1960  0.9479
 2060SOL    HW217814   4.391   1.869   7.235  1.2904  0.5169 -0.6609
 2061SOL     OW17815   1.797   0.072   9.472 -0.3519  0.0693  0.7161
 2061SOL    HW117816   1.805   4.719   9.494  1.1765  0.1266  0.3953
 2061SOL    HW217817   1.822   0.074   9.379  0.6443 -0.9719  0.9720
 2062SOL     OW17818   1.213   2.193  15.708 -0.1169 -0.0397  0.4810
 2062SOL    HW117819   1.268   2.170  15.633 -0.3824 -0.2077  0.3379
 2062SOL    HW217820   1.234   2.285  15.720  0.1510 -0.0674  0.2180
 2063SOL     OW17821   2.151   4.565   3.332  0.3774 -0.2681 -0.1643
 2063SOL    HW117822   2.222   4.539   3.272 -0.6622 -2.5441 -0.3999
 2063SOL    HW217823   2.193   4.648   3.354  0.8643 -0.2511 -1.1511
 2064SOL     OW17824   0.655   2.146   1.763 -0.0357  0.8003  0.1872
 2064SOL    HW117825   0.665   2.111   1.675  1.7396 -0.0089  0.7232
 2064SOL    HW217826   0.577   2.098   1.791  0.3557 -1.1382 -2.0960
 2065SOL     OW17827   2.351   0.794   4.538  0.1368  0.2343 -0.2483
 2065SOL    HW117828   2.424   0.742   4.571  0.5288  0.1970 -1.1779
 2065SOL    HW217829   2.387   0.863   4.482  0.0991  0.3445 -0.1345
 2066SOL     OW17830   1.456   1.520   2.725 -0.6720  0.2267  0.4111
 2066SOL    HW117831   1.430   1.438   2.768 -1.2074 -0.8618 -2.0184
 2066SOL    HW217832   1.493   1.563   2.802 -0.4070  0.4392  0.1678
 2067SOL     OW17833   1.865   4.497  11.648 -0.3965 -0.2061  0.2043
 2067SOL    HW117834   1.940   4.505  11.706  0.0448  1.2548 -0.5761
 2067SOL    HW217835   1.905   4.432  11.590 -0.9832  1.1350 -1.6968
 2068SOL     OW17836   0.494   3.690  15.782 -0.1162 -0.0209  0.1318
 2068SOL    HW117837   0.585   3.711  15.801 -0.1452  1.0273 -0.8766
 2068SOL    HW217838   0.486   3.744  15.703  1.7495  0.3120  0.1699
 2069SOL     OW17839   3.350   2.786   7.097 -0.2840  0.2521 -0.1944
 2069SOL    HW117840   3.401   2.803   7.018 -0.8394  0.6524 -0.4662
 2069SOL    HW217841   3.361   2.863   7.153 -0.2418 -0.6190  1.0163
 2070SOL     OW17842   0.129   1.863  16.455  0.1209  0.2477  0.1128
 2070SOL    HW117843   0.084   1.938  16.492 -1.5747 -1.8783  2.3143
 2070SOL    HW217844   0.177   1.898  16.380 -0.3375  0.0091 -0.2913
 2071SOL     OW17845   1.076   3.849   2.211 -0.4107 -0.6935 -0.5751
 2071SOL    HW117846   1.069   3.872   2.118  1.0520 -0.6937 -0.6937
 2071SOL    HW217847   0.995   3.802   2.230 -0.7604 -0.4986 -1.5636
 2072SOL     OW17848   2.136   3.710   3.899  0.6444  0.2390 -0.3549
 2072SOL    HW117849   2.166   3.648   3.833 -0.9333 -0.0820 -0.7714
 2072SOL    HW217850   2.194   3.685   3.971  3.3489  0.7401 -2.3649
 2073SOL     OW17851   2.503   1.087   5.969  0.1173 -0.4968 -0.1754
 2073SOL    HW117852   2.574   1.033   5.934 -2.5027 -3.2414 -1.2316
 2073SOL    HW217853   2.501   1.053   6.058  0.2099  1.4832  0.5794
 2074SOL     OW17854   1.564   0.324   1.789  0.4634 -0.0619 -0.6360
 2074SOL    HW117855   1.614   0.244   1.774 -0.7286 -1.2473  1.6996
 2074SOL    HW217856   1.472   0.299   1.777  0.2039 -0.1721  1.5549
 2075SOL     OW17857   4.017   1.851   0.179  0.2426  0.1295 -0.1126
 2075SOL    HW117858   4.083   1.920   0.181  0.0880  0.2823 -0.2030
 2075SOL    HW217859   3.989   1.848   0.270 -1.3304 -2.2735 -0.6660
 2076SOL     OW17860   1.982   3.277   4.099 -0.4306 -0.5298  0.6039
 2076SOL    HW117861   2.024   3.192   4.109 -1.6687 -0.8530  2.8518
 2076SOL    HW217862   1.947   3.262   4.011 -0.6310 -1.6032  0.8724
 2077SOL     OW17863   4.337   2.929   0.026 -0.1274 -0.1387  0.0875
 2077SOL    HW117864   4.303   3.015   0.050  3.4943  1.0446  0.9737
 2077SOL    HW217865   4.335   2.948  17.686  3.5290 -2.0611 -0.3924
 2078SOL     OW17866   2.525   4.075   1.772  0.1533 -0.0874  0.3298
 2078SOL    HW117867   2.432   4.057   1.760 -0.2549  0.9307  1.9195
 2078SOL    HW217868   2.559   3.996   1.731 -0.4713  0.5339 -1.3761
 2079SOL     OW17869   1.426   4.411   3.705  0.6114 -0.6877  0.7750
 2079SOL    HW117870   1.498   4.354   3.730  1.5754 -0.5251 -1.6095
 2079SOL    HW217871   1.466   4.481   3.653  0.1774  0.0632  1.4460
 2080SOL     OW17872   0.456   1.507  11.814  0.1536  0.0459 -0.6730
 2080SOL    HW117873   0.511   1.445  11.862 -1.4101  0.3790  1.6003
 2080SOL    HW217874   0.447   1.447  11.740  1.5130 -0.2578 -0.5782
 2081SOL     OW17875   1.009   2.880   8.298  0.0351  0.0991  0.0437
 2081SOL    HW117876   0.956   2.874   8.378 -2.6497 -0.5219 -1.7674
 2081SOL    HW217877   1.095   2.843   8.319 -0.7800 -0.9119  1.6049
 2082SOL     OW17878   3.813   1.133   5.915 -0.5089 -0.5182 -0.4337
 2082SOL    HW117879   3.805   1.118   5.820 -2.4066 -1.5317 -0.1261
 2082SOL    HW217880   3.902   1.169   5.917 -0.0393 -1.5229 -3.4361
 2083SOL     OW17881   3.473   4.196   2.900  0.0709 -0.3447 -0.4322
 2083SOL    HW117882   3.385   4.194   2.864 -0.3467  1.4456  0.4832
 2083SOL    HW217883   3.530   4.199   2.823 -0.4293  1.1141 -0.7375
 2084SOL     OW17884   3.687   3.602   3.304 -0.0875 -0.0961  0.2378
 2084SOL    HW117885   3.732   3.665   3.247 -0.3346  0.2632  0.4339
 2084SOL    HW217886   3.669   3.535   3.238 -2.3801  1.0575 -0.3090
 2085SOL     OW17887   3.617   2.779  12.056  0.0967  0.4670  0.1907
 2085SOL    HW117888   3.671   2.858  12.059  3.1178 -1.6229  0.8923
 2085SOL    HW217889   3.535   2.821  12.031  0.3058 -0.3724 -1.8818
 2086SOL     OW17890   0.664   0.469  10.428 -0.4013  0.6328  0.2191
 2086SOL    HW117891   0.587   0.525  10.421 -0.2026  1.0060  1.0914
 2086SOL    HW217892   0.724   0.541  10.448  0.4719 -0.1899  0.5379
 2087SOL     OW17893   1.503   1.399   8.430  0.3160 -0.0773  0.5873
 2087SOL    HW117894   1.550   1.466   8.480  0.6520 -0.1252  0.3357
 2087SOL    HW217895   1.489   1.436   8.342  0.9828 -1.0688  0.0708
 2088SOL     OW17896   1.247   3.570   8.788 -0.1469  0.0373 -0.3289
 2088SOL    HW117897   1.287   3.591   8.872 -0.1789  1.6775 -0.7254
 2088SOL    HW217898   1.283   3.630   8.722 -1.9450 -1.1437 -2.4069
 2089SOL     OW17899   0.434   1.136   4.276  0.1862 -0.6777  0.2552
 2089SOL    HW117900   0.410   1.157   4.186  2.1028 -0.7280 -0.2651
 2089SOL    HW217901   0.529   1.125   4.277  0.2552 -0.0434  0.9095
 2090SOL     OW17902   0.962   3.456   6.824  0.1694 -0.5600 -0.3958
 2090SOL    HW117903   0.943   3.546   6.851  0.1662  0.0986 -2.5953
 2090SOL    HW217904   0.908   3.459   6.745  0.4288 -1.1422 -0.6001
 2091SOL     OW17905   3.180   4.466   1.446 -0.0227  0.1914  0.2326
 2091SOL    HW117906   3.132   4.547   1.434  1.2533  0.9323  0.1272
 2091SOL    HW217907   3.114   4.403   1.416 -0.2602  1.2291 -1.3905
 2092SOL     OW17908   2.577   2.865  14.275  0.5403  0.3043 -0.1269
 2092SOL    HW117909   2.624   2.943  14.304 -1.3085  0.5282  2.2450
 2092SOL    HW217910   2.639   2.841  14.206  1.1214 -0.4146  0.6440
 2093SOL     OW17911   1.754   0.741   4.189  0.1978  0.6112  0.1993
 2093SOL    HW117912   1.781   0.714   4.102 -1.3073 -1.6088  0.4042
 2093SOL    HW217913   1.825   0.797   4.220  1.3123  0.1345 -1.4786
 2094SOL     OW17914   0.307   1.163   4.022 -0.1894  0.3427 -0.4380
 2094SOL    HW117915   0.324   1.119   3.939  1.2255 -0.3448  0.2226
 2094SOL    HW217916   0.287   1.254   4.001  0.0546  0.9780  2.1304
 2095SOL     OW17917   3.025   4.246   1.409 -0.3436  0.0222 -0.7149
 2095SOL    HW117918   2.968   4.185   1.455  0.1473  0.3941  0.3873
 2095SOL    HW217919   3.103   4.195   1.388 -0.1422 -0.7464  1.8662
 2096SOL     OW17920   3.380   4.037   1.773 -0.4502  0.0075  0.0899
 2096SOL    HW117921   3.427   4.118   1.792 -1.2631  0.8321 -1.4387
 2096SOL    HW217922   3.435   3.993   1.708 -1.7884  1.0302 -1.7395
 2097SOL     OW17923   1.108   0.208   7.673  0.1551 -0.5316  0.0417
 2097SOL    HW117924   1.074   0.119   7.668 -0.9091 -0.1252 -0.0423
 2097SOL    HW217925   1.178   0.186   7.734  0.4147  0.3480  0.0617
 2098SOL     OW17926   0.077   0.342   1.412 -0.1710 -0.2209 -0.2933
 2098SOL    HW117927   0.120   0.257   1.421  0.5276  0.1169 -0.4367
 2098SOL    HW217928   0.140   0.397   1.459  1.5921 -1.0597 -1.6921
 2099SOL     OW17929   4.639   0.920   1.969 -0.5100  0.2545 -0.3987
 2099SOL    HW117930   4.677   0.886   1.888 -0.8352 -1.2970  0.1102
 2099SOL    HW217931   4.555   0.875   1.975  0.3292 -1.3850 -1.1433
 2100SOL     OW17932   4.555   3.157  14.130  0.4916 -0.4089 -0.1295
 2100SOL    HW117933   4.638   3.114  14.109  1.8226  1.9161  0.4656
 2100SOL    HW217934   4.514   3.092  14.188  0.3770  2.0849  2.5585
 2101SOL     OW17935   1.009   0.368  12.812 -0.3023  0.4850 -0.1659
 2101SOL    HW117936   1.004   0.464  12.816 -0.4905  0.5531 -2.3742
 2101SOL    HW217937   1.068   0.366  12.737 -0.5262 -3.5235 -0.1960
 2102SOL     OW17938   1.025   1.206   9.819 -0.5996  0.5721 -0.4127
 2102SOL    HW117939   0.953   1.244   9.869 -0.2372 -0.4114  0.8349
 2102SOL    HW217940   1.046   1.268   9.749  2.3925  0.2382  0.1950
 2103SOL     OW17941   2.653   2.084   1.969  0.1811  0.0213  0.3583
 2103SOL    HW117942   2.654   2.154   1.903 -0.8033 -0.0733  0.2547
 2103SOL    HW217943   2.657   2.128   2.054  2.8074 -0.9108  0.7302
 2104SOL     OW17944   2.440   0.322   6.543 -0.2925  0.0886  0.1278
 2104SOL    HW117945   2.497   0.246   6.536 -2.0920 -1.3590  1.0951
 2104SOL    HW217946   2.494   0.382   6.595 -3.5442  0.5508  3.0265
 2105SOL     OW17947   3.983   3.397  17.282 -0.0891 -0.1268 -0.5486
 2105SOL    HW117948   3.939   3.381  17.366 -0.6279 -1.1598 -1.0284
 2105SOL    HW217949   3.932   3.343  17.222  1.4970 -1.3455 -0.8186
 2106SOL     OW17950   3.953   1.040   5.344  0.1948 -0.0894 -0.0777
 2106SOL    HW117951   4.013   1.034   5.269 -0.1304 -1.7526 -0.2012
 2106SOL    HW217952   3.989   0.993   5.419 -0.4402 -0.3753  0.0437
 2107SOL     OW17953   0.447   0.907   1.398  0.3968 -0.2877  0.5479
 2107SOL    HW117954   0.499   0.974   1.443  0.6979 -0.9872  1.2482
 2107SOL    HW217955   0.428   0.954   1.317 -0.6533  1.3188  1.7317
 2108SOL     OW17956   3.136   2.160  10.712  0.1997  0.0077 -0.6017
 2108SOL    HW117957   3.193   2.237  10.726  1.0530 -0.7877  0.3741
 2108SOL    HW217958   3.061   2.205  10.674 -1.0795 -0.0423  1.8668
 2109SOL     OW17959   3.433   0.007   7.301  0.9486  0.3250  0.0771
 2109SOL    HW117960   3.411   0.040   7.388 -1.8580 -2.0210  0.2698
 2109SOL    HW217961   3.432   4.650   7.310  2.0785  0.5158  2.3272
 2110SOL     OW17962   3.219   1.782   4.205  0.0307 -0.1479  0.3356
 2110SOL    HW117963   3.137   1.735   4.223 -0.9696  1.5992  0.2755
 2110SOL    HW217964   3.220   1.814   4.115 -0.2356 -2.5107 -0.5074
 2111SOL     OW17965   3.981   4.247   4.557  0.2523  0.8970 -0.6921
 2111SOL    HW117966   4.067   4.288   4.549  0.3201  1.2226  1.9649
 2111SOL    HW217967   3.943   4.274   4.473  0.3119 -1.0015 -1.3357
 2112SOL     OW17968   2.349   3.959   2.280  0.2755  0.2859  0.1499
 2112SOL    HW117969   2.308   3.968   2.194 -0.2653  0.2347  0.4037
 2112SOL    HW217970   2.283   3.915   2.334  1.0051 -0.6771  0.2566
 2113SOL     OW17971   1.436   3.075   7.049 -0.6152 -0.2178 -0.4197
 2113SOL    HW117972   1.420   2.984   7.022 -1.0026 -0.4818  0.6785
 2113SOL    HW217973   1.359   3.079   7.106 -0.6115  1.5005 -0.5335
 2114SOL     OW17974   3.383   4.549   4.644 -0.6430 -0.4024  0.0172
 2114SOL    HW117975   3.304   4.598   4.620 -0.0687 -0.4562 -1.9931
 2114SOL    HW217976   3.358   4.524   4.733  0.2883 -0.6090  0.2205
 2115SOL     OW17977   1.242   3.472   3.029  0.4643  0.3387 -0.0534
 2115SOL    HW117978   1.297   3.535   2.982  3.2658 -1.3710  0.9472
 2115SOL    HW217979   1.308   3.410   3.062 -0.6110 -0.0766  1.3126
 2116SOL     OW17980   4.409   3.981   1.266 -0.2370  0.3075  0.0600
 2116SOL    HW117981   4.442   4.070   1.251  0.1424  0.2575  0.5848
 2116SOL    HW217982   4.339   3.978   1.201  0.6611 -0.6609 -0.8542
 2117SOL     OW17983   0.268   1.810  17.321 -0.2732 -0.2203  0.1581
 2117SOL    HW117984   0.283   1.878  17.256 -2.3742 -0.6541 -0.7550
 2117SOL    HW217985   0.245   1.734  17.267  0.1644  0.0331 -0.3823
 2118SOL     OW17986   3.354   3.881   5.726 -0.0087 -0.2550  0.0121
 2118SOL    HW117987   3.319   3.962   5.762 -1.8456 -1.0113 -0.0455
 2118SOL    HW217988   3.331   3.820   5.796 -1.6464 -0.1367 -0.4193
 2119SOL     OW17989   0.587   2.268  17.639 -0.0792  0.3418  0.0577
 2119SOL    HW117990   0.525   2.330  17.601  0.5814  0.9277 -0.0603
 2119SOL    HW217991   0.629   2.242  17.557  0.1632 -0.0403  0.2992
 2120SOL     OW17992   1.050   0.147   6.549 -0.1325  0.1631 -0.3222
 2120SOL    HW117993   1.054   0.152   6.453  2.2022  0.3696 -0.2069
 2120SOL    HW217994   0.955   0.153   6.557 -0.0416 -0.3450  1.1824
 2121SOL     OW17995   0.050   1.271   5.256  0.1235  0.2918  0.2233
 2121SOL    HW117996   0.111   1.345   5.259 -1.7279  1.9099 -1.2230
 2121SOL    HW217997   0.043   1.256   5.161 -1.3380  3.9019 -0.2738
 2122SOL     OW17998   0.214   0.680   4.651 -0.0702 -0.2239 -0.7108
 2122SOL    HW117999   0.245   0.741   4.719 -1.4105 -0.3722  0.0347
 2122SOL    HW218000   0.293   0.651   4.606  0.8150  0.6485  0.2712
 2123SOL     OW18001   1.862   3.213   3.863  0.7458 -0.6397 -0.1341
 2123SOL    HW118002   1.782   3.163   3.849  0.2559 -0.0894  0.7067
 2123SOL    HW218003   1.888   3.224   3.771  0.3645  0.5147 -0.1049
 2124SOL     OW18004   2.314   0.386   7.960 -0.2488  0.2869 -0.1843
 2124SOL    HW118005   2.288   0.393   7.868 -0.0539  0.4915 -0.2269
 2124SOL    HW218006   2.378   0.458   7.961 -0.4551  0.4656 -0.0207
 2125SOL     OW18007   4.244   3.541   0.617  0.3062  0.1093  0.0111
 2125SOL    HW118008   4.199   3.539   0.533 -0.3215 -0.9347  0.3690
 2125SOL    HW218009   4.297   3.462   0.612 -1.0065 -0.8200  0.8264
 2126SOL     OW18010   3.483   0.951   5.286 -0.8251 -0.3941 -0.5543
 2126SOL    HW118011   3.475   0.860   5.256  0.7928 -0.4510 -0.8093
 2126SOL    HW218012   3.577   0.966   5.273  0.0741 -3.0789  2.8041
 2127SOL     OW18013   3.565   1.625   3.652  0.0680 -0.0936  0.3572
 2127SOL    HW118014   3.625   1.645   3.724 -0.1437 -1.4420  0.9019
 2127SOL    HW218015   3.498   1.693   3.661 -0.2571 -0.1686 -1.5064
 2128SOL     OW18016   1.883   0.630  10.879 -0.2174 -0.1240 -0.3300
 2128SOL    HW118017   1.964   0.671  10.848  0.6888 -2.4682 -1.0385
 2128SOL    HW218018   1.853   0.704  10.933 -2.5473 -2.1180  1.1192
 2129SOL     OW18019   2.082   1.286  12.091  0.1576  0.1397 -0.2842
 2129SOL    HW118020   2.040   1.300  12.175  1.3643  0.9880  0.1868
 2129SOL    HW218021   2.156   1.347  12.089 -0.1634  0.6094  2.8969
 2130SOL     OW18022   4.166   3.987   1.086  0.0360 -0.3427 -0.0748
 2130SOL    HW118023   4.086   3.984   1.035  0.2301  2.1319 -0.5407
 2130SOL    HW218024   4.157   3.894   1.107  2.3313 -0.0506  2.2722
 2131SOL     OW18025   3.708   2.555   1.769  0.2981 -0.0878 -0.3724
 2131SOL    HW118026   3.683   2.627   1.827  0.8471 -0.5682  0.4582
 2131SOL    HW218027   3.644   2.560   1.698  0.4910  1.8130 -0.4087
 2132SOL     OW18028   0.875   4.370   5.733  0.1596  0.4362  0.3522
 2132SOL    HW118029   0.815   4.422   5.787 -1.3174  0.9089 -1.7397
 2132SOL    HW218030   0.828   4.371   5.650  0.5201  0.4785  0.1502
 2133SOL     OW18031   0.958   3.029   3.689  0.0765  0.1666  0.4614
 2133SOL    HW118032   0.924   3.002   3.604  0.5993 -0.7802  0.5538
 2133SOL    HW218033   1.052   3.033   3.673 -0.6754 -0.8473 -4.3278
 2134SOL     OW18034   4.310   2.794   4.341 -0.0019 -0.5022  0.2086
 2134SOL    HW118035   4.396   2.759   4.363 -0.1643 -1.2810 -0.3912
 2134SOL    HW218036   4.297   2.742   4.262 -3.5939  1.1641 -0.3237
 2135SOL     OW18037   0.665   3.995   9.559  0.0792 -0.5216 -0.0865
 2135SOL    HW118038   0.711   3.998   9.475  0.8536  1.6393  0.3992
 2135SOL    HW218039   0.739   4.000   9.619  0.3576 -2.2248 -0.3140
 2136SOL     OW18040   0.765   0.961  13.333 -0.1637  0.2823 -0.1354
 2136SOL    HW118041   0.753   0.868  13.314  2.6458  0.0245 -0.6501
 2136SOL    HW218042   0.836   0.980  13.271  1.0846  0.0246  1.2276
 2137SOL     OW18043   0.165   4.399   8.244 -0.0824 -0.1367 -0.1564
 2137SOL    HW118044   0.158   4.383   8.149 -0.8695  0.3922 -0.1823
 2137SOL    HW218045   0.248   4.352   8.256 -0.9302 -1.5766  0.1031
 2138SOL     OW18046   2.936   3.076   4.565  0.0814 -0.0186 -0.0183
 2138SOL    HW118047   2.971   3.143   4.624 -1.8788  1.0086 -0.0255
 2138SOL    HW218048   2.911   2.999   4.616  0.2118 -0.7829 -1.1027
 2139SOL     OW18049   3.588   3.093  17.054 -0.1207 -0.2986 -0.0578
 2139SOL    HW118050   3.574   3.000  17.037 -2.1570  0.2000 -1.1695
 2139SOL    HW218051   3.508   3.123  17.012  0.1197 -1.9092 -1.6634
 2140SOL     OW18052   0.490   2.480   8.012 -0.0876 -0.0390 -0.0617
 2140SOL    HW118053   0.517   2.572   8.007 -1.0305  0.1873 -1.1040
 2140SOL    HW218054   0.526   2.455   8.097  0.1025 -0.3705 -0.2364
 2141SOL     OW18055   0.935   2.425  12.585 -0.5178 -0.4650 -0.7491
 2141SOL    HW118056   0.988   2.496  12.549 -0.8136  0.4210  0.5393
 2141SOL    HW218057   0.853   2.469  12.608 -2.3675 -3.2200 -2.1025
 2142SOL     OW18058   3.831   4.699   6.716 -0.4302 -0.2406  0.3194
 2142SOL    HW118059   3.840   0.006   6.633 -0.3103  0.9626  0.9964
 2142SOL    HW218060   3.742   4.670   6.700 -0.2588  0.3323 -1.6809
 2143SOL     OW18061   3.682   1.651   3.931 -0.7228 -0.1638 -0.1447
 2143SOL    HW118062   3.628   1.589   3.980 -3.4381  0.1623 -2.7037
 2143SOL    HW218063   3.702   1.723   3.990 -0.8810 -0.7319  0.6047
 2144SOL     OW18064   4.618   3.567  13.040  0.6672 -0.4341 -0.4456
 2144SOL    HW118065   4.674   3.567  12.963 -0.5795  0.0046 -1.3554
 2144SOL    HW218066   4.602   3.475  13.059  2.2976 -0.5934  0.0845
 2145SOL     OW18067   4.165   4.714   4.843  0.4350  0.2300 -0.2282
 2145SOL    HW118068   4.164   0.011   4.754 -4.3338  1.9001  0.5396
 2145SOL    HW218069   4.092   0.027   4.877  0.9840  1.1647 -0.4606
 2146SOL     OW18070   2.382   2.788   8.042  0.3246  0.3760 -0.1356
 2146SOL    HW118071   2.442   2.738   7.986  0.8347  0.4679  0.3270
 2146SOL    HW218072   2.355   2.861   7.986 -0.7343 -1.4102 -1.9255
 2147SOL     OW18073   0.768   1.684   2.080 -0.6883 -0.4164 -0.0319
 2147SOL    HW118074   0.676   1.707   2.094 -0.5404 -2.0801  3.7641
 2147SOL    HW218075   0.745   1.605   2.032  0.2704 -0.2261 -0.7969
 2148SOL     OW18076   1.481   3.618   5.524 -0.1732 -0.0931  0.1999
 2148SOL    HW118077   1.534   3.549   5.484 -0.3926 -1.4437  2.2692
 2148SOL    HW218078   1.547   3.645   5.588 -2.3608  3.8054  0.8139
 2149SOL     OW18079   1.160   0.991  11.104 -0.1523  0.0746 -0.0334
 2149SOL    HW118080   1.152   1.075  11.150  1.7736  0.7166 -0.8998
 2149SOL    HW218081   1.250   1.003  11.074 -0.0783 -3.2858 -1.1886
 2150SOL     OW18082   3.557   2.175   6.432 -0.5886 -0.0808 -0.0058
 2150SOL    HW118083   3.462   2.162   6.429 -0.5182 -0.6761  0.4634
 2150SOL    HW218084   3.579   2.088   6.465  1.1262  1.0381  1.7614
 2151SOL     OW18085   3.617   4.567   5.388 -0.0482 -0.0937  0.0080
 2151SOL    HW118086   3.613   4.575   5.293  0.6480 -1.3255 -0.1294
 2151SOL    HW218087   3.596   4.475   5.405  1.8619 -0.8925 -1.9165
 2152SOL     OW18088   0.869   0.177   8.057  0.4907 -0.4123 -0.4426
 2152SOL    HW118089   0.920   0.175   8.137  1.7152  1.2240 -1.1835
 2152SOL    HW218090   0.808   0.248   8.077  1.6651  0.8537 -1.4069
 2153SOL     OW18091   4.007   2.367  10.391 -0.5991 -0.6813  0.1023
 2153SOL    HW118092   3.948   2.364  10.316  0.4197  0.4756 -0.7630
 2153SOL    HW218093   4.013   2.277  10.422  3.2260  0.1025  1.6547
 2154SOL     OW18094   1.497   3.197   5.687 -0.0571  0.4790 -0.1213
 2154SOL    HW118095   1.565   3.264   5.683 -0.9335  1.3795  0.0070
 2154SOL    HW218096   1.533   3.137   5.622  0.6480 -0.6418  1.2990
 2155SOL     OW18097   2.457   0.157   7.208  0.1353  0.3097 -0.1814
 2155SOL    HW118098   2.535   0.128   7.161  0.0431 -0.9644  0.4662
 2155SOL    HW218099   2.415   0.220   7.149 -1.8112 -1.0276 -0.2142
 2156SOL     OW18100   4.042   4.470   1.071 -0.4771 -0.4282 -0.3368
 2156SOL    HW118101   4.067   4.390   1.024  2.9517 -1.1097  2.6218
 2156SOL    HW218102   4.000   4.510   0.996 -1.3161 -0.6328  0.0251
 2157SOL     OW18103   3.806   3.346   2.529 -0.3314 -0.1351  0.1400
 2157SOL    HW118104   3.805   3.275   2.464 -0.8490 -0.6208  0.6779
 2157SOL    HW218105   3.800   3.423   2.472 -1.2551  0.0544  0.4915
 2158SOL     OW18106   0.567   2.907   1.090  0.1477  0.6423 -0.0274
 2158SOL    HW118107   0.628   2.848   1.135 -1.0808  0.0380  0.8622
 2158SOL    HW218108   0.542   2.963   1.163  1.5510  1.8092 -0.4438
 2159SOL     OW18109   3.950   0.704   5.991  0.8388 -0.5066  0.4085
 2159SOL    HW118110   3.896   0.662   5.923 -0.5460 -0.8998  1.7352
 2159SOL    HW218111   4.015   0.749   5.938 -0.4442  1.6725  0.6872
 2160SOL     OW18112   4.277   3.413   1.208 -0.5040 -0.6857  0.3329
 2160SOL    HW118113   4.371   3.432   1.211 -0.6671  0.3130 -0.8249
 2160SOL    HW218114   4.270   3.385   1.117 -1.0842  0.7935 -0.0733
 2161SOL     OW18115   0.315   4.356   3.151  0.5703  0.3674  0.6626
 2161SOL    HW118116   0.370   4.286   3.188 -2.7756 -1.6219  1.8793
 2161SOL    HW218117   0.383   4.414   3.117 -0.9854  1.3695 -0.7494
 2162SOL     OW18118   2.070   4.584  16.286  0.2927  0.0807  0.1802
 2162SOL    HW118119   2.059   4.616  16.376  0.1670 -1.5487  0.7437
 2162SOL    HW218120   2.071   4.665  16.235  0.2511 -1.0306 -1.5898
 2163SOL     OW18121   4.003   2.389   6.829  0.5936 -0.2686  0.1407
 2163SOL    HW118122   3.989   2.429   6.915  1.2542 -0.7472  0.4761
 2163SOL    HW218123   4.088   2.411   6.791 -0.3686 -0.2093 -1.9708
 2164SOL     OW18124   1.633   0.948   3.749 -0.0385 -0.3121  0.2802
 2164SOL    HW118125   1.568   0.879   3.737 -0.4189  0.3569 -1.4546
 2164SOL    HW218126   1.688   0.911   3.818  1.4024  1.4713  0.0972
 2165SOL     OW18127   2.208   2.952  10.968  0.1383  0.1054  0.4799
 2165SOL    HW118128   2.140   2.899  10.926  1.5807 -1.8928  0.6652
 2165SOL    HW218129   2.246   3.002  10.896 -0.9906 -0.3620 -0.4375
 2166SOL     OW18130   0.074   0.893   3.365 -0.2786 -0.0482  0.3039
 2166SOL    HW118131   4.719   0.900   3.345 -0.8125 -1.9005  2.1678
 2166SOL    HW218132   0.097   0.961   3.428  1.9012  0.5399 -1.1466
 2167SOL     OW18133   1.114   2.388  11.710  0.3163 -0.2452 -0.2340
 2167SOL    HW118134   1.082   2.354  11.627  0.0424  2.5322 -1.2657
 2167SOL    HW218135   1.184   2.327  11.735  0.9504  1.4897  2.2620
 2168SOL     OW18136   1.822   0.542   5.906  0.0650  0.1443  0.1506
 2168SOL    HW118137   1.890   0.566   5.844 -0.3376  2.5898  0.6760
 2168SOL    HW218138   1.740   0.529   5.857 -0.7100 -0.9289  1.7323
 2169SOL     OW18139   1.892   2.895   4.292  0.4877  0.1951  0.2271
 2169SOL    HW118140   1.865   2.844   4.216  0.4278  0.2451  0.2144
 2169SOL    HW218141   1.823   2.881   4.356  1.3597  0.5687  1.2455
 2170SOL     OW18142   0.629   0.920   6.894  0.0798 -0.1327  0.0929
 2170SOL    HW118143   0.564   0.933   6.963 -0.0893 -0.0802 -0.0731
 2170SOL    HW218144   0.703   0.906   6.952 -1.6451 -0.3635  2.2565
 2171SOL     OW18145   0.577   3.660   6.698  0.1637 -0.0395  0.3882
 2171SOL    HW118146   0.485   3.672   6.719 -0.9433 -1.9666 -3.3233
 2171SOL    HW218147   0.618   3.746   6.703  0.2599 -0.0558 -0.0601
 2172SOL     OW18148   1.256   3.622   4.683 -0.0275  0.4011  0.0070
 2172SOL    HW118149   1.199   3.650   4.755 -2.6271  0.8563 -2.2211
 2172SOL    HW218150   1.337   3.605   4.731  0.5835 -1.0519 -1.5165
 2173SOL     OW18151   2.480   3.836   5.114 -0.0127 -0.0908 -0.0084
 2173SOL    HW118152   2.480   3.748   5.077 -2.2932  0.0343 -0.2526
 2173SOL    HW218153   2.470   3.898   5.041 -1.8634  2.5336  2.5063
 2174SOL     OW18154   1.693   2.394  14.322 -0.0781 -0.2751  0.2659
 2174SOL    HW118155   1.788   2.387  14.322 -0.1776 -1.5891  1.9715
 2174SOL    HW218156   1.667   2.346  14.243 -2.4053 -0.0898  0.9079
 2175SOL     OW18157   2.547   3.953  15.698 -0.0176  0.0061  0.3960
 2175SOL    HW118158   2.486   3.914  15.760 -0.4125  1.0598  0.6696
 2175SOL    HW218159   2.526   4.047  15.693 -0.2295  0.0590  2.6428
 2176SOL     OW18160   0.177   2.385  13.013  0.6822 -0.3735 -0.0659
 2176SOL    HW118161   0.180   2.364  13.106 -0.1946  2.0234  0.4799
 2176SOL    HW218162   0.112   2.319  12.990 -1.4157  1.3079  1.1229
 2177SOL     OW18163   1.549   4.666   4.590 -0.4593  0.0070 -0.4349
 2177SOL    HW118164   1.540   4.723   4.514  3.0646  2.6238  1.1311
 2177SOL    HW218165   1.466   4.667   4.638 -0.9671  0.8170 -1.3359
 2178SOL     OW18166   2.188   3.873   6.698 -0.3028 -0.4188 -0.2915
 2178SOL    HW118167   2.202   3.788   6.738 -1.3464  0.4609  1.9170
 2178SOL    HW218168   2.096   3.885   6.722  0.3552  0.1802  1.9256
 2179SOL     OW18169   1.209   4.632   6.034  0.2994  0.0797 -0.4381
 2179SOL    HW118170   1.162   4.577   5.971 -2.4864 -0.8434  2.4659
 2179SOL    HW218171   1.283   4.576   6.054 -1.9717 -2.8779 -0.3381
 2180SOL     OW18172   4.108   4.455   1.330  0.2211  0.0632 -0.1008
 2180SOL    HW118173   4.086   4.474   1.239 -0.0442 -0.8304 -0.2190
 2180SOL    HW218174   4.135   4.365   1.312 -1.3638 -0.4979  0.3244
 2181SOL     OW18175   1.079   1.437   2.550  0.0193  0.0113 -0.3485
 2181SOL    HW118176   1.075   1.533   2.547 -1.0176 -0.0138  0.3511
 2181SOL    HW218177   1.071   1.424   2.644 -0.4835 -2.3021 -0.7082
 2182SOL     OW18178   3.176   1.577   9.788 -0.6429 -0.1613 -0.6410
 2182SOL    HW118179   3.255   1.552   9.836  0.0449  0.3473 -1.4991
 2182SOL    HW218180   3.108   1.577   9.855  0.2806  0.7793  0.3042
 2183SOL     OW18181   2.998   1.431   3.322 -0.3507 -0.9750 -0.2486
 2183SOL    HW118182   3.009   1.440   3.416  0.5583  1.5463 -0.5968
 2183SOL    HW218183   2.980   1.337   3.319 -4.5400 -0.1671 -1.2077
 2184SOL     OW18184   3.381   1.510   2.049  0.3587 -0.2421  0.0596
 2184SOL    HW118185   3.378   1.485   1.956 -0.2610  1.6999 -0.4469
 2184SOL    HW218186   3.311   1.575   2.049  0.9394  0.3839 -0.8187
 2185SOL     OW18187   3.394   3.986   0.503  0.0443 -0.6221  0.0468
 2185SOL    HW118188   3.395   3.891   0.501 -0.1858 -0.6496  1.2418
 2185SOL    HW218189   3.330   4.013   0.569 -2.0969 -1.1942 -1.7944
 2186SOL     OW18190   2.725   0.568   6.174  0.0947  0.5290  0.2884
 2186SOL    HW118191   2.726   0.655   6.134  0.3515  0.5170  0.2739
 2186SOL    HW218192   2.632   0.554   6.153  0.4225 -0.7743 -0.3162
 2187SOL     OW18193   3.359   3.673   9.786  0.7554  0.4244 -0.3218
 2187SOL    HW118194   3.296   3.613   9.745  0.9322  0.6568 -0.9427
 2187SOL    HW218195   3.358   3.753   9.733 -2.9656  1.4666  1.2860
 2188SOL     OW18196   0.774   1.730   6.942  1.0176 -0.8133  0.5073
 2188SOL    HW118197   0.795   1.638   6.929  0.8182 -0.5366 -1.7335
 2188SOL    HW218198   0.837   1.747   7.011 -0.0046  1.1424  0.9718
 2189SOL     OW18199   0.447   1.578   3.264  0.1245  0.4265  0.2683
 2189SOL    HW118200   0.501   1.657   3.271 -0.8333  0.9668  1.7899
 2189SOL    HW218201   0.517   1.517   3.290 -0.3824 -0.3113 -0.1071
 2190SOL     OW18202   0.560   0.487   7.606 -0.0776 -0.1652 -0.3555
 2190SOL    HW118203   0.656   0.495   7.609 -0.0850  0.9713 -2.7511
 2190SOL    HW218204   0.537   0.554   7.670 -1.7114 -0.4777 -0.6348
 2191SOL     OW18205   0.921   2.012   0.185 -0.2314  0.3777  0.0598
 2191SOL    HW118206   0.964   2.074   0.244 -0.5292  1.1602 -0.5453
 2191SOL    HW218207   0.989   2.001   0.119 -0.6519  2.1731 -0.6590
 2192SOL     OW18208   3.706   1.419  10.022  0.1999 -0.4565  0.5611
 2192SOL    HW118209   3.693   1.325  10.009  0.5509 -0.4457  0.1181
 2192SOL    HW218210   3.705   1.437  10.116 -2.2078  4.7073 -0.4478
 2193SOL     OW18211   0.620   1.770   1.811  0.2514  0.1025 -0.2115
 2193SOL    HW118212   0.564   1.846   1.826  0.2717  0.3769 -1.5095
 2193SOL    HW218213   0.594   1.704   1.875  1.3079  0.0255  0.1491
 2194SOL     OW18214   3.128   0.454   3.405  0.4746  0.3467 -0.4291
 2194SOL    HW118215   3.190   0.474   3.335 -0.4369  1.6968 -0.8566
 2194SOL    HW218216   3.048   0.452   3.352 -0.0033  1.5468  0.2516
 2195SOL     OW18217   4.590   3.534   4.159  0.3387  0.4217  0.0858
 2195SOL    HW118218   4.509   3.543   4.110 -0.1304  1.7822  1.0964
 2195SOL    HW218219   4.627   3.460   4.112 -1.3956 -0.1216 -0.4193
 2196SOL     OW18220   4.214   1.715   3.431  0.1055  0.3607  0.3092
 2196SOL    HW118221   4.201   1.646   3.366  1.4432  0.9560 -0.5876
 2196SOL    HW218222   4.125   1.751   3.437 -0.0912  0.1784 -1.4628
 2197SOL     OW18223   2.354   4.032   3.136 -0.5052 -0.7006 -0.6262
 2197SOL    HW118224   2.314   4.023   3.050 -0.1012  0.4875 -0.9309
 2197SOL    HW218225   2.283   4.037   3.201 -1.0443 -0.6605 -1.2165
 2198SOL     OW18226   3.943   3.143   3.329 -0.2289  0.2508 -0.0333
 2198SOL    HW118227   4.003   3.077   3.364 -1.0834  0.6692  2.2038
 2198SOL    HW218228   3.863   3.092   3.318  0.5948 -0.9805 -0.3194
 2199SOL     OW18229   4.559   4.716   7.761  0.1956  0.5049 -0.9384
 2199SOL    HW118230   4.551   4.629   7.801 -0.1629  0.5669 -0.8744
 2199SOL    HW218231   4.645   0.005   7.794  1.2119 -2.2952 -1.1474
 2200SOL     OW18232   2.333   1.890   3.173  0.1506  0.2661 -0.2975
 2200SOL    HW118233   2.365   1.809   3.131 -2.9857 -2.2143  2.1059
 2200SOL    HW218234   2.380   1.891   3.256  2.5237 -2.0707 -1.6041
 2201SOL     OW18235   0.435   3.786   4.840  0.1759  0.0913  0.0705
 2201SOL    HW118236   0.380   3.709   4.857 -0.4748  0.6831  0.6632
 2201SOL    HW218237   0.491   3.783   4.917 -1.5857  3.2043  1.4651
 2202SOL     OW18238   2.358   3.155  17.407 -0.2062 -0.3045 -0.4544
 2202SOL    HW118239   2.423   3.223  17.392  0.1920 -0.2687  1.3630
 2202SOL    HW218240   2.291   3.215  17.438 -0.0232  0.5412 -1.7092
 2203SOL     OW18241   2.671   4.043  16.709  0.3966 -0.6882 -0.1545
 2203SOL    HW118242   2.592   4.097  16.702  1.8975  1.8172  2.0574
 2203SOL    HW218243   2.679   4.023  16.616 -0.1814  2.8717 -0.9619
 2204SOL     OW18244   0.351   3.061   2.659 -0.3700 -0.3523  0.3280
 2204SOL    HW118245   0.442   3.081   2.680 -0.0120  0.7181 -2.2219
 2204SOL    HW218246   0.305   3.145   2.666  0.4231  0.2110 -1.2441
 2205SOL     OW18247   3.265   1.642   8.154 -0.0156  0.4598  0.0719
 2205SOL    HW118248   3.307   1.728   8.152  0.1795  0.3550 -0.4617
 2205SOL    HW218249   3.341   1.596   8.116  0.4141 -0.5311  2.1314
 2206SOL     OW18250   3.274   4.459   7.074 -0.2760  0.4056 -0.2933
 2206SOL    HW118251   3.190   4.416   7.093  0.7937 -1.3321  0.5512
 2206SOL    HW218252   3.283   4.418   6.988 -0.4655  0.3592 -0.2926
 2207SOL     OW18253   0.724   1.166   4.233  0.3761 -0.1585  0.2207
 2207SOL    HW118254   0.752   1.205   4.150 -0.0239  0.3199  0.3070
 2207SOL    HW218255   0.781   1.204   4.300  1.8378 -1.9220 -0.0232
 2208SOL     OW18256   3.573   0.465   6.916  0.2289 -0.1160  0.1305
 2208SOL    HW118257   3.613   0.468   7.003 -1.4262  0.7184  0.8572
 2208SOL    HW218258   3.532   0.551   6.925  1.6978  0.6154 -0.0782
 2209SOL     OW18259   4.383   4.621   4.970  0.0750 -0.0148  0.3931
 2209SOL    HW118260   4.387   4.536   4.927  0.0312  0.4777 -0.5882
 2209SOL    HW218261   4.312   4.664   4.921 -0.6876 -3.1433 -1.2216
 2210SOL     OW18262   4.047   4.415  15.819  0.4690 -0.2800 -0.3775
 2210SOL    HW118263   3.979   4.374  15.873 -0.2439  1.3973 -0.0109
 2210SOL    HW218264   4.059   4.349  15.750 -0.8715 -0.3888 -0.5176
 2211SOL     OW18265   4.153   2.217   1.155  0.1147  0.0194 -0.0127
 2211SOL    HW118266   4.093   2.143   1.167 -0.2055  0.0433 -1.4569
 2211SOL    HW218267   4.132   2.259   1.239 -0.4111  1.5957 -0.9404
 2212SOL     OW18268   0.924   3.354   2.721  0.2029 -0.1643 -0.4438
 2212SOL    HW118269   0.956   3.267   2.747  0.9509  1.2210  3.3489
 2212SOL    HW218270   0.834   3.348   2.751  0.6102  1.0344  1.0485
 2213SOL     OW18271   3.776   3.624   3.573 -0.4117  0.4436 -0.0962
 2213SOL    HW118272   3.716   3.610   3.500  0.3128  1.7895 -0.9586
 2213SOL    HW218273   3.812   3.538   3.591  1.2597  0.7150 -2.2324
 2214SOL     OW18274   3.225   4.295   5.461  0.0414  0.0263  0.0808
 2214SOL    HW118275   3.298   4.293   5.522 -1.2305  0.5126  1.6126
 2214SOL    HW218276   3.254   4.346   5.386  0.3171  1.3507  1.0939
 2215SOL     OW18277   1.055   3.749  12.518  1.0531 -0.1425  0.3282
 2215SOL    HW118278   1.138   3.728  12.560  1.0608 -0.5410  0.1132
 2215SOL    HW218279   1.083   3.779  12.432  1.3032 -0.4993  0.2853
 2216SOL     OW18280   0.114   3.602   9.899  0.2709 -0.0432 -0.3757
 2216SOL    HW118281   0.112   3.577   9.991  3.3870  2.7358  0.4371
 2216SOL    HW218282   0.126   3.522   9.849 -1.1780  0.3876 -1.4218
 2217SOL     OW18283   4.669   0.047   8.534  0.3942 -0.2707  0.7912
 2217SOL    HW118284   4.673   0.002   8.618 -2.3866 -0.9071  0.5808
 2217SOL    HW218285   4.703   4.710   8.487  0.5350 -0.1690  0.7298
 2218SOL     OW18286   3.729   4.732   8.214 -0.4169  0.1913 -0.2461
 2218SOL    HW118287   3.733   4.717   8.308  0.2174  2.7801  0.1142
 2218SOL    HW218288   3.817   0.025   8.194 -0.4739 -0.5943 -1.8458
 2219SOL     OW18289   1.773   0.462   2.388  0.7256  0.1477  0.0928
 2219SOL    HW118290   1.790   0.372   2.414  3.1432  0.9565  1.3266
 2219SOL    HW218291   1.678   0.468   2.392  0.7742  1.0672 -0.2090
 2220SOL     OW18292   2.527   2.596   3.215  0.4764  0.2503  0.9165
 2220SOL    HW118293   2.531   2.561   3.126 -1.4595 -0.4169  1.0765
 2220SOL    HW218294   2.432   2.604   3.227  0.0570 -1.5370 -1.1588
 2221SOL     OW18295   0.186   1.228  15.583  0.7462  0.3318  0.1835
 2221SOL    HW118296   0.253   1.290  15.612  1.3310 -1.3373  2.3449
 2221SOL    HW218297   0.215   1.204  15.495 -0.5154  1.4816 -0.5614
 2222SOL     OW18298   0.724   2.141   2.050 -0.1500 -0.0709 -0.3685
 2222SOL    HW118299   0.726   2.171   1.959 -1.7283 -0.8330 -0.6457
 2222SOL    HW218300   0.796   2.079   2.041  0.2422  0.3985 -0.5341
 2223SOL     OW18301   0.174   4.472   6.067  0.0916  0.6183  0.0713
 2223SOL    HW118302   0.091   4.436   6.034  0.4876 -0.4463  0.2560
 2223SOL    HW218303   0.156   4.487   6.160  1.8604 -0.3145  0.5714
 2224SOL     OW18304   3.002   0.707  10.198 -0.7379 -0.3466  0.1593
 2224SOL    HW118305   2.920   0.742  10.164 -1.0668  1.0556  2.3865
 2224SOL    HW218306   3.018   0.644  10.127 -1.4503 -1.0994  0.6634
 2225SOL     OW18307   3.607   1.628  16.561  0.2805 -0.6080 -0.0245
 2225SOL    HW118308   3.563   1.620  16.476  0.5549  1.7883 -0.3974
 2225SOL    HW218309   3.694   1.609  16.526 -0.6760  2.4280 -4.0911
 2226SOL     OW18310   1.718   3.218  15.025 -0.0170  0.7816 -0.1276
 2226SOL    HW118311   1.807   3.193  15.004 -0.8484  0.0024 -2.7897
 2226SOL    HW218312   1.716   3.307  14.988  1.3179  0.9170  0.1262
 2227SOL     OW18313   2.196   2.461   9.110 -0.4854  0.1227  0.0990
 2227SOL    HW118314   2.291   2.450   9.108 -0.7151 -1.8736  0.2284
 2227SOL    HW218315   2.171   2.468   9.202 -3.1622 -2.4691 -0.4415
 2228SOL     OW18316   1.293   0.542   7.980 -0.0084  0.1231 -0.1910
 2228SOL    HW118317   1.318   0.571   8.068  0.1665 -0.3586 -0.0851
 2228SOL    HW218318   1.201   0.519   7.993  0.2793 -1.2038 -0.5418
 2229SOL     OW18319   2.859   3.934  13.168 -0.3215 -0.1926 -0.0800
 2229SOL    HW118320   2.827   3.909  13.254 -0.9856  2.6605  0.4805
 2229SOL    HW218321   2.883   3.848  13.131  1.1821  0.9728 -1.8217
 2230SOL     OW18322   3.964   2.699  17.748  0.5083  0.0981 -0.2458
 2230SOL    HW118323   3.917   2.619   0.017  1.9273 -0.7743 -0.3942
 2230SOL    HW218324   4.033   2.697   0.061  1.0975 -0.4462 -0.8725
 2231SOL     OW18325   2.159   1.046   4.255  0.2747  0.3583  0.1361
 2231SOL    HW118326   2.230   1.047   4.191  1.2907 -0.4420  1.2703
 2231SOL    HW218327   2.107   0.968   4.231 -0.0337  0.4599  0.4692
 2232SOL     OW18328   2.610   2.784   3.868 -0.0521  0.0392  0.6359
 2232SOL    HW118329   2.649   2.867   3.895 -1.1841  0.4745  0.8999
 2232SOL    HW218330   2.549   2.821   3.804 -0.4614  0.1008  1.0656
 2233SOL     OW18331   2.346   1.980   1.909  0.3250  0.0554 -0.0359
 2233SOL    HW118332   2.430   1.935   1.908 -0.8801 -2.2380  2.2794
 2233SOL    HW218333   2.337   1.987   1.813  1.4516 -1.8858 -0.2728
 2234SOL     OW18334   3.357   0.811  13.922 -0.9300 -0.0133 -0.5474
 2234SOL    HW118335   3.439   0.849  13.954 -1.0446  0.2257 -0.5406
 2234SOL    HW218336   3.285   0.851  13.970  1.0870  0.1535  2.3486
 2235SOL     OW18337   2.229   0.745   5.477 -0.0322 -0.2131 -0.3557
 2235SOL    HW118338   2.153   0.797   5.501 -0.9657 -0.5801 -2.4881
 2235SOL    HW218339   2.172   0.675   5.445  0.8146 -0.7272 -0.7368
 2236SOL     OW18340   1.563   1.559   4.397 -0.3132  0.6039 -0.4762
 2236SOL    HW118341   1.572   1.464   4.390 -3.1524  0.1558  1.9659
 2236SOL    HW218342   1.645   1.579   4.442 -0.2507 -3.4022  1.1664
 2237SOL     OW18343   1.435   2.624  15.729  0.3124 -0.2609 -0.0835
 2237SOL    HW118344   1.476   2.538  15.740  0.5410 -0.1244  0.1270
 2237SOL    HW218345   1.344   2.598  15.711 -0.3210  1.3138  0.8421
 2238SOL     OW18346   3.974   2.643  15.984  0.0774  0.0648  0.4485
 2238SOL    HW118347   3.992   2.721  16.036 -1.2975 -0.2417  1.3666
 2238SOL    HW218348   4.024   2.669  15.906 -0.2441  0.5603  0.4018
 2239SOL     OW18349   4.475   3.510   5.437 -0.1861  0.0200  0.1732
 2239SOL    HW118350   4.548   3.452   5.456 -0.6547 -0.6822 -0.1786
 2239SOL    HW218351   4.507   3.542   5.352  0.1508  0.8610  0.6089
 2240SOL     OW18352   3.571   2.354   8.945 -0.0887  0.4718  0.1380
 2240SOL    HW118353   3.542   2.263   8.947  1.4743 -0.0399 -0.4775
 2240SOL    HW218354   3.540   2.390   9.029 -2.8345 -0.8639 -0.2929
 2241SOL     OW18355   1.625   1.728   7.907 -0.0804  0.5309  0.2717
 2241SOL    HW118356   1.567   1.799   7.935  0.4310  0.3670  1.7673
 2241SOL    HW218357   1.562   1.656   7.897  0.1581  0.4612 -0.7240
 2242SOL     OW18358   0.317   0.573   7.867 -0.1047 -0.2938 -0.4715
 2242SOL    HW118359   0.365   0.645   7.825 -2.4366  1.5855  0.1282
 2242SOL    HW218360   0.356   0.564   7.954  0.2760  1.4297 -0.4529
 2243SOL     OW18361   3.292   0.070  12.964 -0.0911  0.2527 -0.0538
 2243SOL    HW118362   3.291   0.085  13.058  1.1517 -2.0912  0.3404
 2243SOL    HW218363   3.358   0.134  12.938 -1.3294  1.1212 -1.1199
 2244SOL     OW18364   1.471   0.351  10.217 -0.6027 -0.0165 -0.2895
 2244SOL    HW118365   1.515   0.392  10.292 -2.4858  1.4903  0.0048
 2244SOL    HW218366   1.389   0.319  10.254  0.1351 -2.8904 -1.1553
 2245SOL     OW18367   4.488   0.875   3.334 -0.0872 -0.4363  0.1216
 2245SOL    HW118368   4.438   0.928   3.396  1.8272  2.6519 -0.9673
 2245SOL    HW218369   4.476   0.783   3.358 -1.3779 -0.7333 -1.6023
 2246SOL     OW18370   2.941   0.320   3.570 -0.4438  0.5046  0.0597
 2246SOL    HW118371   3.035   0.333   3.558 -0.3278 -1.1644 -0.9768
 2246SOL    HW218372   2.933   0.232   3.531  1.0966  0.1805  0.5049
 2247SOL     OW18373   1.078   2.130   5.684  0.6345  0.0615  0.5224
 2247SOL    HW118374   1.132   2.066   5.638 -1.3946 -0.9022 -0.5093
 2247SOL    HW218375   1.124   2.133   5.768  1.0241 -0.5394  0.3341
 2248SOL     OW18376   2.367   1.350  12.426 -0.5866  0.0225 -0.7065
 2248SOL    HW118377   2.311   1.394  12.362  0.4425 -1.1714 -2.4300
 2248SOL    HW218378   2.313   1.271  12.432  0.4607 -0.6541 -0.2830
 2249SOL     OW18379   4.272   3.008  17.102 -0.6282 -0.1576 -0.5888
 2249SOL    HW118380   4.313   2.924  17.080  0.4513  0.4103 -0.7609
 2249SOL    HW218381   4.186   2.982  17.132  0.4756 -3.5920 -0.3500
 2250SOL     OW18382   2.490   3.858   1.070 -0.1345  0.6580  0.3451
 2250SOL    HW118383   2.395   3.869   1.080 -0.1645  0.5617  0.1710
 2250SOL    HW218384   2.516   3.872   1.161 -2.1629  0.9142  0.8978
 2251SOL     OW18385   1.531   2.759   6.660  0.1308 -0.4603 -0.4463
 2251SOL    HW118386   1.452   2.742   6.711 -0.0427  0.5749 -0.3676
 2251SOL    HW218387   1.497   2.766   6.571 -1.1088 -2.2122 -0.1099
 2252SOL     OW18388   4.065   0.346   7.588 -0.5221 -0.1865  0.0450
 2252SOL    HW118389   4.025   0.281   7.646  0.0139  0.9455  1.7076
 2252SOL    HW218390   4.100   0.296   7.515  1.2793  0.5141  0.4256
 2253SOL     OW18391   1.642   3.924   3.089  0.6060  0.4542  0.1541
 2253SOL    HW118392   1.581   3.978   3.039  1.5408  1.1750 -0.2037
 2253SOL    HW218393   1.579   3.902   3.157  1.1646  0.6574  0.7294
 2254SOL     OW18394   2.890   0.571  15.428 -0.6469  0.0728 -0.6276
 2254SOL    HW118395   2.983   0.552  15.413 -0.4113 -0.3164  1.3854
 2254SOL    HW218396   2.889   0.597  15.520  2.2068 -0.3487 -0.4825
 2255SOL     OW18397   3.964   3.949  17.009 -0.0449  0.3826 -0.2362
 2255SOL    HW118398   4.017   3.955  16.929 -0.7804  0.2373 -0.7313
 2255SOL    HW218399   3.902   4.021  17.001  0.7355  1.0798 -0.0565
 2256SOL     OW18400   3.978   4.591   4.582 -0.1056  0.4877  0.4059
 2256SOL    HW118401   3.905   4.617   4.638 -1.9370  0.4182 -1.9593
 2256SOL    HW218402   4.020   4.677   4.578  1.2610 -0.1364  0.9914
 2257SOL     OW18403   3.542   1.216  13.493 -0.0281  0.0576  0.4745
 2257SOL    HW118404   3.532   1.166  13.573 -0.1911  0.0926  0.4757
 2257SOL    HW218405   3.465   1.272  13.487  0.8351  1.0211 -1.8420
 2258SOL     OW18406   4.210   0.425   5.201  0.5994  0.1065 -0.2926
 2258SOL    HW118407   4.243   0.346   5.157 -0.1943 -1.5897  2.1247
 2258SOL    HW218408   4.292   0.472   5.197  2.6309 -3.5267 -1.5203
 2259SOL     OW18409   1.795   0.957  10.771 -0.7776 -0.0296 -0.2648
 2259SOL    HW118410   1.874   1.011  10.763 -1.9926  1.5430 -1.6390
 2259SOL    HW218411   1.814   0.909  10.851  0.4338 -0.6741 -0.9437
 2260SOL     OW18412   0.435   3.142   1.947  0.0555  0.3676  0.2358
 2260SOL    HW118413   0.376   3.071   1.970 -1.6269  1.1679 -1.5712
 2260SOL    HW218414   0.387   3.212   1.991 -1.4639 -1.1815  1.0099
 2261SOL     OW18415   2.695   4.473   8.150 -0.8068  0.2482  0.6158
 2261SOL    HW118416   2.688   4.511   8.238  0.7394  1.7419  0.0849
 2261SOL    HW218417   2.633   4.527   8.101 -0.0041  1.3092  0.7494
 2262SOL     OW18418   3.225   1.096   6.670  0.2042 -0.2519  0.1268
 2262SOL    HW118419   3.226   1.162   6.739 -0.9491  0.3871 -0.4659
 2262SOL    HW218420   3.134   1.075   6.649 -0.0820  2.7854 -1.8044
 2263SOL     OW18421   2.160   3.184  12.079 -0.4540 -0.0128 -0.2614
 2263SOL    HW118422   2.097   3.210  12.146 -0.9586 -3.4575  0.6385
 2263SOL    HW218423   2.167   3.089  12.090  0.9794  0.2621  1.1670
 2264SOL     OW18424   2.500   2.528   7.519  0.3052  0.2813 -0.2110
 2264SOL    HW118425   2.454   2.446   7.504  0.7711  0.4891 -2.6545
 2264SOL    HW218426   2.433   2.568   7.575 -0.4915 -1.2247 -0.0843
 2265SOL     OW18427   2.335   4.275   1.567 -0.5002  0.2544  0.2822
 2265SOL    HW118428   2.310   4.357   1.610  1.2006  0.1965  1.3909
 2265SOL    HW218429   2.340   4.226   1.649 -0.1382 -1.7207 -0.9304
 2266SOL     OW18430   2.854   3.631   9.330  0.1732 -0.2391  0.7404
 2266SOL    HW118431   2.821   3.590   9.249  0.8320  0.8713 -0.0930
 2266SOL    HW218432   2.791   3.587   9.388 -0.0620  1.1369  1.5165
 2267SOL     OW18433   4.454   4.660   1.740 -0.4850  0.4567  0.0415
 2267SOL    HW118434   4.468   4.698   1.827 -0.7981  2.1998 -0.6677
 2267SOL    HW218435   4.479   0.001   1.693 -1.7699  1.3189  0.8240
 2268SOL     OW18436   3.154   2.905   3.702 -0.5612  0.4196 -0.4028
 2268SOL    HW118437   3.127   2.821   3.741 -0.4650  0.8718  0.6404
 2268SOL    HW218438   3.217   2.881   3.635  1.0293  0.5987  1.0338
 2269SOL     OW18439   1.077   1.118   1.905 -0.3922  0.2688  0.0655
 2269SOL    HW118440   1.113   1.060   1.838 -1.4289 -1.2257  0.7863
 2269SOL    HW218441   1.009   1.158   1.850 -1.6432  1.3069  2.3136
 2270SOL     OW18442   3.749   0.291   7.913 -0.2039  0.3086  0.1036
 2270SOL    HW118443   3.723   0.353   7.980 -0.5695 -0.4552  0.6730
 2270SOL    HW218444   3.726   0.206   7.952 -1.5321  0.8704  0.5429
 2271SOL     OW18445   3.807   3.439   4.300 -0.3143  0.3421  0.3400
 2271SOL    HW118446   3.850   3.479   4.376  2.9771 -0.3256 -1.2047
 2271SOL    HW218447   3.888   3.415   4.255 -0.8605 -0.8102 -0.0192
 2272SOL     OW18448   4.021   2.392   9.204 -0.1941 -0.0222  0.2429
 2272SOL    HW118449   4.052   2.323   9.263  1.0951 -0.2518 -0.6961
 2272SOL    HW218450   3.941   2.354   9.168  0.4741 -1.9864  0.8534
 2273SOL     OW18451   2.582   4.075   4.008  0.2796 -0.7190  0.4145
 2273SOL    HW118452   2.535   4.034   3.934  0.8737 -1.2582  0.3322
 2273SOL    HW218453   2.603   4.159   3.968  0.1269 -0.0994  1.6450
 2274SOL     OW18454   3.451   3.819   2.415  0.2938  0.2190 -0.2380
 2274SOL    HW118455   3.395   3.866   2.477  0.8096 -0.4252  0.7338
 2274SOL    HW218456   3.401   3.743   2.386 -1.9920  1.6036  0.1529
 2275SOL     OW18457   1.256   1.409  15.626  0.3864 -0.2997 -0.5344
 2275SOL    HW118458   1.209   1.491  15.643 -0.7246 -1.1430  0.4100
 2275SOL    HW218459   1.278   1.418  15.533 -0.1779 -2.7741 -0.8847
 2276SOL     OW18460   3.548   0.500   6.049  0.3607 -0.3653  0.2206
 2276SOL    HW118461   3.641   0.478   6.050  0.8215  1.5592 -0.3207
 2276SOL    HW218462   3.511   0.476   5.964  1.0595 -2.4612  0.5212
 2277SOL     OW18463   0.988   2.106  17.458  0.3362  0.4284 -0.1418
 2277SOL    HW118464   1.043   2.157  17.399 -0.1633 -1.4945 -2.2711
 2277SOL    HW218465   0.947   2.040  17.402  0.5721  1.2726 -1.3333
 2278SOL     OW18466   0.460   1.890   5.923 -0.6091  0.0213  0.3398
 2278SOL    HW118467   0.371   1.891   5.888 -0.5924  1.3778  0.3598
 2278SOL    HW218468   0.440   1.831   5.997  0.5822  0.4698  1.0228
 2279SOL     OW18469   1.611   0.890   4.408 -0.6763  0.0830  0.0945
 2279SOL    HW118470   1.660   0.845   4.477  0.8093  2.4824  0.5985
 2279SOL    HW218471   1.668   0.869   4.334 -3.9755  0.1865 -2.4888
 2280SOL     OW18472   0.214   1.732  14.253  0.5386  0.0492 -0.5830
 2280SOL    HW118473   0.257   1.646  14.257  0.7649  0.2487  1.1417
 2280SOL    HW218474   0.193   1.735  14.346  0.1367  0.1081 -0.6765
 2281SOL     OW18475   3.505   1.686   6.887 -0.3894 -0.0664  0.0486
 2281SOL    HW118476   3.597   1.679   6.861 -0.5085 -0.5352 -0.2414
 2281SOL    HW218477   3.450   1.673   6.810 -0.3392 -0.1612  0.0286
 2282SOL     OW18478   2.863   1.624  11.169 -0.1146 -0.3442 -0.1355
 2282SOL    HW118479   2.912   1.706  11.166 -1.2514  0.3067 -1.3919
 2282SOL    HW218480   2.774   1.655  11.150 -0.6828 -0.4189  2.5128
 2283SOL     OW18481   3.330   0.152   5.733 -0.0754 -0.2334 -0.0666
 2283SOL    HW118482   3.272   0.126   5.805 -1.1393 -1.1888 -1.2758
 2283SOL    HW218483   3.316   0.080   5.673 -1.0389 -0.9568  1.0254
 2284SOL     OW18484   2.215   2.821   2.281  0.1521  0.4343  0.0291
 2284SOL    HW118485   2.170   2.761   2.341  3.0009 -4.0031 -2.3631
 2284SOL    HW218486   2.184   2.779   2.201 -2.1282 -1.9594  2.1559
 2285SOL     OW18487   0.621   2.270   8.506  0.5185  0.5460  0.0198
 2285SOL    HW118488   0.538   2.223   8.515  0.2178  1.0125 -0.3663
 2285SOL    HW218489   0.579   2.356   8.499 -0.5511 -0.1081 -1.5252
 2286SOL     OW18490   4.384   4.196   5.259 -0.3629  0.0824 -0.3465
 2286SOL    HW118491   4.428   4.225   5.338  1.9491  1.0320 -1.9615
 2286SOL    HW218492   4.368   4.283   5.221  1.4905  0.1472 -0.9501
 2287SOL     OW18493   3.262   1.767   2.134 -0.1890  0.3120 -0.0002
 2287SOL    HW118494   3.183   1.795   2.087 -1.7461  0.2347  2.5408
 2287SOL    HW218495   3.308   1.849   2.152  2.6576 -1.0049 -1.2248
 2288SOL     OW18496   4.347   1.272  17.177 -0.4694  0.3572 -0.0769
 2288SOL    HW118497   4.286   1.208  17.141  1.0221 -0.7777 -0.5752
 2288SOL    HW218498   4.415   1.212  17.209 -0.4830  0.6797  0.5741
 2289SOL     OW18499   3.523   4.599   5.129  0.2568 -0.4354  0.5786
 2289SOL    HW118500   3.609   4.612   5.088 -0.1056  2.0701  0.6277
 2289SOL    HW218501   3.487   4.556   5.051  2.0730 -1.6396  0.4059
 2290SOL     OW18502   0.972   0.972   9.666 -0.2780  0.2201 -0.8372
 2290SOL    HW118503   0.976   1.029   9.744  0.0925 -0.0903 -0.6283
 2290SOL    HW218504   0.999   1.035   9.599  0.9287  1.2663  0.6276
 2291SOL     OW18505   2.843   0.688  10.524 -0.1073 -0.4539 -0.1173
 2291SOL    HW118506   2.848   0.770  10.574  1.7984 -0.3195 -0.5017
 2291SOL    HW218507   2.793   0.721  10.450 -1.7264 -0.1150  1.1516
 2292SOL     OW18508   4.104   0.978   9.638  0.5172  0.1216  0.2845
 2292SOL    HW118509   4.112   0.988   9.733 -0.7698 -1.0714  0.5198
 2292SOL    HW218510   4.019   0.936   9.648  0.6346  0.0364  0.9476
 2293SOL     OW18511   3.149   3.527   3.458 -0.1800 -0.2804 -0.1218
 2293SOL    HW118512   3.183   3.453   3.408 -1.3754  0.3142 -1.8251
 2293SOL    HW218513   3.177   3.600   3.402 -1.1451  0.3536  0.2421
 2294SOL     OW18514   4.622   2.335   3.325 -0.1604 -0.0570  0.3460
 2294SOL    HW118515   4.665   2.277   3.262 -1.1778  1.6675 -1.9093
 2294SOL    HW218516   4.608   2.276   3.399  1.6859  0.3015  0.9675
 2295SOL     OW18517   0.432   2.094   8.643  0.4810 -0.5329  0.0782
 2295SOL    HW118518   0.440   1.999   8.635 -2.1897 -0.7901  0.4204
 2295SOL    HW218519   0.383   2.115   8.563 -0.4885 -1.9418  0.3026
 2296SOL     OW18520   1.840   1.393  16.133  0.2002 -0.2267 -0.0818
 2296SOL    HW118521   1.769   1.363  16.076 -1.0691  0.5112  1.1313
 2296SOL    HW218522   1.813   1.352  16.215 -0.9775 -1.0318 -0.8710
 2297SOL     OW18523   4.330   4.454   6.805  0.2111  0.0220  0.5455
 2297SOL    HW118524   4.283   4.515   6.861  0.4861 -0.1922  1.0060
 2297SOL    HW218525   4.413   4.503   6.794 -0.8133  1.6459 -0.0346
 2298SOL     OW18526   1.487   3.090  16.260 -0.1816  0.4097  0.4480
 2298SOL    HW118527   1.541   3.073  16.183 -1.3391 -1.7404  0.0964
 2298SOL    HW218528   1.531   3.036  16.326 -1.9126 -0.2137  1.1000
 2299SOL     OW18529   3.949   3.801   0.762  0.1426 -0.4884  0.2436
 2299SOL    HW118530   4.006   3.743   0.812 -0.8657 -0.8844  0.9141
 2299SOL    HW218531   4.009   3.854   0.709  1.1199 -0.4610  1.3667
 2300SOL     OW18532   2.341   2.869   3.239  0.1140  0.3990  0.2352
 2300SOL    HW118533   2.322   2.799   3.302  0.7500 -1.3423 -1.4928
 2300SOL    HW218534   2.400   2.920   3.295  1.0229  0.0545 -0.4112
 2301SOL     OW18535   3.493   1.281   8.170  0.2606  0.2069  0.4447
 2301SOL    HW118536   3.506   1.361   8.119 -0.4743 -0.5652 -0.9375
 2301SOL    HW218537   3.582   1.263   8.201  1.0308  1.8130 -0.8060
 2302SOL     OW18538   2.142   4.126  12.204  0.0886  0.4095 -0.4336
 2302SOL    HW118539   2.197   4.074  12.262 -1.3186 -1.1332 -0.4679
 2302SOL    HW218540   2.203   4.119  12.130 -1.5036 -0.6028 -1.6529
 2303SOL     OW18541   1.451   0.826   7.378 -0.0538  0.6626 -0.4254
 2303SOL    HW118542   1.531   0.776   7.362 -1.1702 -1.8544  1.9520
 2303SOL    HW218543   1.420   0.842   7.289  2.5338 -0.2547 -1.4721
 2304SOL     OW18544   4.683   3.922   7.027 -0.4097  0.8686  0.1357
 2304SOL    HW118545   4.669   3.885   7.114 -1.6224 -0.1769 -0.4927
 2304SOL    HW218546   4.708   3.848   6.972 -1.8936  0.4321  0.0357
 2305SOL     OW18547   0.406   4.384   9.552  0.2624  0.2389 -0.0163
 2305SOL    HW118548   0.458   4.414   9.627 -1.0201  1.1109  0.5375
 2305SOL    HW218549   0.392   4.293   9.577  1.2787 -0.8442 -3.3590
 2306SOL     OW18550   3.420   1.630   9.223  0.3065 -0.4158 -0.0090
 2306SOL    HW118551   3.397   1.665   9.137 -0.0822 -0.3599  0.1192
 2306SOL    HW218552   3.335   1.589   9.238  0.4128 -0.6645 -0.0911
 2307SOL     OW18553   4.091   1.745   6.851  0.7881 -0.1710  0.0219
 2307SOL    HW118554   4.167   1.716   6.901 -0.8261 -2.0586  1.3515
 2307SOL    HW218555   4.014   1.716   6.899  0.1564  1.4617  0.0090
 2308SOL     OW18556   1.023   3.499   5.320 -1.4596 -0.6449  0.6399
 2308SOL    HW118557   1.083   3.557   5.366 -0.2332 -0.9210 -0.5990
 2308SOL    HW218558   0.989   3.561   5.256  1.3822  2.0859  1.7599
 2309SOL     OW18559   2.106   3.216   7.726  0.0260 -0.0323 -0.1781
 2309SOL    HW118560   2.027   3.174   7.760 -1.2923  1.4389 -1.4103
 2309SOL    HW218561   2.136   3.271   7.798  0.4008 -1.6873  0.9213
 2310SOL     OW18562   4.552   2.497  12.819  0.0467  0.0275  0.4767
 2310SOL    HW118563   4.597   2.430  12.768 -1.2971 -0.2339 -0.3415
 2310SOL    HW218564   4.460   2.485  12.796 -0.1896  1.8979  0.4564
 2311SOL     OW18565   0.196   0.060  13.564 -0.2281  0.3167  0.0762
 2311SOL    HW118566   0.182   0.047  13.471  0.0926  1.2569 -0.1100
 2311SOL    HW218567   0.247   0.138  13.542  0.6631 -0.4850 -0.7111
 2312SOL     OW18568   4.449   4.543   4.014  0.0091 -0.1975  0.4081
 2312SOL    HW118569   4.404   4.588   4.085  0.3602  1.0182 -0.1257
 2312SOL    HW218570   4.494   4.611   3.964 -1.5503  0.7608  0.3054
 2313SOL     OW18571   3.661   2.620   0.526  0.4223 -0.4562 -0.5743
 2313SOL    HW118572   3.624   2.575   0.450 -1.4088 -0.3663  0.2634
 2313SOL    HW218573   3.611   2.585   0.601  0.7166  1.5095  0.5390
 2314SOL     OW18574   3.556   1.028  10.829 -0.2485 -0.1445 -0.2242
 2314SOL    HW118575   3.652   1.034  10.833 -0.1298 -0.8673 -1.7206
 2314SOL    HW218576   3.553   1.004  10.736  3.0139 -3.1432  0.4166
 2315SOL     OW18577   0.246   0.780  14.285  0.0712 -0.7399 -0.3947
 2315SOL    HW118578   0.182   0.727  14.239 -0.9428 -0.0114  0.1614
 2315SOL    HW218579   0.192   0.853  14.316 -1.0530 -2.5748  1.9371
 2316SOL     OW18580   4.108   1.604  16.696 -0.1954 -0.3227 -0.3903
 2316SOL    HW118581   4.169   1.544  16.739  0.8933  1.4353  0.5446
 2316SOL    HW218582   4.167   1.653  16.639 -2.4559  0.4229 -2.0936
 2317SOL     OW18583   2.459   0.834  10.160 -0.0997  0.1123 -0.2114
 2317SOL    HW118584   2.501   0.790  10.234  0.8620  1.2945 -0.0493
 2317SOL    HW218585   2.406   0.768  10.116 -0.2614  0.7213 -0.9183
 2318SOL     OW18586   3.037   0.792   4.345 -0.4381 -0.4498  0.1750
 2318SOL    HW118587   3.007   0.879   4.374  1.5017 -0.5746  2.5203
 2318SOL    HW218588   2.968   0.777   4.280 -0.1070 -1.4082  0.0465
 2319SOL     OW18589   4.069   2.769   1.657  0.2419  0.2226  0.0499
 2319SOL    HW118590   4.156   2.759   1.696  0.2143  1.8481  0.5122
 2319SOL    HW218591   4.013   2.743   1.730  1.2921  3.3160  1.9360
 2320SOL     OW18592   1.355   0.602   7.678 -0.2748 -0.5141 -0.5236
 2320SOL    HW118593   1.328   0.591   7.769  0.2881 -1.6447 -0.4959
 2320SOL    HW218594   1.412   0.678   7.691 -0.4897 -0.4368 -0.0416
 2321SOL     OW18595   1.710   4.367  15.817 -0.0458 -0.0595  0.2530
 2321SOL    HW118596   1.784   4.409  15.773  0.0940 -0.2703  0.2851
 2321SOL    HW218597   1.647   4.434  15.841 -0.6772 -1.5957  2.9154
 2322SOL     OW18598   4.209   3.298  16.996  0.0536  0.2236  0.4120
 2322SOL    HW118599   4.290   3.342  17.024  0.3981 -0.2305  0.1133
 2322SOL    HW218600   4.213   3.221  17.053 -1.2740 -0.7091 -0.7541
 2323SOL     OW18601   4.023   1.751  16.956 -0.3609 -0.5224  0.2219
 2323SOL    HW118602   4.063   1.745  16.870 -1.4039  1.9050 -0.4510
 2323SOL    HW218603   3.946   1.799  16.924 -0.4706 -1.0455 -0.2860
 2324SOL     OW18604   2.294   2.390   3.464 -0.1396 -0.4726 -0.6325
 2324SOL    HW118605   2.203   2.371   3.489 -0.0922 -0.6226 -0.5720
 2324SOL    HW218606   2.307   2.319   3.401  0.9584 -1.6413  0.9239
 2325SOL     OW18607   4.448   2.091   3.765 -0.4392  0.4988 -0.0389
 2325SOL    HW118608   4.369   2.048   3.797  0.9519 -0.7442  1.7023
 2325SOL    HW218609   4.414   2.131   3.685 -1.1164  1.1275  0.5647
 2326SOL     OW18610   1.504   1.765  17.152 -0.5464  0.3458 -0.1145
 2326SOL    HW118611   1.547   1.850  17.152  1.9445 -0.9270 -0.9204
 2326SOL    HW218612   1.553   1.710  17.213 -3.6971 -0.1099  2.0506
 2327SOL     OW18613   0.533   3.471   4.254 -0.2370  0.5042  0.7854
 2327SOL    HW118614   0.450   3.516   4.268  0.5336  1.4341  2.3383
 2327SOL    HW218615   0.581   3.538   4.206 -0.0160 -1.4732 -1.7400
 2328SOL     OW18616   3.372   3.358  17.326 -0.5018  0.5141  0.0452
 2328SOL    HW118617   3.394   3.429  17.386 -0.2466  0.8906 -0.4974
 2328SOL    HW218618   3.281   3.381  17.308  0.1003  2.0601 -1.0109
 2329SOL     OW18619   4.297   2.631   6.029  0.5243 -0.1449 -0.1860
 2329SOL    HW118620   4.361   2.693   6.065 -0.8929 -0.0556  2.1893
 2329SOL    HW218621   4.296   2.676   5.945 -0.3161  0.6388  0.2545
 2330SOL     OW18622   4.604   4.469   2.914 -0.0291 -0.0378 -0.4946
 2330SOL    HW118623   4.689   4.427   2.905  0.6091  1.7330 -2.7086
 2330SOL    HW218624   4.567   4.457   2.826 -0.4247 -0.6523 -0.2456
 2331SOL     OW18625   1.996   1.893   7.051  0.5592  0.1935  0.7965
 2331SOL    HW118626   2.062   1.831   7.084  0.7527  0.9911  1.9083
 2331SOL    HW218627   1.967   1.857   6.967  2.7983  1.6228 -0.6105
 2332SOL     OW18628   2.628   3.243   5.466 -0.1491 -0.2369 -0.4874
 2332SOL    HW118629   2.644   3.336   5.481 -1.3152  0.3117 -2.5688
 2332SOL    HW218630   2.714   3.218   5.434 -0.8834 -2.0351 -1.0462
 2333SOL     OW18631   1.441   3.406  14.171  0.7009 -0.6137  0.3594
 2333SOL    HW118632   1.362   3.359  14.145  0.3713  0.8117 -1.1645
 2333SOL    HW218633   1.497   3.377  14.100  2.5787  1.8285  0.8288
 2334SOL     OW18634   0.861   1.603  11.791  0.4416  0.3910 -0.0751
 2334SOL    HW118635   0.930   1.662  11.761  3.4344 -2.8224  0.4228
 2334SOL    HW218636   0.828   1.635  11.875  0.9722  0.1644  0.2206
 2335SOL     OW18637   4.656   4.520  11.214  0.0191 -0.4346  0.2405
 2335SOL    HW118638   4.564   4.497  11.222 -0.0915 -0.1233 -0.2326
 2335SOL    HW218639   4.680   4.543  11.304  0.5200 -2.5801  0.6758
 2336SOL     OW18640   3.017   0.960   1.345 -0.0135  0.0039 -0.5386
 2336SOL    HW118641   2.973   0.895   1.400  0.2861 -0.7272 -1.1660
 2336SOL    HW218642   3.044   0.894   1.282  0.2925 -0.7483  0.3787
 2337SOL     OW18643   4.572   2.814  13.710 -0.1425 -0.0973  0.7058
 2337SOL    HW118644   4.551   2.739  13.766  1.2094 -0.1157  1.1641
 2337SOL    HW218645   4.499   2.818  13.648 -0.7646  0.7241  1.4883
 2338SOL     OW18646   1.654   3.032   3.867  0.6866  0.1485 -0.4230
 2338SOL    HW118647   1.622   3.026   3.957 -0.0142  1.2078 -0.6045
 2338SOL    HW218648   1.655   2.940   3.840  3.2584  0.3714 -1.0543
 2339SOL     OW18649   2.281   1.846   8.317 -0.0228  0.0423  0.1613
 2339SOL    HW118650   2.229   1.768   8.299 -0.7004  0.4089  0.5245
 2339SOL    HW218651   2.215   1.916   8.312 -1.1122 -1.1300 -1.8560
 2340SOL     OW18652   3.322   3.853   6.251  0.0809 -0.3832  0.1235
 2340SOL    HW118653   3.389   3.862   6.183 -0.8759  0.1784 -0.7432
 2340SOL    HW218654   3.370   3.843   6.334 -1.2106 -1.5085  0.7502
 2341SOL     OW18655   0.550   3.223   4.240 -0.0356  0.1069 -0.3142
 2341SOL    HW118656   0.534   3.317   4.234 -1.1586  0.0835  2.4310
 2341SOL    HW218657   0.626   3.202   4.184 -1.5506 -2.4400 -1.4194
 2342SOL     OW18658   2.847   3.633   5.988  0.0313  0.2666 -0.5175
 2342SOL    HW118659   2.805   3.547   5.988  0.5209  0.0649  3.6067
 2342SOL    HW218660   2.913   3.619   5.920 -0.6137 -0.4956 -0.9915
 2343SOL     OW18661   1.918   1.752   0.863  0.0295  0.1957 -0.2953
 2343SOL    HW118662   2.009   1.728   0.846 -0.3640 -2.9461  2.0492
 2343SOL    HW218663   1.931   1.788   0.951 -0.5537  0.5924 -0.3691
 2344SOL     OW18664   1.145   4.056  16.441 -0.1458 -0.2544  0.3340
 2344SOL    HW118665   1.191   4.138  16.427 -1.5219  0.0843 -2.2188
 2344SOL    HW218666   1.097   4.088  16.518  0.7843 -1.2985  1.3492
 2345SOL     OW18667   2.740   3.113  14.333  0.0026  0.5471 -0.2318
 2345SOL    HW118668   2.807   3.178  14.355  1.4643 -0.7953 -0.6792
 2345SOL    HW218669   2.723   3.148  14.246 -3.1491 -0.2644  0.0471
 2346SOL     OW18670   0.100   0.296   5.950  0.7444  0.7960  0.5229
 2346SOL    HW118671   0.063   0.364   5.894 -0.9533 -0.0298  0.6155
 2346SOL    HW218672   0.121   0.344   6.029  1.4049  0.4795  0.5382
 2347SOL     OW18673   1.465   2.743   4.528  0.0795 -0.0604 -0.4006
 2347SOL    HW118674   1.456   2.755   4.622 -0.2962  1.2190 -0.5914
 2347SOL    HW218675   1.382   2.764   4.486  0.4676  1.3820 -0.4490
 2348SOL     OW18676   3.778   3.244  11.019 -0.1093 -0.1710 -0.5466
 2348SOL    HW118677   3.756   3.216  11.108  0.2790 -1.4304 -0.8489
 2348SOL    HW218678   3.844   3.176  11.006 -1.6627 -1.7906 -0.0661
 2349SOL     OW18679   3.657   0.267   2.338 -0.0715  0.7925 -0.2854
 2349SOL    HW118680   3.706   0.187   2.322  0.0207  0.5789  1.1323
 2349SOL    HW218681   3.591   0.262   2.269 -1.5740 -2.0474  1.3884
 2350SOL     OW18682   2.321   3.895   2.776  0.0129  0.7787  0.6700
 2350SOL    HW118683   2.386   3.929   2.714 -1.9131  0.1996 -1.6898
 2350SOL    HW218684   2.249   3.956   2.757 -1.2284 -0.4822  1.3295
 2351SOL     OW18685   0.371   4.658   5.954 -0.2163 -0.5932 -0.0307
 2351SOL    HW118686   0.351   4.580   6.006  0.6900  0.1862  1.4974
 2351SOL    HW218687   0.432   4.696   6.018 -1.6733 -1.1491  1.6750
 2352SOL     OW18688   3.231   2.420   7.344 -0.0106 -0.4335  0.2200
 2352SOL    HW118689   3.184   2.337   7.336 -0.5885  0.0150 -1.0122
 2352SOL    HW218690   3.259   2.440   7.255  0.8381  0.4153  0.6766
 2353SOL     OW18691   1.624   4.712   6.412  0.4616  0.3036  0.1570
 2353SOL    HW118692   1.658   4.659   6.485 -1.3060 -2.4286 -0.9942
 2353SOL    HW218693   1.587   0.047   6.460 -1.9483 -1.3150  0.8078
 2354SOL     OW18694   3.319   2.360   0.505  0.3375  0.3804  0.1711
 2354SOL    HW118695   3.288   2.308   0.431  3.1820  0.0191 -0.7759
 2354SOL    HW218696   3.232   2.389   0.531  1.1746  4.2719 -1.2516
 2355SOL     OW18697   1.546   1.271   7.349 -0.0293  0.4192  0.0445
 2355SOL    HW118698   1.633   1.265   7.388 -0.0267  1.8125  0.2404
 2355SOL    HW218699   1.555   1.335   7.278 -2.4672  0.6662 -0.0341
 2356SOL     OW18700   4.639   2.163   4.425  0.0816  0.4135 -0.2985
 2356SOL    HW118701   4.696   2.204   4.359  1.3274 -0.2510  0.3589
 2356SOL    HW218702   4.569   2.228   4.433 -0.9157 -0.5139 -1.3415
 2357SOL     OW18703   0.197   2.500   8.479 -0.0460 -0.8415  0.1666
 2357SOL    HW118704   0.292   2.509   8.476 -0.1187 -0.4922 -1.0437
 2357SOL    HW218705   0.195   2.518   8.573  0.9349 -2.2655  0.4605
 2358SOL     OW18706   1.568   4.415   8.543 -0.3275 -0.2480 -0.8795
 2358SOL    HW118707   1.573   4.500   8.499  0.3665  1.2660  2.1329
 2358SOL    HW218708   1.553   4.349   8.475 -0.9587  0.2040 -1.1728
 2359SOL     OW18709   1.635   2.128  12.861 -0.2419 -0.2862 -0.1923
 2359SOL    HW118710   1.557   2.153  12.911 -0.4497  0.5537 -0.9391
 2359SOL    HW218711   1.684   2.210  12.866  0.1024 -0.4853 -0.3421
 2360SOL     OW18712   2.312   4.119   6.162 -0.2174 -0.2304 -0.4412
 2360SOL    HW118713   2.295   4.142   6.070 -1.2599  1.9265  0.3022
 2360SOL    HW218714   2.386   4.061   6.145  0.0696 -0.5937  2.1619
 2361SOL     OW18715   4.410   2.715   8.500 -0.2884  0.0973  0.0785
 2361SOL    HW118716   4.336   2.680   8.550 -2.1855  2.8660 -0.8080
 2361SOL    HW218717   4.492   2.701   8.547 -0.1457 -1.0670 -0.5224
 2362SOL     OW18718   2.559   0.871   8.570 -0.1185  0.3642 -0.0947
 2362SOL    HW118719   2.528   0.889   8.481 -0.5899 -4.1250 -0.8534
 2362SOL    HW218720   2.643   0.918   8.568 -0.5896  1.1515 -0.9631
 2363SOL     OW18721   1.190   0.637   2.805 -0.7137 -0.1347  0.3597
 2363SOL    HW118722   1.280   0.610   2.820 -0.7980 -1.5745 -1.7199
 2363SOL    HW218723   1.212   0.715   2.755 -0.0875 -0.7802 -0.3526
 2364SOL     OW18724   3.381   3.906  15.318 -0.1193  0.0548  0.0248
 2364SOL    HW118725   3.334   3.873  15.242 -0.1922 -0.9994  0.5356
 2364SOL    HW218726   3.473   3.893  15.297 -0.2927 -0.4262 -0.4282
 2365SOL     OW18727   0.839   4.568  16.044 -0.6782  0.1602  0.2336
 2365SOL    HW118728   0.818   4.588  15.953 -2.6204 -0.7378  0.4969
 2365SOL    HW218729   0.808   4.649  16.084  0.7104  0.6198  0.3739
 2366SOL     OW18730   1.460   0.279   2.701 -0.3742 -0.1335  0.0874
 2366SOL    HW118731   1.488   0.237   2.782 -0.9959 -0.7188 -0.0015
 2366SOL    HW218732   1.460   0.199   2.649 -2.2717 -1.2210  1.7443
 2367SOL     OW18733   2.638   2.653   0.461  0.5296  1.1586  1.0745
 2367SOL    HW118734   2.673   2.564   0.470  1.1245  1.4592  1.7477
 2367SOL    HW218735   2.584   2.660   0.540  1.0226 -0.3842  1.5551
 2368SOL     OW18736   1.085   1.980   4.391  0.2575  0.4078  0.1418
 2368SOL    HW118737   1.023   1.979   4.318  1.5478  0.5874 -0.9484
 2368SOL    HW218738   1.023   1.995   4.462 -1.5147  0.1157 -1.3388
 2369SOL     OW18739   1.974   0.906   5.894 -0.3640  0.1002  0.1895
 2369SOL    HW118740   2.039   0.844   5.927  0.7596  1.1104 -0.1654
 2369SOL    HW218741   1.914   0.912   5.968 -1.0913  0.5374 -0.4374
 2370SOL     OW18742   4.714   3.848  10.679  0.2569 -0.6541  0.0897
 2370SOL    HW118743   4.701   3.826  10.587 -2.1633 -4.4184  1.3281
 2370SOL    HW218744   0.016   3.934  10.688 -1.0749  0.2940 -3.1888
 2371SOL     OW18745   1.186   4.521  11.213 -0.6330  0.1741 -0.0955
 2371SOL    HW118746   1.220   4.452  11.157 -1.8888  0.3461 -1.0587
 2371SOL    HW218747   1.241   4.502  11.289  0.2815  0.6552 -0.6333
 2372SOL     OW18748   2.244   2.376   7.149  0.3473 -0.3698  0.5817
 2372SOL    HW118749   2.151   2.392   7.162  0.9267  2.3778  1.4236
 2372SOL    HW218750   2.266   2.357   7.240 -1.2128  1.1580  1.2620
 2373SOL     OW18751   2.456   0.991   5.573  0.8378  0.4742  0.2892
 2373SOL    HW118752   2.408   0.960   5.496 -1.2651  0.8981  1.4090
 2373SOL    HW218753   2.387   1.009   5.638 -0.1256 -0.9318 -0.3452
 2374SOL     OW18754   1.790   4.521   6.162 -0.1151 -0.4835  0.1280
 2374SOL    HW118755   1.848   4.591   6.193  1.7998 -1.6731 -0.8242
 2374SOL    HW218756   1.808   4.442   6.212  1.0245 -0.3906 -0.1329
 2375SOL     OW18757   1.614   0.900   3.446 -0.1161 -0.0026 -0.5703
 2375SOL    HW118758   1.603   0.818   3.494 -2.3980  0.3376 -0.5012
 2375SOL    HW218759   1.684   0.944   3.494 -0.5514 -1.4021  1.3404
 2376SOL     OW18760   3.730   3.259   4.725  0.2099 -0.3830  0.0199
 2376SOL    HW118761   3.803   3.319   4.742 -0.9011  0.9205  0.1963
 2376SOL    HW218762   3.771   3.182   4.764 -0.3090 -0.4217  0.4869
 2377SOL     OW18763   2.942   1.525   5.509  0.0795 -0.1903  0.4941
 2377SOL    HW118764   2.966   1.436   5.484  1.0398  0.3297 -0.4015
 2377SOL    HW218765   2.992   1.578   5.446  1.1884 -1.6151  0.1902
 2378SOL     OW18766   0.861   1.452   6.878 -0.1654  0.1784  0.0702
 2378SOL    HW118767   0.802   1.386   6.842  1.2215 -0.3339 -1.2434
 2378SOL    HW218768   0.951   1.422   6.884 -0.0188  0.2829 -1.7029
 2379SOL     OW18769   1.244   1.376   2.352  0.0904  0.5079 -0.1205
 2379SOL    HW118770   1.163   1.385   2.403 -0.6162 -0.4799 -1.0604
 2379SOL    HW218771   1.295   1.447   2.391  0.3571  0.4014 -0.2733
 2380SOL     OW18772   1.089   4.466   6.841  0.3225 -0.0074 -0.1410
 2380SOL    HW118773   0.994   4.473   6.827 -0.0475 -0.1065  2.3608
 2380SOL    HW218774   1.117   4.556   6.824  1.8475 -0.5781 -0.6072
 2381SOL     OW18775   4.616   2.309  13.124  0.4941  0.3957  0.6382
 2381SOL    HW118776   4.660   2.269  13.049 -1.6807 -1.7966  0.5593
 2381SOL    HW218777   4.586   2.237  13.179 -1.0064 -0.5761 -1.4551
 2382SOL     OW18778   4.192   2.752   5.518  0.3106 -0.0952  0.3569
 2382SOL    HW118779   4.112   2.804   5.509 -0.3734 -1.2758 -0.4486
 2382SOL    HW218780   4.153   2.673   5.481  0.8901 -1.0443  1.7737
 2383SOL     OW18781   4.609   1.549   9.013 -0.0684 -0.4006 -0.6415
 2383SOL    HW118782   4.603   1.613   9.085 -1.7337  1.6690 -2.6241
 2383SOL    HW218783   4.701   1.563   8.990  0.5168 -1.9057  0.8039
 2384SOL     OW18784   4.125   3.114   8.648  0.3104 -0.1176 -0.3233
 2384SOL    HW118785   4.080   3.042   8.692 -0.4276 -1.0346 -2.5888
 2384SOL    HW218786   4.210   3.070   8.649  0.7446  0.7066 -0.5280
 2385SOL     OW18787   2.713   1.208   3.988  0.1477 -0.0428 -0.2031
 2385SOL    HW118788   2.712   1.291   4.036 -1.4580  0.4746 -1.1343
 2385SOL    HW218789   2.804   1.204   3.958 -0.1422  0.3624 -1.1260
 2386SOL     OW18790   0.891   4.540   0.881 -0.3345 -0.4723 -0.6215
 2386SOL    HW118791   0.931   4.458   0.851 -2.1920 -1.1867 -1.1878
 2386SOL    HW218792   0.914   4.597   0.808  1.4098  1.0347  1.1118
 2387SOL     OW18793   3.270   2.484  10.080  0.1406 -0.3029 -0.4033
 2387SOL    HW118794   3.231   2.560  10.037 -0.8690 -0.5676  0.0426
 2387SOL    HW218795   3.198   2.421  10.081  0.7482 -1.0296 -2.2139
 2388SOL     OW18796   0.417   1.014   9.465 -0.3212  0.5000 -0.0032
 2388SOL    HW118797   0.372   0.941   9.506  0.0938 -0.4437 -1.2404
 2388SOL    HW218798   0.504   0.973   9.462 -0.5726  0.0235 -0.6478
 2389SOL     OW18799   2.163   4.402  12.312  0.0205 -0.5726  0.0329
 2389SOL    HW118800   2.104   4.431  12.242 -1.5609  0.2574  1.7154
 2389SOL    HW218801   2.178   4.308  12.301  0.8864  0.0279 -3.8797
 2390SOL     OW18802   3.306   2.550   2.665 -0.1546 -0.8112 -0.0509
 2390SOL    HW118803   3.397   2.577   2.653  0.3343  0.3122  5.9965
 2390SOL    HW218804   3.269   2.635   2.687  0.8657 -1.1118  2.8813
 2391SOL     OW18805   0.112   1.708   2.290  0.0252  0.2368 -0.0856
 2391SOL    HW118806   0.192   1.752   2.261 -1.2684  1.2323 -2.1539
 2391SOL    HW218807   0.143   1.618   2.301 -1.7271  0.0404  3.3596
 2392SOL     OW18808   3.777   4.479  14.064 -0.3050 -0.0815 -0.0060
 2392SOL    HW118809   3.717   4.415  14.102  0.3393  0.4060  1.8659
 2392SOL    HW218810   3.832   4.496  14.141  0.6466  1.6279 -1.0658
 2393SOL     OW18811   1.935   2.690   8.357 -0.5359  0.0663  0.2414
 2393SOL    HW118812   1.966   2.713   8.270  1.7363  1.6516  1.4731
 2393SOL    HW218813   2.008   2.634   8.382 -0.2915  0.0138 -0.6059
 2394SOL     OW18814   4.587   4.714   3.642 -0.1419  0.3446 -0.3440
 2394SOL    HW118815   4.570   4.620   3.635  1.8344  0.0106 -0.7967
 2394SOL    HW218816   4.536   0.016   3.571 -0.1527  0.8630 -0.0350
 2395SOL     OW18817   2.413   4.259   1.081  0.8756  0.2254  0.2860
 2395SOL    HW118818   2.454   4.209   1.152 -3.3415  1.5959  3.6443
 2395SOL    HW218819   2.361   4.321   1.131  0.6415 -0.4497  0.8839
 2396SOL     OW18820   2.675   1.478  11.429 -0.0315  0.0007 -0.0024
 2396SOL    HW118821   2.712   1.399  11.469 -2.6071 -1.8892 -1.3442
 2396SOL    HW218822   2.673   1.439  11.342 -1.9143  0.4056 -0.1470
 2397SOL     OW18823   2.356   0.463   7.262  0.5104 -0.2362 -0.7327
 2397SOL    HW118824   2.354   0.493   7.171 -2.9673  3.1002  0.4275
 2397SOL    HW218825   2.267   0.440   7.289  1.2402 -1.0226  1.0254
 2398SOL     OW18826   3.428   2.915   3.324  0.7368 -0.3130 -0.2969
 2398SOL    HW118827   3.364   2.897   3.255  1.1880 -3.3839  0.1203
 2398SOL    HW218828   3.462   2.827   3.341 -0.7983 -0.7496  0.4617
 2399SOL     OW18829   4.392   4.520   5.236  0.0462 -0.0231 -0.4175
 2399SOL    HW118830   4.411   4.526   5.142 -1.3968  3.8854 -0.4529
 2399SOL    HW218831   4.462   4.579   5.263  2.8672 -2.9952 -1.2648
 2400SOL     OW18832   4.519   2.130   2.712  0.1763  1.0574 -0.4222
 2400SOL    HW118833   4.432   2.115   2.749  2.1497 -1.3631  3.3005
 2400SOL    HW218834   4.514   2.078   2.632  0.7140 -0.0771  0.2806
 2401SOL     OW18835   2.829   4.510   4.795 -0.3382  0.5563  0.1963
 2401SOL    HW118836   2.783   4.524   4.712 -1.0882 -0.5027  0.4421
 2401SOL    HW218837   2.797   4.422   4.814 -0.2222  0.3561 -0.5338
 2402SOL     OW18838   3.618   4.132   2.656 -0.4582  0.8063 -0.2691
 2402SOL    HW118839   3.648   4.220   2.633  2.3098 -0.0247  0.1839
 2402SOL    HW218840   3.701   4.085   2.646 -0.0503  0.9561  2.4591
 2403SOL     OW18841   3.051   2.940  10.389  0.5897  0.4849 -0.7027
 2403SOL    HW118842   2.969   2.990  10.391  0.6899  0.5922  1.0052
 2403SOL    HW218843   3.053   2.908  10.479 -0.9910  0.2454 -0.7485
 2404SOL     OW18844   2.090   0.092   5.528  0.3551 -0.5316  0.0459
 2404SOL    HW118845   2.106   0.045   5.610  0.4838 -1.5071 -0.5422
 2404SOL    HW218846   2.029   0.033   5.483  0.2427  0.3513 -0.9581
 2405SOL     OW18847   3.408   0.419   5.277  0.2809 -0.3086  0.6728
 2405SOL    HW118848   3.459   0.340   5.258  0.5361 -0.0879  0.4292
 2405SOL    HW218849   3.448   0.489   5.226  0.6456 -0.1668  1.1548
 2406SOL     OW18850   2.559   2.857   6.025  0.6130  0.2423 -0.2614
 2406SOL    HW118851   2.574   2.880   6.117 -0.1413  0.6050 -0.2356
 2406SOL    HW218852   2.649   2.862   5.993  1.2579 -0.7878  1.3290
 2407SOL     OW18853   0.326   1.118   1.606 -0.2965 -0.9289 -0.2292
 2407SOL    HW118854   0.259   1.184   1.590 -1.0524 -1.1210  2.1385
 2407SOL    HW218855   0.279   1.035   1.618 -0.4875 -0.7771  0.0822
 2408SOL     OW18856   2.147   0.882   7.490 -0.4225  0.3365 -0.0718
 2408SOL    HW118857   2.228   0.902   7.537  1.2652  0.0437 -2.8765
 2408SOL    HW218858   2.077   0.913   7.548  1.3043  0.0926  2.1136
 2409SOL     OW18859   0.212   0.235   6.554 -0.1157  0.3420 -0.5889
 2409SOL    HW118860   0.217   0.212   6.647  0.0187 -0.4495 -0.7901
 2409SOL    HW218861   0.120   0.263   6.554  0.2620  1.5948  2.3273
 2410SOL     OW18862   2.568   1.612  17.744  0.3890 -0.2310 -0.3838
 2410SOL    HW118863   2.649   1.582  17.702 -0.1464 -2.2046 -0.0406
 2410SOL    HW218864   2.518   1.629  17.665 -1.5445  2.1409  1.3572
 2411SOL     OW18865   0.076   0.105  10.743 -0.2155  0.4269  0.3000
 2411SOL    HW118866   4.727   0.116  10.780 -0.4885  0.8043 -0.4604
 2411SOL    HW218867   0.092   0.010  10.748 -0.1133  0.4642  0.6866
 2412SOL     OW18868   4.062   2.914   1.403 -0.2040 -0.0001  0.1803
 2412SOL    HW118869   4.015   2.995   1.383  2.0637  0.9279 -1.3571
 2412SOL    HW218870   4.061   2.924   1.499  0.6024  3.7834 -0.1821
 2413SOL     OW18871   4.615   4.104   5.541  0.4330  0.1422 -0.2166
 2413SOL    HW118872   4.565   4.185   5.546 -0.4821 -0.2974 -2.2403
 2413SOL    HW218873   4.564   4.036   5.586  0.7419 -1.3251 -2.0878
 2414SOL     OW18874   2.798   4.021   5.902  0.4807  0.6545  0.4373
 2414SOL    HW118875   2.745   3.941   5.909 -0.6394  1.6490  3.3599
 2414SOL    HW218876   2.855   4.000   5.976 -0.5091  1.2901  1.3784
 2415SOL     OW18877   4.733   2.449   5.482 -0.3450 -0.0571 -0.0418
 2415SOL    HW118878   0.004   2.544   5.475 -0.3718  0.1146  2.2995
 2415SOL    HW218879   4.642   2.435   5.454 -0.9026  3.0031  0.2401
 2416SOL     OW18880   3.565   0.457   0.653  0.2431  0.1685 -0.1133
 2416SOL    HW118881   3.633   0.478   0.589 -0.8705  1.2098 -0.9768
 2416SOL    HW218882   3.494   0.491   0.598 -1.1528 -0.4859  1.2754
 2417SOL     OW18883   4.654   3.589  12.299  0.5925  0.3769  0.0259
 2417SOL    HW118884   4.582   3.652  12.292  0.6188  0.4639  0.5330
 2417SOL    HW218885   4.631   3.517  12.241  0.1119 -1.9672  3.1190
 2418SOL     OW18886   0.360   1.069   3.698 -0.1983 -0.2273 -0.1444
 2418SOL    HW118887   0.375   0.994   3.640 -2.7392  0.3504 -1.5182
 2418SOL    HW218888   0.390   1.136   3.636 -0.3352 -0.9878 -1.0357
 2419SOL     OW18889   4.632   1.424   8.592  0.0875  0.0941  0.0986
 2419SOL    HW118890   4.633   1.353   8.656 -0.9086 -1.9636 -2.1469
 2419SOL    HW218891   4.539   1.422   8.571 -0.4175  3.2396  2.1325
 2420SOL     OW18892   0.501   4.513  17.009  0.5447 -0.2956  0.0388
 2420SOL    HW118893   0.593   4.530  17.028  0.5448 -0.4971  0.2208
 2420SOL    HW218894   0.504   4.510  16.913  1.0276 -2.2024  0.1132
 2421SOL     OW18895   0.457   1.200   3.435  0.0648  0.1481 -0.1348
 2421SOL    HW118896   0.539   1.248   3.424  0.1235 -0.6197 -3.2133
 2421SOL    HW218897   0.411   1.225   3.354 -0.2005  2.5322  0.7702
 2422SOL     OW18898   2.972   4.022   8.120 -0.0308 -0.5136  0.6156
 2422SOL    HW118899   2.931   4.109   8.122  0.1331 -0.4619  1.8149
 2422SOL    HW218900   2.901   3.975   8.164 -0.8358  2.2118  2.2992
 2423SOL     OW18901   4.449   2.892   1.621  0.1846  0.7763  0.0371
 2423SOL    HW118902   4.535   2.934   1.619  0.6254  0.0180  2.5784
 2423SOL    HW218903   4.399   2.964   1.584  0.9952  0.6561 -1.2754
 2424SOL     OW18904   0.846   3.203  17.499 -0.1449  0.2802 -0.0237
 2424SOL    HW118905   0.781   3.168  17.560 -0.7058  0.4714 -0.5142
 2424SOL    HW218906   0.805   3.287  17.481  1.5963  1.3854  1.1784
 2425SOL     OW18907   4.554   3.916   1.653 -0.4293 -0.2252 -0.1093
 2425SOL    HW118908   4.477   3.871   1.617  0.3151 -0.3218 -1.5941
 2425SOL    HW218909   4.581   3.965   1.575  0.3736  0.6647  0.7413
 2426SOL     OW18910   4.383   2.416   7.829  0.3562 -0.4244 -0.0825
 2426SOL    HW118911   4.297   2.447   7.799  0.7271  1.5927  0.8872
 2426SOL    HW218912   4.444   2.475   7.784 -0.2018 -1.7888 -2.5954
 2427SOL     OW18913   0.957   0.509   2.811  0.3287  0.2733  0.3701
 2427SOL    HW118914   0.995   0.421   2.809 -0.1195  0.0814  0.2240
 2427SOL    HW218915   1.041   0.554   2.805  0.9214 -0.5778  2.4073
 2428SOL     OW18916   2.771   2.572   8.170  0.4723 -0.6143  0.1020
 2428SOL    HW118917   2.776   2.496   8.228 -1.1947 -0.2123  0.7799
 2428SOL    HW218918   2.863   2.571   8.144  0.7579  0.3313  1.0791
 2429SOL     OW18919   0.471   3.199   8.533  0.0275 -0.4053 -0.2148
 2429SOL    HW118920   0.447   3.120   8.483 -1.4980  0.4703 -0.8813
 2429SOL    HW218921   0.379   3.211   8.555 -0.4729 -1.6176 -1.6526
 2430SOL     OW18922   0.961   1.977  11.714 -0.2903 -0.5019 -0.5325
 2430SOL    HW118923   0.944   2.071  11.709  1.2563 -0.2045 -0.4728
 2430SOL    HW218924   0.879   1.930  11.701  0.1458 -1.4590  0.1518
 2431SOL     OW18925   4.327   1.742   8.332 -0.2620 -0.4905  0.0405
 2431SOL    HW118926   4.414   1.781   8.332 -1.5857  2.4666  0.9252
 2431SOL    HW218927   4.353   1.657   8.297 -0.2315 -0.4928  0.0679
 2432SOL     OW18928   0.132   0.904   0.696  0.2733  0.3966  0.1476
 2432SOL    HW118929   0.099   0.814   0.691 -0.4067  0.8787 -3.8603
 2432SOL    HW218930   0.171   0.915   0.610 -0.2547  0.2440 -0.1090
 2433SOL     OW18931   1.195   0.845   4.430 -0.3081  0.3808  0.3711
 2433SOL    HW118932   1.261   0.786   4.467  0.2287 -1.2389 -3.1810
 2433SOL    HW218933   1.247   0.903   4.373  0.3105  0.2274  0.7781
 2434SOL     OW18934   0.522   1.229   7.032  0.3221  0.5064  0.3516
 2434SOL    HW118935   0.441   1.252   6.987  0.5050 -3.0123 -1.7365
 2434SOL    HW218936   0.505   1.154   7.089  0.3759  0.9697  0.9912
 2435SOL     OW18937   1.426   0.481   3.638 -0.2218  0.6946  0.3771
 2435SOL    HW118938   1.369   0.505   3.711 -0.8360 -1.8580  0.7459
 2435SOL    HW218939   1.440   0.387   3.650 -1.9221  0.5810  1.4566
 2436SOL     OW18940   4.691   2.263   0.900 -0.1846 -0.0092  0.3430
 2436SOL    HW118941   4.672   2.182   0.852  1.9107  0.5316 -1.4057
 2436SOL    HW218942   0.028   2.282   0.845 -0.9313 -2.0083 -1.3730
 2437SOL     OW18943   0.420   0.779   7.700  0.4934  0.3087  0.1530
 2437SOL    HW118944   0.497   0.812   7.654  2.1350  0.2386  2.8469
 2437SOL    HW218945   0.357   0.844   7.668  1.1716  1.4752  1.1609
 2438SOL     OW18946   1.699   0.760   7.999 -0.4248  0.1848 -0.5145
 2438SOL    HW118947   1.670   0.732   7.912  0.3291  1.5921 -1.2236
 2438SOL    HW218948   1.617   0.783   8.044 -0.8399 -2.1493 -0.0980
 2439SOL     OW18949   4.060   2.173   9.333 -0.6298  0.3493 -0.0254
 2439SOL    HW118950   4.016   2.208   9.411  0.6740  1.4882  0.1868
 2439SOL    HW218951   4.009   2.093   9.321  0.0524  0.0683 -1.0389
 2440SOL     OW18952   0.343   4.594   4.946 -0.0611  0.2284  0.5053
 2440SOL    HW118953   0.311   4.607   4.856 -0.6828 -2.2785  0.3604
 2440SOL    HW218954   0.300   4.509   4.958  2.5804 -0.8354  2.3343
 2441SOL     OW18955   4.253   1.195   0.924  0.0854  0.7805 -0.1496
 2441SOL    HW118956   4.168   1.192   0.968  0.2736  0.3068  0.1659
 2441SOL    HW218957   4.288   1.274   0.965 -1.2999  0.8471  0.9047
 2442SOL     OW18958   4.451   1.704  16.814 -0.0610 -0.2395  0.3364
 2442SOL    HW118959   4.399   1.685  16.737  0.4839  0.7164 -0.2650
 2442SOL    HW218960   4.512   1.758  16.764 -0.2474 -1.3338 -1.0676
 2443SOL     OW18961   1.384   0.546   3.022  0.2279  0.6177 -0.1107
 2443SOL    HW118962   1.334   0.465   3.013 -0.1427  0.8758 -0.3560
 2443SOL    HW218963   1.414   0.548   2.931  1.1816  0.9237  0.2027
 2444SOL     OW18964   4.730   1.035   9.494  0.1897 -0.2797 -0.1152
 2444SOL    HW118965   0.050   0.995   9.431  0.1523  0.7607 -0.8067
 2444SOL    HW218966   0.048   1.097   9.538 -0.8632  0.7019 -0.1477
 2445SOL     OW18967   2.080   0.480  14.584  0.3107  0.1513  0.3771
 2445SOL    HW118968   2.097   0.563  14.629  2.1906  1.0319 -1.9876
 2445SOL    HW218969   2.082   0.417  14.656  1.9375  0.3895  0.5492
 2446SOL     OW18970   3.342   0.038   4.088  0.2662 -0.3384  0.0030
 2446SOL    HW118971   3.345   0.052   3.994 -1.7111  2.5190  0.3661
 2446SOL    HW218972   3.281   0.110   4.107  2.4619  1.0537  1.9079
 2447SOL     OW18973   0.588   2.604   6.953  0.1499  0.2219 -0.0917
 2447SOL    HW118974   0.602   2.519   6.912 -2.2002  0.0777 -0.6027
 2447SOL    HW218975   0.545   2.584   7.037  1.4342 -0.0534  0.5019
 2448SOL     OW18976   1.498   2.451   9.652  0.3626  0.3688  0.2036
 2448SOL    HW118977   1.433   2.417   9.590  1.5670  0.4558 -1.1118
 2448SOL    HW218978   1.495   2.545   9.634 -0.1683  0.5023  1.0249
 2449SOL     OW18979   3.059   1.182   3.484 -0.0216 -0.1245 -0.0637
 2449SOL    HW118980   3.104   1.207   3.565  1.9434 -0.3769 -1.0854
 2449SOL    HW218981   2.969   1.185   3.517  0.0138 -1.5340  0.1573
 2450SOL     OW18982   2.769   0.243   6.116  0.8065 -0.3047  0.1637
 2450SOL    HW118983   2.678   0.226   6.094  0.6228  0.2864  0.4600
 2450SOL    HW218984   2.816   0.259   6.034 -1.7297  0.0198 -1.2028
 2451SOL     OW18985   1.361   1.001   4.937 -0.1930  0.0581 -0.4321
 2451SOL    HW118986   1.429   1.049   4.890  1.5604 -0.6608  1.3707
 2451SOL    HW218987   1.368   0.912   4.903  0.7330  0.0788 -0.2960
 2452SOL     OW18988   1.747   3.806   8.773 -0.1678  0.0933  0.3262
 2452SOL    HW118989   1.753   3.892   8.731  1.6744  0.3361  1.0928
 2452SOL    HW218990   1.771   3.747   8.702  1.7409 -0.0768  1.1177
 2453SOL     OW18991   0.745   1.363   6.637 -0.1679 -0.0790 -0.5122
 2453SOL    HW118992   0.767   1.335   6.549  2.7194  0.6769 -0.0461
 2453SOL    HW218993   0.703   1.282   6.665  1.3663 -0.7112 -0.0450
 2454SOL     OW18994   2.663   2.457  11.165 -0.8112  0.1525  0.6209
 2454SOL    HW118995   2.589   2.411  11.203 -1.4432 -0.1442 -0.9510
 2454SOL    HW218996   2.734   2.442  11.227 -1.7179 -2.2392  1.0823
 2455SOL     OW18997   3.443   1.943   5.209 -0.4770 -0.0568 -0.1758
 2455SOL    HW118998   3.447   1.954   5.114 -0.7306  1.8096  0.0336
 2455SOL    HW218999   3.521   1.983   5.246 -0.3942 -0.6777  0.3286
 2456SOL     OW19000   1.930   4.469  11.175  0.1732  0.2851  0.0284
 2456SOL    HW119001   1.974   4.407  11.115  3.0040 -0.0768  2.4559
 2456SOL    HW219002   1.956   4.557  11.149  1.5782 -0.1407 -0.0426
 2457SOL     OW19003   2.009   1.402   2.232 -0.5612  0.1564  0.0228
 2457SOL    HW119004   1.943   1.332   2.233 -2.0434  1.4931 -2.0253
 2457SOL    HW219005   1.949   1.477   2.241 -0.6261  0.1095 -0.0157
 2458SOL     OW19006   1.387   3.628   9.027 -0.3580 -0.0986 -0.4111
 2458SOL    HW119007   1.481   3.646   9.023 -0.9727  2.9164 -1.7381
 2458SOL    HW219008   1.391   3.557   9.091  1.1802  2.0205  1.8692
 2459SOL     OW19009   3.901   0.877   9.142 -0.1041 -0.2004 -0.4231
 2459SOL    HW119010   3.877   0.943   9.206  0.7539  0.2454 -0.5553
 2459SOL    HW219011   3.976   0.834   9.184 -0.7880 -1.0101 -0.0263
 2460SOL     OW19012   3.825   3.408   8.166  0.1274  0.1290 -0.1313
 2460SOL    HW119013   3.809   3.332   8.110  1.7575 -0.0500 -0.3774
 2460SOL    HW219014   3.912   3.436   8.137 -0.5364  3.2420  0.8881
 2461SOL     OW19015   2.816   3.998  11.221 -0.4867  0.7658  0.3132
 2461SOL    HW119016   2.864   4.080  11.212  1.0258 -0.0910  0.5773
 2461SOL    HW219017   2.750   3.996  11.152 -0.9438  0.2305  0.7598
 2462SOL     OW19018   2.952   1.130   4.775  0.0277  0.0632  0.2983
 2462SOL    HW119019   2.880   1.071   4.799  0.7936 -1.2438 -0.6355
 2462SOL    HW219020   2.976   1.169   4.859 -1.2938  0.0445  0.6975
 2463SOL     OW19021   2.315   0.903   9.395 -0.5054  0.7706 -0.4450
 2463SOL    HW119022   2.229   0.865   9.379 -0.0695 -1.1945  1.9228
 2463SOL    HW219023   2.382   0.855   9.346  0.3694 -1.9458  3.4607
 2464SOL     OW19024   0.677   0.893   7.554  0.4665  0.2725 -0.4660
 2464SOL    HW119025   0.727   0.929   7.481 -1.5563  0.8712 -1.5413
 2464SOL    HW219026   0.753   0.890   7.613 -1.1620  1.5350  1.6707
 2465SOL     OW19027   3.281   2.656   0.673 -0.0422  0.3103 -0.2399
 2465SOL    HW119028   3.342   2.602   0.723  1.4518  0.7978 -1.5424
 2465SOL    HW219029   3.327   2.671   0.590 -1.7625  1.6332 -0.9536
 2466SOL     OW19030   0.830   3.743   9.589 -0.4190  0.4839  0.4660
 2466SOL    HW119031   0.811   3.816   9.529  0.1710 -0.1399 -0.4679
 2466SOL    HW219032   0.757   3.748   9.651  0.4391 -0.5780  1.5579
 2467SOL     OW19033   0.293   2.641   3.496  0.4985 -0.5058  0.2789
 2467SOL    HW119034   0.241   2.571   3.455 -0.3951  0.8872 -0.9390
 2467SOL    HW219035   0.232   2.714   3.501 -0.7210 -1.6506  2.6743
 2468SOL     OW19036   3.772   0.812  15.962  0.3781  0.0784 -0.3141
 2468SOL    HW119037   3.789   0.895  15.917  0.1922  0.2911  0.0116
 2468SOL    HW219038   3.763   0.757  15.884 -1.0087 -0.7118  0.4034
 2469SOL     OW19039   0.033   3.719  13.509  0.1387  0.3480 -0.3298
 2469SOL    HW119040   4.711   3.727  13.436 -0.0652  0.9380 -0.0944
 2469SOL    HW219041   0.082   3.646  13.472 -2.0716 -0.9770 -0.6158
 2470SOL     OW19042   4.509   0.804  13.535 -0.2994 -0.1555 -0.3506
 2470SOL    HW119043   4.585   0.817  13.478  0.5498  1.8917  1.2857
 2470SOL    HW219044   4.442   0.865  13.503 -0.4869  0.2045  0.7533
 2471SOL     OW19045   4.655   3.148   2.253 -0.3930 -0.1804  0.2019
 2471SOL    HW119046   4.582   3.146   2.191  1.0984 -0.3893 -1.5167
 2471SOL    HW219047   4.662   3.056   2.277  1.9301  0.0537  0.4355
 2472SOL     OW19048   1.544   0.529   5.488 -0.1781 -0.2514 -0.2570
 2472SOL    HW119049   1.546   0.590   5.414  0.6702  0.8057  0.6193
 2472SOL    HW219050   1.537   0.450   5.435  1.7045 -1.4969  1.3463
 2473SOL     OW19051   3.494   1.131   2.448 -0.0110  0.2648  0.8296
 2473SOL    HW119052   3.524   1.140   2.357  0.8863 -1.1973  0.9817
 2473SOL    HW219053   3.402   1.121   2.423  0.9389  0.5796 -2.8103
 2474SOL     OW19054   1.053   0.294  14.860 -0.6705 -0.1451 -0.1895
 2474SOL    HW119055   1.148   0.304  14.861 -0.4049 -2.4180 -0.6582
 2474SOL    HW219056   1.036   0.339  14.778 -0.4386  0.2878  0.0023
 2475SOL     OW19057   1.203   0.395   9.383 -0.1735  0.1757  0.7168
 2475SOL    HW119058   1.272   0.329   9.394 -1.5355 -1.1703  1.1306
 2475SOL    HW219059   1.231   0.472   9.434 -0.0044  1.9549 -2.0637
 2476SOL     OW19060   4.013   1.314   1.262  0.1389  0.1887  0.4073
 2476SOL    HW119061   3.988   1.407   1.261  0.9134  0.3875 -0.0624
 2476SOL    HW219062   4.052   1.308   1.349  0.2263  0.7995  0.4124
 2477SOL     OW19063   2.055   0.472   2.415 -0.2027  0.6504  0.6236
 2477SOL    HW119064   1.961   0.466   2.396  0.2313  1.2395 -1.6990
 2477SOL    HW219065   2.057   0.444   2.507  3.2028 -0.5347  0.1769
 2478SOL     OW19066   1.690   2.063   5.566  0.2202 -0.1279 -0.4285
 2478SOL    HW119067   1.639   2.002   5.513 -0.4391 -0.9027  1.1051
 2478SOL    HW219068   1.669   2.149   5.529  2.5604  0.8416  0.4778
 2479SOL     OW19069   2.908   0.025   3.567  0.5558  0.6398  0.2221
 2479SOL    HW119070   2.975   4.698   3.585 -0.2075 -0.1636  0.1581
 2479SOL    HW219071   2.930   0.038   3.475  0.9407 -1.4306  0.0151
 2480SOL     OW19072   4.594   4.122   8.503  0.3344  0.2052  0.2774
 2480SOL    HW119073   4.604   4.141   8.409  0.4331  0.0632  0.2598
 2480SOL    HW219074   4.670   4.171   8.533 -1.7347  4.1723 -1.0080
 2481SOL     OW19075   3.629   2.055   6.751 -0.1053 -0.1698 -0.3607
 2481SOL    HW119076   3.567   2.126   6.734  0.8479  1.0561  1.2785
 2481SOL    HW219077   3.714   2.082   6.716 -0.8196  1.2454 -0.9876
 2482SOL     OW19078   4.338   0.123   7.648 -0.0231 -0.4302 -0.0373
 2482SOL    HW119079   4.386   0.042   7.664  1.1190  0.4820  1.2530
 2482SOL    HW219080   4.282   0.132   7.726  2.1743  2.7768  1.1868
 2483SOL     OW19081   4.683   3.142   6.888  0.5648  0.2908 -0.1383
 2483SOL    HW119082   0.032   3.105   6.880  0.5489 -0.0987  1.4541
 2483SOL    HW219083   4.649   3.107   6.807  1.4222 -0.8111 -0.0272
 2484SOL     OW19084   1.296   4.192   7.605 -0.7755 -0.4499  0.1318
 2484SOL    HW119085   1.247   4.268   7.575  1.3961  1.7767  2.2420
 2484SOL    HW219086   1.340   4.177   7.522  0.2328 -0.1976  0.6258
 2485SOL     OW19087   1.821   2.498   0.964  0.2999  0.3114  0.2955
 2485SOL    HW119088   1.769   2.444   0.905  0.8977  0.3429 -0.2624
 2485SOL    HW219089   1.803   2.456   1.048 -1.7643  0.2599 -0.1676
 2486SOL     OW19090   1.807   4.238   4.827  0.5241 -0.9017  1.2204
 2486SOL    HW119091   1.830   4.319   4.781  0.6630 -2.3508 -1.2630
 2486SOL    HW219092   1.853   4.170   4.778  1.0603 -0.3762  0.9916
 2487SOL     OW19093   4.124   4.545   5.310  0.1319 -0.4984  0.1885
 2487SOL    HW119094   4.214   4.521   5.288  0.8181  2.1355  0.1385
 2487SOL    HW219095   4.130   4.638   5.334 -1.6399 -0.3172 -0.0873
 2488SOL     OW19096   2.846   0.835   5.209  0.3192  0.4943 -0.2331
 2488SOL    HW119097   2.923   0.870   5.163  0.0430  1.8765  0.3340
 2488SOL    HW219098   2.780   0.903   5.195  0.0412  0.5652  1.3946
 2489SOL     OW19099   2.404   0.043   6.787 -0.1716  0.6125 -0.9516
 2489SOL    HW119100   2.484   4.730   6.774  0.1738  0.1362  3.0446
 2489SOL    HW219101   2.344   0.023   6.715 -1.4688  0.0924  0.2702
 2490SOL     OW19102   0.692   1.911  11.668 -0.6305  0.0169  0.6153
 2490SOL    HW119103   0.662   1.883  11.754 -1.8270 -0.3634  0.0820
 2490SOL    HW219104   0.621   1.971  11.645 -0.7963 -0.5285 -0.2793
 2491SOL     OW19105   3.287   0.076   6.111  0.0264 -0.0655  0.5894
 2491SOL    HW119106   3.201   0.106   6.081  0.6616  1.2768  0.1183
 2491SOL    HW219107   3.329   0.156   6.140 -1.9117  1.3652 -0.5401
 2492SOL     OW19108   3.031   4.605   8.673 -0.1130 -0.7850  0.6155
 2492SOL    HW119109   3.127   4.603   8.671 -0.1293 -0.4743 -0.3038
 2492SOL    HW219110   3.012   4.686   8.721  0.6849 -0.3395  0.1850
 2493SOL     OW19111   4.429   0.934   5.595 -0.5874 -0.4514  0.9233
 2493SOL    HW119112   4.513   0.981   5.589 -1.7060  1.6106  1.4720
 2493SOL    HW219113   4.369   0.999   5.559  3.5988  1.7530 -2.0667
 2494SOL     OW19114   4.152   3.279  13.807  0.0969 -0.0095  0.2054
 2494SOL    HW119115   4.241   3.248  13.792  0.4831  0.5270  1.3813
 2494SOL    HW219116   4.135   3.335  13.731 -0.2942 -0.3218  0.0636
 2495SOL     OW19117   2.131   0.566   4.519 -0.4245 -0.2854 -0.1161
 2495SOL    HW119118   2.037   0.566   4.537 -0.2042  1.2510  1.1142
 2495SOL    HW219119   2.129   0.481   4.475 -0.7869 -1.0378  1.3561
 2496SOL     OW19120   2.769   3.424   5.724 -0.2054  0.3568 -0.2390
 2496SOL    HW119121   2.842   3.474   5.688 -1.7944  1.1205 -2.4121
 2496SOL    HW219122   2.808   3.344   5.759  1.6194  0.1895 -2.6651
 2497SOL     OW19123   4.408   4.016   2.992 -0.1104 -0.0359 -0.4620
 2497SOL    HW119124   4.342   4.069   3.036  0.9788  0.8555  0.0778
 2497SOL    HW219125   4.480   4.078   2.980 -0.4852  0.5917  0.6050
 2498SOL     OW19126   3.721   4.071  15.567  0.1391  0.6505 -0.2830
 2498SOL    HW119127   3.697   4.144  15.509 -0.4991 -0.3515 -1.2824
 2498SOL    HW219128   3.806   4.035  15.543 -0.2219 -2.3679  3.0090
 2499SOL     OW19129   0.792   4.638   3.243  0.3110  0.9821  0.5759
 2499SOL    HW119130   0.744   4.721   3.252 -0.9535 -0.0106  2.7824
 2499SOL    HW219131   0.720   4.592   3.200  1.2913  0.9497 -1.0598
 2500SOL     OW19132   2.773   3.964   8.321  0.3060 -0.2457 -0.4444
 2500SOL    HW119133   2.801   4.042   8.367 -1.6863  0.2860 -0.1409
 2500SOL    HW219134   2.682   3.960   8.351  0.0721 -1.5072 -1.3031
 2501SOL     OW19135   2.602   0.592   3.821  0.5011  0.1966 -0.0433
 2501SOL    HW119136   2.689   0.573   3.787 -0.2723 -0.2842 -1.8025
 2501SOL    HW219137   2.559   0.506   3.821 -0.2328  0.5523 -1.6003
 2502SOL     OW19138   2.825   4.482   8.534 -0.1914 -0.2090  0.3527
 2502SOL    HW119139   2.905   4.506   8.582  0.3652  2.9489 -2.1545
 2502SOL    HW219140   2.815   4.556   8.474 -0.4062  1.4569  2.4349
 2503SOL     OW19141   1.718   3.130   4.622  0.1930 -0.3554 -0.2413
 2503SOL    HW119142   1.732   3.222   4.645 -4.1705 -0.5851  3.4296
 2503SOL    HW219143   1.807   3.094   4.624 -0.3960 -1.6727  2.0546
 2504SOL     OW19144   0.528   1.492   9.000  0.4275  0.2013  0.0680
 2504SOL    HW119145   0.540   1.528   8.912  0.7180  0.0617  0.0508
 2504SOL    HW219146   0.607   1.522   9.044  0.4355  0.8135 -0.3728
 2505SOL     OW19147   2.367   1.251  17.705  0.8096 -0.0155 -0.0602
 2505SOL    HW119148   2.279   1.268  17.740  2.1425  1.3228  2.6679
 2505SOL    HW219149   2.411   1.261   0.036  1.1878  1.3711 -0.4115
 2506SOL     OW19150   3.169   3.680  14.729 -0.3066 -0.2148 -0.0007
 2506SOL    HW119151   3.153   3.612  14.795  3.0192 -0.3081  0.6731
 2506SOL    HW219152   3.081   3.682  14.691 -0.0572  1.6314 -0.4493
 2507SOL     OW19153   4.603   0.358   5.449 -0.0466 -0.3416 -0.0897
 2507SOL    HW119154   4.647   0.317   5.376 -0.1300  1.3587 -1.0945
 2507SOL    HW219155   4.631   0.449   5.436  0.8002 -0.6554 -0.4431
 2508SOL     OW19156   2.625   1.104   3.743 -0.1443  0.6606  0.0607
 2508SOL    HW119157   2.606   1.010   3.744  1.3209  0.3349 -1.1270
 2508SOL    HW219158   2.624   1.119   3.837 -0.4287 -2.8876  0.6343
 2509SOL     OW19159   0.995   3.685  15.941  0.1716 -0.2016 -0.4489
 2509SOL    HW119160   0.972   3.778  15.937  2.6414  0.3913 -0.7400
 2509SOL    HW219161   1.090   3.697  15.944  0.1597 -0.0720 -0.5602
 2510SOL     OW19162   0.705   1.242  11.644  0.1845 -0.2315  0.6721
 2510SOL    HW119163   0.645   1.175  11.612 -0.4464  1.3178 -1.3380
 2510SOL    HW219164   0.700   1.313  11.581  1.0034 -0.8690 -0.1054
 2511SOL     OW19165   0.560   2.865  11.625  0.1981 -0.1356 -0.2624
 2511SOL    HW119166   0.598   2.893  11.708  1.7514  0.2181 -1.0974
 2511SOL    HW219167   0.639   2.830  11.584  0.1222  0.6851 -1.1263
 2512SOL     OW19168   1.360   0.669   8.720  0.8501 -0.0477  0.2277
 2512SOL    HW119169   1.422   0.598   8.733 -0.8271 -1.6707 -0.6351
 2512SOL    HW219170   1.310   0.657   8.802  0.8232  0.2969  0.2620
 2513SOL     OW19171   2.284   0.094   2.469 -0.1138 -0.6065 -0.6002
 2513SOL    HW119172   2.273   0.114   2.561  2.5276 -1.1787 -0.1704
 2513SOL    HW219173   2.225   0.018   2.460  1.0397 -1.5016 -0.5258
 2514SOL     OW19174   3.802   4.228   9.637 -0.3511 -0.2371 -0.1358
 2514SOL    HW119175   3.707   4.220   9.630 -0.1927  0.3919 -2.8071
 2514SOL    HW219176   3.827   4.142   9.604  0.3487  0.7166 -2.0911
 2515SOL     OW19177   3.121   0.888   5.145 -0.3887  0.5885 -0.7296
 2515SOL    HW119178   3.190   0.950   5.121 -0.8689  1.7116  0.7591
 2515SOL    HW219179   3.081   0.943   5.213  0.1238 -0.0799  0.1155
 2516SOL     OW19180   3.176   3.282   3.803  0.2576 -0.1601  0.0167
 2516SOL    HW119181   3.254   3.257   3.754 -0.5027 -2.6894  0.1365
 2516SOL    HW219182   3.197   3.373   3.828  0.9736  0.1344 -1.6931
 2517SOL     OW19183   3.945   4.417   8.022 -0.0060 -0.0697  0.9669
 2517SOL    HW119184   3.970   4.509   8.014  1.5856 -0.5839  0.1967
 2517SOL    HW219185   4.001   4.376   7.957  1.0990  0.4474  1.6036
 2518SOL     OW19186   0.934   3.285  16.904 -0.1377 -0.0745  1.0021
 2518SOL    HW119187   0.886   3.202  16.902  1.3893 -0.9004 -2.4855
 2518SOL    HW219188   1.015   3.255  16.862 -0.9455 -0.9766  0.0787
 2519SOL     OW19189   1.539   1.638   8.730 -0.6019 -0.2375 -0.2105
 2519SOL    HW119190   1.562   1.692   8.806  1.3794 -0.7470 -0.4356
 2519SOL    HW219191   1.613   1.584   8.701  1.1164  0.8539  2.1668
 2520SOL     OW19192   0.357   0.274  13.541 -0.1458 -0.2869 -0.0482
 2520SOL    HW119193   0.446   0.298  13.565  0.8978 -0.8459 -3.4038
 2520SOL    HW219194   0.349   0.313  13.454 -0.9483 -1.1444 -0.3621
 2521SOL     OW19195   0.208   3.036   3.177 -0.1074 -0.0946 -0.1376
 2521SOL    HW119196   0.294   3.027   3.135  0.1989  0.9283  0.2677
 2521SOL    HW219197   0.189   2.945   3.200 -1.2427  0.0704 -0.4698
 2522SOL     OW19198   1.365   0.056   7.696 -0.3628 -0.0333  0.2578
 2522SOL    HW119199   1.391   0.025   7.783  1.9019  0.5094 -0.2139
 2522SOL    HW219200   1.389   4.723   7.636 -2.2648 -1.9846  1.8536
 2523SOL     OW19201   2.936   2.469   3.247 -0.1988 -0.0021  0.3684
 2523SOL    HW119202   2.897   2.534   3.305 -0.1373 -0.5812  1.0599
 2523SOL    HW219203   2.943   2.518   3.166  0.3175 -0.2306  0.2750
 2524SOL     OW19204   3.630   0.276   2.816  0.9191 -0.4953 -0.0272
 2524SOL    HW119205   3.646   0.369   2.800  0.7058 -0.6647 -1.1987
 2524SOL    HW219206   3.715   0.253   2.852  0.0935 -0.3944  1.9782
 2525SOL     OW19207   3.975   3.516   1.203 -0.4044  0.2507 -0.2124
 2525SOL    HW119208   3.890   3.500   1.245 -0.1136 -0.9003 -0.0442
 2525SOL    HW219209   4.001   3.427   1.178 -1.8607 -0.8291  2.0486
 2526SOL     OW19210   3.375   3.450   3.945  0.1378  0.1506 -0.0854
 2526SOL    HW119211   3.448   3.459   4.006  1.0647  1.3424 -1.3760
 2526SOL    HW219212   3.404   3.496   3.867 -1.9501  1.2686 -0.1998
 2527SOL     OW19213   0.490   1.375   7.951  0.3767  0.1367 -0.0127
 2527SOL    HW119214   0.512   1.399   7.861 -0.2929  2.2798  0.3952
 2527SOL    HW219215   0.405   1.418   7.946 -0.0429 -0.7463 -0.2948
 2528SOL     OW19216   1.788   2.507   4.542  0.2994 -0.5666 -0.7390
 2528SOL    HW119217   1.854   2.500   4.611 -0.6819 -2.0724  0.0390
 2528SOL    HW219218   1.839   2.469   4.469 -2.1633 -3.2487 -1.0385
 2529SOL     OW19219   3.897   3.086   1.909  0.0005 -0.5984  0.1777
 2529SOL    HW119220   3.814   3.090   1.862 -0.6662 -0.6056  1.3408
 2529SOL    HW219221   3.893   3.180   1.924 -1.2401 -0.3973 -1.4456
 2530SOL     OW19222   3.833   0.626   9.350  0.1102  0.5412 -0.7572
 2530SOL    HW119223   3.902   0.676   9.394  0.0370  0.2145 -0.2787
 2530SOL    HW219224   3.760   0.684   9.372 -0.3763  0.1618 -1.3563
 2531SOL     OW19225   0.954   1.086   3.188  0.1250 -0.0919 -0.0535
 2531SOL    HW119226   0.980   1.160   3.242 -1.7431 -1.0588  2.1779
 2531SOL    HW219227   1.005   1.096   3.107  4.6482 -2.4104  2.5066
 2532SOL     OW19228   1.832   3.707   0.501 -0.2351 -0.4962 -0.2883
 2532SOL    HW119229   1.791   3.636   0.451  1.0766 -1.5743  0.1417
 2532SOL    HW219230   1.883   3.663   0.569  0.0595  0.8500  0.3512
 2533SOL     OW19231   2.088   1.180   6.040  0.3897 -0.0718 -0.3018
 2533SOL    HW119232   2.124   1.121   6.107  0.7956  0.0467 -0.4212
 2533SOL    HW219233   2.169   1.190   5.992  1.3428 -1.3559  1.0173
 2534SOL     OW19234   0.873   2.383   2.615  0.2578  0.3300 -0.1179
 2534SOL    HW119235   0.944   2.326   2.643 -0.8080 -1.2669 -0.6460
 2534SOL    HW219236   0.912   2.470   2.604  0.2010  0.2810 -0.6868
 2535SOL     OW19237   0.618   0.335   0.554  0.2250  0.0082 -0.2835
 2535SOL    HW119238   0.640   0.324   0.461 -1.3771  0.3876 -0.7178
 2535SOL    HW219239   0.625   0.431   0.560  1.3460 -0.0061 -1.3096
 2536SOL     OW19240   3.158   3.858   3.738 -0.6254 -0.2089 -0.2148
 2536SOL    HW119241   3.107   3.890   3.812  2.0279  1.3209  0.9373
 2536SOL    HW219242   3.142   3.765   3.755  0.3244 -0.4887 -0.9000
 2537SOL     OW19243   0.926   4.068   0.174 -0.2312  0.4430 -0.0408
 2537SOL    HW119244   0.864   3.995   0.168 -0.7607  0.7846  1.1434
 2537SOL    HW219245   0.870   4.135   0.134 -0.4571  0.0910 -0.3096
 2538SOL     OW19246   4.701   3.131   5.658 -0.0530 -0.2151  0.3027
 2538SOL    HW119247   0.027   3.099   5.595  0.6003 -1.0659  1.4041
 2538SOL    HW219248   4.710   3.226   5.656  0.5388 -0.2606  0.8105
 2539SOL     OW19249   1.793   3.061   2.000 -0.3969 -0.1615 -0.3456
 2539SOL    HW119250   1.742   3.064   1.919 -0.6533  0.1057 -0.1777
 2539SOL    HW219251   1.876   3.095   1.969  0.0305 -1.5423 -0.7326
 2540SOL     OW19252   3.082   1.319  16.208 -0.4293 -0.6063  0.0822
 2540SOL    HW119253   3.130   1.273  16.277 -1.0776 -2.6646 -0.8410
 2540SOL    HW219254   3.096   1.265  16.131 -0.4892 -0.5042 -0.0009
 2541SOL     OW19255   0.068   1.839   5.485 -0.6372 -0.1027  0.1340
 2541SOL    HW119256   0.163   1.837   5.475 -0.9277 -0.1293 -2.7093
 2541SOL    HW219257   0.041   1.869   5.398  0.7826  1.0889  0.1139
 2542SOL     OW19258   1.221   3.353   5.911  0.0957  0.2772  0.1708
 2542SOL    HW119259   1.223   3.265   5.873 -0.1269  0.6692 -0.7364
 2542SOL    HW219260   1.138   3.353   5.960  1.8217 -1.5197  3.1101
 2543SOL     OW19261   0.406   1.427   8.239 -0.2795  0.2347  0.2462
 2543SOL    HW119262   0.407   1.508   8.188 -1.5224  0.6127  0.8314
 2543SOL    HW219263   0.434   1.362   8.175 -0.9502  0.9834 -0.8165
 2544SOL     OW19264   2.962   4.661   5.477  0.2658  0.0116 -0.3854
 2544SOL    HW119265   2.933   4.576   5.442  0.7989 -1.0344  1.6779
 2544SOL    HW219266   2.949   4.710   5.396  2.5871 -0.1689 -0.8686
 2545SOL     OW19267   2.383   1.326   3.905 -0.0252  0.2981  0.6062
 2545SOL    HW119268   2.460   1.379   3.887  0.0015 -0.0630 -0.3653
 2545SOL    HW219269   2.321   1.375   3.851 -0.2382 -0.6727 -0.0400
 2546SOL     OW19270   1.777   1.476   7.273 -0.6808  0.7744 -0.5059
 2546SOL    HW119271   1.696   1.493   7.225 -1.1157 -0.7528 -0.3311
 2546SOL    HW219272   1.841   1.542   7.247 -0.3862  0.9057  0.5690
 2547SOL     OW19273   1.945   1.557   3.706  0.6133 -0.0326  0.0393
 2547SOL    HW119274   1.910   1.541   3.794 -0.0478 -0.3471 -0.2824
 2547SOL    HW219275   1.974   1.647   3.719 -0.6353  0.4421 -0.4874
 2548SOL     OW19276   3.487   2.097   7.732 -0.5284  0.2641 -0.5955
 2548SOL    HW119277   3.575   2.069   7.707 -0.6669 -0.7568  0.0632
 2548SOL    HW219278   3.495   2.124   7.824  1.1596  1.3480 -1.0698
 2549SOL     OW19279   2.662   1.897  15.146 -0.3522  0.0231 -0.1770
 2549SOL    HW119280   2.719   1.974  15.156 -1.2503  0.7709 -0.8362
 2549SOL    HW219281   2.717   1.835  15.100  0.8976  0.7714  0.2933
 2550SOL     OW19282   3.641   3.997  10.257 -0.7095 -0.2031 -0.5785
 2550SOL    HW119283   3.580   4.009  10.184 -2.4131  0.7113  0.9858
 2550SOL    HW219284   3.678   3.909  10.243  0.5735  0.6425 -2.5293
 2551SOL     OW19285   4.301   2.602  11.000 -0.6061  0.0174  0.1594
 2551SOL    HW119286   4.209   2.578  11.006 -0.5367 -0.3780 -0.3161
 2551SOL    HW219287   4.293   2.681  10.947 -2.6775  1.3743  2.5131
 2552SOL     OW19288   3.252   2.738   4.905  0.0609  0.1412  0.3624
 2552SOL    HW119289   3.168   2.762   4.945  0.1470 -0.3282  0.8432
 2552SOL    HW219290   3.217   2.668   4.850 -0.2442  0.7359 -0.2010
 2553SOL     OW19291   3.130   3.915   7.342 -0.1742 -0.3193 -0.2894
 2553SOL    HW119292   3.130   3.961   7.259  1.5419 -0.9460 -0.6436
 2553SOL    HW219293   3.115   3.823   7.319  1.9716 -0.5734 -0.6702
 2554SOL     OW19294   4.700   2.340   2.513  0.2103  0.4026  0.2738
 2554SOL    HW119295   4.714   2.281   2.439  2.4206 -1.4768  2.1861
 2554SOL    HW219296   4.607   2.350   2.495  0.3568  1.6183  0.2075
 2555SOL     OW19297   2.369   3.253   8.425 -0.6774  0.1233 -0.0571
 2555SOL    HW119298   2.365   3.321   8.358 -0.2955 -1.0597 -1.2791
 2555SOL    HW219299   2.460   3.257   8.456 -1.1548 -1.3125  1.5305
 2556SOL     OW19300   1.619   0.554   9.655  0.1343  0.0239 -0.2266
 2556SOL    HW119301   1.568   0.631   9.679  0.4917  0.2683 -0.2565
 2556SOL    HW219302   1.545   0.502   9.621 -0.9050  0.5131  1.2989
 2557SOL     OW19303   2.571   0.831  13.451  0.4582 -0.2527 -0.0764
 2557SOL    HW119304   2.539   0.741  13.443  1.9529 -0.5276 -3.2202
 2557SOL    HW219305   2.530   0.851  13.535  2.0137 -1.4248  0.9522
 2558SOL     OW19306   1.611   2.286   6.501  0.7232  0.3752 -0.0082
 2558SOL    HW119307   1.557   2.269   6.425 -1.3961  0.3002  1.5138
 2558SOL    HW219308   1.659   2.204   6.515  1.5787  1.0821  1.2435
 2559SOL     OW19309   0.391   0.976  17.628 -0.3716  0.2333  0.3927
 2559SOL    HW119310   0.453   0.960  17.699 -1.0027  1.1415  1.1614
 2559SOL    HW219311   0.407   0.906  17.565  1.7877  0.6202  0.5316
 2560SOL     OW19312   2.655   2.011  11.685  0.4925  0.0962  0.2721
 2560SOL    HW119313   2.638   2.060  11.604 -1.2220 -1.5801 -0.3677
 2560SOL    HW219314   2.645   1.924  11.646  0.6217  0.0075  0.4334
 2561SOL     OW19315   2.202   2.107   4.442 -0.1434 -0.2808  0.3313
 2561SOL    HW119316   2.108   2.103   4.425  0.0850 -3.1087 -0.2504
 2561SOL    HW219317   2.225   2.018   4.468 -0.6543  0.1556  2.3113
 2562SOL     OW19318   2.981   2.377   5.641 -0.3928  0.0977 -0.1651
 2562SOL    HW119319   2.898   2.332   5.626  0.8386 -1.9409 -0.7903
 2562SOL    HW219320   2.978   2.458   5.590  1.4639 -0.6577 -1.4871
 2563SOL     OW19321   2.973   1.389   3.965 -0.1380  0.1210  0.9555
 2563SOL    HW119322   2.951   1.471   3.920  0.2068  0.1557  0.8506
 2563SOL    HW219323   3.056   1.417   4.005 -0.2452  1.2422  0.4012
 2564SOL     OW19324   3.283   1.183   8.027  0.3761 -0.1712 -0.9814
 2564SOL    HW119325   3.359   1.196   8.084 -0.2335  3.2067 -0.9578
 2564SOL    HW219326   3.309   1.237   7.952  3.2333 -0.2776 -0.1036
 2565SOL     OW19327   2.860   2.700  12.580 -0.0079 -0.0130  0.2574
 2565SOL    HW119328   2.847   2.642  12.656  5.4272 -1.4957  0.0307
 2565SOL    HW219329   2.888   2.784  12.615 -0.1751 -0.1484  0.7257
 2566SOL     OW19330   2.227   2.341   7.978 -0.5407  0.0712 -0.1190
 2566SOL    HW119331   2.249   2.289   7.901  1.5865  1.1490 -0.2156
 2566SOL    HW219332   2.313   2.377   7.998 -1.5631  2.7370 -0.5517
 2567SOL     OW19333   4.021   3.183   8.120 -0.5263 -0.1500 -0.2148
 2567SOL    HW119334   4.019   3.216   8.210  1.5903  0.5175 -0.4227
 2567SOL    HW219335   4.088   3.238   8.080 -2.4627  1.9108 -0.6343
 2568SOL     OW19336   0.535   0.005   4.205  0.3351 -0.0462  0.1516
 2568SOL    HW119337   0.487   0.087   4.218 -0.6071 -0.3251 -1.6673
 2568SOL    HW219338   0.468   4.686   4.168 -0.9945  1.2669  0.5039
 2569SOL     OW19339   0.017   0.429  14.382 -0.2286 -0.3573 -0.2932
 2569SOL    HW119340   4.737   0.491  14.452 -1.3636 -2.1413  1.0036
 2569SOL    HW219341   4.722   0.482  14.311 -1.0609  0.3189  0.6001
 2570SOL     OW19342   3.164   1.497   3.570  0.1537 -0.2366  0.0956
 2570SOL    HW119343   3.197   1.482   3.482  1.1990  4.4654 -0.3449
 2570SOL    HW219344   3.244   1.475   3.616  0.7498 -0.4517 -1.0510
 2571SOL     OW19345   0.505   2.735   5.720  0.2360  0.0394  0.1240
 2571SOL    HW119346   0.552   2.693   5.791  1.7243 -0.7253 -1.3138
 2571SOL    HW219347   0.423   2.686   5.715  1.1457 -1.4197 -0.6925
 2572SOL     OW19348   3.323   1.663   4.630 -0.7642 -0.2024 -0.0357
 2572SOL    HW119349   3.394   1.652   4.693 -0.3211 -0.5696 -0.5992
 2572SOL    HW219350   3.375   1.699   4.559  0.5768 -2.9748 -0.4798
 2573SOL     OW19351   1.026   1.477   3.421  0.2630 -0.2690  0.0418
 2573SOL    HW119352   0.964   1.472   3.348  1.1081 -1.0257 -0.6300
 2573SOL    HW219353   1.080   1.399   3.404  1.4440  0.4466  0.5448
 2574SOL     OW19354   0.829   1.789   0.069 -0.2994  0.7265 -0.0733
 2574SOL    HW119355   0.871   1.863   0.114 -0.8637  0.9951  0.0174
 2574SOL    HW219356   0.889   1.766  17.753  2.2383 -2.1356  3.0852
 2575SOL     OW19357   0.291   0.979   5.882  0.0092  0.2737 -0.0231
 2575SOL    HW119358   0.254   1.056   5.927 -1.8267 -1.0789  0.8090
 2575SOL    HW219359   0.322   1.026   5.806  1.1207 -2.9043 -1.5160
 2576SOL     OW19360   3.714   1.243   4.940 -0.1526  0.1611  0.0143
 2576SOL    HW119361   3.744   1.252   5.030  0.5301 -0.6188 -0.1318
 2576SOL    HW219362   3.719   1.147   4.941  0.1999  0.1729 -0.3705
 2577SOL     OW19363   4.146   0.128  12.776  0.0644  0.5810  0.3738
 2577SOL    HW119364   4.084   0.184  12.729 -2.2102 -0.4370  2.1820
 2577SOL    HW219365   4.231   0.156  12.741  0.6523 -0.9302  0.6073
 2578SOL     OW19366   0.154   1.095  15.826 -0.3332  0.2156  0.0892
 2578SOL    HW119367   0.148   1.146  15.745 -1.4365  1.4838  0.9598
 2578SOL    HW219368   0.164   1.169  15.886 -1.6472 -0.7083  1.4448
 2579SOL     OW19369   1.363   4.335  16.453 -0.0025 -0.0297  0.3208
 2579SOL    HW119370   1.412   4.281  16.515 -0.3561  1.2687  1.7360
 2579SOL    HW219371   1.294   4.374  16.507  0.0803  1.7781 -0.8680
 2580SOL     OW19372   3.279   2.543   3.218 -0.3693  0.6386  0.4034
 2580SOL    HW119373   3.251   2.578   3.133 -0.8982  0.2350  0.4106
 2580SOL    HW219374   3.365   2.584   3.229 -0.1241 -0.0494  1.0358
 2581SOL     OW19375   1.213   1.992   3.916 -0.0078  0.2948 -0.1724
 2581SOL    HW119376   1.200   2.038   3.999 -0.3254 -0.0078 -0.0538
 2581SOL    HW219377   1.118   1.989   3.904  0.0511  1.5302 -0.9396
 2582SOL     OW19378   3.937   2.283   8.345 -0.2893 -0.1468  0.2354
 2582SOL    HW119379   3.937   2.194   8.311  1.5685  0.0794 -0.3597
 2582SOL    HW219380   4.022   2.318   8.318  0.3233 -0.3087  1.9233
 2583SOL     OW19381   0.748   3.574   0.956  0.1220 -0.2672  0.3101
 2583SOL    HW119382   0.711   3.523   1.028 -0.4195 -0.7285 -0.2882
 2583SOL    HW219383   0.703   3.532   0.883  1.6146  0.4876 -1.0366
 2584SOL     OW19384   3.741   2.742   7.971 -0.0767 -0.3231 -0.1694
 2584SOL    HW119385   3.723   2.674   8.036  2.4351  1.2608  2.1624
 2584SOL    HW219386   3.747   2.682   7.896 -0.6287 -0.9885  0.3157
 2585SOL     OW19387   0.517   4.601  12.725  0.3120  0.1640  0.8549
 2585SOL    HW119388   0.571   4.625  12.800 -0.0522 -2.1689  1.8773
 2585SOL    HW219389   0.577   4.622  12.653  2.2056 -1.0109  2.0904
 2586SOL     OW19390   2.992   1.189   2.276  0.0529  0.3035 -0.1112
 2586SOL    HW119391   2.980   1.205   2.182  2.6541 -0.5649 -0.5880
 2586SOL    HW219392   2.938   1.110   2.288  1.6913 -0.9151 -0.7507
 2587SOL     OW19393   3.696   3.396   2.771  0.1729 -0.2274  0.5243
 2587SOL    HW119394   3.720   3.344   2.694  0.2652  1.6225 -0.6836
 2587SOL    HW219395   3.686   3.334   2.843 -2.2267  0.6177  0.9337
 2588SOL     OW19396   0.220   0.283   3.616  0.1103  0.0363  0.0100
 2588SOL    HW119397   0.276   0.358   3.594  0.7622 -0.7442 -1.0605
 2588SOL    HW219398   0.174   0.315   3.693  0.6634 -1.0094  0.7807
 2589SOL     OW19399   3.211   4.530   6.451 -0.3527  0.5352  0.2045
 2589SOL    HW119400   3.186   4.611   6.406  0.1969  0.2337 -0.6430
 2589SOL    HW219401   3.303   4.524   6.424 -0.3796  0.4597  0.1324
 2590SOL     OW19402   1.472   2.190   0.031 -0.4248  0.7461  0.1289
 2590SOL    HW119403   1.426   2.269  17.753 -0.1271  1.2180  0.8819
 2590SOL    HW219404   1.530   2.179  17.709 -1.1993  2.4965 -0.7385
 2591SOL     OW19405   4.698   3.703   6.487 -0.1537 -0.0451 -0.4271
 2591SOL    HW119406   4.683   3.633   6.551  1.6234 -0.1372 -0.1172
 2591SOL    HW219407   4.713   3.647   6.411  3.7581 -0.2259  0.4656
 2592SOL     OW19408   4.137   2.904   3.028 -0.0730 -0.3574  0.1927
 2592SOL    HW119409   4.155   2.969   3.095  0.2128 -1.7126  1.4399
 2592SOL    HW219410   4.198   2.838   3.059  1.9033  1.7815  0.8098
 2593SOL     OW19411   1.034   0.257  12.094  0.1442 -0.1483 -0.2991
 2593SOL    HW119412   1.060   0.165  12.096 -0.9005 -0.4663 -1.8626
 2593SOL    HW219413   1.099   0.296  12.153  0.9450 -0.6076 -0.8660
 2594SOL     OW19414   2.274   0.570  10.618 -0.2574  0.3035  0.1329
 2594SOL    HW119415   2.332   0.495  10.603  0.7481  1.2135 -0.5978
 2594SOL    HW219416   2.282   0.588  10.711  2.1175  0.9934 -0.2055
 2595SOL     OW19417   2.758   0.311   7.730 -0.0254  0.4637  0.2377
 2595SOL    HW119418   2.837   0.266   7.760 -0.1314 -0.5665 -1.0232
 2595SOL    HW219419   2.745   0.260   7.650  0.0334 -1.1995  1.2966
 2596SOL     OW19420   2.141   2.226   8.568 -0.2515 -0.2924  0.0404
 2596SOL    HW119421   2.055   2.229   8.525  0.4635 -0.0385 -1.3684
 2596SOL    HW219422   2.118   2.184   8.651 -2.3953  0.0140 -0.4002
 2597SOL     OW19423   1.598   0.033  14.439 -0.0420 -0.1537  0.1129
 2597SOL    HW119424   1.649   0.096  14.389  1.0271 -1.7032 -0.7587
 2597SOL    HW219425   1.535   0.005  14.372 -0.7847 -0.2827  0.8576
 2598SOL     OW19426   3.628   1.935   7.354 -0.1407  0.2916  0.0520
 2598SOL    HW119427   3.708   1.978   7.382  0.2838  0.5595 -1.5711
 2598SOL    HW219428   3.567   2.003   7.385 -0.9943 -0.4724  0.0744
 2599SOL     OW19429   0.523   1.943   8.067 -0.0734 -0.1412  0.4687
 2599SOL    HW119430   0.459   1.875   8.086 -0.6714  0.3698  0.2786
 2599SOL    HW219431   0.529   1.999   8.145  0.8902 -0.8319  0.8964
 2600SOL     OW19432   0.083   0.902  16.064  0.7187  0.7606 -0.0468
 2600SOL    HW119433   0.018   0.878  15.997 -0.8351  0.4473  1.5872
 2600SOL    HW219434   0.159   0.875  16.013  1.5935  1.8371  0.6887
 2601SOL     OW19435   2.583   3.986  12.122 -0.5490 -0.2012 -0.6131
 2601SOL    HW119436   2.669   3.947  12.106 -0.9300 -0.7444 -1.2953
 2601SOL    HW219437   2.546   3.924  12.185 -0.2114  0.1781 -0.0352
 2602SOL     OW19438   0.082   1.519   6.859 -0.4706 -0.0680  0.5117
 2602SOL    HW119439   0.011   1.523   6.796 -0.4867  0.9021  0.5887
 2602SOL    HW219440   0.156   1.560   6.814 -1.3357  1.3014  0.3304
 2603SOL     OW19441   0.930   1.908  17.310  0.0484  0.4461 -0.5208
 2603SOL    HW119442   0.843   1.900  17.271 -0.0733 -0.5941 -0.0243
 2603SOL    HW219443   0.975   1.887  17.228  0.0232 -0.7371 -0.2285
 2604SOL     OW19444   2.530   2.836   7.299  0.8450 -0.0808  0.3085
 2604SOL    HW119445   2.617   2.800   7.315  0.2321 -2.3753 -1.4214
 2604SOL    HW219446   2.468   2.772   7.334  0.2291  0.5493  0.3610
 2605SOL     OW19447   3.952   4.414   5.602  0.0036 -0.2702  0.5460
 2605SOL    HW119448   3.930   4.431   5.511  0.8113  0.8085  0.5498
 2605SOL    HW219449   3.960   4.506   5.628 -0.0962 -0.4861  1.3550
 2606SOL     OW19450   4.382   4.054  13.968 -0.1724 -0.0045 -0.1048
 2606SOL    HW119451   4.448   4.118  13.940 -1.5801  1.6529  0.3544
 2606SOL    HW219452   4.416   3.973  13.930 -2.1781 -0.0636 -1.7618
 2607SOL     OW19453   4.678   2.112  13.813 -0.3160  0.0239  0.6483
 2607SOL    HW119454   4.583   2.113  13.801 -0.0076  1.9156 -1.5422
 2607SOL    HW219455   4.692   2.195  13.768 -1.9499 -0.5719 -0.9313
 2608SOL     OW19456   0.431   3.914  17.558 -0.5144 -0.0897 -0.2137
 2608SOL    HW119457   0.417   3.852  17.630 -0.7027  0.1612 -0.0348
 2608SOL    HW219458   0.357   3.974  17.554 -1.6207 -1.5082 -0.8839
 2609SOL     OW19459   2.797   3.686   5.413  0.1767  0.2527  0.0241
 2609SOL    HW119460   2.786   3.628   5.337 -2.4696 -0.3391  0.8199
 2609SOL    HW219461   2.830   3.765   5.372 -0.1393  0.9507  1.1163
 2610SOL     OW19462   2.576   1.218   7.636 -0.2170  0.4554  0.3066
 2610SOL    HW119463   2.660   1.228   7.593  0.9566  1.3932  2.7713
 2610SOL    HW219464   2.611   1.140   7.680 -1.7724 -0.7541 -0.5963
 2611SOL     OW19465   1.209   3.966   3.725  0.6009  0.4290  0.3394
 2611SOL    HW119466   1.274   4.008   3.781  0.4270  1.1910 -0.0194
 2611SOL    HW219467   1.267   3.957   3.650 -0.1069 -1.7645  0.0734
 2612SOL     OW19468   1.781   0.047  17.041 -0.1962  0.1138  0.0619
 2612SOL    HW119469   1.704   0.079  17.088 -1.1552 -0.1696 -1.3329
 2612SOL    HW219470   1.846   0.088  17.098  0.1399 -2.2142  1.3635
 2613SOL     OW19471   0.463   2.921  12.626 -0.4170  0.7177 -0.7660
 2613SOL    HW119472   0.398   2.858  12.658  0.2951 -0.0142 -0.7499
 2613SOL    HW219473   0.540   2.864  12.618 -0.7658  0.0189  0.9176
 2614SOL     OW19474   1.675   0.502   6.369  1.0098 -0.9611  0.0986
 2614SOL    HW119475   1.637   0.430   6.317 -0.8864 -1.3600  2.0408
 2614SOL    HW219476   1.605   0.513   6.433  2.1958 -0.5181  1.3297
 2615SOL     OW19477   0.628   0.802   3.295 -0.0073  0.0308 -0.3500
 2615SOL    HW119478   0.600   0.720   3.255  0.1860 -0.9628  1.5853
 2615SOL    HW219479   0.620   0.781   3.388 -0.5714  1.1267 -0.1490
 2616SOL     OW19480   3.807   1.862   6.927  0.4635  0.2820 -0.5805
 2616SOL    HW119481   3.772   1.868   7.016  1.7150 -0.4155 -0.0375
 2616SOL    HW219482   3.891   1.904   6.945  0.0757  0.7303  0.2082
 2617SOL     OW19483   2.150   4.472   7.730 -0.4546 -0.0604  0.2982
 2617SOL    HW119484   2.094   4.446   7.657 -0.0301 -0.6672  0.1883
 2617SOL    HW219485   2.110   4.556   7.752  2.4300  1.0557  1.3175
 2618SOL     OW19486   3.828   0.857   2.095  0.3130  0.2798 -0.0626
 2618SOL    HW119487   3.813   0.922   2.164 -2.4438  0.0897 -0.4815
 2618SOL    HW219488   3.812   0.900   2.010  1.0661 -1.7460 -1.2298
 2619SOL     OW19489   1.723   2.255   3.763 -0.1920  0.6368 -0.8278
 2619SOL    HW119490   1.689   2.292   3.844  1.4323  1.8446 -0.7126
 2619SOL    HW219491   1.656   2.286   3.702  0.4433  1.8506 -0.9001
 2620SOL     OW19492   0.066   4.066   6.763 -0.2018  0.3887 -0.2422
 2620SOL    HW119493   4.713   4.037   6.763  0.1526 -0.7503 -0.8995
 2620SOL    HW219494   0.063   4.124   6.839  1.4470  0.1830 -0.0181
 2621SOL     OW19495   2.339   1.076   4.952  0.1169 -0.3529  0.9345
 2621SOL    HW119496   2.333   0.981   4.961  2.5490 -0.7833 -2.0331
 2621SOL    HW219497   2.295   1.094   4.869 -1.3435  0.7372  1.9477
 2622SOL     OW19498   2.374   0.599   6.686  0.1366  1.0933 -0.0126
 2622SOL    HW119499   2.389   0.681   6.640 -0.2815  0.2685 -1.6025
 2622SOL    HW219500   2.305   0.559   6.633 -1.0794  2.3657  0.6381
 2623SOL     OW19501   3.119   1.817   5.647 -0.6609  0.1583 -0.0745
 2623SOL    HW119502   3.212   1.833   5.661 -0.3284 -1.5644 -0.3088
 2623SOL    HW219503   3.086   1.857   5.727 -1.2741 -0.5424  0.0290
 2624SOL     OW19504   1.256   3.117   5.787  0.4486  0.2088 -0.3053
 2624SOL    HW119505   1.242   3.096   5.695  0.3323 -0.4943 -0.1287
 2624SOL    HW219506   1.347   3.147   5.779  0.0038  1.7078  0.3474
 2625SOL     OW19507   2.700   1.535   7.261  0.2017  0.2376 -0.3215
 2625SOL    HW119508   2.730   1.532   7.352  2.3614 -1.7997 -1.1071
 2625SOL    HW219509   2.636   1.464   7.263 -0.8488  1.2636  2.1781
 2626SOL     OW19510   3.660   0.202   6.629  0.0793  0.2214 -0.0903
 2626SOL    HW119511   3.726   0.189   6.561  0.2610  3.3901 -0.5324
 2626SOL    HW219512   3.669   0.297   6.625 -0.5329  0.3419  1.3940
 2627SOL     OW19513   0.955   0.432   2.539 -0.2443  0.1768  0.3234
 2627SOL    HW119514   0.956   0.489   2.616 -1.1358  1.1039 -0.3703
 2627SOL    HW219515   0.866   0.431   2.505 -0.3941  2.9912  0.6799
 2628SOL     OW19516   2.073   2.091   2.710 -0.5402  0.1105  0.4081
 2628SOL    HW119517   2.142   2.075   2.647  0.9225  0.9559  1.7814
 2628SOL    HW219518   2.035   2.004   2.716 -1.6393  0.5205 -0.5025
 2629SOL     OW19519   1.542   4.145   4.819 -0.5634 -0.4616  0.0658
 2629SOL    HW119520   1.628   4.186   4.833 -0.3220 -0.6795 -0.7856
 2629SOL    HW219521   1.564   4.052   4.815  0.8892 -0.1786  1.3049
 2630SOL     OW19522   0.579   1.989   4.334  0.0777  0.3006 -0.1826
 2630SOL    HW119523   0.546   2.025   4.252  3.4957 -0.2245 -1.7791
 2630SOL    HW219524   0.495   1.946   4.353 -0.6617  1.0682 -1.7191
 2631SOL     OW19525   3.784   0.014   5.835 -0.0437  0.0718  0.3864
 2631SOL    HW119526   3.810   0.037   5.924 -1.8939  3.3075  0.0842
 2631SOL    HW219527   3.705   4.705   5.859 -1.3653  2.1562  0.1743
 2632SOL     OW19528   0.810   3.967   4.901 -0.0971 -0.1270  0.1375
 2632SOL    HW119529   0.879   3.914   4.942  1.6183  1.6803 -0.4132
 2632SOL    HW219530   0.871   4.035   4.871  0.6850 -1.4161 -1.1765
 2633SOL     OW19531   0.956   0.734  16.873 -0.1204  0.2643  0.8349
 2633SOL    HW119532   0.901   0.677  16.819  0.3130  1.6725 -1.0652
 2633SOL    HW219533   0.932   0.681  16.950 -0.2627  1.0047  1.3022
 2634SOL     OW19534   2.348   4.337   0.818  0.2919 -0.2423  0.2917
 2634SOL    HW119535   2.361   4.254   0.771 -0.7140 -0.7381  0.9063
 2634SOL    HW219536   2.372   4.311   0.907 -1.1262 -1.1391  0.4120
 2635SOL     OW19537   1.537   0.127   2.907 -0.2720  0.2631  0.1933
 2635SOL    HW119538   1.481   0.050   2.901 -1.5881  1.3259 -1.0288
 2635SOL    HW219539   1.580   0.120   2.992 -1.9582  2.3924  1.2245
 2636SOL     OW19540   3.970   1.834   4.046  0.3317  0.6421 -0.1244
 2636SOL    HW119541   4.032   1.791   4.104  0.3840 -0.8250 -1.2569
 2636SOL    HW219542   4.015   1.819   3.963  1.1058  1.6967  0.1128
 2637SOL     OW19543   1.368   3.745   8.637  0.8672 -0.1585  0.1449
 2637SOL    HW119544   1.447   3.758   8.585  1.7130 -0.3302  1.4083
 2637SOL    HW219545   1.364   3.839   8.652  1.1724 -0.0375 -0.5307
 2638SOL     OW19546   0.676   2.698   7.561  0.1749 -0.3551  0.3283
 2638SOL    HW119547   0.628   2.617   7.545 -0.1423 -0.4869  1.8927
 2638SOL    HW219548   0.674   2.704   7.657  0.9866 -0.8224  0.3753
 2639SOL     OW19549   4.322   3.845   8.281  0.1228 -0.0906  0.6897
 2639SOL    HW119550   4.364   3.899   8.214  0.2133  0.3960  1.1393
 2639SOL    HW219551   4.373   3.764   8.283 -1.2745 -0.9992 -0.4896
 2640SOL     OW19552   4.642   2.117  10.787 -0.6277  0.3334 -0.3244
 2640SOL    HW119553   4.645   2.168  10.868 -0.2048 -0.4591  0.1662
 2640SOL    HW219554   4.632   2.030  10.825 -0.3990  1.2592  1.8505
 2641SOL     OW19555   0.146   1.942   6.519  0.2791  0.2112  0.1296
 2641SOL    HW119556   0.161   1.927   6.613 -0.7365 -0.6441  0.1476
 2641SOL    HW219557   0.076   2.005   6.505  0.0169 -1.0101 -3.8791
 2642SOL     OW19558   0.827   3.830  12.663 -0.3314 -0.0086  0.7808
 2642SOL    HW119559   0.843   3.914  12.620 -0.1461  0.2342  1.3150
 2642SOL    HW219560   0.910   3.787  12.640 -0.1403 -0.4727  2.3055
 2643SOL     OW19561   1.468   3.778  17.117 -0.1558  0.1133 -0.2190
 2643SOL    HW119562   1.391   3.744  17.072  1.5760 -2.3329 -1.3568
 2643SOL    HW219563   1.513   3.693  17.117 -0.7780 -0.2170 -0.4167
 2644SOL     OW19564   0.005   2.377   6.721  1.0403 -0.7596  0.1284
 2644SOL    HW119565   4.716   2.339   6.638  0.3987 -1.0137  0.4655
 2644SOL    HW219566   0.018   2.296   6.771  1.5590 -0.5319  0.3617
 2645SOL     OW19567   0.010   0.907   1.201 -0.2429  0.2639  0.6527
 2645SOL    HW119568   4.672   0.883   1.253 -1.4544  0.7192 -0.9249
 2645SOL    HW219569   0.056   0.968   1.258  0.5439  0.0115  0.2920
 2646SOL     OW19570   1.838   3.807  15.712 -0.3511  0.0936  0.4641
 2646SOL    HW119571   1.857   3.899  15.698  1.9441 -0.7091 -1.6931
 2646SOL    HW219572   1.845   3.787  15.805  3.6131 -2.1891 -0.3022
 2647SOL     OW19573   1.429   2.670  17.436  0.2338  0.7133 -0.5567
 2647SOL    HW119574   1.494   2.734  17.411  1.6648 -0.8160 -0.7438
 2647SOL    HW219575   1.480   2.594  17.466 -0.7767  0.3513  0.2586
 2648SOL     OW19576   3.577   3.467   5.621  0.1826  0.0844  0.0882
 2648SOL    HW119577   3.609   3.544   5.574  2.2499 -0.9365 -0.1685
 2648SOL    HW219578   3.624   3.480   5.704  1.6373 -1.7907 -0.4274
 2649SOL     OW19579   1.682   0.054  15.701  0.1874 -0.1707 -0.0629
 2649SOL    HW119580   1.702   4.733  15.630  0.6176 -0.8396  0.6161
 2649SOL    HW219581   1.613   0.107  15.660  1.0742  0.4121 -0.7913
 2650SOL     OW19582   4.645   2.601   8.617 -0.5556  0.4120  0.3055
 2650SOL    HW119583   4.726   2.566   8.655  0.5128  3.1656  0.5924
 2650SOL    HW219584   4.658   2.613   8.523  2.2573 -2.5281  0.3213
 2651SOL     OW19585   1.609   3.975   5.726  0.1340  0.6771  0.0223
 2651SOL    HW119586   1.681   3.983   5.789  0.6380 -1.5508 -0.2675
 2651SOL    HW219587   1.573   3.892   5.755 -1.7070  1.6562  0.5696
 2652SOL     OW19588   1.337   2.361   1.549  0.5420 -0.6124 -0.3620
 2652SOL    HW119589   1.337   2.365   1.645  2.8930 -0.5123 -0.3783
 2652SOL    HW219590   1.269   2.295   1.534 -0.8850  0.1329  2.8278
 2653SOL     OW19591   0.433   4.189   9.969  0.2607  0.6801 -0.3075
 2653SOL    HW119592   0.395   4.130   9.904 -0.3761  0.4895  0.2366
 2653SOL    HW219593   0.365   4.256   9.976  2.1870  2.7910 -1.6911
 2654SOL     OW19594   2.713   0.854   4.589 -0.4703  0.3742 -0.5135
 2654SOL    HW119595   2.649   0.910   4.545 -2.1777 -1.2098 -0.0230
 2654SOL    HW219596   2.663   0.776   4.612  1.1288 -0.5467 -0.1296
 2655SOL     OW19597   3.758   2.107   3.313  0.0493 -0.0774  0.0230
 2655SOL    HW119598   3.766   2.201   3.296 -1.3446  0.3982  2.0879
 2655SOL    HW219599   3.710   2.078   3.235 -1.4828  0.9617  0.6003
 2656SOL     OW19600   0.666   2.694   5.947 -0.1198  0.0656  0.3889
 2656SOL    HW119601   0.633   2.646   6.023  2.1576 -0.4004  1.1051
 2656SOL    HW219602   0.745   2.724   5.994  1.4368 -1.8313 -1.0426
 2657SOL     OW19603   1.100   1.756  11.749  0.3742 -0.6635 -0.3818
 2657SOL    HW119604   1.165   1.773  11.817 -1.3665 -1.3924  1.4377
 2657SOL    HW219605   1.053   1.840  11.747 -2.0854 -2.0130  1.5910
 2658SOL     OW19606   2.943   3.302   6.044  0.7739  0.0317 -0.2713
 2658SOL    HW119607   2.850   3.305   6.066  0.9265 -1.6077  0.5768
 2658SOL    HW219608   2.979   3.260   6.122 -2.1900 -3.2596 -0.6778
 2659SOL     OW19609   2.537   2.246  13.467 -0.0502  0.6957 -0.5299
 2659SOL    HW119610   2.570   2.260  13.379  0.4691  1.8141 -0.1626
 2659SOL    HW219611   2.586   2.170  13.499 -1.2208 -0.2239 -0.9380
 2660SOL     OW19612   4.475   3.529   2.738  0.3068  0.2264  0.4054
 2660SOL    HW119613   4.470   3.575   2.654 -0.3626  1.2676  1.0105
 2660SOL    HW219614   4.474   3.605   2.797 -0.8056  0.9110 -0.4851
 2661SOL     OW19615   1.535   0.737   3.187 -0.0631 -0.1475  0.1982
 2661SOL    HW119616   1.469   0.678   3.152  0.2790  0.5612 -1.6602
 2661SOL    HW219617   1.566   0.675   3.253  1.1081 -0.3073 -0.4956
 2662SOL     OW19618   3.595   2.761  17.254 -0.5022 -0.5444  0.2846
 2662SOL    HW119619   3.614   2.712  17.174 -0.8540 -2.3877  1.3469
 2662SOL    HW219620   3.512   2.804  17.230  0.1425  1.2016  1.2199
 2663SOL     OW19621   0.284   2.219   0.391 -0.0153 -0.3875 -0.0142
 2663SOL    HW119622   0.247   2.236   0.304 -0.1156 -0.2776  0.0507
 2663SOL    HW219623   0.299   2.124   0.391  4.2685  0.3301  1.9546
 2664SOL     OW19624   4.640   0.376   4.001 -0.4146 -0.3004  0.4089
 2664SOL    HW119625   4.644   0.454   3.946 -0.8406 -1.8448 -1.8072
 2664SOL    HW219626   4.575   0.330   3.948 -0.3587  1.9106 -1.5465
 2665SOL     OW19627   3.628   3.295   1.574  0.2846 -0.1458  0.2525
 2665SOL    HW119628   3.637   3.309   1.668 -1.5312 -0.4535  0.4822
 2665SOL    HW219629   3.626   3.388   1.549  0.5123  0.0621  1.0050
 2666SOL     OW19630   2.137   4.693   3.840 -1.1358 -0.2619  0.6560
 2666SOL    HW119631   2.057   4.653   3.807 -1.0362 -2.1401  2.6680
 2666SOL    HW219632   2.168   4.730   3.757  0.7590  1.1545  1.9879
 2667SOL     OW19633   3.418   2.842   8.509  0.2624 -0.5890 -0.0524
 2667SOL    HW119634   3.426   2.858   8.603 -0.5648  2.5304 -0.5000
 2667SOL    HW219635   3.354   2.906   8.476 -1.6161 -2.6450 -0.4073
 2668SOL     OW19636   2.377   2.225   8.426 -0.2203  0.0139 -0.5712
 2668SOL    HW119637   2.313   2.227   8.497  0.2029  1.2672 -0.2368
 2668SOL    HW219638   2.386   2.130   8.432 -0.7790  0.0817  1.2125
 2669SOL     OW19639   3.263   0.725   5.493 -0.0109 -0.5850 -0.1169
 2669SOL    HW119640   3.230   0.741   5.405  0.1112  0.9636  0.1298
 2669SOL    HW219641   3.236   0.633   5.502 -0.5697 -0.3744  0.3830
 2670SOL     OW19642   3.991   3.580   0.184 -0.0250 -0.0841  0.7433
 2670SOL    HW119643   4.025   3.660   0.146  2.1179 -1.9179 -1.2161
 2670SOL    HW219644   3.895   3.585   0.191  0.0124 -1.1523  2.1579
 2671SOL     OW19645   1.060   3.616   6.196  0.0695  0.0436 -0.4586
 2671SOL    HW119646   1.119   3.687   6.217 -0.0527 -0.0897  0.3432
 2671SOL    HW219647   1.006   3.647   6.124 -1.4823 -1.0852  0.2005
 2672SOL     OW19648   4.557   0.643   1.839 -0.2797 -0.0039  0.3057
 2672SOL    HW119649   4.565   0.610   1.928 -1.3575 -1.1168 -0.0010
 2672SOL    HW219650   4.639   0.614   1.799  0.8089  2.0188  1.0735
 2673SOL     OW19651   4.737   4.346  16.024 -0.2232  0.0140  0.0629
 2673SOL    HW119652   0.054   4.357  15.947 -1.1497  0.1238 -0.5994
 2673SOL    HW219653   4.727   4.438  16.052  1.2688  0.0373  0.5235
 2674SOL     OW19654   0.860   4.535   7.862 -0.1107  0.4734  0.6159
 2674SOL    HW119655   0.932   4.473   7.873  0.4189  0.8327 -0.8518
 2674SOL    HW219656   0.856   4.543   7.767  0.5216  2.9947  0.7986
 2675SOL     OW19657   1.645   2.922   4.422  0.3606 -0.2170  0.1757
 2675SOL    HW119658   1.672   2.960   4.506 -0.8980  2.3009 -0.5430
 2675SOL    HW219659   1.583   2.853   4.446 -1.3012  1.7722  1.6533
 2676SOL     OW19660   3.879   0.377   5.518  0.4426  0.2702 -0.4591
 2676SOL    HW119661   3.872   0.347   5.428  0.5301  1.7780 -0.9635
 2676SOL    HW219662   3.970   0.357   5.537  1.1746  2.4904 -1.7125
 2677SOL     OW19663   4.583   3.307   1.520  0.2703  0.0040 -0.4314
 2677SOL    HW119664   4.491   3.299   1.545  0.2428  0.4164 -0.4017
 2677SOL    HW219665   4.603   3.396   1.551 -1.3790  0.2357 -0.0176
 2678SOL     OW19666   2.625   2.812   7.764 -0.3149 -0.2849  0.5987
 2678SOL    HW119667   2.610   2.737   7.821  0.4676 -0.3576  0.7004
 2678SOL    HW219668   2.557   2.806   7.697  0.0895  2.0605 -0.0289
 2679SOL     OW19669   1.340   4.055   6.762  0.0465  0.1593 -0.1618
 2679SOL    HW119670   1.277   4.107   6.712 -0.9227  0.2572  1.1584
 2679SOL    HW219671   1.343   4.113   6.838 -0.6661 -0.1696  0.1196
 2680SOL     OW19672   0.481   0.344   6.489 -0.0034  0.3580 -0.3361
 2680SOL    HW119673   0.422   0.270   6.501  0.4276  0.1801  0.7071
 2680SOL    HW219674   0.481   0.370   6.397 -1.5954 -0.0637 -0.4477
 2681SOL     OW19675   3.577   2.129   9.206  0.0811  0.1192 -0.0386
 2681SOL    HW119676   3.646   2.068   9.181  0.7502  1.1852 -0.8130
 2681SOL    HW219677   3.497   2.093   9.166 -0.4880 -0.7877  1.9187
 2682SOL     OW19678   3.457   1.829   7.685 -0.3356 -0.1053  0.1660
 2682SOL    HW119679   3.429   1.919   7.700 -0.8146 -0.0792 -0.8817
 2682SOL    HW219680   3.367   1.796   7.693  0.4471 -2.5153 -0.9263
 2683SOL     OW19681   1.632   1.573  16.252 -0.1343  0.3192 -0.2538
 2683SOL    HW119682   1.674   1.493  16.283 -1.9567 -0.6940 -0.3870
 2683SOL    HW219683   1.706   1.610  16.204  0.8011  0.3619  1.2376
 2684SOL     OW19684   1.082   3.107   9.001  0.6678  0.1662 -0.0525
 2684SOL    HW119685   1.030   3.187   8.998  3.0564  1.7190 -0.3304
 2684SOL    HW219686   1.138   3.113   8.924  1.2095 -0.9443  0.2512
 2685SOL     OW19687   2.662   0.748   6.836 -0.4924  0.2924  0.4858
 2685SOL    HW119688   2.713   0.827   6.818  1.2134 -0.5162  1.6790
 2685SOL    HW219689   2.572   0.778   6.849 -0.7615 -1.5202  2.7226
 2686SOL     OW19690   2.545   1.537  12.324 -0.0884 -0.2677  0.9972
 2686SOL    HW119691   2.554   1.616  12.377 -1.0122  0.0230  0.7238
 2686SOL    HW219692   2.487   1.482  12.378 -0.1242 -2.2300 -1.0369
 2687SOL     OW19693   0.921   1.332   9.157 -0.6765 -0.2263 -0.1422
 2687SOL    HW119694   0.849   1.362   9.211 -0.6900 -0.3078 -0.1148
 2687SOL    HW219695   0.880   1.328   9.070  1.4869  1.8995 -1.2716
 2688SOL     OW19696   0.943   2.165   5.357 -0.3623  0.4097  0.1304
 2688SOL    HW119697   1.031   2.198   5.372 -0.1735  0.7271 -1.6982
 2688SOL    HW219698   0.941   2.081   5.403 -0.2102  0.1997 -0.2494
 2689SOL     OW19699   2.486   1.304   0.958 -0.5280  0.1297  0.5333
 2689SOL    HW119700   2.449   1.318   1.045 -0.0201 -1.6843  1.0576
 2689SOL    HW219701   2.477   1.209   0.954  0.4442  0.0198  0.8444
 2690SOL     OW19702   3.750   3.562  13.915  0.0512 -0.2753 -0.4131
 2690SOL    HW119703   3.791   3.633  13.866 -0.5768  0.2115 -0.2410
 2690SOL    HW219704   3.685   3.530  13.853  0.5785 -0.9905 -0.5887
 2691SOL     OW19705   3.030   1.865   1.999 -0.0149  0.4561 -0.4414
 2691SOL    HW119706   3.010   1.956   1.979  0.9847  0.5682 -0.9109
 2691SOL    HW219707   2.964   1.810   1.958  0.9367 -0.9842 -0.0419
 2692SOL     OW19708   0.113   3.671  11.965  0.4810  0.2471  0.3128
 2692SOL    HW119709   0.161   3.630  11.892 -1.8912  0.4154 -1.3374
 2692SOL    HW219710   0.095   3.591  12.015  1.3594 -0.6487 -0.7892
 2693SOL     OW19711   4.204   0.597  10.697  0.7607  0.0171  0.1652
 2693SOL    HW119712   4.137   0.647  10.650  1.3854  0.4854 -0.2150
 2693SOL    HW219713   4.180   0.504  10.697  1.0681 -0.0602  0.4122
 2694SOL     OW19714   0.397   2.734   7.783 -0.4060  0.1183 -0.6939
 2694SOL    HW119715   0.473   2.686   7.815 -1.4486  0.0663  1.7196
 2694SOL    HW219716   0.375   2.773   7.868 -2.0956  0.0540 -1.1060
 2695SOL     OW19717   2.257   2.419   6.190 -0.0780 -0.6042  0.6577
 2695SOL    HW119718   2.183   2.361   6.210  0.4051 -1.5653 -0.3518
 2695SOL    HW219719   2.219   2.505   6.213 -0.1265 -0.2901 -0.6079
 2696SOL     OW19720   2.387   1.448   8.765 -0.0290  0.2431 -0.4380
 2696SOL    HW119721   2.389   1.515   8.697 -2.0727  0.6727 -0.0726
 2696SOL    HW219722   2.413   1.503   8.839 -1.5516 -0.4014  0.5899
 2697SOL     OW19723   1.436   2.754   7.200  0.0182 -0.9567 -0.2108
 2697SOL    HW119724   1.419   2.660   7.208  1.3872 -1.1669  0.2266
 2697SOL    HW219725   1.530   2.759   7.214 -0.5642  1.3727  2.8721
 2698SOL     OW19726   1.276   4.349   8.431  0.2951  0.0937 -0.1596
 2698SOL    HW119727   1.308   4.422   8.484  3.6579 -0.2887 -1.6167
 2698SOL    HW219728   1.357   4.325   8.385 -0.5688 -0.5819 -1.3230
 2699SOL     OW19729   3.463   2.115   8.862 -0.1956  0.0694  0.0456
 2699SOL    HW119730   3.381   2.101   8.909  0.2284 -0.8752  0.4937
 2699SOL    HW219731   3.492   2.025   8.846  0.9167  0.6409 -1.1822
 2700SOL     OW19732   4.097   1.951   5.393  0.4276  0.3691  0.6955
 2700SOL    HW119733   4.161   1.883   5.372 -0.4688  0.1640 -1.4133
 2700SOL    HW219734   4.011   1.908   5.397  0.3017  0.7158  1.7181
 2701SOL     OW19735   2.683   0.869  10.381 -0.3964 -0.2057 -0.2928
 2701SOL    HW119736   2.630   0.914  10.446  0.7412  1.4741 -0.5121
 2701SOL    HW219737   2.732   0.946  10.354  0.1895 -0.8611 -1.0931
 2702SOL     OW19738   3.509   0.880   1.729  0.0704  0.3954  0.5137
 2702SOL    HW119739   3.476   0.970   1.738 -2.1841 -0.5453  1.9623
 2702SOL    HW219740   3.463   0.836   1.801 -0.7576  0.7737  0.2227
 2703SOL     OW19741   0.616   0.005   7.890  0.0609  0.6455 -0.2342
 2703SOL    HW119742   0.674   4.713   7.960 -1.4958 -0.5608  0.4987
 2703SOL    HW219743   0.666   0.081   7.858 -2.0370  2.0471 -0.1689
 2704SOL     OW19744   1.668   3.197   4.353 -0.2260  0.4059 -0.2311
 2704SOL    HW119745   1.633   3.189   4.441 -0.9551  0.5805 -0.5008
 2704SOL    HW219746   1.584   3.206   4.307  0.0670 -1.2915 -1.0822
 2705SOL     OW19747   3.476   2.052   2.860  0.2232 -0.4759 -0.3069
 2705SOL    HW119748   3.394   2.079   2.901  1.2089  2.3176 -0.2097
 2705SOL    HW219749   3.515   2.002   2.933 -1.2454 -1.6401 -0.3113
 2706SOL     OW19750   4.196   4.310   4.383  0.0428  0.7082  0.0475
 2706SOL    HW119751   4.248   4.390   4.376 -1.6650  1.9903  1.8836
 2706SOL    HW219752   4.110   4.342   4.356  0.5338  1.6220 -0.4255
 2707SOL     OW19753   0.661   3.795   2.789 -0.0381  0.1037  0.1922
 2707SOL    HW119754   0.600   3.739   2.741 -0.1838 -0.6232  1.2051
 2707SOL    HW219755   0.716   3.830   2.720 -1.0591 -1.4966 -1.4295
 2708SOL     OW19756   0.719   2.764   1.993 -0.4067  0.6185 -0.5440
 2708SOL    HW119757   0.623   2.759   1.989 -0.4177  0.9502 -0.6815
 2708SOL    HW219758   0.736   2.695   2.058 -1.8658 -0.8888 -1.7680
 2709SOL     OW19759   0.350   2.146   5.206 -0.3476  0.3869 -0.2109
 2709SOL    HW119760   0.406   2.148   5.129 -0.7952  1.0951 -0.5218
 2709SOL    HW219761   0.330   2.239   5.206  2.7953  1.0655 -1.7375
 2710SOL     OW19762   4.692   0.228   2.716  0.4672  0.5321  0.4827
 2710SOL    HW119763   0.019   0.238   2.785  1.3439  0.0904 -0.2770
 2710SOL    HW219764   4.625   0.174   2.757 -0.5889  0.7701 -0.9150
 2711SOL     OW19765   4.372   2.197   9.643 -0.1634  0.0676  0.1584
 2711SOL    HW119766   4.282   2.213   9.673 -1.5989 -2.9752 -2.5616
 2711SOL    HW219767   4.410   2.219   9.728  0.2230 -1.6214  0.4250
 2712SOL     OW19768   2.261   3.577   5.972  0.6818  0.2808 -0.1529
 2712SOL    HW119769   2.247   3.542   6.060 -0.1163  0.7693 -0.0899
 2712SOL    HW219770   2.349   3.540   5.959  0.9220  0.9231 -0.3283
 2713SOL     OW19771   4.440   2.249  15.447 -0.1589  0.3065 -0.3656
 2713SOL    HW119772   4.360   2.238  15.396 -0.5706  0.8867  0.1547
 2713SOL    HW219773   4.483   2.164  15.438  0.7280  0.6364  0.6768
 2714SOL     OW19774   4.324   3.072   6.186 -0.3454 -0.3383  0.7129
 2714SOL    HW119775   4.263   3.004   6.213  1.0770 -2.6055 -1.7990
 2714SOL    HW219776   4.308   3.064   6.092 -0.4837  0.0669  0.7044
 2715SOL     OW19777   1.992   4.706   6.228  0.2461  0.5044  0.3914
 2715SOL    HW119778   1.979   4.659   6.310  1.6463 -1.7662 -0.6778
 2715SOL    HW219779   2.068   0.020   6.253 -0.6275  2.4906 -1.1407
 2716SOL     OW19780   2.487   0.816   7.717  0.0209 -0.1121 -0.2922
 2716SOL    HW119781   2.424   0.887   7.707  0.6558  0.2105 -2.1625
 2716SOL    HW219782   2.563   0.865   7.747 -0.3325  0.0785  0.2762
 2717SOL     OW19783   0.759   1.519  17.378 -0.1327  0.1585  0.2882
 2717SOL    HW119784   0.694   1.561  17.322 -1.6805 -0.8168  1.3454
 2717SOL    HW219785   0.823   1.481  17.318 -1.6902  0.2615 -1.4282
 2718SOL     OW19786   0.509   0.045   4.668 -0.0026  0.5343 -0.4222
 2718SOL    HW119787   0.570   0.063   4.740  0.6339  0.7877 -1.0169
 2718SOL    HW219788   0.446   0.116   4.679 -1.7139 -0.6327 -2.7122
 2719SOL     OW19789   1.932   4.044   5.502  0.5069  0.0246  0.1972
 2719SOL    HW119790   1.994   4.070   5.434 -0.1061  0.4474 -0.2009
 2719SOL    HW219791   1.977   3.983   5.561  0.2724 -1.2158 -0.9027
 2720SOL     OW19792   3.392   1.756   8.988 -0.0925 -0.2732 -0.2234
 2720SOL    HW119793   3.440   1.793   8.914 -0.4652 -0.0579 -0.3563
 2720SOL    HW219794   3.306   1.798   8.994 -0.5080 -1.1381 -0.0071
 2721SOL     OW19795   1.447   0.871   0.867  0.4122  0.3440 -0.5027
 2721SOL    HW119796   1.454   0.963   0.842  1.8090  0.2407 -0.4961
 2721SOL    HW219797   1.419   0.874   0.959 -0.6063  0.2106 -0.8120
 2722SOL     OW19798   1.835   2.567  10.723 -0.2215  0.5311  0.0997
 2722SOL    HW119799   1.893   2.533  10.791  0.4395 -0.5790 -1.0273
 2722SOL    HW219800   1.769   2.498  10.718  0.5925 -0.3582  1.6032
 2723SOL     OW19801   1.493   2.061   1.866 -0.1188  0.0124  0.5937
 2723SOL    HW119802   1.515   2.153   1.853 -2.2534  0.4796  0.3482
 2723SOL    HW219803   1.577   2.015   1.852 -0.2324  0.4955 -1.6791
 2724SOL     OW19804   3.943   3.692  11.175 -0.2973  0.1450 -0.0616
 2724SOL    HW119805   3.967   3.695  11.083 -0.2673 -1.3616 -0.1135
 2724SOL    HW219806   3.914   3.783  11.179  4.1810  1.5982 -0.1488
 2725SOL     OW19807   3.420   3.238   6.550 -0.0676  0.1646 -0.0501
 2725SOL    HW119808   3.453   3.307   6.607 -0.6341 -0.3675  0.9146
 2725SOL    HW219809   3.441   3.158   6.598  1.0032  1.0201  0.9136
 2726SOL     OW19810   2.481   4.249   8.966  0.1949  0.1410 -0.3318
 2726SOL    HW119811   2.423   4.173   8.968 -0.6116  0.8257  2.4872
 2726SOL    HW219812   2.418   4.320   8.957 -1.9890 -1.7333  0.2933
 2727SOL     OW19813   2.598   2.871   5.353 -0.1905 -0.1230 -0.2245
 2727SOL    HW119814   2.525   2.847   5.409  0.3844  0.1895  0.6515
 2727SOL    HW219815   2.633   2.784   5.337 -1.6409 -1.1857  2.4780
 2728SOL     OW19816   4.400   0.884   8.457 -0.2573  0.1942  0.1266
 2728SOL    HW119817   4.467   0.907   8.521 -0.8689  2.5410 -0.0859
 2728SOL    HW219818   4.465   0.864   8.389  0.2868 -2.8451  1.5565
 2729SOL     OW19819   2.878   3.527   4.094 -0.3638 -0.1696  0.9780
 2729SOL    HW119820   2.873   3.509   4.188 -1.4035 -0.6229  0.8310
 2729SOL    HW219821   2.928   3.449   4.070  0.5730  0.2111  1.6668
 2730SOL     OW19822   0.845   1.713  17.552 -0.0495 -0.6620 -0.4917
 2730SOL    HW119823   0.879   1.774  17.487  0.9057  0.8815  1.4405
 2730SOL    HW219824   0.779   1.655  17.514 -1.2110  1.9540 -2.4410
 2731SOL     OW19825   3.891   2.647  16.315  0.0896 -0.5405  0.6819
 2731SOL    HW119826   3.871   2.702  16.390 -2.8017  2.0224 -1.9922
 2731SOL    HW219827   3.948   2.695  16.254  0.2247 -2.1996 -0.5096
 2732SOL     OW19828   4.209   1.584   7.864  0.3014  0.2885 -0.2125
 2732SOL    HW119829   4.155   1.610   7.938  3.2505 -1.5663  2.6098
 2732SOL    HW219830   4.180   1.494   7.849 -1.2744  1.0148 -1.4406
 2733SOL     OW19831   1.638   3.783   9.017  0.1480 -0.2105 -0.0312
 2733SOL    HW119832   1.582   3.860   9.023 -1.6551 -1.6838  1.7815
 2733SOL    HW219833   1.680   3.797   8.932  0.4477 -1.7783 -0.1353
 2734SOL     OW19834   0.579   1.224   2.471 -0.5274 -0.1156  0.5064
 2734SOL    HW119835   0.522   1.170   2.526  1.5981  0.4118  3.2468
 2734SOL    HW219836   0.542   1.216   2.383  0.1320  1.1456  0.1214
 2735SOL     OW19837   4.263   0.378   4.854  0.3692  0.3339  0.5594
 2735SOL    HW119838   4.237   0.401   4.765  0.3928  0.1120  0.4949
 2735SOL    HW219839   4.303   0.463   4.870  0.1961  0.2662  1.3489
 2736SOL     OW19840   2.225   2.581  16.932  0.0312 -0.5194  0.3606
 2736SOL    HW119841   2.238   2.565  16.838 -1.0181  0.8569 -0.0283
 2736SOL    HW219842   2.310   2.621  16.950 -0.1675  0.6603 -1.2930
 2737SOL     OW19843   4.386   0.235   5.616 -0.4429 -0.1676  0.2550
 2737SOL    HW119844   4.405   0.285   5.695 -2.2839  0.0218  0.5821
 2737SOL    HW219845   4.450   0.262   5.550 -1.2732 -0.6204 -0.7411
 2738SOL     OW19846   1.582   4.597   8.994 -0.6376 -0.0113  0.5968
 2738SOL    HW119847   1.518   4.528   8.978  1.1072 -1.7969  1.2369
 2738SOL    HW219848   1.646   4.546   9.044 -1.2985 -3.4880 -2.0904
 2739SOL     OW19849   1.817   3.732   1.779 -0.7357 -0.0688 -0.5250
 2739SOL    HW119850   1.874   3.749   1.704 -0.4686 -0.6559 -0.4504
 2739SOL    HW219851   1.808   3.637   1.790 -0.0254 -0.1001 -0.1698
 2740SOL     OW19852   1.353   4.478  13.244  0.4161 -1.0738 -0.2111
 2740SOL    HW119853   1.342   4.390  13.281 -0.7878 -1.9434 -2.5891
 2740SOL    HW219854   1.446   4.491  13.258  0.5739 -1.0150 -1.3101
 2741SOL     OW19855   0.685   2.926   9.249 -0.1793  0.0605  0.4362
 2741SOL    HW119856   0.638   2.854   9.206 -2.8489  0.2807  3.0182
 2741SOL    HW219857   0.776   2.898   9.249 -0.1090  0.2667 -0.9444
 2742SOL     OW19858   0.025   3.181   3.030 -0.3924 -0.3358 -0.1613
 2742SOL    HW119859   0.080   3.259   3.016 -1.6109  0.5854  0.2138
 2742SOL    HW219860   0.089   3.131   3.080 -1.4648 -1.0295  0.4961
 2743SOL     OW19861   3.810   3.748   2.060 -0.0497  0.4640  0.5062
 2743SOL    HW119862   3.784   3.840   2.058 -1.0692  0.1838  0.7713
 2743SOL    HW219863   3.814   3.725   2.153 -1.3629 -1.1876  0.1467
 2744SOL     OW19864   3.825   1.169   4.415  0.1154  0.3006 -0.3046
 2744SOL    HW119865   3.795   1.169   4.505  1.5198 -1.2985  0.1719
 2744SOL    HW219866   3.782   1.096   4.370  0.1256  0.9038 -1.3019
 2745SOL     OW19867   0.753   1.899   2.769 -0.0420 -0.4174 -0.3378
 2745SOL    HW119868   0.749   1.929   2.678 -0.7688  1.3472  0.2928
 2745SOL    HW219869   0.669   1.928   2.804 -0.6204 -0.9845 -1.2676
 2746SOL     OW19870   4.019   1.043   3.470  0.3523  0.0187  0.4141
 2746SOL    HW119871   4.043   0.955   3.499  0.3342 -1.1403 -3.0897
 2746SOL    HW219872   3.945   1.028   3.411  0.6936  4.4432 -1.1260
 2747SOL     OW19873   4.411   3.705  16.249  0.8737 -0.0746  0.1557
 2747SOL    HW119874   4.470   3.773  16.282  0.8086  1.0123 -1.9441
 2747SOL    HW219875   4.324   3.712  16.288  0.8177  1.6303 -0.2619
 2748SOL     OW19876   1.515   4.425   6.344  0.0017  0.1270  0.0788
 2748SOL    HW119877   1.573   4.465   6.408  0.2961  0.1889 -0.2260
 2748SOL    HW219878   1.560   4.348   6.308  0.8874  0.6160  0.1516
 2749SOL     OW19879   0.036   3.536   7.575  0.2401 -0.0480  0.2532
 2749SOL    HW119880   0.015   3.447   7.545  0.6276  0.3573 -1.2170
 2749SOL    HW219881   4.689   3.572   7.598  0.0551 -1.6711  2.0854
 2750SOL     OW19882   4.238   0.746   7.547 -0.5612 -0.3600 -0.1219
 2750SOL    HW119883   4.258   0.816   7.485 -0.8555 -0.9991 -0.9311
 2750SOL    HW219884   4.158   0.705   7.515 -0.7554 -0.5285  0.5659
 2751SOL     OW19885   0.011   2.097  16.562 -0.2104  0.4546 -0.0288
 2751SOL    HW119886   4.719   2.161  16.498 -1.2834 -0.0558 -0.0150
 2751SOL    HW219887   0.057   2.153  16.625  0.1584 -1.0736  1.0886
 2752SOL     OW19888   4.466   4.012   8.886  0.5214  0.1081 -0.3743
 2752SOL    HW119889   4.533   3.943   8.889  1.5234  1.0636 -0.9961
 2752SOL    HW219890   4.468   4.051   8.973 -2.6307  0.2752 -0.3793
 2753SOL     OW19891   3.724   1.887   6.257 -0.2905  0.0600  0.7593
 2753SOL    HW119892   3.721   1.975   6.220 -0.4065  0.1774  1.0542
 2753SOL    HW219893   3.689   1.893   6.346  0.5807  0.1575  1.1071
 2754SOL     OW19894   4.466   4.475   9.898 -0.4760 -0.1778  0.6777
 2754SOL    HW119895   4.459   4.392   9.851 -2.6633 -1.2282  2.8487
 2754SOL    HW219896   4.558   4.499   9.885 -1.4098  0.5442 -4.4570
 2755SOL     OW19897   1.174   0.992  12.967 -0.0156  0.5820  0.1728
 2755SOL    HW119898   1.226   1.069  12.942 -0.3565  0.7151 -0.1123
 2755SOL    HW219899   1.161   0.984  12.873 -0.8474 -0.4072  0.3734
 2756SOL     OW19900   0.842   1.920   4.253  0.3620  0.1182 -0.0076
 2756SOL    HW119901   0.761   1.958   4.287  0.6216  0.1289  0.6079
 2756SOL    HW219902   0.829   1.831   4.285 -0.9942 -0.6238 -2.6540
 2757SOL     OW19903   3.189   0.679   3.864  0.1582  0.2022  0.0338
 2757SOL    HW119904   3.137   0.690   3.943  2.1272  1.1568  1.1910
 2757SOL    HW219905   3.269   0.724   3.888  0.5809 -1.1349  1.1262
 2758SOL     OW19906   2.679   4.297   1.811 -0.3180  0.2882  0.1699
 2758SOL    HW119907   2.627   4.222   1.783 -1.4819  2.0262 -2.3265
 2758SOL    HW219908   2.760   4.246   1.811 -0.0988  0.6284  1.7086
 2759SOL     OW19909   2.454   0.769   7.253 -0.0801 -0.0130 -0.7309
 2759SOL    HW119910   2.485   0.725   7.332  2.5159  0.6757 -1.3815
 2759SOL    HW219911   2.395   0.838   7.286 -0.5790  0.2643 -2.2346
 2760SOL     OW19912   3.579   1.652   2.988 -0.1631  0.5699  0.7747
 2760SOL    HW119913   3.586   1.569   2.941  1.2663  0.4245  1.2219
 2760SOL    HW219914   3.485   1.664   3.002  0.1463  0.4782  2.9220
 2761SOL     OW19915   4.192   2.141  14.670 -0.6956 -0.4887 -0.2129
 2761SOL    HW119916   4.161   2.230  14.658 -0.1463 -0.5823 -2.3551
 2761SOL    HW219917   4.246   2.131  14.591 -0.3260  0.6578 -0.1059
 2762SOL     OW19918   3.283   0.975   9.008 -0.2777 -0.7117  0.3437
 2762SOL    HW119919   3.300   0.884   9.035  0.1519 -1.0193 -0.9860
 2762SOL    HW219920   3.352   0.985   8.943 -0.3974 -0.4259  0.2646
 2763SOL     OW19921   1.400   4.168   4.578  0.6417 -0.1108 -0.4031
 2763SOL    HW119922   1.447   4.130   4.503 -0.2218  0.9605 -1.4939
 2763SOL    HW219923   1.460   4.155   4.651 -0.0646 -0.3634  0.1349
 2764SOL     OW19924   1.095   1.404   9.615  0.6302  0.6208  0.6500
 2764SOL    HW119925   1.010   1.448   9.611  0.5151  0.3968  0.6916
 2764SOL    HW219926   1.145   1.460   9.675 -0.8318  0.4053  2.0574
 2765SOL     OW19927   3.891   1.266   7.157 -0.0746 -0.1940 -0.0577
 2765SOL    HW119928   3.971   1.240   7.111  1.8975  1.3109  2.5353
 2765SOL    HW219929   3.821   1.229   7.102 -2.2248  0.1875  2.4323
 2766SOL     OW19930   2.032   2.426  10.862 -0.0760 -0.0115  0.0693
 2766SOL    HW119931   2.065   2.443  10.950  2.4900 -2.4066 -0.4299
 2766SOL    HW219932   2.116   2.405  10.820 -0.2155 -2.6236  1.0602
 2767SOL     OW19933   0.019   2.300   4.824 -0.1209 -0.0796  0.2768
 2767SOL    HW119934   4.702   2.361   4.777 -0.2164  0.5108  1.1445
 2767SOL    HW219935   0.086   2.274   4.761 -1.0431 -0.3583 -0.5745
 2768SOL     OW19936   2.146   0.637   9.284 -0.3653  0.5544 -0.0903
 2768SOL    HW119937   2.153   0.550   9.325  2.3418  1.3646  1.1341
 2768SOL    HW219938   2.123   0.674   9.369  0.2510  1.1427 -0.1841
 2769SOL     OW19939   2.378   4.187   8.311 -0.4676 -0.1105  0.2477
 2769SOL    HW119940   2.453   4.185   8.251 -1.4889  1.2009 -1.0937
 2769SOL    HW219941   2.407   4.200   8.401 -2.8683  0.7740  0.9026
 2770SOL     OW19942   3.843   2.455   4.823 -0.8433 -0.2903  0.1811
 2770SOL    HW119943   3.933   2.421   4.833 -1.2850 -1.4374  0.3038
 2770SOL    HW219944   3.801   2.398   4.887  0.8774  0.0493  1.6147
 2771SOL     OW19945   4.689   1.511  14.967  0.2646  0.2320 -0.1399
 2771SOL    HW119946   0.027   1.467  14.930 -0.7346 -2.0519  0.4958
 2771SOL    HW219947   4.687   1.587  14.908 -0.5550 -0.9202 -1.5948
 2772SOL     OW19948   0.641   0.919  16.710 -0.1107 -0.1380 -0.1023
 2772SOL    HW119949   0.717   0.971  16.684  0.3537  0.3530  2.2666
 2772SOL    HW219950   0.677   0.857  16.774  1.1837 -1.6598 -2.2906
 2773SOL     OW19951   4.319   0.932   9.451  0.2450  0.2720 -0.1774
 2773SOL    HW119952   4.277   0.961   9.533  2.1298  1.2180  0.4529
 2773SOL    HW219953   4.326   1.018   9.410  1.8878 -0.2094 -0.9005
 2774SOL     OW19954   4.134   3.274   6.774 -0.1082  0.0180 -0.0836
 2774SOL    HW119955   4.155   3.182   6.791 -1.7533 -0.5156 -0.9640
 2774SOL    HW219956   4.185   3.279   6.694 -0.3657  1.5494 -0.1472
 2775SOL     OW19957   2.480   0.410   1.868 -0.3985 -0.5232  0.1414
 2775SOL    HW119958   2.407   0.349   1.856 -1.9818  1.1347  1.2952
 2775SOL    HW219959   2.439   0.458   1.940  0.3410  0.8538 -0.3568
 2776SOL     OW19960   3.460   2.793   5.085 -0.0409 -0.4103 -0.4307
 2776SOL    HW119961   3.419   2.869   5.127 -1.0173 -0.4949 -1.2293
 2776SOL    HW219962   3.393   2.780   5.018 -2.1680 -1.6353  1.9206
 2777SOL     OW19963   4.370   0.301  15.207 -0.2645  0.6106 -0.4359
 2777SOL    HW119964   4.406   0.390  15.202  0.8748  0.1242 -0.8869
 2777SOL    HW219965   4.410   0.261  15.130  0.2449 -0.1908  0.2473
 2778SOL     OW19966   4.254   2.772  11.769  0.6056  0.1255 -0.1522
 2778SOL    HW119967   4.327   2.816  11.725  1.8512 -2.2459 -0.5044
 2778SOL    HW219968   4.230   2.712  11.698 -1.3543 -0.1357  0.7498
 2779SOL     OW19969   3.816   2.594   7.488 -0.4607  0.3772 -0.2892
 2779SOL    HW119970   3.761   2.540   7.431  0.8031  0.3012 -1.4371
 2779SOL    HW219971   3.835   2.667   7.429 -0.4305  1.1560  0.6907
 2780SOL     OW19972   3.355   1.226   1.226  0.0547 -0.2448 -0.0418
 2780SOL    HW119973   3.275   1.271   1.199  0.9779 -0.0539 -2.4745
 2780SOL    HW219974   3.325   1.149   1.274  1.2555 -0.3524  0.5228
 2781SOL     OW19975   4.453   4.604   7.349  0.7457  0.0230 -0.5186
 2781SOL    HW119976   4.371   4.645   7.324 -0.1714 -1.9572 -0.6917
 2781SOL    HW219977   4.499   4.656   7.415  0.7410 -0.5208 -0.0878
 2782SOL     OW19978   1.868   0.011   2.095 -0.3019 -0.1758 -0.1937
 2782SOL    HW119979   1.801   4.703   2.045 -0.6833  0.2445 -0.0849
 2782SOL    HW219980   1.871   0.097   2.053  0.0663  0.1979  0.6113
 2783SOL     OW19981   0.516   2.746   3.363 -0.0998 -0.5022 -0.1495
 2783SOL    HW119982   0.501   2.833   3.400  0.3321 -0.5998  0.2610
 2783SOL    HW219983   0.433   2.709   3.391  0.4976 -1.7255  0.0068
 2784SOL     OW19984   2.932   3.649  14.582 -0.0716 -0.0637  0.6334
 2784SOL    HW119985   2.874   3.671  14.509 -0.1231 -1.5637  0.2342
 2784SOL    HW219986   2.997   3.599  14.534 -0.0246 -1.1066  1.7890
 2785SOL     OW19987   2.842   3.611   1.987 -0.4049  0.3139 -0.5486
 2785SOL    HW119988   2.846   3.583   1.896  0.9668 -0.5283 -0.2364
 2785SOL    HW219989   2.855   3.704   1.972 -0.9585  0.5956  0.7073
 2786SOL     OW19990   1.126   2.288   0.000 -0.0573 -0.6313 -0.0745
 2786SOL    HW119991   1.141   2.371  17.709  0.7908  0.2526  1.8161
 2786SOL    HW219992   1.188   2.306   0.072  0.1358  0.7848 -0.5994
 2787SOL     OW19993   0.065   3.300   6.495  0.5203 -0.1543 -0.2517
 2787SOL    HW119994   0.135   3.264   6.550  1.0114 -1.5541 -1.8202
 2787SOL    HW219995   0.045   3.223   6.442  1.1642 -0.9358  0.6546
 2788SOL     OW19996   2.676   4.247   3.441 -0.3757  0.3265 -0.5203
 2788SOL    HW119997   2.725   4.171   3.473 -1.3633  0.5312  1.4584
 2788SOL    HW219998   2.639   4.204   3.365 -0.5999  0.6963 -0.6191
 2789SOL     OW19999   2.513   0.023   4.156 -0.2651  0.1024  0.0598
 2789SOL    HW120000   2.542   4.734   4.243 -2.0021 -0.1276  0.5660
 2789SOL    HW220001   2.591   4.729   4.111  0.1080 -0.4789  1.1256
 2790SOL     OW20002   4.436   3.375   3.485 -0.1717  0.6005  0.5689
 2790SOL    HW120003   4.511   3.346   3.432  0.8375 -0.1601  2.4130
 2790SOL    HW220004   4.412   3.460   3.448 -1.6438 -0.9930 -2.1154
 2791SOL     OW20005   1.210   2.082   7.875  0.1764 -0.0285 -0.2217
 2791SOL    HW120006   1.137   2.030   7.908 -0.3177  1.7258  1.4254
 2791SOL    HW220007   1.173   2.153   7.822  1.8037  0.3510 -0.8769
 2792SOL     OW20008   0.417   0.837   6.448  0.1984  0.1042 -0.7897
 2792SOL    HW120009   0.326   0.851   6.473  1.4058  0.6540  3.2776
 2792SOL    HW220010   0.448   0.780   6.517 -2.4279  0.8379  0.9962
 2793SOL     OW20011   2.533   3.184   2.339  0.3913 -0.7165  0.2518
 2793SOL    HW120012   2.614   3.191   2.389 -0.3179  0.9144  1.1640
 2793SOL    HW220013   2.493   3.270   2.333  0.8953 -0.6791 -2.9119
 2794SOL     OW20014   2.097   1.335   4.004  0.1632  0.0628  0.0823
 2794SOL    HW120015   2.045   1.399   4.053 -0.1692  1.0795 -1.5734
 2794SOL    HW220016   2.181   1.377   3.983  1.0824 -1.2154  1.2183
 2795SOL     OW20017   3.320   2.242   3.011  0.1805 -0.4323 -0.4141
 2795SOL    HW120018   3.279   2.240   3.098  1.1709 -2.2770  0.0143
 2795SOL    HW220019   3.255   2.265   2.944  0.4709  1.4461 -0.0577
 2796SOL     OW20020   3.252   2.889  10.192  0.0614  0.1959  0.1730
 2796SOL    HW120021   3.211   2.870  10.276 -0.8290 -1.6233 -0.6898
 2796SOL    HW220022   3.221   2.976  10.165  0.2064  0.5169  1.0615
 2797SOL     OW20023   2.564   2.588  14.425  0.5056 -0.1767  0.0945
 2797SOL    HW120024   2.564   2.519  14.359  0.5658 -1.4280  1.4113
 2797SOL    HW220025   2.523   2.651  14.364 -0.7860 -3.0146 -1.9748
 2798SOL     OW20026   1.348   4.359   7.191  0.6002 -0.2982  0.3243
 2798SOL    HW120027   1.384   4.284   7.143 -0.9371 -1.8597  1.5926
 2798SOL    HW220028   1.392   4.356   7.276 -0.6978 -2.5096  0.9257
 2799SOL     OW20029   2.626   0.936  11.535 -0.0309  0.0355  0.1161
 2799SOL    HW120030   2.590   0.882  11.465 -2.4903 -0.6678  1.9519
 2799SOL    HW220031   2.660   0.870  11.597  0.8448 -0.5182 -0.9558
 2800SOL     OW20032   1.413   2.478   3.769 -0.1491 -0.0978  0.2608
 2800SOL    HW120033   1.352   2.552   3.776  1.7579  1.7222 -2.3706
 2800SOL    HW220034   1.425   2.486   3.675 -2.0628 -1.7600 -0.1293
 2801SOL     OW20035   3.978   3.749   3.352  0.5733 -0.2380 -0.3117
 2801SOL    HW120036   3.915   3.721   3.418 -1.7149  0.2706 -2.2949
 2801SOL    HW220037   4.024   3.817   3.401 -0.7655  0.4709 -0.0381
 2802SOL     OW20038   3.816   0.162   3.714  0.6947 -0.7770  0.4899
 2802SOL    HW120039   3.752   0.119   3.658  0.3551  0.6017 -0.1700
 2802SOL    HW220040   3.825   0.103   3.790 -0.6502 -1.3476  0.1964
 2803SOL     OW20041   2.316   2.168   3.287 -0.0587 -0.2057  0.0136
 2803SOL    HW120042   2.226   2.151   3.260 -0.0658  1.4068 -0.9392
 2803SOL    HW220043   2.360   2.084   3.302  0.3502  0.5713  3.3269
 2804SOL     OW20044   3.945   4.184   9.215  0.4040  0.3559 -0.0052
 2804SOL    HW120045   3.882   4.115   9.235  0.1481  0.1385 -1.5897
 2804SOL    HW220046   3.903   4.264   9.248 -0.6683 -0.2350  0.0614
 2805SOL     OW20047   2.988   2.034   6.636  1.0151 -0.2929  0.4938
 2805SOL    HW120048   2.992   2.011   6.728 -0.8243 -0.4679  0.5259
 2805SOL    HW220049   2.896   2.039   6.612  0.6725  0.8120  2.0680
 2806SOL     OW20050   4.146   4.254   1.920 -0.0114  0.5325  0.0752
 2806SOL    HW120051   4.101   4.330   1.955 -0.2772  1.8592 -3.1837
 2806SOL    HW220052   4.093   4.221   1.847 -4.0263  0.9514  2.7872
 2807SOL     OW20053   2.080   4.517   2.958 -0.7251 -0.5284 -0.5068
 2807SOL    HW120054   2.053   4.468   2.880 -0.1448  0.3927 -1.2846
 2807SOL    HW220055   1.994   4.539   2.995 -1.3766  0.5523 -2.6414
 2808SOL     OW20056   1.567   1.463   3.234 -0.5658 -0.1406 -0.0280
 2808SOL    HW120057   1.538   1.444   3.323  0.9396  1.3956  0.7861
 2808SOL    HW220058   1.634   1.395   3.226 -0.1215  0.5350 -2.0161
 2809SOL     OW20059   3.613   3.242  10.772  0.1011 -0.1819  0.3640
 2809SOL    HW120060   3.698   3.240  10.817  0.6207 -1.6165 -0.6876
 2809SOL    HW220061   3.566   3.321  10.800 -1.1657 -0.1627 -1.8680
 2810SOL     OW20062   3.459   4.592   3.806  0.5378 -0.2985  0.3434
 2810SOL    HW120063   3.428   4.683   3.804 -0.4034 -0.5921  1.6227
 2810SOL    HW220064   3.380   4.538   3.804  0.1717  0.2001  1.0771
 2811SOL     OW20065   1.083   0.049  11.377  0.1709  0.2717  0.2977
 2811SOL    HW120066   1.084   4.729  11.452 -1.2924 -2.0701 -1.5529
 2811SOL    HW220067   0.996   0.083  11.394  0.7090  1.0128  1.5348
 2812SOL     OW20068   1.562   4.281   4.267 -0.1238 -0.2842  0.1599
 2812SOL    HW120069   1.496   4.344   4.237  0.1383  0.8417  1.9259
 2812SOL    HW220070   1.590   4.329   4.345  1.7896 -1.0986 -0.0463
 2813SOL     OW20071   2.584   3.847   5.620  0.1505  0.1358  0.0690
 2813SOL    HW120072   2.578   3.817   5.711 -2.3008 -0.6227 -0.3400
 2813SOL    HW220073   2.678   3.838   5.602 -0.2844 -0.1045 -2.1541
 2814SOL     OW20074   1.147   3.398   0.620 -0.4829 -0.7809  0.2893
 2814SOL    HW120075   1.187   3.386   0.534  1.9182  1.8400  1.0627
 2814SOL    HW220076   1.226   3.426   0.666 -1.7103 -2.1441  3.2420
 2815SOL     OW20077   1.406   0.353   1.147 -0.0667 -0.1363  0.1519
 2815SOL    HW120078   1.396   0.261   1.123 -0.0076 -0.3966  1.0984
 2815SOL    HW220079   1.328   0.366   1.202 -0.5159  1.0208 -0.7453
 2816SOL     OW20080   0.698   2.627   3.862  0.1574  0.1257 -0.2808
 2816SOL    HW120081   0.748   2.699   3.901 -1.0989 -0.0108  1.5906
 2816SOL    HW220082   0.748   2.549   3.888 -1.5128 -0.6933  0.4753
 2817SOL     OW20083   1.225   0.780   2.353  0.0434  0.1575  0.3040
 2817SOL    HW120084   1.138   0.756   2.319  1.2481 -0.7250 -2.1760
 2817SOL    HW220085   1.217   0.868   2.390  2.3471 -0.0216  1.2328
 2818SOL     OW20086   2.983   3.876   1.992 -0.2822  0.2376  0.1100
 2818SOL    HW120087   2.966   3.865   2.085 -1.6259 -0.1943 -0.1863
 2818SOL    HW220088   3.077   3.858   1.997 -0.1511  0.9757  0.2149
 2819SOL     OW20089   3.800   3.821   3.122  0.0048 -0.0206 -0.1641
 2819SOL    HW120090   3.823   3.797   3.032  0.9408  1.6828 -0.3668
 2819SOL    HW220091   3.884   3.808   3.167  0.0883  0.5041 -0.1781
 2820SOL     OW20092   1.199   2.196   2.454  0.0884 -1.1250 -0.9279
 2820SOL    HW120093   1.243   2.234   2.530  1.8677  2.5822 -3.7770
 2820SOL    HW220094   1.119   2.173   2.501 -1.8497  2.4220 -2.4196
 2821SOL     OW20095   4.549   1.477   9.836 -0.0827  0.0975 -0.0728
 2821SOL    HW120096   4.632   1.501   9.795 -0.5903  1.0029 -0.5746
 2821SOL    HW220097   4.551   1.543   9.905  0.7460 -0.3850  0.3673
 2822SOL     OW20098   4.672   4.551  16.902 -0.5080 -0.6049 -0.1147
 2822SOL    HW120099   4.596   4.494  16.905  0.0895 -1.4633 -1.4791
 2822SOL    HW220100   0.005   4.498  16.937 -0.0239  0.1840  0.1091
 2823SOL     OW20101   3.471   3.570   1.249  1.1125  0.4526  0.0179
 2823SOL    HW120102   3.540   3.525   1.201  0.6373  0.8852 -1.0694
 2823SOL    HW220103   3.391   3.556   1.197  1.0927 -0.0459  0.1825
 2824SOL     OW20104   2.328   1.141   9.258  0.0830  0.3657 -0.0179
 2824SOL    HW120105   2.322   1.058   9.304 -0.7350  0.0930 -0.6166
 2824SOL    HW220106   2.278   1.104   9.185 -0.3599 -1.3151  1.1445
 2825SOL     OW20107   4.016   1.749  10.756  0.0235 -0.4456  0.3410
 2825SOL    HW120108   4.061   1.768  10.838 -0.0584  1.6431 -0.0905
 2825SOL    HW220109   4.091   1.759  10.697  1.0534 -0.9286  1.5623
 2826SOL     OW20110   1.084   3.474  16.154  0.4811  0.2872  0.2838
 2826SOL    HW120111   1.045   3.470  16.241  0.5163  0.7293  0.3202
 2826SOL    HW220112   1.087   3.569  16.144  1.4640  0.2438  0.1150
 2827SOL     OW20113   1.801   3.039  11.384  0.8606  0.4210 -0.1299
 2827SOL    HW120114   1.882   2.992  11.407 -0.0402 -1.1267 -0.1340
 2827SOL    HW220115   1.786   3.008  11.295 -1.5952 -0.4071  0.5650
 2828SOL     OW20116   4.303   0.733   1.766 -0.0815  0.1619 -0.2740
 2828SOL    HW120117   4.393   0.702   1.772  0.0421  0.6916  0.6846
 2828SOL    HW220118   4.295   0.726   1.861 -2.0345  0.0382 -0.4321
 2829SOL     OW20119   0.883   2.325  12.866  0.4780 -0.0580  0.4982
 2829SOL    HW120120   0.912   2.355  12.781 -2.3117  2.1460  0.3522
 2829SOL    HW220121   0.875   2.231  12.848  0.0113  0.1128 -0.1505
 2830SOL     OW20122   1.243   3.772   3.988 -0.8444  0.1126  0.1187
 2830SOL    HW120123   1.274   3.848   3.939  1.8400  0.5457  2.5276
 2830SOL    HW220124   1.180   3.733   3.926 -0.2734 -1.1320  0.3167
 2831SOL     OW20125   2.276   4.537   4.784 -0.2982  0.5065  0.3386
 2831SOL    HW120126   2.365   4.545   4.819  0.7312  1.4209 -2.5292
 2831SOL    HW220127   2.266   4.628   4.756 -0.1047  0.4419  0.0623
 2832SOL     OW20128   1.290   4.248   3.454  0.4564  0.4620  0.6443
 2832SOL    HW120129   1.375   4.291   3.453  0.0498  1.2246 -1.5301
 2832SOL    HW220130   1.241   4.282   3.529  1.6029  1.2711  1.0176
 2833SOL     OW20131   0.940   2.845  12.348  0.3510 -0.6386 -0.3211
 2833SOL    HW120132   0.915   2.932  12.377  1.4159 -0.9017  1.3480
 2833SOL    HW220133   0.899   2.844  12.261  0.0202 -2.2248 -0.1501
 2834SOL     OW20134   0.775   0.842   2.232 -0.4258 -0.3083  0.1853
 2834SOL    HW120135   0.692   0.806   2.200 -0.8397 -0.3204  1.2725
 2834SOL    HW220136   0.771   0.927   2.189  0.4761 -0.2381  0.2427
 2835SOL     OW20137   0.047   2.172  16.820  0.1177 -0.0491 -0.2507
 2835SOL    HW120138   0.134   2.132  16.812  0.6655  1.1697 -0.3051
 2835SOL    HW220139   0.071   2.246  16.875  1.2077  0.9849 -2.1345
 2836SOL     OW20140   1.678   0.191  17.245 -0.2357 -0.1334  0.2566
 2836SOL    HW120141   1.592   0.184  17.286 -0.2714 -0.6524  0.0947
 2836SOL    HW220142   1.696   0.279  17.213 -0.3660 -0.0860  0.3112
 2837SOL     OW20143   3.731   1.545   6.700  0.1071 -0.5942  0.1786
 2837SOL    HW120144   3.689   1.494   6.768 -1.8228 -1.6044 -1.7709
 2837SOL    HW220145   3.792   1.477   6.669  0.3694  1.1250 -3.1327
 2838SOL     OW20146   0.990   3.528   7.791  0.3979 -0.6608 -0.0546
 2838SOL    HW120147   0.981   3.467   7.718 -1.4910 -1.2756  0.6734
 2838SOL    HW220148   1.063   3.490   7.839 -0.5666 -2.4787 -0.0401
 2839SOL     OW20149   2.551   4.242   0.045  0.2138 -0.5128  0.4647
 2839SOL    HW120150   2.480   4.179   0.033 -1.0956  0.5462  2.8019
 2839SOL    HW220151   2.568   4.255  17.705  0.0199 -2.2301  0.1926
 2840SOL     OW20152   0.293   2.882  12.392 -0.1244 -0.0848  0.1914
 2840SOL    HW120153   0.342   2.844  12.464  1.6112  2.0231  0.1275
 2840SOL    HW220154   0.266   2.803  12.345 -2.1417 -2.2641  4.9597
 2841SOL     OW20155   3.435   0.360   9.938  0.1827 -0.5270 -0.1463
 2841SOL    HW120156   3.389   0.276   9.928 -1.3541  0.0637  1.9276
 2841SOL    HW220157   3.381   0.407  10.001 -0.9467 -3.3654  1.0122
 2842SOL     OW20158   0.535   0.787   7.339 -0.0601  0.3588 -0.1078
 2842SOL    HW120159   0.588   0.708   7.344  1.4352  1.3413 -0.2830
 2842SOL    HW220160   0.565   0.828   7.420  0.8119 -0.6518  0.0742
 2843SOL     OW20161   3.683   3.402   5.226 -0.2727  0.3155  0.1761
 2843SOL    HW120162   3.699   3.418   5.133 -0.5096 -0.2352  0.0389
 2843SOL    HW220163   3.747   3.467   5.254  1.9189 -1.9199  0.4066
 2844SOL     OW20164   4.735   0.581   7.560  0.2418 -0.3399  0.4987
 2844SOL    HW120165   0.080   0.618   7.589 -0.5234  1.1646  0.7604
 2844SOL    HW220166   4.689   0.558   7.641  0.0931  1.7561  1.0050
 2845SOL     OW20167   2.912   3.197  16.791  0.5807 -0.1233 -0.1092
 2845SOL    HW120168   2.917   3.212  16.697  0.0197  3.0492  0.3697
 2845SOL    HW220169   2.985   3.252  16.817 -1.6279  1.6010  2.3895
 2846SOL     OW20170   2.345   4.388   8.716  0.1115  0.1367 -0.0138
 2846SOL    HW120171   2.324   4.459   8.655  0.0924 -0.4794 -0.7195
 2846SOL    HW220172   2.425   4.422   8.756 -0.5776  1.3842  0.3350
 2847SOL     OW20173   1.210   3.146   7.182 -0.2386  0.4286  0.1800
 2847SOL    HW120174   1.205   3.238   7.208 -0.6471 -0.1147  2.0250
 2847SOL    HW220175   1.203   3.108   7.269  0.8459 -0.6581 -0.2101
 2848SOL     OW20176   3.819   2.993  12.144  0.2258  0.7364 -0.4474
 2848SOL    HW120177   3.842   3.078  12.106 -1.9489  1.7470  0.5426
 2848SOL    HW220178   3.892   2.935  12.122  1.1294  2.3338 -1.7338
 2849SOL     OW20179   1.298   2.701   6.870 -0.4011 -0.1798  0.0927
 2849SOL    HW120180   1.251   2.635   6.819 -0.0632  0.9760 -1.7142
 2849SOL    HW220181   1.243   2.706   6.949  1.6684  0.6355  1.4869
 2850SOL     OW20182   0.494   3.682   9.547  0.8552  0.2837  0.0039
 2850SOL    HW120183   0.494   3.587   9.563  0.7143  0.5870  1.7692
 2850SOL    HW220184   0.510   3.720   9.632 -0.4316 -1.2204  0.9340
 2851SOL     OW20185   3.841   0.855   3.657 -0.7000  0.3043  0.1628
 2851SOL    HW120186   3.840   0.818   3.745 -0.4043 -0.7773 -0.2846
 2851SOL    HW220187   3.924   0.903   3.660 -0.2447 -0.5901  1.6003
 2852SOL     OW20188   3.782   4.350   6.775  0.2454 -0.2071 -0.5569
 2852SOL    HW120189   3.751   4.389   6.856 -0.6446 -2.5169  0.2309
 2852SOL    HW220190   3.877   4.360   6.784  0.1296 -0.3000  0.8171
 2853SOL     OW20191   4.468   1.861  13.905  0.1474  0.0782  0.2781
 2853SOL    HW120192   4.539   1.899  13.956  0.0981  0.3625  0.1318
 2853SOL    HW220193   4.393   1.908  13.943  0.9950 -0.7763  3.0151
 2854SOL     OW20194   1.504   1.905   8.850 -0.1578 -0.0180 -0.4048
 2854SOL    HW120195   1.581   1.961   8.837  0.1151 -0.9713 -2.8810
 2854SOL    HW220196   1.489   1.945   8.935 -1.4937  0.5168 -0.8876
 2855SOL     OW20197   2.163   2.356   2.238  0.2086  0.2988 -0.2513
 2855SOL    HW120198   2.112   2.324   2.163 -1.2994  2.2402 -0.0747
 2855SOL    HW220199   2.213   2.430   2.204 -2.3806  1.2566 -1.9992
 2856SOL     OW20200   1.687   1.021   0.800 -0.3866  0.4607  0.2503
 2856SOL    HW120201   1.632   1.030   0.722 -1.4111  1.0464  1.0352
 2856SOL    HW220202   1.761   1.075   0.771  1.2875 -0.7605  2.2506
 2857SOL     OW20203   1.222   0.366   6.896  0.6140  0.4986  0.5344
 2857SOL    HW120204   1.188   0.419   6.824  0.4962 -0.9364 -0.4560
 2857SOL    HW220205   1.138   0.327   6.919  0.6822 -0.6609 -1.2319
 2858SOL     OW20206   4.442   1.799   4.112 -0.6703  0.0991 -0.2132
 2858SOL    HW120207   4.468   1.891   4.106 -1.1019  0.0915 -2.0531
 2858SOL    HW220208   4.519   1.763   4.068 -0.7410  0.7925 -0.9061
 2859SOL     OW20209   1.591   4.306  10.319  0.1106 -0.0818  0.0785
 2859SOL    HW120210   1.586   4.347  10.232 -0.8776  0.2645  0.2979
 2859SOL    HW220211   1.523   4.241  10.304 -0.7358  0.7057  0.5307
 2860SOL     OW20212   2.333   3.220   2.640 -0.1983 -0.1296 -0.5366
 2860SOL    HW120213   2.394   3.147   2.626 -0.2855 -0.7261  2.1903
 2860SOL    HW220214   2.331   3.263   2.555 -0.9262 -2.5332 -1.7508
 2861SOL     OW20215   1.712   3.654  10.416  0.6019  0.2842 -0.1690
 2861SOL    HW120216   1.768   3.596  10.467 -0.9263 -0.6524  0.4416
 2861SOL    HW220217   1.666   3.707  10.480  2.1742  0.9834  0.3723
 2862SOL     OW20218   0.566   3.783   8.774 -0.3415  0.5524  0.0948
 2862SOL    HW120219   0.635   3.849   8.776  2.0694 -1.9451  0.0759
 2862SOL    HW220220   0.618   3.704   8.792  1.4988  1.4701 -1.1748
 2863SOL     OW20221   2.165   3.289   8.604 -0.0973 -0.2901 -0.7751
 2863SOL    HW120222   2.238   3.256   8.551 -0.1229 -0.2270 -0.8512
 2863SOL    HW220223   2.166   3.379   8.570 -0.6237 -1.4734 -3.9432
 2864SOL     OW20224   1.674   4.449   4.485 -0.4094  0.6273  0.3459
 2864SOL    HW120225   1.766   4.463   4.505 -0.5028  1.6672  0.0345
 2864SOL    HW220226   1.642   4.529   4.527 -2.0872  1.2798 -2.2224
 2865SOL     OW20227   2.721   1.306  17.170  0.2774 -0.1010 -0.5700
 2865SOL    HW120228   2.661   1.358  17.115  0.7836 -0.3800 -1.3855
 2865SOL    HW220229   2.797   1.290  17.115  0.2222  1.7572 -1.1860
 2866SOL     OW20230   1.942   4.601   5.494  0.3620  0.3340  0.0145
 2866SOL    HW120231   2.005   4.536   5.525 -1.0777 -1.0982 -0.0734
 2866SOL    HW220232   1.912   4.561   5.413  1.6757  0.3192 -0.4715
 2867SOL     OW20233   3.229   2.038   3.596  0.2516 -0.2895  0.0079
 2867SOL    HW120234   3.230   2.096   3.520 -0.3954 -1.3890 -0.8415
 2867SOL    HW220235   3.235   2.105   3.665 -2.2303  0.7450 -0.7794
 2868SOL     OW20236   2.087   4.507  16.000  0.1223  0.2017  0.0330
 2868SOL    HW120237   1.994   4.484  16.007  0.0095  0.7458  0.2728
 2868SOL    HW220238   2.108   4.524  16.092  1.0002  1.0306 -0.3146
 2869SOL     OW20239   2.819   2.003   2.504  0.2704 -0.3612 -0.4083
 2869SOL    HW120240   2.834   1.956   2.422 -0.6331 -0.4471 -0.5181
 2869SOL    HW220241   2.871   2.083   2.488 -0.7827  0.1766 -1.1424
 2870SOL     OW20242   3.902   0.993   2.337  0.1467  0.3802 -0.5234
 2870SOL    HW120243   3.975   0.951   2.383  0.7003 -0.9519 -2.6255
 2870SOL    HW220244   3.831   0.977   2.399  0.6130 -1.3846 -0.4358
 2871SOL     OW20245   4.360   3.651  14.566 -0.1906 -0.3094  0.1493
 2871SOL    HW120246   4.330   3.578  14.513 -1.9799  0.7492 -0.2979
 2871SOL    HW220247   4.427   3.618  14.626 -0.2601 -1.1961 -0.2780
 2872SOL     OW20248   4.102   0.152   5.837 -0.5309 -0.0602  0.3600
 2872SOL    HW120249   4.196   0.148   5.853 -0.3838  0.2524 -0.4000
 2872SOL    HW220250   4.063   0.097   5.904 -2.1878  1.1639  0.4072
 2873SOL     OW20251   2.721   4.631   1.962  0.5106  0.1140 -0.3655
 2873SOL    HW120252   2.739   4.602   2.052  1.4276  0.5515 -0.4072
 2873SOL    HW220253   2.782   4.703   1.944 -0.5757  0.5828 -2.0829
 2874SOL     OW20254   0.251   0.363   6.317  0.6656 -0.2226 -0.4653
 2874SOL    HW120255   0.256   0.303   6.392  0.5273  0.0230 -0.2599
 2874SOL    HW220256   0.306   0.319   6.252 -0.1837 -1.4511 -0.3666
 2875SOL     OW20257   1.053   3.034   6.970 -0.0528  0.3074 -0.7760
 2875SOL    HW120258   1.123   3.077   7.018  0.0785 -0.1050 -0.5947
 2875SOL    HW220259   1.030   2.957   7.022  0.0595 -0.4446 -1.8435
 2876SOL     OW20260   2.195   1.013   9.038 -0.0387 -0.0229  0.2077
 2876SOL    HW120261   2.141   1.056   8.972  1.8836  3.7525  1.1097
 2876SOL    HW220262   2.149   0.929   9.050 -1.6104  0.7314 -0.5528
 2877SOL     OW20263   0.379   1.714  11.611 -0.9231  0.0116  0.0320
 2877SOL    HW120264   0.356   1.805  11.633  0.3310  0.1781  0.6733
 2877SOL    HW220265   0.415   1.683  11.694 -0.1664  1.2729  0.1857
 2878SOL     OW20266   2.641   3.976   7.575 -0.1258  0.2804 -0.3602
 2878SOL    HW120267   2.733   3.948   7.575 -0.8012 -2.0156 -4.9614
 2878SOL    HW220268   2.631   4.004   7.666  1.0122  0.7133 -0.3710
 2879SOL     OW20269   1.663   3.751   2.534 -0.2314 -0.6760 -0.4005
 2879SOL    HW120270   1.643   3.830   2.484  2.0299 -0.2775 -0.6686
 2879SOL    HW220271   1.614   3.765   2.615  0.2241  1.3754 -0.4641
 2880SOL     OW20272   1.460   3.019   8.012 -0.3058 -0.5961  0.4713
 2880SOL    HW120273   1.425   2.932   7.990  0.7941 -0.4878 -1.6601
 2880SOL    HW220274   1.548   3.003   8.045  0.4629 -2.6397 -2.5584
 2881SOL     OW20275   1.013   4.587   5.433  0.4033 -0.2796  0.6654
 2881SOL    HW120276   1.064   4.628   5.502 -1.9557  0.5032  1.9229
 2881SOL    HW220277   0.955   4.653   5.397 -0.7583 -2.2244 -1.0664
 2882SOL     OW20278   1.531   2.948  10.703  0.6022 -0.5268 -0.3697
 2882SOL    HW120279   1.465   2.892  10.743  0.2468  0.2464  0.1247
 2882SOL    HW220280   1.531   3.018  10.768  0.2545 -1.8689  1.0858
 2883SOL     OW20281   3.052   1.017   8.390  0.4776 -0.1328 -0.0961
 2883SOL    HW120282   3.043   0.932   8.432  1.6732  0.7644  1.9504
 2883SOL    HW220283   2.977   1.030   8.332 -0.2746 -0.6006  0.7853
 2884SOL     OW20284   2.111   2.556   9.370 -0.3012 -0.3911 -0.4006
 2884SOL    HW120285   2.046   2.614   9.330 -0.1398  0.5083  0.6631
 2884SOL    HW220286   2.049   2.491   9.404 -2.2488 -0.6552 -4.4509
 2885SOL     OW20287   4.251   2.519   1.235  0.4607  0.5627  0.3978
 2885SOL    HW120288   4.312   2.456   1.274  0.7968  0.0787 -0.9130
 2885SOL    HW220289   4.178   2.507   1.295  1.3024  0.4428  1.3946
 2886SOL     OW20290   2.628   1.033   1.193  0.5123 -0.3243 -0.3390
 2886SOL    HW120291   2.704   1.046   1.136 -0.8361 -0.5706 -2.2069
 2886SOL    HW220292   2.553   1.061   1.140  1.5022  0.7631 -1.1369
 2887SOL     OW20293   1.989   4.542   6.436 -0.3581 -0.1424  0.1020
 2887SOL    HW120294   2.046   4.489   6.492 -0.4971 -0.4933 -0.0892
 2887SOL    HW220295   1.955   4.468   6.386 -0.7726  0.6088 -0.7123
 2888SOL     OW20296   0.341   3.921  14.789 -0.2884 -0.3830  0.2142
 2888SOL    HW120297   0.307   3.905  14.701  2.0055  0.3671 -0.8209
 2888SOL    HW220298   0.436   3.921  14.779  0.0458  0.7299  3.4342
 2889SOL     OW20299   1.282   0.077   7.000  0.3052 -0.2438 -0.6239
 2889SOL    HW120300   1.340   0.093   7.074  0.6697  1.1181 -1.2141
 2889SOL    HW220301   1.237   0.161   6.993 -1.5063 -1.0845  0.7477
 2890SOL     OW20302   1.993   1.942   8.343  0.3347  0.6034  0.3741
 2890SOL    HW120303   2.008   2.020   8.289  2.8692  0.3866  0.7433
 2890SOL    HW220304   1.921   1.906   8.291  1.3703 -0.9609  0.0158
 2891SOL     OW20305   0.824   1.413   3.217  0.1735  0.1693  0.6177
 2891SOL    HW120306   0.835   1.487   3.157  0.2600 -2.2461 -2.3460
 2891SOL    HW220307   0.774   1.353   3.161 -0.5496  0.3927  1.0236
 2892SOL     OW20308   3.059   3.834   5.095 -0.1624  0.3637  0.6182
 2892SOL    HW120309   3.109   3.916   5.097 -0.7122  0.6974  0.5118
 2892SOL    HW220310   2.990   3.847   5.160 -0.6324  1.4240 -0.1084
 2893SOL     OW20311   4.538   3.651   5.209 -0.0924  0.3970 -0.5663
 2893SOL    HW120312   4.567   3.736   5.243  2.3537 -0.3362 -0.8234
 2893SOL    HW220313   4.443   3.664   5.201 -0.1568  0.6685  0.6702
 2894SOL     OW20314   1.157   1.210   4.482  0.2655  0.4461  0.3646
 2894SOL    HW120315   1.170   1.134   4.539 -0.0750  0.7521  0.8478
 2894SOL    HW220316   1.245   1.239   4.456 -0.1899  3.1949  1.9762
 2895SOL     OW20317   2.733   1.604   8.538  0.2465 -0.2939 -0.2230
 2895SOL    HW120318   2.828   1.591   8.526 -0.2210 -2.4613 -1.5468
 2895SOL    HW220319   2.726   1.562   8.623 -2.1019  0.5709  0.0063
 2896SOL     OW20320   0.900   0.158   3.652  0.5212  0.0980 -0.0602
 2896SOL    HW120321   0.991   0.162   3.622  0.8029  0.6395  0.8521
 2896SOL    HW220322   0.913   0.189   3.742 -0.5651 -0.9612  0.4598
 2897SOL     OW20323   4.599   3.681   6.889  0.1909 -0.2117  0.1128
 2897SOL    HW120324   4.546   3.631   6.951 -0.7224  0.3294 -0.2475
 2897SOL    HW220325   4.656   3.609   6.863  2.2618  1.4369  0.0255
 2898SOL     OW20326   1.572   3.971   4.021 -0.4599  0.9812  0.1559
 2898SOL    HW120327   1.534   3.942   4.103 -1.1651  0.7387 -0.2613
 2898SOL    HW220328   1.606   3.887   3.991 -2.0873 -0.0978  1.3740
 2899SOL     OW20329   4.679   2.282  16.363  0.2307 -0.3867 -0.0490
 2899SOL    HW120330   4.652   2.355  16.418 -0.1597 -0.2806 -0.3798
 2899SOL    HW220331   4.715   2.343  16.298 -3.1897  0.4152 -1.1975
 2900SOL     OW20332   0.687   3.497  10.625  0.2723  0.5364  0.4024
 2900SOL    HW120333   0.700   3.555  10.700  0.5597 -0.3468  1.0388
 2900SOL    HW220334   0.774   3.461  10.610 -0.7034 -2.3173  1.4586
 2901SOL     OW20335   0.592   2.723   9.071  0.6907  0.0926 -0.0903
 2901SOL    HW120336   0.649   2.648   9.088  1.4390  0.8456  0.7252
 2901SOL    HW220337   0.518   2.676   9.034  0.3526  0.0584  0.6361
 2902SOL     OW20338   2.713   3.820  17.180 -0.6243  0.3641  0.2735
 2902SOL    HW120339   2.747   3.857  17.099  0.5594  0.3736  0.7761
 2902SOL    HW220340   2.624   3.808  17.147 -0.1088  0.9765 -1.3649
 2903SOL     OW20341   3.874   2.809   5.895  0.1297  0.1366 -0.0043
 2903SOL    HW120342   3.844   2.860   5.820 -0.5482 -1.2992 -0.6978
 2903SOL    HW220343   3.806   2.822   5.961 -0.7742  0.1367 -0.9429
 2904SOL     OW20344   4.010   2.802   6.300 -0.1183 -0.4552 -0.6559
 2904SOL    HW120345   4.101   2.811   6.328 -0.3858 -0.2822  0.1702
 2904SOL    HW220346   4.017   2.711   6.272  1.3553 -0.4640 -0.2646
 2905SOL     OW20347   3.952   4.154   2.670 -0.4228 -0.4352  0.1764
 2905SOL    HW120348   3.968   4.235   2.623 -0.2098  0.5514  1.9782
 2905SOL    HW220349   3.896   4.197   2.734 -0.4078 -1.6182  0.9964
 2906SOL     OW20350   0.329   1.287  14.368  0.1037 -0.0618  0.3751
 2906SOL    HW120351   0.336   1.200  14.328 -0.9095  0.0910 -0.1357
 2906SOL    HW220352   0.334   1.339  14.288  0.6608 -1.2562 -0.3588
 2907SOL     OW20353   3.963   0.136   7.726  0.1486 -0.4943  0.3964
 2907SOL    HW120354   4.038   0.115   7.782  0.2423 -1.8682 -0.2681
 2907SOL    HW220355   3.912   0.174   7.798 -1.4336  0.1693 -1.0635
 2908SOL     OW20356   3.687   1.878   2.563  0.3907 -0.4948 -0.2690
 2908SOL    HW120357   3.641   1.951   2.605  2.7796  2.2366 -2.3609
 2908SOL    HW220358   3.776   1.915   2.559 -0.1805  1.1120  2.0384
 2909SOL     OW20359   0.562   3.552  12.558 -0.7125 -0.1247  0.1394
 2909SOL    HW120360   0.586   3.604  12.634 -1.6374  1.5240 -0.6945
 2909SOL    HW220361   0.474   3.582  12.533 -0.6492  0.3994  0.5580
 2910SOL     OW20362   4.148   3.817   1.848  0.3623  0.2781 -0.4637
 2910SOL    HW120363   4.212   3.868   1.897  1.2234  1.1468 -2.4925
 2910SOL    HW220364   4.106   3.880   1.790  0.1195 -0.1610 -0.7678
 2911SOL     OW20365   0.527   1.324   6.195  0.0746 -0.0544 -0.5025
 2911SOL    HW120366   0.608   1.325   6.245 -0.0011  3.5753 -0.4630
 2911SOL    HW220367   0.478   1.261   6.248  0.4774 -1.1987 -1.4896
 2912SOL     OW20368   1.881   2.812  13.728  0.4390 -0.0474  0.3751
 2912SOL    HW120369   1.798   2.839  13.769  0.2477  0.3681 -0.2821
 2912SOL    HW220370   1.936   2.881  13.764  0.0757  0.3319  0.2067
 2913SOL     OW20371   0.529   3.104   3.088 -0.3753 -0.2525 -0.8369
 2913SOL    HW120372   0.463   3.171   3.070 -1.1078 -0.8334 -0.2500
 2913SOL    HW220373   0.536   3.060   3.003  0.6132  0.9340 -1.3798
 2914SOL     OW20374   3.940   2.265   4.112 -0.0944  0.0046 -0.2600
 2914SOL    HW120375   3.881   2.225   4.048  1.3337 -1.7877 -0.4569
 2914SOL    HW220376   3.973   2.341   4.064  2.3179  0.7218  2.5511
 2915SOL     OW20377   4.145   3.580   4.702 -0.2392 -0.1744 -0.4327
 2915SOL    HW120378   4.238   3.588   4.722 -0.3309  2.1529 -0.8673
 2915SOL    HW220379   4.120   3.662   4.745  0.6611 -0.3129  0.3487
 2916SOL     OW20380   4.268   2.771   7.719  0.3978  0.2538  0.1574
 2916SOL    HW120381   4.222   2.854   7.708 -0.7221 -0.0471  2.4712
 2916SOL    HW220382   4.194   2.711   7.710 -1.3680  2.2657  1.1749
 2917SOL     OW20383   2.551   2.664   4.097 -0.1243 -0.4343 -0.1720
 2917SOL    HW120384   2.552   2.723   4.021 -1.3691 -0.3763 -0.1412
 2917SOL    HW220385   2.576   2.575   4.071 -2.4814 -0.9856 -0.5081
 2918SOL     OW20386   1.147   2.750   7.507 -0.4747  0.1099 -0.6686
 2918SOL    HW120387   1.164   2.768   7.415  0.2786  1.1188 -0.3276
 2918SOL    HW220388   1.230   2.714   7.541 -0.5626 -0.4310 -1.0201
 2919SOL     OW20389   2.844   0.135   1.805  0.0796  0.3128  0.7293
 2919SOL    HW120390   2.859   0.225   1.779  0.2246 -0.1141 -0.6566
 2919SOL    HW220391   2.779   0.115   1.738 -1.0912  0.7885  1.7199
 2920SOL     OW20392   1.286   4.619   0.988  0.2258  0.9673  0.5561
 2920SOL    HW120393   1.264   4.600   0.897 -3.1980 -2.7098  2.1397
 2920SOL    HW220394   1.208   4.584   1.032  0.1696  0.3104 -0.0760
 2921SOL     OW20395   0.207   2.972   3.559  0.2785 -0.0908  0.2058
 2921SOL    HW120396   0.271   3.037   3.588 -0.2384 -0.1108  1.3886
 2921SOL    HW220397   0.217   2.906   3.628  0.3702 -0.3314 -0.0389
 2922SOL     OW20398   2.264   1.158   4.524  0.0215 -0.2658 -0.0627
 2922SOL    HW120399   2.349   1.200   4.516 -1.4586  2.6301 -0.4832
 2922SOL    HW220400   2.243   1.126   4.436 -2.6416 -1.3470  0.9478
 2923SOL     OW20401   3.207   0.589   7.184  0.2154 -0.1301 -0.1524
 2923SOL    HW120402   3.210   0.520   7.118  1.5013 -0.3581  0.1552
 2923SOL    HW220403   3.198   0.667   7.128 -0.5528 -1.4385 -1.8750
 2924SOL     OW20404   3.788   4.242   2.328  0.2090  0.3966 -0.2865
 2924SOL    HW120405   3.772   4.161   2.376  0.4365  0.9159  0.6555
 2924SOL    HW220406   3.871   4.223   2.284  1.3592 -0.2360  2.1858
 2925SOL     OW20407   3.260   4.479   5.255 -0.0930  0.4905  0.0168
 2925SOL    HW120408   3.353   4.481   5.237 -0.0536  0.8770  0.2700
 2925SOL    HW220409   3.242   4.573   5.252  0.3858  0.5179 -1.9817
 2926SOL     OW20410   3.145   2.002   0.396 -0.0282  0.9212 -0.3355
 2926SOL    HW120411   3.123   2.084   0.353  0.5396  0.3048 -1.7857
 2926SOL    HW220412   3.225   2.024   0.443  0.1173  1.3600 -0.7929
 2927SOL     OW20413   1.930   4.246  12.405 -0.5976  0.1626 -0.2818
 2927SOL    HW120414   1.994   4.238  12.333  0.9150  0.2553  1.0465
 2927SOL    HW220415   1.892   4.158  12.405 -1.4139  0.5174  0.1951
 2928SOL     OW20416   3.734   4.151   1.613  0.4412 -0.1649  0.4187
 2928SOL    HW120417   3.721   4.140   1.708 -1.7553  1.5019  0.3047
 2928SOL    HW220418   3.698   4.239   1.603  0.2667 -0.4304 -1.1493
 2929SOL     OW20419   2.706   2.108   5.896  0.3910  0.3867  0.4190
 2929SOL    HW120420   2.747   2.075   5.816  0.5918  1.5108  0.0539
 2929SOL    HW220421   2.619   2.138   5.869  0.7027  0.3979 -0.5458
 2930SOL     OW20422   3.289   3.472   2.988 -0.3076  0.0906 -0.1431
 2930SOL    HW120423   3.346   3.509   3.056 -0.5739 -0.2145  0.2467
 2930SOL    HW220424   3.320   3.530   2.918  0.7771 -0.1323  0.1538
 2931SOL     OW20425   1.123   1.836   1.907 -0.0736  0.3455  0.2751
 2931SOL    HW120426   1.118   1.909   1.845  1.5741  0.3800  0.1646
 2931SOL    HW220427   1.035   1.801   1.893 -0.1588  0.0384  1.6041
 2932SOL     OW20428   2.885   4.155   3.217 -0.1987 -0.2382 -0.0681
 2932SOL    HW120429   2.797   4.134   3.250 -0.4487 -0.1316 -0.6619
 2932SOL    HW220430   2.901   4.069   3.180  1.5063 -0.4302  1.1326
 2933SOL     OW20431   3.283   2.861  11.449  0.4259  0.0914  0.4129
 2933SOL    HW120432   3.203   2.913  11.443  1.3732  1.2124 -2.3627
 2933SOL    HW220433   3.331   2.886  11.370 -0.1413 -1.8102 -0.5403
 2934SOL     OW20434   1.814   2.530   3.612  0.5148 -0.5115  0.0571
 2934SOL    HW120435   1.739   2.581   3.641 -0.6723 -1.3488 -1.5303
 2934SOL    HW220436   1.789   2.502   3.523 -0.3807 -0.9489  0.4505
 2935SOL     OW20437   0.255   4.397  10.225  0.3282  0.1323  1.3520
 2935SOL    HW120438   0.184   4.461  10.225  1.3230  1.2302  1.6215
 2935SOL    HW220439   0.310   4.430  10.155 -1.5683  0.8761  0.2035
 2936SOL     OW20440   4.147   1.010   2.532  0.0505 -0.2397 -0.6350
 2936SOL    HW120441   4.141   0.915   2.544 -3.1290  0.4598  3.1153
 2936SOL    HW220442   4.237   1.030   2.557  0.3746 -1.7502 -0.6204
 2937SOL     OW20443   4.305   3.054   4.188 -0.2917 -0.4839  0.4384
 2937SOL    HW120444   4.290   2.973   4.236 -0.6104 -0.1749  0.8603
 2937SOL    HW220445   4.225   3.101   4.211  0.6420  1.2252  0.2201
 2938SOL     OW20446   0.253   0.191   2.606 -0.1988  0.1710  0.3493
 2938SOL    HW120447   0.245   0.109   2.557 -1.1151  1.6906 -2.0796
 2938SOL    HW220448   0.165   0.215   2.635 -1.1418 -0.7106 -1.7377
 2939SOL     OW20449   1.598   3.633   7.454 -0.0026  0.6424  0.5546
 2939SOL    HW120450   1.679   3.583   7.446  0.0637  0.9974 -0.9669
 2939SOL    HW220451   1.633   3.717   7.425  0.7232 -0.0532 -0.6034
 2940SOL     OW20452   0.277   2.739  12.702  0.5332 -0.4301  0.1883
 2940SOL    HW120453   0.309   2.651  12.680  1.8695 -0.2015  1.2216
 2940SOL    HW220454   0.246   2.722  12.791 -0.6299  0.0424 -0.1208
 2941SOL     OW20455   4.329   0.074   1.165 -0.1389  0.1517  0.0841
 2941SOL    HW120456   4.328   0.076   1.070  1.1868 -0.6608  0.0518
 2941SOL    HW220457   4.235   0.070   1.182 -0.4269  2.0475 -1.0714
 2942SOL     OW20458   2.755   3.207   6.700 -0.5799  0.4342 -0.0738
 2942SOL    HW120459   2.757   3.112   6.687  2.3121  0.7384 -1.8429
 2942SOL    HW220460   2.690   3.217   6.769  2.1994 -0.2605  2.6293
 2943SOL     OW20461   2.753   2.829   2.380  0.0906  0.1441  0.5054
 2943SOL    HW120462   2.755   2.917   2.341 -1.6217 -0.4357 -0.8916
 2943SOL    HW220463   2.658   2.818   2.386  0.2481 -1.1173  0.5736
 2944SOL     OW20464   4.398   0.742  12.730  0.5410 -0.3110  0.2237
 2944SOL    HW120465   4.441   0.774  12.810 -2.6678 -0.7943  2.1152
 2944SOL    HW220466   4.471   0.752  12.669 -0.3935  1.2359 -0.6470
 2945SOL     OW20467   0.230   0.637   3.367 -0.8771 -0.3835 -0.1530
 2945SOL    HW120468   0.183   0.720   3.364 -0.4339 -0.2486 -3.0537
 2945SOL    HW220469   0.161   0.579   3.334  0.9326 -1.5215 -1.9022
 2946SOL     OW20470   0.449   2.475   0.885  0.0170  0.0810  0.1762
 2946SOL    HW120471   0.474   2.461   0.793 -1.3559  1.7418 -0.4438
 2946SOL    HW220472   0.436   2.569   0.895  0.2121  0.0101  1.0963
 2947SOL     OW20473   2.869   1.435   4.699  0.0791 -0.8370 -0.1009
 2947SOL    HW120474   2.887   1.456   4.791 -0.0777  0.2300 -0.3143
 2947SOL    HW220475   2.947   1.470   4.655 -1.6846  0.5684 -2.1067
 2948SOL     OW20476   2.410   4.422   5.621 -0.2971  0.0400 -0.2483
 2948SOL    HW120477   2.456   4.468   5.551 -0.1283  0.8981  0.4339
 2948SOL    HW220478   2.464   4.345   5.639  0.3217  0.1932 -1.4287
 2949SOL     OW20479   2.664   3.109   4.464  0.0882 -0.1174 -0.5115
 2949SOL    HW120480   2.755   3.109   4.494  0.0329 -1.2290 -0.3490
 2949SOL    HW220481   2.617   3.073   4.540  0.2784  0.1806 -0.2509
 2950SOL     OW20482   0.346   3.788   4.093  0.2911  0.2165  0.5510
 2950SOL    HW120483   0.376   3.869   4.134 -0.5828  0.7484  0.1545
 2950SOL    HW220484   0.253   3.813   4.087  0.5631  0.6656 -1.5468
 2951SOL     OW20485   3.137   0.934   6.919 -0.4342 -0.0099  0.1271
 2951SOL    HW120486   3.199   0.930   6.992 -2.6206 -2.6883  1.8240
 2951SOL    HW220487   3.203   0.931   6.849 -1.5540  3.0678 -1.0705
 2952SOL     OW20488   2.518   1.982   4.898 -0.7854  1.0243  0.3573
 2952SOL    HW120489   2.429   1.957   4.923  0.4171 -1.3469  2.1507
 2952SOL    HW220490   2.558   1.953   4.980 -0.5194 -0.1008 -0.1827
 2953SOL     OW20491   2.512   1.658  16.170  0.0461 -0.5084 -0.4928
 2953SOL    HW120492   2.469   1.585  16.216  0.2211  0.0207  0.5177
 2953SOL    HW220493   2.451   1.667  16.096 -1.2894  1.7096  0.8510
 2954SOL     OW20494   2.299   1.960   2.897 -0.2708  0.0551 -0.2981
 2954SOL    HW120495   2.235   1.889   2.895  1.6634 -1.7494  1.1171
 2954SOL    HW220496   2.306   1.956   2.992 -3.0706 -1.5288 -0.1651
 2955SOL     OW20497   0.437   1.749   2.702 -0.1432 -0.0811 -0.2455
 2955SOL    HW120498   0.360   1.694   2.684  0.0576 -0.2882 -0.4667
 2955SOL    HW220499   0.404   1.838   2.712  2.8937  1.0357 -0.3483
 2956SOL     OW20500   2.473   2.588   3.558  0.1135  0.2307  0.0363
 2956SOL    HW120501   2.423   2.598   3.639  2.4167  2.2847  1.2220
 2956SOL    HW220502   2.423   2.520   3.514 -0.0085  0.8460 -0.7609
 2957SOL     OW20503   0.094   3.590  14.793  0.0209  0.4061 -0.2691
 2957SOL    HW120504   0.104   3.573  14.886 -0.3879 -2.8213 -0.8248
 2957SOL    HW220505   0.132   3.511  14.754 -0.6298 -0.6883  1.3620
 2958SOL     OW20506   0.340   3.523   0.024 -0.2080 -0.3773 -0.0170
 2958SOL    HW120507   0.429   3.502  17.750  0.0560  2.1390 -1.0601
 2958SOL    HW220508   0.338   3.618   0.010 -0.3705 -0.4563 -0.5672
 2959SOL     OW20509   1.766   1.474   4.820 -0.6454 -0.0821  0.0715
 2959SOL    HW120510   1.709   1.535   4.774  0.9564  1.4289  0.0501
 2959SOL    HW220511   1.855   1.505   4.799 -0.4061 -0.5632  0.3755
 2960SOL     OW20512   2.958   2.650  10.416  0.5566 -0.0980  0.0483
 2960SOL    HW120513   2.973   2.698  10.497  0.5966  1.4692 -0.8759
 2960SOL    HW220514   2.971   2.717  10.348  0.3359  1.7759  1.8702
 2961SOL     OW20515   3.828   2.591   8.203  0.3528 -0.0309 -0.1043
 2961SOL    HW120516   3.748   2.546   8.232  0.1941  1.2085  1.4086
 2961SOL    HW220517   3.814   2.670   8.256 -1.1021 -0.2663 -0.1427
 2962SOL     OW20518   3.070   2.930   7.419  0.6738 -0.3443  0.5219
 2962SOL    HW120519   2.974   2.934   7.416  0.7804  1.7695  0.1626
 2962SOL    HW220520   3.101   2.846   7.384  0.3133 -0.8621  1.4667
 2963SOL     OW20521   1.232   0.700   3.485 -0.0315  0.0170  0.3847
 2963SOL    HW120522   1.178   0.725   3.410  0.6318 -2.1639 -0.8029
 2963SOL    HW220523   1.283   0.631   3.444 -0.7968 -1.9266  2.6944
 2964SOL     OW20524   0.786   3.257   2.423 -0.1152  0.3381 -0.0771
 2964SOL    HW120525   0.761   3.288   2.336 -0.4692  1.2503  0.3517
 2964SOL    HW220526   0.872   3.294   2.445 -0.9074 -0.3527  4.1403
 2965SOL     OW20527   0.961   0.861   9.114 -0.5880 -0.1743 -0.1555
 2965SOL    HW120528   0.957   0.799   9.187 -1.0631  1.0799  0.8703
 2965SOL    HW220529   1.003   0.935   9.158 -1.8965  0.7553 -0.4777
 2966SOL     OW20530   3.001   2.452   6.340 -0.1377  0.2921 -0.3460
 2966SOL    HW120531   3.075   2.441   6.400  1.1537  1.4537 -1.7218
 2966SOL    HW220532   3.018   2.543   6.315  0.3223  0.2548 -0.1711
 2967SOL     OW20533   4.027   3.199  11.300  0.5846  0.3907  0.3841
 2967SOL    HW120534   3.933   3.205  11.281  0.2898 -1.1958  1.2754
 2967SOL    HW220535   4.056   3.277  11.254  0.4257  0.6555  0.7392
 2968SOL     OW20536   3.859   1.662   4.335 -0.3188 -0.1595 -0.9063
 2968SOL    HW120537   3.787   1.721   4.316 -0.5932  0.4631  2.2065
 2968SOL    HW220538   3.846   1.607   4.257  1.3368  0.9532 -1.9795
 2969SOL     OW20539   1.639   1.210   1.872 -0.2153 -0.0716 -0.2935
 2969SOL    HW120540   1.648   1.148   1.800  0.3009 -0.5831  0.2033
 2969SOL    HW220541   1.545   1.221   1.866 -0.4917 -0.5490  3.2261
 2970SOL     OW20542   3.607   0.000   1.633  0.3760 -0.6086 -0.4901
 2970SOL    HW120543   3.512   0.011   1.645  0.3120 -1.2002 -0.4716
 2970SOL    HW220544   3.633   0.084   1.596  1.9803 -1.0058 -0.2620
 2971SOL     OW20545   2.482   3.688  11.450  0.9806  0.3220 -0.3031
 2971SOL    HW120546   2.403   3.742  11.437  0.3470 -0.9173 -1.5666
 2971SOL    HW220547   2.551   3.743  11.412  2.3797 -1.9225 -0.9691
 2972SOL     OW20548   3.572   2.960  12.600 -0.2535 -0.0230 -0.1017
 2972SOL    HW120549   3.601   2.951  12.510  1.0751 -2.8615  0.6029
 2972SOL    HW220550   3.479   2.940  12.591 -0.1393 -1.0033  0.8831
 2973SOL     OW20551   0.751   1.391   5.837  0.3146 -0.2253 -0.2498
 2973SOL    HW120552   0.762   1.472   5.886 -1.8105  0.2925 -0.6714
 2973SOL    HW220553   0.844   1.371   5.824  0.6117  0.4410  0.8421
 2974SOL     OW20554   0.510   3.171   8.971 -0.0813  0.0436  0.6197
 2974SOL    HW120555   0.566   3.096   8.952 -0.2365  0.0717  0.0533
 2974SOL    HW220556   0.426   3.129   8.988 -0.7507  1.5803  1.1485
 2975SOL     OW20557   4.183   1.626  13.755 -0.1786 -0.1375 -0.5726
 2975SOL    HW120558   4.139   1.679  13.688 -1.7873 -0.4369  0.2380
 2975SOL    HW220559   4.266   1.615  13.709  1.3566  2.4414  1.6060
 2976SOL     OW20560   3.454   1.503  11.714 -0.0581  0.1692  0.4835
 2976SOL    HW120561   3.482   1.527  11.802  0.6825 -0.5493  0.4508
 2976SOL    HW220562   3.536   1.503  11.664 -0.2264 -0.8042  0.1963
 2977SOL     OW20563   1.856   1.499   2.782  0.0994  0.4683  0.2264
 2977SOL    HW120564   1.788   1.489   2.716 -0.2638 -3.5586  1.1619
 2977SOL    HW220565   1.845   1.588   2.814  0.0388  0.7984 -0.7071
 2978SOL     OW20566   1.784   2.991   0.842  0.5646  0.1760 -0.3635
 2978SOL    HW120567   1.745   2.910   0.875 -0.4225 -0.3033 -2.6679
 2978SOL    HW220568   1.717   3.057   0.857 -0.3713 -0.5065 -1.5503
 2979SOL     OW20569   4.386   2.198  13.562  0.2755 -0.4221 -0.5908
 2979SOL    HW120570   4.396   2.165  13.473 -0.1038  2.2904 -1.6335
 2979SOL    HW220571   4.342   2.282  13.548  0.3635 -0.6407 -2.1609
 2980SOL     OW20572   1.306   2.956   3.946  0.0225  0.0364  0.5015
 2980SOL    HW120573   1.332   3.045   3.925 -0.8803 -0.1692 -1.4235
 2980SOL    HW220574   1.214   2.973   3.966  0.1626  0.9606  0.3507
 2981SOL     OW20575   4.445   0.599   4.873  0.3056 -0.2169 -0.2221
 2981SOL    HW120576   4.425   0.688   4.845  1.2005  0.1214  0.2025
 2981SOL    HW220577   4.526   0.574   4.829 -0.3306  0.0384 -1.5168
 2982SOL     OW20578   2.981   2.348  17.387  0.0449 -0.0990 -0.1219
 2982SOL    HW120579   3.038   2.301  17.447 -1.4967 -2.3089 -0.3873
 2982SOL    HW220580   3.038   2.414  17.349 -2.7472  2.0136 -0.6425
 2983SOL     OW20581   4.265   2.372   7.178 -0.5035  0.1476 -0.5388
 2983SOL    HW120582   4.240   2.455   7.218 -1.3326  2.2847 -5.4959
 2983SOL    HW220583   4.189   2.356   7.123  0.4848  2.3431 -2.5543
 2984SOL     OW20584   3.429   3.080   1.894  0.1758  0.1931  0.0120
 2984SOL    HW120585   3.457   3.130   1.971 -0.9357  1.0120 -0.1128
 2984SOL    HW220586   3.379   3.143   1.842 -1.4739 -1.1508 -0.0415
 2985SOL     OW20587   2.755   4.693   8.347 -0.2849 -0.1499 -0.0908
 2985SOL    HW120588   2.804   0.027   8.309 -0.8507 -0.8340 -2.1595
 2985SOL    HW220589   2.677   0.002   8.372  0.1435 -1.1280  3.1031
 2986SOL     OW20590   2.032   2.863   6.106  0.2516  0.1874  0.0051
 2986SOL    HW120591   1.995   2.949   6.086 -0.1018  0.2018  0.7101
 2986SOL    HW220592   1.952   2.812   6.091  0.2262  0.7907 -1.9077
 2987SOL     OW20593   2.858   4.404   9.166  0.3936 -0.5479 -0.0280
 2987SOL    HW120594   2.831   4.418   9.075  2.6679  2.5813 -0.2093
 2987SOL    HW220595   2.784   4.350   9.194 -0.2788 -0.1764 -1.0865
 2988SOL     OW20596   4.324   0.038   2.614 -0.3648  0.4180  0.1862
 2988SOL    HW120597   4.383   0.056   2.687 -2.1249 -0.0252  1.7250
 2988SOL    HW220598   4.378   0.067   2.541 -0.4985  1.1625  0.3829
 2989SOL     OW20599   1.892   4.129   6.522 -0.4932  0.3949  0.1158
 2989SOL    HW120600   1.799   4.110   6.528  0.0753 -2.8876 -1.4151
 2989SOL    HW220601   1.926   4.097   6.606 -2.3796  0.1243  0.7849
 2990SOL     OW20602   4.632   3.873   7.560 -0.2290  0.4094 -0.0198
 2990SOL    HW120603   4.715   3.868   7.607  0.6381  1.3822 -1.4840
 2990SOL    HW220604   4.596   3.789   7.589  2.0434 -0.1246  1.2775
 2991SOL     OW20605   0.882   0.866   3.936 -0.0060  0.4863  0.2485
 2991SOL    HW120606   0.840   0.941   3.894 -2.3373 -0.3640  1.0569
 2991SOL    HW220607   0.948   0.912   3.988  0.2666  0.2927  0.0739
 2992SOL     OW20608   3.590   0.085   8.025 -0.3885  0.3023 -0.8783
 2992SOL    HW120609   3.649   0.068   8.098 -0.5078  0.6558 -0.7002
 2992SOL    HW220610   3.605   0.003   7.978  0.2688  1.0552 -2.0089
 2993SOL     OW20611   0.033   3.932  13.976 -0.6532  0.1635 -0.1342
 2993SOL    HW120612   0.050   3.860  13.915 -0.5727 -0.3188  0.4654
 2993SOL    HW220613   4.696   3.887  14.013 -0.4783  0.9990  1.2260
 2994SOL     OW20614   2.793   2.835   2.971  0.0393  0.0712 -0.2637
 2994SOL    HW120615   2.791   2.875   2.884  0.6786 -0.1216 -0.3664
 2994SOL    HW220616   2.709   2.872   2.998  1.0324  1.0646  1.4756
 2995SOL     OW20617   1.505   0.037  10.131  0.1566  0.0335 -0.2006
 2995SOL    HW120618   1.489   0.008  10.221  1.1837 -1.1096 -0.3885
 2995SOL    HW220619   1.482   4.699  10.079  2.3022 -1.0249  0.4251
 2996SOL     OW20620   2.405   1.861   5.270 -0.2415  0.0064  0.0064
 2996SOL    HW120621   2.354   1.849   5.350 -0.6563 -0.1481 -0.2800
 2996SOL    HW220622   2.491   1.837   5.305 -0.0519  0.7783  0.0602
 2997SOL     OW20623   1.666   4.083   2.150  0.1076 -0.0392  0.1585
 2997SOL    HW120624   1.717   4.010   2.117  1.3022  0.4855  0.8123
 2997SOL    HW220625   1.586   4.080   2.098  0.4126  1.2935 -0.3938
 2998SOL     OW20626   2.482   2.086   6.229  0.0218 -0.2761 -0.0983
 2998SOL    HW120627   2.495   2.177   6.203  0.1898  0.0150  0.9668
 2998SOL    HW220628   2.570   2.050   6.217  0.1278  0.0422 -0.2846
 2999SOL     OW20629   3.776   4.535  10.373 -0.1894  0.1570  0.5986
 2999SOL    HW120630   3.769   4.518  10.279 -0.6211  1.3544  0.4229
 2999SOL    HW220631   3.726   4.466  10.417 -2.1557  0.3378 -1.3205
 3000SOL     OW20632   4.095   1.564   9.680 -0.3172  0.2398 -0.0813
 3000SOL    HW120633   4.069   1.572   9.772  2.7562 -0.2111  0.8366
 3000SOL    HW220634   4.183   1.529   9.695 -0.4327  1.1685  2.7887
 3001SOL     OW20635   0.187   3.365  10.331 -0.0154 -0.1611  0.1116
 3001SOL    HW120636   0.124   3.342  10.400 -2.1332 -0.8815 -2.0777
 3001SOL    HW220637   0.267   3.346  10.379  1.1948 -0.6546 -2.1252
 3002SOL     OW20638   1.283   0.243   4.050 -0.2778  0.0160 -0.6423
 3002SOL    HW120639   1.227   0.197   4.112  0.5369 -0.4657 -0.2603
 3002SOL    HW220640   1.295   0.176   3.982 -2.4853  0.4827 -1.4814
 3003SOL     OW20641   1.566   0.852  12.365 -0.2649 -0.2440 -1.0450
 3003SOL    HW120642   1.593   0.809  12.284 -1.3353 -0.5427 -1.2364
 3003SOL    HW220643   1.630   0.923  12.363  0.2332 -0.5991  1.9298
 3004SOL     OW20644   2.091   2.709   4.594  0.0729  0.0541  0.2914
 3004SOL    HW120645   2.122   2.638   4.650  1.6662 -0.1521 -0.8607
 3004SOL    HW220646   2.049   2.777   4.647  1.1477  0.8253  0.1466
 3005SOL     OW20647   0.253   1.055  10.291 -0.1777 -0.2133  0.5959
 3005SOL    HW120648   0.323   1.014  10.240 -0.2970 -1.8410  1.7449
 3005SOL    HW220649   0.271   1.007  10.372 -0.5491 -0.7054  0.3851
 3006SOL     OW20650   3.370   3.242   8.581  0.4974  0.1638 -0.7867
 3006SOL    HW120651   3.413   3.246   8.667  0.7202  0.2432 -0.9016
 3006SOL    HW220652   3.428   3.300   8.531  0.4719 -0.8337 -1.9860
 3007SOL     OW20653   1.896   1.064  12.724  0.1889 -0.0597  0.7172
 3007SOL    HW120654   1.839   1.096  12.794  0.4340 -1.7525  1.7108
 3007SOL    HW220655   1.884   0.969  12.724 -4.4295  0.4991  1.8800
 3008SOL     OW20656   3.577   0.915   7.654 -0.2589  0.2191  0.1560
 3008SOL    HW120657   3.649   0.911   7.590 -0.6705  1.4189 -0.3769
 3008SOL    HW220658   3.603   0.985   7.714  1.4454  0.2231 -0.5855
 3009SOL     OW20659   0.015   1.324   3.809 -0.1182 -0.1807 -0.2439
 3009SOL    HW120660   4.687   1.273   3.855 -1.5150  0.7012 -1.3246
 3009SOL    HW220661   0.082   1.333   3.877 -0.0704  0.6057 -0.3941
 3010SOL     OW20662   0.304   1.050   2.873  0.0715  0.1375 -0.3807
 3010SOL    HW120663   0.255   1.036   2.792  0.5285 -2.3963 -0.2031
 3010SOL    HW220664   0.241   1.092   2.933  0.2374 -2.9647  1.9788
 3011SOL     OW20665   1.698   1.965  14.093 -0.7144  0.1247 -0.1852
 3011SOL    HW120666   1.767   1.949  14.158  0.3331  1.0243 -1.0684
 3011SOL    HW220667   1.659   1.878  14.095  0.8929 -0.5748  0.9225
 3012SOL     OW20668   4.289   3.646   1.624 -0.3209  0.4994  0.3563
 3012SOL    HW120669   4.250   3.652   1.711 -0.3886  0.0506  0.3564
 3012SOL    HW220670   4.229   3.703   1.575 -0.4590  1.6910  1.8811
 3013SOL     OW20671   2.338   1.441  16.904  0.3414  0.1563  0.3044
 3013SOL    HW120672   2.322   1.400  16.989 -0.6841  1.2717  0.6492
 3013SOL    HW220673   2.298   1.527  16.918  1.1676  0.6204 -0.2213
 3014SOL     OW20674   2.734   1.494  12.619 -0.4960 -0.1933  0.2219
 3014SOL    HW120675   2.711   1.572  12.566 -0.3026  0.1595  0.6591
 3014SOL    HW220676   2.787   1.541  12.683  0.7063 -1.9939  0.5231
 3015SOL     OW20677   1.289   2.418   4.611  0.3031  0.0862  0.0235
 3015SOL    HW120678   1.235   2.479   4.560  0.2732  0.4779  0.5251
 3015SOL    HW220679   1.374   2.426   4.569  1.1457  0.4089  1.8064
 3016SOL     OW20680   2.670   4.583   7.295  0.9213  0.2482 -0.6130
 3016SOL    HW120681   2.742   4.625   7.342  1.2386 -0.7277 -0.2278
 3016SOL    HW220682   2.640   4.518   7.359  0.9753 -0.4283 -1.2754
 3017SOL     OW20683   1.795   3.993   4.433  0.4320 -0.1189  0.2081
 3017SOL    HW120684   1.790   3.924   4.368 -1.3308  0.6545 -0.4781
 3017SOL    HW220685   1.714   4.040   4.411 -0.7339 -0.3709  3.8776
 3018SOL     OW20686   2.118   4.240   8.824 -0.1572  0.7762 -0.0460
 3018SOL    HW120687   2.150   4.305   8.886 -1.3427  0.7208  0.6265
 3018SOL    HW220688   2.127   4.297   8.747  0.3513  2.5376  1.3169
 3019SOL     OW20689   0.987   0.012  13.540 -0.6230  0.1516 -0.2055
 3019SOL    HW120690   0.897   0.032  13.515 -0.4870 -0.1335 -0.9126
 3019SOL    HW220691   1.043   0.085  13.513 -0.1278 -0.0534  0.2547
 3020SOL     OW20692   3.018   1.133   7.312 -0.1105  0.3147 -0.5519
 3020SOL    HW120693   3.057   1.205   7.363 -1.3122  1.4853 -1.2843
 3020SOL    HW220694   3.064   1.155   7.231  1.5209 -0.4640  0.1584
 3021SOL     OW20695   3.585   3.902  13.796  0.0070  0.2673 -0.0094
 3021SOL    HW120696   3.674   3.878  13.771 -0.3218  0.9329 -1.8349
 3021SOL    HW220697   3.571   3.840  13.867 -3.8646  2.0374  0.7824
 3022SOL     OW20698   2.655   2.912  11.862  0.0977  0.2840 -0.1038
 3022SOL    HW120699   2.688   2.860  11.936  2.8206  0.0061 -1.5306
 3022SOL    HW220700   2.640   2.990  11.917  0.4066  0.3808 -0.1584
 3023SOL     OW20701   3.776   3.436   5.793  0.1102  0.4818  0.2972
 3023SOL    HW120702   3.786   3.483   5.876 -2.6964 -1.2629  1.5874
 3023SOL    HW220703   3.862   3.394   5.785  0.1507  0.5805  0.2148
 3024SOL     OW20704   2.813   1.246   7.560 -0.0145  0.4515  0.2617
 3024SOL    HW120705   2.880   1.234   7.493 -1.6319  0.7515 -1.4310
 3024SOL    HW220706   2.866   1.244   7.639  0.4655  0.3017 -0.0610
 3025SOL     OW20707   3.699   1.408  17.233 -0.1254 -0.5306  0.1778
 3025SOL    HW120708   3.727   1.480  17.177 -1.5528  0.3226  0.5383
 3025SOL    HW220709   3.769   1.385  17.294 -0.4115  0.5546  0.9151
 3026SOL     OW20710   0.764   4.320   7.620 -0.1225 -0.1398  0.6929
 3026SOL    HW120711   0.813   4.243   7.650  0.9799  0.9083  1.5824
 3026SOL    HW220712   0.701   4.284   7.558 -1.2091  1.3113  0.9690
 3027SOL     OW20713   4.680   4.356   2.647  0.5527  0.3301 -0.0790
 3027SOL    HW120714   4.614   4.355   2.578  0.1750  0.5322  0.2758
 3027SOL    HW220715   0.028   4.345   2.608  2.0344  0.4087  3.2168
 3028SOL     OW20716   0.410   3.040   6.867  0.4004 -0.2958 -0.0668
 3028SOL    HW120717   0.459   2.994   6.935 -0.9788 -1.0174  0.4436
 3028SOL    HW220718   0.479   3.047   6.802 -1.4039  0.0042 -1.9400
 3029SOL     OW20719   3.409   4.361   6.273  0.1140  0.4074 -0.6379
 3029SOL    HW120720   3.403   4.397   6.185  1.1737  0.5535 -0.6490
 3029SOL    HW220721   3.456   4.433   6.315  1.2407 -0.9504  0.4315
 3030SOL     OW20722   3.466   3.875   1.567 -0.5045  0.0555  0.1802
 3030SOL    HW120723   3.528   3.804   1.582  0.0563  0.6323  0.6123
 3030SOL    HW220724   3.505   3.934   1.503 -0.6515 -0.4036 -0.3340
 3031SOL     OW20725   0.155   0.350   7.442  0.3804 -0.1338 -0.1652
 3031SOL    HW120726   0.227   0.404   7.410  0.9002 -0.3944  0.5720
 3031SOL    HW220727   0.092   0.405   7.488  0.2449  1.5923 -2.3851
 3032SOL     OW20728   1.802   4.525  14.061 -0.2356 -0.1736  0.3091
 3032SOL    HW120729   1.750   4.449  14.088  1.9326 -1.4173  1.0035
 3032SOL    HW220730   1.734   4.570  14.011 -0.3806 -0.1336  0.5451
 3033SOL     OW20731   4.079   3.857   8.140 -0.5833 -0.5181  0.1898
 3033SOL    HW120732   4.160   3.860   8.190  0.4130 -2.5805 -1.3114
 3033SOL    HW220733   4.023   3.895   8.208  0.4500  1.6604 -0.1821
 3034SOL     OW20734   1.649   2.667   7.308 -0.5915 -0.0963 -0.4833
 3034SOL    HW120735   1.641   2.580   7.347 -0.0824  0.6859  1.3854
 3034SOL    HW220736   1.681   2.712   7.387 -0.0621 -2.5184  0.6873
 3035SOL     OW20737   3.199   2.074  13.588  0.3148 -0.0280  0.2584
 3035SOL    HW120738   3.107   2.095  13.601  0.4452 -0.8363  2.5403
 3035SOL    HW220739   3.187   1.987  13.550 -0.5124 -0.5208  1.6673
 3036SOL     OW20740   4.465   2.122   1.749 -0.3225  0.0636 -0.2322
 3036SOL    HW120741   4.508   2.045   1.786 -1.7433 -0.1324  0.9982
 3036SOL    HW220742   4.428   2.159   1.829 -1.5048 -1.9191  0.1456
 3037SOL     OW20743   0.304   4.604   7.300  0.3109  0.7801 -0.2759
 3037SOL    HW120744   0.286   4.617   7.207 -0.2563  1.8999 -0.0070
 3037SOL    HW220745   0.265   4.687   7.327 -1.3911 -1.4648  4.1861
 3038SOL     OW20746   0.167   1.460  11.595  0.4667 -0.1584 -0.5065
 3038SOL    HW120747   0.236   1.520  11.563  0.4996 -1.4554 -2.8602
 3038SOL    HW220748   0.217   1.388  11.633  0.0109 -0.1421  0.1182
 3039SOL     OW20749   3.881   1.778   4.749  0.3815 -0.5651  0.4718
 3039SOL    HW120750   3.926   1.765   4.666 -1.8674  2.3672 -1.2286
 3039SOL    HW220751   3.931   1.715   4.801  0.8094 -0.5275  0.1097
 3040SOL     OW20752   3.464   1.369   0.265  0.4930  0.5273 -0.0754
 3040SOL    HW120753   3.393   1.420   0.226  1.1632 -1.0989 -3.4756
 3040SOL    HW220754   3.534   1.383   0.202  0.5929  0.2397 -0.0311
 3041SOL     OW20755   0.681   4.425  15.262  0.3236 -0.5388 -0.1211
 3041SOL    HW120756   0.658   4.420  15.170  0.0737  0.2065 -0.0960
 3041SOL    HW220757   0.775   4.411  15.250  0.2841 -0.9439  0.0464
 3042SOL     OW20758   2.918   4.081   1.782 -0.1318  0.3076 -0.1178
 3042SOL    HW120759   2.905   3.994   1.821  1.6412  0.6474  1.2322
 3042SOL    HW220760   3.003   4.102   1.820 -0.7585  0.6471  1.1080
 3043SOL     OW20761   0.976   2.993   9.300 -0.0569 -0.2994  0.3688
 3043SOL    HW120762   1.014   3.034   9.222 -0.6272 -1.8351 -0.7133
 3043SOL    HW220763   0.998   3.054   9.370  0.5369 -0.4809  0.3450
 3044SOL     OW20764   0.552   0.476   1.758 -0.1873 -0.0112  0.0988
 3044SOL    HW120765   0.617   0.428   1.810 -0.4926 -2.2505 -1.5902
 3044SOL    HW220766   0.611   0.538   1.715  0.5965 -0.5884  0.3447
 3045SOL     OW20767   1.909   3.227   5.074  0.2403  0.7974 -0.2000
 3045SOL    HW120768   1.954   3.203   4.994 -0.3584 -2.2974  0.3796
 3045SOL    HW220769   1.987   3.220   5.129 -1.7036  0.1193  2.4673
 3046SOL     OW20770   1.890   3.849  17.649  0.0626 -0.6294 -0.2024
 3046SOL    HW120771   1.824   3.876  17.713 -0.9507 -0.8322 -1.1599
 3046SOL    HW220772   1.864   3.897  17.570 -2.0272  0.6838  1.3015
 3047SOL     OW20773   2.713   0.185   7.484 -0.3084  0.1687  0.1841
 3047SOL    HW120774   2.662   0.242   7.426  0.7942  1.0853  0.1153
 3047SOL    HW220775   2.767   0.156   7.411 -0.6062 -3.2228  1.3359
 3048SOL     OW20776   1.326   0.301   4.473  1.0849  0.4179 -0.3941
 3048SOL    HW120777   1.294   0.363   4.538  0.5175 -3.3351  2.9619
 3048SOL    HW220778   1.421   0.313   4.472  1.1880 -0.5734 -1.7982
 3049SOL     OW20779   3.082   1.204   7.060 -0.1354 -0.2771 -0.0280
 3049SOL    HW120780   3.136   1.193   6.982 -0.0061 -1.1216  0.1847
 3049SOL    HW220781   2.989   1.195   7.037 -0.1005  0.7937 -0.5859
 3050SOL     OW20782   2.962   0.029   6.584  0.2361  0.6064 -0.1342
 3050SOL    HW120783   2.915   0.094   6.532 -1.3351  0.0889  0.6317
 3050SOL    HW220784   3.046   0.030   6.538 -0.6193 -1.0801 -1.7404
 3051SOL     OW20785   1.444   2.369  11.798  0.1238  0.3508 -0.2627
 3051SOL    HW120786   1.454   2.396  11.707  0.9712 -1.3354 -0.6766
 3051SOL    HW220787   1.394   2.287  11.789 -1.3021  1.0275  1.6954
 3052SOL     OW20788   0.228   1.476   6.484  0.2160  0.0030 -0.2254
 3052SOL    HW120789   0.185   1.523   6.556 -2.0073  0.9505 -2.1589
 3052SOL    HW220790   0.286   1.415   6.529 -0.9598 -0.3908  0.7522
 3053SOL     OW20791   0.494   1.807  11.258  0.4006 -0.4239 -0.0903
 3053SOL    HW120792   0.566   1.849  11.304  1.8627 -1.6951 -1.2158
 3053SOL    HW220793   0.431   1.870  11.293 -1.0550 -2.5001  1.0723
 3054SOL     OW20794   1.900   2.032   6.652 -0.4490  0.0189  0.0279
 3054SOL    HW120795   1.868   2.119   6.676 -0.1617  0.6731 -1.9814
 3054SOL    HW220796   1.829   1.998   6.599 -0.1072 -1.3514  0.4433
 3055SOL     OW20797   0.875   4.142   6.782  0.4848 -0.1118 -0.2644
 3055SOL    HW120798   0.929   4.133   6.861 -0.9137 -0.4963  0.6424
 3055SOL    HW220799   0.897   4.226   6.742 -3.0456  0.4365 -1.0503
 3056SOL     OW20800   0.631   3.471   0.722 -0.2082  0.7775 -0.1511
 3056SOL    HW120801   0.623   3.376   0.720  0.0036  0.7779 -1.2721
 3056SOL    HW220802   0.691   3.505   0.655  1.2281 -2.2520 -0.4100
 3057SOL     OW20803   1.440   0.880   2.849  0.0015 -0.4776  0.4298
 3057SOL    HW120804   1.517   0.920   2.809 -0.8831 -2.0110 -2.8374
 3057SOL    HW220805   1.458   0.787   2.838  0.7362 -0.1329 -1.3049
 3058SOL     OW20806   0.678   1.957  10.379  0.2083 -0.2578 -0.5232
 3058SOL    HW120807   0.694   1.877  10.329 -1.2485 -2.0340  1.9106
 3058SOL    HW220808   0.650   1.926  10.465  1.5343  0.4393  0.1666
 3059SOL     OW20809   0.275   3.412   3.906 -0.1278  0.3455  0.0019
 3059SOL    HW120810   0.230   3.383   3.985 -0.1294  0.6576  0.1164
 3059SOL    HW220811   0.222   3.485   3.875 -1.2308  0.9308  3.2117
 3060SOL     OW20812   3.479   3.548   1.823 -0.2114 -0.4937  0.0303
 3060SOL    HW120813   3.512   3.498   1.898 -0.8851  0.3524  0.8873
 3060SOL    HW220814   3.384   3.551   1.835 -0.3021 -1.0210 -0.5288
 3061SOL     OW20815   1.257   2.005   5.245  0.6115 -0.1156 -0.0004
 3061SOL    HW120816   1.181   1.975   5.194  2.0089  1.0370 -2.7613
 3061SOL    HW220817   1.305   2.057   5.180 -1.4213  0.7656 -0.8262
 3062SOL     OW20818   4.148   4.585   4.094  0.6277 -0.0514 -0.3439
 3062SOL    HW120819   4.081   4.622   4.151  0.0232 -0.3472 -0.8545
 3062SOL    HW220820   4.140   4.489   4.101 -3.1241  0.3206  0.5987
 3063SOL     OW20821   0.986   4.712   8.998  0.4306  0.5254  0.4151
 3063SOL    HW120822   0.898   4.718   9.036 -0.0736 -0.0767 -0.6266
 3063SOL    HW220823   0.976   0.008   8.909 -0.6456  1.0398  0.7463
 3064SOL     OW20824   2.565   0.666   4.670  0.3402  0.5978  0.0521
 3064SOL    HW120825   2.598   0.577   4.658  0.1056  0.4478  0.5312
 3064SOL    HW220826   2.544   0.671   4.763  1.2069  0.6164  0.2528
 3065SOL     OW20827   3.520   1.223  17.133  0.6271  0.2185  0.2101
 3065SOL    HW120828   3.591   1.268  17.179  0.2601  1.3761 -0.3822
 3065SOL    HW220829   3.554   1.231  17.044  0.3996  2.0075  0.3025
 3066SOL     OW20830   1.085   1.338   4.751 -0.3367 -0.6024  0.3196
 3066SOL    HW120831   1.176   1.325   4.726 -0.1933  0.5302  0.2930
 3066SOL    HW220832   1.058   1.382   4.671  0.9871  0.6757  0.5808
 3067SOL     OW20833   0.328   1.269  11.691 -0.4709  0.4423 -0.3163
 3067SOL    HW120834   0.374   1.186  11.674 -0.7964  0.0736  0.5743
 3067SOL    HW220835   0.291   1.252  11.778  0.5385  0.9645  0.2175
 3068SOL     OW20836   4.677   3.481   4.456  0.2018 -0.1356  0.1300
 3068SOL    HW120837   4.687   3.485   4.551  1.5075  1.6167 -0.0646
 3068SOL    HW220838   4.709   3.393   4.436 -0.4062 -0.5124  0.8415
 3069SOL     OW20839   4.359   1.281  10.421 -0.1695  0.5063  0.2057
 3069SOL    HW120840   4.331   1.245  10.505  0.5527 -0.7633 -0.0905
 3069SOL    HW220841   4.292   1.346  10.402 -1.1428 -0.4653  0.3299
 3070SOL     OW20842   3.534   1.005   6.831  0.0301 -0.8250 -0.2447
 3070SOL    HW120843   3.519   0.943   6.760 -4.4304  0.2037 -0.2041
 3070SOL    HW220844   3.563   1.070   6.767 -1.4948 -0.1001 -0.1793
 3071SOL     OW20845   0.530   0.031   2.240 -0.4256 -0.5130 -0.0735
 3071SOL    HW120846   0.519   0.076   2.324 -1.4394 -2.0644  0.6127
 3071SOL    HW220847   0.508   0.103   2.180  1.3687  0.3520  0.3013
 3072SOL     OW20848   2.855   0.998   4.354 -0.3712 -0.7152  0.1387
 3072SOL    HW120849   2.817   1.003   4.442 -2.3018 -0.2204 -0.7175
 3072SOL    HW220850   2.784   1.011   4.292  0.6417 -0.2876 -0.9352
 3073SOL     OW20851   0.519   0.249  15.180  0.5728 -0.0382  0.0136
 3073SOL    HW120852   0.547   0.341  15.178  0.0031  0.1532  0.8228
 3073SOL    HW220853   0.522   0.235  15.275 -2.1184 -1.1446 -0.0632
 3074SOL     OW20854   1.530   0.074   9.598 -0.3910 -0.8629  0.1680
 3074SOL    HW120855   1.607   0.117   9.562 -1.6492  1.1005 -0.1542
 3074SOL    HW220856   1.518   4.729   9.553  3.2417 -0.4322 -1.5832
 3075SOL     OW20857   3.499   3.796  14.885 -0.6160  0.4344 -0.1620
 3075SOL    HW120858   3.583   3.835  14.861  0.0627 -2.0833 -1.9314
 3075SOL    HW220859   3.492   3.726  14.821 -1.7689  0.2021  0.2190
 3076SOL     OW20860   2.511   2.869  12.766  1.2018 -0.3405 -0.2319
 3076SOL    HW120861   2.560   2.884  12.686 -0.2695 -1.7207 -1.3909
 3076SOL    HW220862   2.570   2.904  12.834 -1.8700 -0.7453  2.6627
 3077SOL     OW20863   4.732   3.813   7.930  1.0118  0.6120 -0.3078
 3077SOL    HW120864   4.715   3.879   7.998  0.2746 -0.4411  0.5451
 3077SOL    HW220865   4.731   3.730   7.980  0.6678  0.7927 -0.0156
 3078SOL     OW20866   4.360   1.077   2.706  0.5220 -0.2199  0.2274
 3078SOL    HW120867   4.320   1.063   2.792  2.3259  0.2059  1.1410
 3078SOL    HW220868   4.451   1.084   2.735  1.1646  1.9039 -2.2665
 3079SOL     OW20869   1.876   2.760   7.063 -0.2468  0.0048  0.3692
 3079SOL    HW120870   1.852   2.749   6.971  0.2205  0.1829  0.2251
 3079SOL    HW220871   1.787   2.768   7.098  0.1818  0.6765  1.2969
 3080SOL     OW20872   2.108   1.031   4.722 -0.3761  0.0046 -0.1505
 3080SOL    HW120873   2.158   1.085   4.660  0.3847 -1.2112 -0.5920
 3080SOL    HW220874   2.089   0.955   4.667 -1.4687 -0.6151  1.0940
 3081SOL     OW20875   1.536   4.658   3.104 -0.0855 -0.3804  0.0865
 3081SOL    HW120876   1.479   4.727   3.139  1.6156  1.0447  0.0616
 3081SOL    HW220877   1.505   4.576   3.142 -1.4321 -0.5190 -1.3531
 3082SOL     OW20878   1.557   1.913  15.720  0.3002  0.6031  0.2513
 3082SOL    HW120879   1.525   1.979  15.659  0.5764  0.2066 -0.3353
 3082SOL    HW220880   1.646   1.896  15.689 -0.0556  1.6061 -1.3277
 3083SOL     OW20881   3.741   2.874   0.539 -0.5091  0.3776 -0.6839
 3083SOL    HW120882   3.730   2.779   0.527  0.1010 -0.0661  2.2605
 3083SOL    HW220883   3.649   2.897   0.554  0.0525  1.5877  0.8283
 3084SOL     OW20884   2.272   1.550   9.037 -0.4847 -0.1187  0.3514
 3084SOL    HW120885   2.209   1.483   9.011  1.4760 -0.8591 -2.5447
 3084SOL    HW220886   2.286   1.534   9.130 -1.9021  0.5686  0.6749
 3085SOL     OW20887   1.533   1.420   7.116 -0.3150  0.0969  0.5302
 3085SOL    HW120888   1.596   1.390   7.050 -1.7752 -2.4571  0.2930
 3085SOL    HW220889   1.539   1.514   7.101 -0.4088  0.2619  1.5082
 3086SOL     OW20890   2.577   1.502   4.410  0.3225 -0.1279  0.2886
 3086SOL    HW120891   2.600   1.549   4.490 -1.1052  0.1490  0.5407
 3086SOL    HW220892   2.535   1.580   4.373  0.5797  0.0263  0.3260
 3087SOL     OW20893   0.119   2.139  12.536 -0.3752 -0.3381  0.1276
 3087SOL    HW120894   0.078   2.198  12.473 -0.7555 -1.4052 -0.6252
 3087SOL    HW220895   0.068   2.158  12.615  0.3115  0.4349  0.3858
 3088SOL     OW20896   3.268   1.653   6.070 -0.3442  0.4685  0.2707
 3088SOL    HW120897   3.309   1.733   6.100  1.6283 -0.0287 -1.0946
 3088SOL    HW220898   3.182   1.696   6.065 -1.1495 -0.8726  2.6978
 3089SOL     OW20899   2.948   1.411   5.896 -0.4271  0.2369  0.0343
 3089SOL    HW120900   2.967   1.317   5.896  2.1483  0.7828  0.4386
 3089SOL    HW220901   2.924   1.438   5.985 -1.2603 -4.9641  1.4442
 3090SOL     OW20902   2.340   1.393   3.591  0.5533 -0.3839  0.3022
 3090SOL    HW120903   2.331   1.423   3.500 -0.4295 -0.3156  0.4267
 3090SOL    HW220904   2.304   1.305   3.581 -0.8009  0.2175 -0.1480
 3091SOL     OW20905   3.157   2.953  11.171 -0.2420 -0.4794 -0.0521
 3091SOL    HW120906   3.248   2.959  11.200 -0.1925 -1.6074  0.0064
 3091SOL    HW220907   3.173   2.953  11.077  1.3324  1.2344  0.2073
 3092SOL     OW20908   3.767   1.938   0.641  0.4681 -0.3365  0.0815
 3092SOL    HW120909   3.702   2.003   0.668 -1.1447 -2.7340  1.9543
 3092SOL    HW220910   3.846   1.988   0.664 -0.7463  0.6836  1.9892
 3093SOL     OW20911   0.269   4.234   6.278 -0.0929 -0.3162 -0.0927
 3093SOL    HW120912   0.233   4.158   6.233  0.6315  0.7786 -2.5526
 3093SOL    HW220913   0.206   4.262   6.345  0.0284  0.3870 -0.2661
 3094SOL     OW20914   2.023   0.064  16.106  0.3633  0.5521  0.2327
 3094SOL    HW120915   2.108   0.101  16.081 -0.1739  1.8690  0.3557
 3094SOL    HW220916   1.961   0.087  16.036  0.7099  1.4683  0.2280
 3095SOL     OW20917   0.129   1.422   2.910 -0.5702 -0.1171 -0.6848
 3095SOL    HW120918   0.114   1.510   2.946  1.9824 -0.5734  1.4365
 3095SOL    HW220919   0.146   1.442   2.818  1.6247  2.3494  0.2339
 3096SOL     OW20920   3.203   4.685  16.628  0.6411 -0.1870  0.0061
 3096SOL    HW120921   3.271   4.618  16.627  0.3153 -0.5521  2.1247
 3096SOL    HW220922   3.228   0.013  16.564 -1.5859  1.3164  0.7056
 3097SOL     OW20923   1.541   3.650  10.929 -0.3577  0.0895  0.1805
 3097SOL    HW120924   1.452   3.629  10.899 -0.5427  1.7996 -0.4542
 3097SOL    HW220925   1.571   3.704  10.857 -0.7717 -0.7840 -0.6516
 3098SOL     OW20926   4.067   0.185   6.611 -0.0625  0.1936 -0.4404
 3098SOL    HW120927   4.025   0.271   6.616 -0.1364  0.2635 -2.1148
 3098SOL    HW220928   4.047   0.157   6.700 -0.7380 -1.1388 -1.0117
 3099SOL     OW20929   0.231   4.611   2.768 -0.3646  0.2280 -0.3962
 3099SOL    HW120930   0.163   4.550   2.797  0.1234 -0.1779 -0.0997
 3099SOL    HW220931   0.199   4.631   2.680  1.4309  0.1380 -1.0747
 3100SOL     OW20932   3.894   2.715  14.443  0.2799  0.1394 -0.2050
 3100SOL    HW120933   3.976   2.750  14.478 -0.4694 -1.3211  3.0459
 3100SOL    HW220934   3.878   2.772  14.368  0.7317 -1.6125 -1.6407
 3101SOL     OW20935   0.755   3.123   3.251 -0.0487 -0.3387 -0.3806
 3101SOL    HW120936   0.672   3.115   3.205 -1.0942  2.3028  1.0402
 3101SOL    HW220937   0.723   3.205   3.289  0.1318  0.3045 -1.6185
 3102SOL     OW20938   3.147   1.222   4.581  0.7449 -0.4170 -0.3461
 3102SOL    HW120939   3.096   1.239   4.502  1.6045 -0.6179 -0.9424
 3102SOL    HW220940   3.079   1.192   4.641  1.3140  1.4310  1.2536
 3103SOL     OW20941   0.047   4.476  13.285 -0.0791 -0.1796  0.3487
 3103SOL    HW120942   0.130   4.430  13.289 -0.5907 -1.3093 -2.0303
 3103SOL    HW220943   0.024   4.470  13.377 -0.3588 -1.7609  0.1753
 3104SOL     OW20944   4.365   3.535   3.992 -0.1294 -0.2689  0.1913
 3104SOL    HW120945   4.350   3.587   3.914  1.0254  0.8141  0.6861
 3104SOL    HW220946   4.344   3.451   3.950  0.4753 -0.4393  0.2292
 3105SOL     OW20947   1.043   4.012   0.677 -0.3128  0.0423 -0.5457
 3105SOL    HW120948   1.032   4.065   0.598 -1.6553  0.2590 -0.2143
 3105SOL    HW220949   1.000   3.931   0.650 -0.8682  0.0271  0.3697
 3106SOL     OW20950   0.401   2.210   3.203 -0.0676 -0.5875 -0.0524
 3106SOL    HW120951   0.456   2.218   3.125  0.4288  2.3584  0.6246
 3106SOL    HW220952   0.411   2.115   3.212 -1.0363 -0.4273  2.6167
 3107SOL     OW20953   0.171   0.496   2.330  0.0389 -0.2091  0.1994
 3107SOL    HW120954   0.219   0.447   2.263  0.4664  0.3888  0.0699
 3107SOL    HW220955   0.227   0.476   2.405 -0.0680  0.6155  0.4975
 3108SOL     OW20956   3.871   0.849   9.693 -0.3240  0.0467  0.6313
 3108SOL    HW120957   3.780   0.866   9.671  0.3147  0.2220 -1.7921
 3108SOL    HW220958   3.854   0.780   9.758  2.0814  0.3515  1.5994
 3109SOL     OW20959   0.311   2.983   5.736 -0.2702 -0.5757 -0.5596
 3109SOL    HW120960   0.237   3.005   5.792  1.9773 -1.7928  2.8845
 3109SOL    HW220961   0.307   2.887   5.742  0.9997 -0.6847 -1.2968
 3110SOL     OW20962   1.767   4.708  16.771  0.3563 -0.4349 -0.1530
 3110SOL    HW120963   1.764   4.729  16.865 -1.3094 -2.5067  0.2735
 3110SOL    HW220964   1.859   4.687  16.754  0.3421 -1.0106  0.4856
 3111SOL     OW20965   2.475   2.970   3.459  0.2150 -0.3287 -0.2672
 3111SOL    HW120966   2.432   2.952   3.542  0.2961  1.6307  0.1844
 3111SOL    HW220967   2.563   2.937   3.479  0.1342 -0.1797  0.3180
 3112SOL     OW20968   4.124   4.350   8.924 -0.9665 -0.2007 -0.1098
 3112SOL    HW120969   4.124   4.444   8.944  0.5638 -0.2845  0.2897
 3112SOL    HW220970   4.200   4.327   8.871  0.5647  1.0302  1.5393
 3113SOL     OW20971   0.416   4.543  10.063 -0.4017 -0.1606  0.0782
 3113SOL    HW120972   0.426   4.535   9.969  0.4917  0.0918  0.1502
 3113SOL    HW220973   0.496   4.502  10.096 -2.1088 -2.3834  1.4572
 3114SOL     OW20974   1.343   0.271   8.251 -0.4818 -0.0258  0.8285
 3114SOL    HW120975   1.433   0.283   8.222 -0.9714  0.1408 -0.6183
 3114SOL    HW220976   1.318   0.360   8.279 -1.5191 -0.0921  0.1144
 3115SOL     OW20977   4.003   1.760   6.262  0.4541  0.2396 -0.1703
 3115SOL    HW120978   3.961   1.783   6.179  0.1961 -0.8448 -0.3432
 3115SOL    HW220979   3.956   1.816   6.324 -0.3375 -2.0157  1.2677
 3116SOL     OW20980   3.309   1.526   5.491 -0.3743  0.4139  0.5384
 3116SOL    HW120981   3.280   1.440   5.461  0.3840  0.8009 -1.2698
 3116SOL    HW220982   3.260   1.588   5.438  1.4092  1.1223 -0.2433
 3117SOL     OW20983   1.997   0.271  16.300  0.4366  0.1437  0.3311
 3117SOL    HW120984   1.947   0.196  16.268  0.5187 -0.6849  2.1511
 3117SOL    HW220985   2.088   0.243  16.295  0.7080  0.9936  0.3914
 3118SOL     OW20986   1.820   1.929   7.425 -0.0787 -0.6374  0.1188
 3118SOL    HW120987   1.727   1.921   7.403 -0.5119  3.0962  0.7043
 3118SOL    HW220988   1.822   1.914   7.520  0.4445  1.4080  0.4121
 3119SOL     OW20989   4.363   3.169   7.996  0.0181  0.3142 -0.4052
 3119SOL    HW120990   4.424   3.096   7.990 -0.3520  0.0504 -0.8973
 3119SOL    HW220991   4.287   3.112   7.994  0.4636 -0.3879  1.6799
 3120SOL     OW20992   0.054   3.312   2.075 -0.0305  0.1763  0.2081
 3120SOL    HW120993   4.706   3.337   2.045 -0.6706  0.4027  2.2941
 3120SOL    HW220994   0.025   3.270   2.155 -3.4326  1.6394 -0.2511
 3121SOL     OW20995   2.121   1.278   8.362  0.2487  0.4484  0.5134
 3121SOL    HW120996   2.108   1.305   8.271 -1.5231  0.9650  0.9144
 3121SOL    HW220997   2.085   1.360   8.396  1.6808  0.1546  2.6946
 3122SOL     OW20998   0.950   2.148   1.249 -0.3822 -0.1503  0.1129
 3122SOL    HW120999   0.860   2.116   1.253  0.1377 -1.7808 -1.4103
 3122SOL    HW221000   0.972   2.091   1.175 -2.2521 -2.9939  1.7477
 3123SOL     OW21001   1.206   0.492   2.406  0.2182 -0.3317  0.0711
 3123SOL    HW121002   1.209   0.587   2.397 -0.6166 -0.3629 -0.5552
 3123SOL    HW221003   1.126   0.467   2.452 -1.6998  1.0517 -2.4655
 3124SOL     OW21004   4.341   1.503   8.180 -0.7365  0.2064 -0.1901
 3124SOL    HW121005   4.261   1.537   8.141 -1.0765 -0.9540 -0.5166
 3124SOL    HW221006   4.360   1.429   8.122 -1.0252 -0.8652  1.0830
 3125SOL     OW21007   3.813   2.963  11.366 -0.1647 -0.7668 -0.0809
 3125SOL    HW121008   3.795   3.046  11.322  0.7201 -0.9438 -0.7703
 3125SOL    HW221009   3.742   2.908  11.333  1.4213 -2.7264 -0.1797
 3126SOL     OW21010   4.236   1.944   8.159 -0.6272 -0.4794 -0.1931
 3126SOL    HW121011   4.317   1.939   8.108 -1.1938  1.8011 -1.2984
 3126SOL    HW221012   4.269   1.903   8.239 -0.2444 -0.8190 -0.5258
 3127SOL     OW21013   3.921   4.302   5.864  0.2194  0.1662  0.4512
 3127SOL    HW121014   4.011   4.318   5.893 -0.3925  1.4397  1.6803
 3127SOL    HW221015   3.936   4.345   5.779  3.2298  1.2782  1.5205
 3128SOL     OW21016   3.077   4.324   3.327  0.4341 -0.5936 -0.2530
 3128SOL    HW121017   3.097   4.362   3.242  2.2852  1.5093  1.1242
 3128SOL    HW221018   3.029   4.248   3.293  0.1270 -0.2717 -0.5430
 3129SOL     OW21019   4.437   0.806   2.227 -0.1005 -0.1105  0.1045
 3129SOL    HW121020   4.465   0.808   2.319  1.1445  2.4760 -0.3255
 3129SOL    HW221021   4.495   0.734   2.204  1.9076  1.0848  1.3902
 3130SOL     OW21022   3.324   0.164   0.584 -0.1976  0.1686  0.0329
 3130SOL    HW121023   3.344   0.126   0.670  0.4330  2.5821  0.9523
 3130SOL    HW221024   3.250   0.224   0.594 -0.2551  0.0382  0.4298
 3131SOL     OW21025   0.210   2.453  11.507 -0.2822 -0.8177 -0.6816
 3131SOL    HW121026   0.190   2.492  11.592 -3.0469 -0.2038 -1.6283
 3131SOL    HW221027   0.227   2.531  11.454 -0.7985 -0.0893  0.2356
 3132SOL     OW21028   1.602   2.531   4.918 -0.2181 -0.1485 -0.2941
 3132SOL    HW121029   1.626   2.449   4.874 -2.4237 -0.8570 -0.1402
 3132SOL    HW221030   1.562   2.583   4.848  0.6946  2.3034  1.0073
 3133SOL     OW21031   3.277   4.648   2.620 -0.1224 -0.4753 -0.6409
 3133SOL    HW121032   3.350   4.707   2.638 -1.0071  0.4095 -0.0133
 3133SOL    HW221033   3.215   4.672   2.688  2.2094  2.3789  0.4532
 3134SOL     OW21034   0.373   1.278   6.605 -0.3789  0.3963  0.1610
 3134SOL    HW121035   0.442   1.213   6.588  0.1352 -0.3915  5.0983
 3134SOL    HW221036   0.431   1.349   6.631  1.3408 -0.7819 -0.3918
 3135SOL     OW21037   2.374   0.962   0.032  0.1079 -0.7411 -0.0597
 3135SOL    HW121038   2.375   1.047  17.742  3.4570 -0.6616  0.1740
 3135SOL    HW221039   2.391   0.984   0.124 -0.3458 -0.1270 -0.1203
 3136SOL     OW21040   2.668   1.151   1.985  0.4537 -0.0543 -0.2694
 3136SOL    HW121041   2.749   1.137   2.034  0.3248 -1.2521 -0.4019
 3136SOL    HW221042   2.603   1.153   2.055  0.6164 -0.4909 -0.1085
 3137SOL     OW21043   0.397   4.315   5.341  0.0731  0.3499 -0.2743
 3137SOL    HW121044   0.386   4.357   5.426 -0.5193  0.0114 -0.1752
 3137SOL    HW221045   0.453   4.376   5.293  0.0294 -1.2615 -2.3788
 3138SOL     OW21046   1.004   2.274   2.012  0.1713  0.5430  0.2215
 3138SOL    HW121047   1.059   2.196   2.009  0.1463  0.4061  3.8158
 3138SOL    HW221048   1.079   2.335   2.012 -0.6430  1.5393 -2.5343
 3139SOL     OW21049   4.409   2.131  13.828 -0.4262  0.3510 -0.4237
 3139SOL    HW121050   4.401   2.036  13.822  0.3802  0.3722 -1.9122
 3139SOL    HW221051   4.397   2.159  13.738  0.1037  0.4473 -0.4658
 3140SOL     OW21052   0.730   2.238  15.298  0.0413 -0.2633  0.0953
 3140SOL    HW121053   0.742   2.167  15.234 -2.2914 -2.6726  2.2908
 3140SOL    HW221054   0.706   2.310  15.239 -1.9288  0.3627  1.6773
 3141SOL     OW21055   1.508   0.760   6.863  0.4644  0.2637  0.2255
 3141SOL    HW121056   1.551   0.784   6.945 -3.3114  1.5920  1.8627
 3141SOL    HW221057   1.475   0.675   6.892  1.0528  0.7113  2.2445
 3142SOL     OW21058   4.363   4.012   7.435 -0.0582 -0.1286  0.0752
 3142SOL    HW121059   4.366   4.067   7.357 -1.4281  1.0746  0.8704
 3142SOL    HW221060   4.437   4.049   7.483 -2.1426  4.4502 -0.2432
 3143SOL     OW21061   3.853   1.369   3.277  0.3499  0.1822 -0.0490
 3143SOL    HW121062   3.876   1.364   3.369  1.8767  3.4632 -0.2731
 3143SOL    HW221063   3.762   1.399   3.286 -0.2470 -2.1700  1.7772
 3144SOL     OW21064   0.843   3.483   9.498  0.0244  0.0670 -0.2410
 3144SOL    HW121065   0.840   3.578   9.502  0.7990  0.0923 -0.1773
 3144SOL    HW221066   0.783   3.454   9.567 -0.7246 -1.4171 -1.5197
 3145SOL     OW21067   1.338   2.848   5.216 -0.6832 -0.2127  0.0841
 3145SOL    HW121068   1.385   2.880   5.139  0.4419  2.5796  1.9471
 3145SOL    HW221069   1.332   2.926   5.271  3.1105 -0.4525  0.8281
 3146SOL     OW21070   1.099   2.581   0.100  0.2246  0.4882 -0.4142
 3146SOL    HW121071   1.157   2.636   0.047 -0.5012  2.5402  0.9575
 3146SOL    HW221072   1.013   2.609   0.070  0.0820  0.7703  0.2665
 3147SOL     OW21073   2.015   0.877   5.609 -0.4592 -0.0824  0.5388
 3147SOL    HW121074   1.994   0.923   5.691  2.2132 -0.0687  1.2094
 3147SOL    HW221075   1.985   0.787   5.621 -2.2002  0.3836 -0.3643
 3148SOL     OW21076   3.744   0.426  13.260 -0.6163  0.6435  0.1676
 3148SOL    HW121077   3.751   0.522  13.261 -0.8220  0.6612 -0.3255
 3148SOL    HW221078   3.744   0.405  13.167  1.0113  1.9802 -0.1189
 3149SOL     OW21079   3.868   0.651   9.888 -0.6584  0.2882  0.8208
 3149SOL    HW121080   3.808   0.577   9.884 -0.2037 -0.1578  1.9731
 3149SOL    HW221081   3.902   0.648   9.978  1.4689 -0.9451 -0.0125
 3150SOL     OW21082   2.699   2.392  12.312 -0.4215  0.0197 -0.0729
 3150SOL    HW121083   2.700   2.396  12.217  0.6637  1.0954 -0.0096
 3150SOL    HW221084   2.744   2.309  12.326  0.0435  0.2662 -0.1224
 3151SOL     OW21085   1.902   3.313   7.504 -0.3086 -0.2993  1.0070
 3151SOL    HW121086   1.989   3.308   7.463 -1.4726 -2.3154 -1.2579
 3151SOL    HW221087   1.862   3.387   7.459  0.2885 -0.2605  0.5242
 3152SOL     OW21088   3.230   1.413   9.264  0.1670  0.0088  0.1090
 3152SOL    HW121089   3.270   1.360   9.332  0.6363 -0.3616 -0.4592
 3152SOL    HW221090   3.147   1.367   9.249  1.0165 -1.7068  0.6562
 3153SOL     OW21091   4.660   0.624   2.844  0.5552  0.0795  0.3512
 3153SOL    HW121092   4.592   0.584   2.789  0.6966  0.6542 -0.2259
 3153SOL    HW221093   4.718   0.668   2.783 -0.0092 -0.2682 -0.4453
 3154SOL     OW21094   4.272   1.022   6.990 -0.1027 -0.2527 -0.2352
 3154SOL    HW121095   4.310   1.042   7.076  1.3030 -3.5154 -0.0705
 3154SOL    HW221096   4.178   1.018   7.006 -0.3804  0.0083 -1.8578
 3155SOL     OW21097   0.675   2.207   4.547  0.4820 -0.9058 -0.4597
 3155SOL    HW121098   0.590   2.179   4.511  0.2480 -0.6885 -0.0793
 3155SOL    HW221099   0.649   2.242   4.632  0.8235 -1.0698 -0.2932
 3156SOL     OW21100   3.256   1.203   0.911  0.0625 -0.5842  0.4322
 3156SOL    HW121101   3.332   1.231   0.861  0.0789  1.0827  1.3902
 3156SOL    HW221102   3.288   1.120   0.947  0.4502 -1.5651 -2.1998
 3157SOL     OW21103   3.980   4.724   8.854 -0.4322  0.4769 -0.0185
 3157SOL    HW121104   4.061   4.693   8.892 -0.1643  1.9088  0.5976
 3157SOL    HW221105   3.915   4.675   8.904 -2.7326 -0.5362 -3.9336
 3158SOL     OW21106   1.904   3.545   6.906 -0.0630  0.0156  0.5436
 3158SOL    HW121107   1.905   3.458   6.866  1.1197  1.0641 -1.7406
 3158SOL    HW221108   1.820   3.542   6.951 -0.7895 -1.2728 -0.8851
 3159SOL     OW21109   3.396   1.395   3.982  0.4208 -0.6299 -0.0635
 3159SOL    HW121110   3.313   1.425   4.018  0.5190 -0.4047 -0.0242
 3159SOL    HW221111   3.462   1.439   4.037  0.2225 -0.7193  0.2452
 3160SOL     OW21112   2.079   0.843   4.522 -0.5980  0.4958  0.9440
 3160SOL    HW121113   2.166   0.805   4.528 -0.9050 -0.3448  0.2514
 3160SOL    HW221114   2.055   0.833   4.430  0.2301 -0.2858  0.8172
 3161SOL     OW21115   1.556   0.859   8.651  0.1785  0.2308 -0.1005
 3161SOL    HW121116   1.490   0.796   8.680  1.2681 -1.0876 -0.4723
 3161SOL    HW221117   1.539   0.860   8.556  2.7540  0.4891 -0.5539
 3162SOL     OW21118   2.980   1.381   8.319 -0.0178  0.0058  0.1550
 3162SOL    HW121119   2.987   1.394   8.414  2.2545  2.0093 -0.3133
 3162SOL    HW221120   3.061   1.427   8.297 -0.2162 -1.2609 -3.2008
 3163SOL     OW21121   3.089   3.973   2.343  0.6183 -0.0635 -0.0547
 3163SOL    HW121122   3.102   3.994   2.435  0.8740  2.9090 -0.7678
 3163SOL    HW221123   3.013   3.916   2.335  1.8205 -1.7584  0.5883
 3164SOL     OW21124   1.593   3.758   4.533 -0.2118  0.6530 -0.0904
 3164SOL    HW121125   1.661   3.731   4.471 -0.4638 -0.7939  0.2644
 3164SOL    HW221126   1.629   3.842   4.561  0.4866 -0.1651  1.4739
 3165SOL     OW21127   3.845   2.616   8.615  0.7360  0.2977  0.1321
 3165SOL    HW121128   3.759   2.582   8.639  1.2797  0.5735  2.5654
 3165SOL    HW221129   3.912   2.562   8.658  0.4649 -0.8261 -0.8812
 3166SOL     OW21130   1.066   3.951   1.970 -0.5871  0.0089  0.0721
 3166SOL    HW121131   1.132   4.006   1.928 -0.8384 -1.1784 -1.9006
 3166SOL    HW221132   1.040   3.883   1.907  1.6657  0.3243 -1.2035
 3167SOL     OW21133   0.760   0.632   3.858 -0.3899 -0.1476 -0.0668
 3167SOL    HW121134   0.798   0.707   3.904 -1.0299  0.1228  0.0127
 3167SOL    HW221135   0.714   0.684   3.793 -0.9849  1.1710  1.4101
 3168SOL     OW21136   3.744   3.790   6.772 -0.0038  0.1305 -0.3464
 3168SOL    HW121137   3.784   3.866   6.728 -0.1560  0.3723 -0.0693
 3168SOL    HW221138   3.825   3.770   6.820 -0.7722  0.3761  1.0694
 3169SOL     OW21139   1.571   2.668  11.000  0.1258  0.1771  0.4308
 3169SOL    HW121140   1.523   2.684  11.081 -2.1597 -0.5236 -0.8100
 3169SOL    HW221141   1.506   2.660  10.930  0.4435 -0.6475  0.2188
 3170SOL     OW21142   4.487   4.293  13.616 -0.4568  0.3153  1.1344
 3170SOL    HW121143   4.503   4.218  13.559 -1.5630  0.7516  0.2571
 3170SOL    HW221144   4.536   4.361  13.570  0.7008 -0.4798  1.2053
 3171SOL     OW21145   4.714   0.764   4.036  0.2513  0.7120 -0.2947
 3171SOL    HW121146   0.048   0.720   3.991  1.0457  0.8542  0.8484
 3171SOL    HW221147   4.728   0.857   4.024 -0.6843  0.9620  0.5570
 3172SOL     OW21148   0.572   1.452   9.517 -0.5145  0.1325 -0.4010
 3172SOL    HW121149   0.494   1.395   9.519  0.4326 -1.1203  0.3337
 3172SOL    HW221150   0.580   1.461   9.611 -0.8497  1.5214 -0.4968
 3173SOL     OW21151   2.694   4.192   2.628 -0.0078  0.1053 -0.2926
 3173SOL    HW121152   2.748   4.191   2.707 -0.4921  2.2024  0.0804
 3173SOL    HW221153   2.680   4.285   2.609 -1.0333  0.0377  0.0911
 3174SOL     OW21154   4.722   3.261   7.566 -0.2488  0.1057 -0.0328
 3174SOL    HW121155   0.067   3.222   7.542 -0.5005 -0.5485  0.1253
 3174SOL    HW221156   4.702   3.208   7.643 -0.3408 -1.6402 -1.2446
 3175SOL     OW21157   1.028   0.703  14.501  0.0743  0.2562 -0.0713
 3175SOL    HW121158   1.040   0.649  14.423  1.2469  0.4510 -0.0268
 3175SOL    HW221159   1.119   0.727  14.516  0.4540 -0.9786 -0.3736
 3176SOL     OW21160   2.679   4.247   8.437  0.1812  0.4671 -0.4748
 3176SOL    HW121161   2.738   4.318   8.464 -0.6808  0.4656  1.3982
 3176SOL    HW221162   2.628   4.229   8.516  1.0052 -2.2610 -0.5407
 3177SOL     OW21163   3.102   1.919   8.062 -0.4138  0.3374 -0.3635
 3177SOL    HW121164   3.132   1.853   8.124  0.8863  0.8185 -0.4682
 3177SOL    HW221165   3.155   1.920   7.982  0.0541  1.2347 -0.0463
 3178SOL     OW21166   2.474   2.587   5.989  0.5676 -0.5696 -0.1172
 3178SOL    HW121167   2.516   2.673   5.982 -0.6189  0.0261  0.1846
 3178SOL    HW221168   2.388   2.623   5.968  0.8264  0.2885  0.2782
 3179SOL     OW21169   3.033   3.045   0.766 -0.2732  0.7288 -0.1545
 3179SOL    HW121170   3.061   3.135   0.752 -2.5627  1.3887 -0.4680
 3179SOL    HW221171   3.115   3.008   0.797 -0.0532  0.5778 -0.9188
 3180SOL     OW21172   1.647   4.239   3.775  0.4515 -0.2169 -0.3836
 3180SOL    HW121173   1.683   4.211   3.859 -2.9098 -0.7062  0.9117
 3180SOL    HW221174   1.726   4.227   3.722  0.5484 -0.8521 -0.0928
 3181SOL     OW21175   3.620   1.285   5.431 -0.1679  0.3848  0.3176
 3181SOL    HW121176   3.607   1.357   5.492 -0.2542  0.2817  0.4197
 3181SOL    HW221177   3.588   1.206   5.474  0.0374  0.9930  1.5735
 3182SOL     OW21178   3.653   4.183   8.244 -0.3514 -0.4233 -0.2116
 3182SOL    HW121179   3.606   4.255   8.200  1.0170 -0.0814 -1.1165
 3182SOL    HW221180   3.592   4.114   8.217 -0.9605 -0.4454  1.2353
 3183SOL     OW21181   4.624   4.709   5.124  0.2257 -0.0932 -0.2938
 3183SOL    HW121182   4.693   4.644   5.110 -0.5043 -1.2913  1.7317
 3183SOL    HW221183   4.566   4.701   5.049  1.2656  1.8358 -1.3167
 3184SOL     OW21184   2.602   4.644  17.470  0.0847  0.1459  0.6031
 3184SOL    HW121185   2.696   4.663  17.479 -0.2529  1.6277  1.0248
 3184SOL    HW221186   2.583   4.591  17.548  1.7278 -1.7859 -0.2942
 3185SOL     OW21187   4.465   3.152   6.388  0.0396 -0.0665 -0.6781
 3185SOL    HW121188   4.546   3.126   6.346  0.2936 -1.8310  0.8618
 3185SOL    HW221189   4.409   3.146   6.311 -1.2184 -1.1345  0.3092
 3186SOL     OW21190   2.827   4.637   2.247 -0.2443  0.3535 -0.3765
 3186SOL    HW121191   2.813   4.564   2.306  0.7316 -0.2435 -0.8749
 3186SOL    HW221192   2.804   4.704   2.311 -0.5052 -1.0530  0.9914
 3187SOL     OW21193   4.158   4.659   3.490  0.1301 -0.5628  0.0252
 3187SOL    HW121194   4.232   4.621   3.443 -2.1701 -2.3083 -2.1999
 3187SOL    HW221195   4.129   4.578   3.533 -2.8977  1.6982  2.2527
 3188SOL     OW21196   2.876   3.403   2.346  0.8096 -0.3002  0.0219
 3188SOL    HW121197   2.840   3.474   2.399  1.1353  0.5068 -0.8259
 3188SOL    HW221198   2.950   3.455   2.316  0.2579  1.8485  2.4296
 3189SOL     OW21199   1.069   1.180   6.066 -0.4825 -0.3719  0.2979
 3189SOL    HW121200   1.147   1.208   6.114 -0.2410 -0.1135 -0.2538
 3189SOL    HW221201   1.103   1.101   6.023 -1.9068 -0.1275 -1.2657
 3190SOL     OW21202   2.771   0.798  10.147 -0.3058 -0.2525  0.4330
 3190SOL    HW121203   2.732   0.819  10.232 -0.5676 -0.5892  0.3980
 3190SOL    HW221204   2.734   0.710  10.144 -1.1017 -0.0489  3.7019
 3191SOL     OW21205   1.912   4.356  16.317  0.4165 -0.0461  0.3345
 3191SOL    HW121206   1.883   4.334  16.229  1.8106 -0.8133  0.0734
 3191SOL    HW221207   1.960   4.439  16.313 -0.5755  0.4807 -0.5926
 3192SOL     OW21208   0.014   4.507   9.828 -0.0615 -0.5603  0.2475
 3192SOL    HW121209   0.065   4.526   9.749 -0.0187 -0.0334  0.3977
 3192SOL    HW221210   0.055   4.568   9.890 -1.1306  0.1365  0.2810
 3193SOL     OW21211   1.830   2.105  17.365 -0.0538 -0.5036 -0.0827
 3193SOL    HW121212   1.884   2.161  17.309  0.5488  0.6127  1.6228
 3193SOL    HW221213   1.890   2.102  17.440 -0.2315  1.0347  0.1229
 3194SOL     OW21214   2.250   0.482   2.696  0.1514 -0.0883 -0.5725
 3194SOL    HW121215   2.183   0.430   2.739 -0.7313 -1.3807 -3.5081
 3194SOL    HW221216   2.217   0.571   2.682  1.1260  0.6818  1.9519
 3195SOL     OW21217   2.186   3.826   2.456 -0.1904 -0.1833 -0.6438
 3195SOL    HW121218   2.268   3.802   2.500  0.7932  0.9089 -1.8842
 3195SOL    HW221219   2.119   3.784   2.510 -0.9666  0.2072 -1.3131
 3196SOL     OW21220   3.212   4.652   4.327 -0.0881  0.2828 -0.1081
 3196SOL    HW121221   3.258   4.687   4.250 -0.6621 -1.3329 -1.1840
 3196SOL    HW221222   3.221   4.732   4.378  0.0754  0.2285 -0.0510
 3197SOL     OW21223   3.898   1.675  14.293  0.0888  0.9983  0.0150
 3197SOL    HW121224   3.973   1.622  14.320  1.7100  2.9704 -0.6463
 3197SOL    HW221225   3.843   1.687  14.370 -0.7779 -0.2259 -0.4078
 3198SOL     OW21226   0.332   2.077  17.152 -0.2410  0.5423 -0.4127
 3198SOL    HW121227   0.415   2.089  17.197 -1.2405  0.7477  1.3832
 3198SOL    HW221228   0.269   2.131  17.200  0.5038  0.9955  0.0667
 3199SOL     OW21229   3.795   0.885   7.469 -0.3716  0.1300 -0.3094
 3199SOL    HW121230   3.830   0.968   7.501 -0.6053  0.2704 -0.4117
 3199SOL    HW221231   3.809   0.884   7.374  1.2396 -1.2599 -0.0498
 3200SOL     OW21232   2.425   4.175  16.707  0.1252 -0.2621  0.2966
 3200SOL    HW121233   2.398   4.245  16.648 -2.5470 -1.5829 -0.0308
 3200SOL    HW221234   2.447   4.226  16.785 -0.6857  0.5866 -0.0235
 3201SOL     OW21235   2.637   1.671  10.060  0.2996 -0.1141 -0.1629
 3201SOL    HW121236   2.649   1.663   9.965  2.1766 -1.5717  0.1842
 3201SOL    HW221237   2.647   1.764  10.082 -0.4916 -0.0172 -0.2077
 3202SOL     OW21238   2.100   3.623  12.775 -0.0177  0.8993  0.5409
 3202SOL    HW121239   2.193   3.600  12.777 -0.1263  0.5179  1.4587
 3202SOL    HW221240   2.086   3.653  12.865  0.0557  0.3393  0.7384
 3203SOL     OW21241   4.222   3.987   5.239  0.6424  0.0037 -0.1980
 3203SOL    HW121242   4.135   4.025   5.248 -1.0926 -4.0649  0.2051
 3203SOL    HW221243   4.281   4.061   5.255  0.4101 -0.0909  1.1264
 3204SOL     OW21244   0.148   0.234  12.676 -0.5523  0.1881  0.1495
 3204SOL    HW121245   0.220   0.179  12.646 -2.5300 -1.6147 -1.2912
 3204SOL    HW221246   0.121   0.199  12.761 -0.6353  1.5297  0.6867
 3205SOL     OW21247   0.436   1.348   1.848  0.0854 -0.6225 -0.1737
 3205SOL    HW121248   0.390   1.265   1.835 -1.3397 -0.1602  1.9241
 3205SOL    HW221249   0.359   1.396   1.879  1.8568  1.8180  0.3898
 3206SOL     OW21250   1.392   1.623   3.719  0.2939  0.0124  0.3301
 3206SOL    HW121251   1.370   1.716   3.710  0.8172  0.2151  1.1473
 3206SOL    HW221252   1.327   1.591   3.781  1.0554 -0.7710  0.7203
 3207SOL     OW21253   0.547   1.618  17.236 -0.3836  0.2876  0.0451
 3207SOL    HW121254   0.464   1.583  17.206 -0.6676  0.3189  0.7982
 3207SOL    HW221255   0.524   1.643  17.326 -1.3304  1.1845 -0.4486
 3208SOL     OW21256   2.282   2.507   2.813  0.5660  0.3696 -0.5334
 3208SOL    HW121257   2.340   2.546   2.879  2.5510 -0.4532 -1.7665
 3208SOL    HW221258   2.327   2.422   2.802  1.1631  0.6923 -0.6034
 3209SOL     OW21259   1.914   0.826   9.291  0.6727  0.3793  0.7983
 3209SOL    HW121260   1.853   0.752   9.293  0.3971  0.5627 -0.8801
 3209SOL    HW221261   1.994   0.784   9.322  0.7830  0.3517  0.4760
 3210SOL     OW21262   1.513   2.014   4.909  0.4271  0.2662 -0.5400
 3210SOL    HW121263   1.607   2.015   4.889  0.1031 -1.0500 -2.1886
 3210SOL    HW221264   1.494   2.093   4.959 -0.0889  0.7588 -1.5092
 3211SOL     OW21265   1.146   4.426   5.282 -0.5491  0.1820 -0.4312
 3211SOL    HW121266   1.212   4.397   5.344 -0.4380 -0.8580 -1.0363
 3211SOL    HW221267   1.096   4.479   5.345 -0.3657  0.7446 -0.7568
 3212SOL     OW21268   1.586   4.142   6.302  0.0975  0.3659 -0.6954
 3212SOL    HW121269   1.601   4.132   6.208  0.0638  0.2409 -0.6883
 3212SOL    HW221270   1.492   4.155   6.289 -0.5499 -3.0012  0.6806
 3213SOL     OW21271   4.134   2.774   2.152 -0.0691 -0.3905 -0.7373
 3213SOL    HW121272   4.116   2.864   2.126 -0.4817 -0.0165  0.8686
 3213SOL    HW221273   4.177   2.777   2.238 -0.5009  3.0420 -0.6354
 3214SOL     OW21274   0.630   2.617   0.076 -0.3389 -0.0670 -0.0392
 3214SOL    HW121275   0.587   2.534   0.097 -0.8423  0.5653  1.4303
 3214SOL    HW221276   0.554   2.676   0.072 -0.5686 -0.3310  0.4594
 3215SOL     OW21277   3.049   0.779   2.949  0.2110 -0.6585  0.4207
 3215SOL    HW121278   3.086   0.839   3.013  1.9365  0.2872 -1.4485
 3215SOL    HW221279   3.080   0.822   2.869 -2.6347  0.3890 -0.1401
 3216SOL     OW21280   3.615   1.380   6.884  0.8987  0.0476 -0.3744
 3216SOL    HW121281   3.598   1.335   6.967  0.3212 -2.4551 -1.8825
 3216SOL    HW221282   3.534   1.365   6.836  1.5324  1.6929 -1.9439
 3217SOL     OW21283   1.645   3.221   5.129  0.3925 -0.0224  0.1769
 3217SOL    HW121284   1.631   3.308   5.092  2.7200 -0.1878 -1.0565
 3217SOL    HW221285   1.738   3.206   5.112 -0.0475 -0.1047 -2.1533
 3218SOL     OW21286   1.263   1.131  15.699 -0.2672  0.4981  0.0572
 3218SOL    HW121287   1.347   1.113  15.741  0.4829  1.7849 -0.8869
 3218SOL    HW221288   1.280   1.218  15.664 -0.2856 -0.0299 -1.2696
 3219SOL     OW21289   4.336   2.512  14.106  0.1981 -0.4272 -0.0372
 3219SOL    HW121290   4.396   2.451  14.062  2.3442  1.2850  0.5176
 3219SOL    HW221291   4.275   2.547  14.041  1.5114 -1.5777 -1.9002
 3220SOL     OW21292   1.906   2.719   2.116  0.2768 -0.2504  0.0386
 3220SOL    HW121293   1.879   2.783   2.050  1.5694  0.2385 -0.0155
 3220SOL    HW221294   1.975   2.681   2.063 -0.6542 -1.0338 -0.6060
 3221SOL     OW21295   3.225   4.444   3.778  0.3508  0.2022  0.2895
 3221SOL    HW121296   3.171   4.440   3.856  1.0118  2.2772  0.8469
 3221SOL    HW221297   3.233   4.355   3.744 -1.5491 -0.8462  2.6112
 3222SOL     OW21298   1.240   4.409   9.908  0.0045  0.4940 -0.4029
 3222SOL    HW121299   1.203   4.422   9.820  2.1626  1.1593 -1.2136
 3222SOL    HW221300   1.183   4.337   9.934  1.8035 -0.3851  1.1000
 3223SOL     OW21301   3.330   3.931   3.523 -0.1615 -0.6602  0.2526
 3223SOL    HW121302   3.280   3.920   3.604 -1.9899  1.0502 -0.6441
 3223SOL    HW221303   3.422   3.929   3.549 -0.3798 -1.9191  0.9176
 3224SOL     OW21304   0.106   1.126   6.861 -0.7088 -0.3693 -0.1749
 3224SOL    HW121305   0.055   1.196   6.821 -0.4856  1.2173  2.3142
 3224SOL    HW221306   0.192   1.169   6.860 -1.1862  0.6225  0.9161
 3225SOL     OW21307   4.130   2.834  14.546  0.0809 -0.5722  0.1624
 3225SOL    HW121308   4.100   2.838  14.637 -0.1250  1.5145  0.0056
 3225SOL    HW221309   4.219   2.865  14.562 -0.7164  1.1947  1.1821
 3226SOL     OW21310   0.815   0.137   5.619 -0.0225  0.1145 -0.2777
 3226SOL    HW121311   0.848   0.224   5.641 -0.2420 -0.3429  1.8310
 3226SOL    HW221312   0.851   0.082   5.688  0.4351 -2.1688 -2.3239
 3227SOL     OW21313   2.610   3.269   8.544 -0.0811 -0.0873 -0.1530
 3227SOL    HW121314   2.631   3.356   8.578  1.7371 -1.3270  1.9521
 3227SOL    HW221315   2.700   3.236   8.549 -0.3610 -0.8347 -0.0750
 3228SOL     OW21316   4.722   0.512   0.006 -0.3129 -0.6677  0.0196
 3228SOL    HW121317   4.681   0.426   0.011  0.4345 -1.0311 -0.0292
 3228SOL    HW221318   0.060   0.496   0.062  0.3835 -1.7608 -1.2642
 3229SOL     OW21319   1.048   3.405   7.492  0.6041 -0.0969  0.0372
 3229SOL    HW121320   1.089   3.379   7.410 -4.2464 -0.6608 -2.2243
 3229SOL    HW221321   0.964   3.440   7.463  0.6441 -0.0739 -0.0509
 3230SOL     OW21322   3.808   2.543   3.594  0.2120  0.2797 -0.4982
 3230SOL    HW121323   3.892   2.542   3.548  1.0216  0.4755  0.9807
 3230SOL    HW221324   3.844   2.560   3.681  0.5095 -1.8463 -0.2050
 3231SOL     OW21325   4.514   1.771   2.992  0.0223  0.2783 -0.2345
 3231SOL    HW121326   4.582   1.776   3.059  1.8443  1.8458 -2.1783
 3231SOL    HW221327   4.450   1.837   3.019  2.1025  1.8355  0.8583
 3232SOL     OW21328   0.140   4.578  12.889 -0.2860  0.3668 -0.5287
 3232SOL    HW121329   0.128   4.622  12.973  1.9654  0.0915 -0.0558
 3232SOL    HW221330   0.049   4.552  12.874 -0.4327  0.3497  0.3745
 3233SOL     OW21331   1.490   4.372   7.409 -0.5234  0.6312 -0.5491
 3233SOL    HW121332   1.462   4.418   7.487 -0.3331 -0.1426 -0.0258
 3233SOL    HW221333   1.585   4.363   7.418 -1.0544 -1.6016  2.7092
 3234SOL     OW21334   0.126   4.597   4.512  0.2744 -0.2550  0.0435
 3234SOL    HW121335   0.146   4.630   4.424  0.5475  0.2324  0.2885
 3234SOL    HW221336   0.217   4.583   4.540  0.6813  2.7982  0.2620
 3235SOL     OW21337   2.767   2.335  10.898 -0.7283 -0.0465  0.4428
 3235SOL    HW121338   2.852   2.291  10.903 -0.7939 -0.0613  1.5745
 3235SOL    HW221339   2.757   2.367  10.988 -0.9983  0.0627  0.3754
 3236SOL     OW21340   4.662   3.423   0.938  0.3982  0.2090  0.0637
 3236SOL    HW121341   4.732   3.423   1.003 -0.0618  0.4313  0.5526
 3236SOL    HW221342   4.618   3.344   0.970 -1.2429  0.1973 -2.2109
 3237SOL     OW21343   2.391   3.543   9.875  0.4381  0.1184 -0.4002
 3237SOL    HW121344   2.327   3.542   9.946  1.0340 -0.1144  0.1267
 3237SOL    HW221345   2.473   3.560   9.922  0.1984  0.7930 -0.2124
 3238SOL     OW21346   3.608   3.772  15.638  0.0737  0.4353 -0.2029
 3238SOL    HW121347   3.663   3.847  15.614 -0.0387  0.7944  0.6679
 3238SOL    HW221348   3.521   3.811  15.633 -0.8628 -1.5430  0.6725
 3239SOL     OW21349   1.678   0.824   5.838  0.1185 -0.0575 -0.0402
 3239SOL    HW121350   1.660   0.734   5.811  2.1733 -1.0717  2.0130
 3239SOL    HW221351   1.726   0.815   5.921  3.2339 -2.6488 -2.1483
 3240SOL     OW21352   4.396   0.653   7.279 -0.5813  0.5230  0.0135
 3240SOL    HW121353   4.411   0.604   7.360 -0.7705  2.5117  1.2486
 3240SOL    HW221354   4.311   0.694   7.294 -0.1376  2.0502 -1.5736
 3241SOL     OW21355   1.006   4.534   2.734 -0.1166 -0.0994  0.3653
 3241SOL    HW121356   1.054   4.532   2.652  2.0026  0.0420  1.6167
 3241SOL    HW221357   1.019   4.443   2.759 -1.9689 -0.1897  1.0706
 3242SOL     OW21358   0.831   4.648  15.760 -0.0141 -0.3762 -0.1308
 3242SOL    HW121359   0.840   4.559  15.728 -1.8865 -0.5607 -0.1499
 3242SOL    HW221360   0.816   4.693  15.676 -1.3293  1.3614  1.0317
 3243SOL     OW21361   4.306   1.952   8.571  0.1036  0.2382  0.1063
 3243SOL    HW121362   4.223   1.923   8.609  1.4058 -0.2165  2.6762
 3243SOL    HW221363   4.333   1.873   8.525  2.7481  1.7375 -0.9520
 3244SOL     OW21364   0.275   2.559   0.626  0.4647  0.0375  0.1574
 3244SOL    HW121365   0.298   2.552   0.533 -1.8361  0.4640 -0.4347
 3244SOL    HW221366   0.357   2.587   0.666 -0.9205  1.5645  1.8769
 3245SOL     OW21367   0.993   1.599   3.773 -0.0624 -0.7920  0.5608
 3245SOL    HW121368   1.054   1.635   3.838  0.9198 -1.7718  0.1830
 3245SOL    HW221369   1.033   1.625   3.690 -1.1931 -0.1376  0.2266
 3246SOL     OW21370   0.182   1.367   9.941 -0.2643  0.1226 -0.2919
 3246SOL    HW121371   0.117   1.307   9.978 -0.2044  0.7608  0.8580
 3246SOL    HW221372   0.268   1.333   9.967  0.1759  2.5811  1.4085
 3247SOL     OW21373   3.870   1.391   7.953 -0.5852 -0.0420  0.4350
 3247SOL    HW121374   3.954   1.345   7.951 -0.2761  0.5674 -0.6587
 3247SOL    HW221375   3.843   1.355   7.868  0.9178  2.5118 -1.1076
 3248SOL     OW21376   4.106   0.397   2.182  0.0231  0.2240  0.1126
 3248SOL    HW121377   4.049   0.462   2.223  0.7930  0.7729  0.3181
 3248SOL    HW221378   4.037   0.338   2.151  0.8100 -0.6179 -0.0392
 3249SOL     OW21379   3.276   2.066  14.141  0.1758  0.5190  0.5351
 3249SOL    HW121380   3.317   2.145  14.105 -1.8443  1.5315  0.4553
 3249SOL    HW221381   3.183   2.083  14.154  0.2659  0.9201  0.6631
 3250SOL     OW21382   1.943   0.597   5.663 -0.4284  0.7528 -0.1363
 3250SOL    HW121383   1.876   0.569   5.601 -0.4198 -1.0320  0.6588
 3250SOL    HW221384   2.018   0.543   5.639  0.0074  1.4075 -0.2255
 3251SOL     OW21385   4.240   0.843   8.877  0.0037 -0.1047 -0.2707
 3251SOL    HW121386   4.315   0.811   8.827 -1.4207 -0.8535 -1.9289
 3251SOL    HW221387   4.169   0.803   8.828  0.9831 -1.2807 -0.7444
 3252SOL     OW21388   3.871   4.375   0.410  0.0858 -0.1348 -0.6309
 3252SOL    HW121389   3.818   4.442   0.453 -1.4793 -0.9414 -1.2769
 3252SOL    HW221390   3.866   4.303   0.474 -1.2288  0.2666 -0.2762
 3253SOL     OW21391   2.672   0.309   3.043 -0.1530 -0.5132 -0.2324
 3253SOL    HW121392   2.723   0.234   3.012 -0.8523 -1.9674  2.1491
 3253SOL    HW221393   2.646   0.347   2.959  0.7135  1.7195  0.5311
 3254SOL     OW21394   2.067   0.532  10.415  0.4338  0.1416  0.0243
 3254SOL    HW121395   2.123   0.531  10.492 -0.6644  0.1875  0.8134
 3254SOL    HW221396   2.019   0.611  10.440 -0.6068  0.1159 -1.8372
 3255SOL     OW21397   4.302   0.960  13.453 -0.5442  0.5238  0.0369
 3255SOL    HW121398   4.232   1.006  13.407 -0.9971 -0.8220 -0.6352
 3255SOL    HW221399   4.247   0.910  13.513 -0.1437  0.7962  0.6365
 3256SOL     OW21400   0.185   1.227   8.936 -0.3171 -0.3195  0.2580
 3256SOL    HW121401   0.121   1.162   8.962 -1.0923  0.2956 -0.1222
 3256SOL    HW221402   0.189   1.289   9.009  1.1926 -0.0539 -0.0446
 3257SOL     OW21403   0.064   1.737   0.851  0.0297 -0.2570  0.2547
 3257SOL    HW121404   0.086   1.777   0.767  0.0533  1.2656  0.9800
 3257SOL    HW221405   4.718   1.709   0.818 -1.0739  2.6244  0.6339
 3258SOL     OW21406   1.237   0.937   5.946 -0.3683  0.1890 -0.3096
 3258SOL    HW121407   1.266   0.918   6.035 -0.8421 -1.2421 -0.4606
 3258SOL    HW221408   1.315   0.905   5.901  0.1239  0.7518  0.1328
 3259SOL     OW21409   0.358   1.559  11.215 -0.4329  0.2502 -0.5578
 3259SOL    HW121410   0.392   1.497  11.280 -2.1627 -1.1576 -0.9773
 3259SOL    HW221411   0.405   1.640  11.234 -2.2040  1.1992 -0.2370
 3260SOL     OW21412   2.649   4.347  12.900  0.8408  0.5128 -0.1474
 3260SOL    HW121413   2.620   4.296  12.824  1.0048  0.3359 -0.0882
 3260SOL    HW221414   2.624   4.435  12.871  0.1094  0.6447  0.8892
 3261SOL     OW21415   4.739   0.822   4.549 -0.0988 -0.1425 -0.9339
 3261SOL    HW121416   0.083   0.779   4.568 -1.8977 -2.9346  0.4816
 3261SOL    HW221417   4.722   0.878   4.625  1.5665 -0.5520 -0.2570
 3262SOL     OW21418   1.029   2.333   4.081 -0.4547 -0.4284 -0.3025
 3262SOL    HW121419   1.086   2.337   4.004 -0.2348  0.3547 -0.0988
 3262SOL    HW221420   1.014   2.239   4.092 -1.3085 -0.4314 -1.5499
 3263SOL     OW21421   1.680   2.189   4.146  0.5407  0.1521 -0.1404
 3263SOL    HW121422   1.745   2.244   4.189  1.9157  0.1152 -2.2204
 3263SOL    HW221423   1.698   2.099   4.173 -1.0981  0.1384  0.9659
 3264SOL     OW21424   2.131   3.807   3.141 -0.0197 -0.0494 -0.4330
 3264SOL    HW121425   2.060   3.867   3.165 -1.0109 -2.0855  1.6864
 3264SOL    HW221426   2.134   3.758   3.223 -1.7772  0.5322 -0.0133
 3265SOL     OW21427   0.532   2.932   4.629  0.3285  0.2907 -0.4748
 3265SOL    HW121428   0.545   2.886   4.547  0.2961 -1.8392  0.7225
 3265SOL    HW221429   0.617   2.924   4.671  1.3181 -0.2196 -2.5978
 3266SOL     OW21430   3.878   2.742   7.273  0.4386  0.0874  0.4213
 3266SOL    HW121431   3.952   2.803   7.270  0.9303 -0.5223  0.1950
 3266SOL    HW221432   3.819   2.805   7.231  0.3562 -0.5893 -0.4744
 3267SOL     OW21433   2.084   2.098   9.880  0.0219 -0.4288 -0.7423
 3267SOL    HW121434   2.174   2.078   9.853  0.0663 -1.0073 -0.1524
 3267SOL    HW221435   2.078   2.193   9.886  0.0808 -0.5142  0.7045
 3268SOL     OW21436   1.793   1.909  12.766 -0.0231 -0.2692  0.3069
 3268SOL    HW121437   1.812   1.973  12.697 -0.2188 -1.6842 -1.0585
 3268SOL    HW221438   1.738   1.971  12.813 -1.4262  0.7187 -2.6331
 3269SOL     OW21439   3.096   0.745   4.899  0.1857 -0.0393 -0.4690
 3269SOL    HW121440   3.073   0.791   4.818 -2.4415 -2.6253 -1.1716
 3269SOL    HW221441   3.129   0.821   4.948 -0.8099 -0.5023  0.9320
 3270SOL     OW21442   3.236   1.957   8.392 -0.2941 -1.0667  0.1753
 3270SOL    HW121443   3.285   1.882   8.427  1.2861  0.2293  0.7405
 3270SOL    HW221444   3.298   2.028   8.408  0.2070 -1.0012 -2.1336
 3271SOL     OW21445   4.425   3.039   3.874  0.0956 -0.1136 -0.0451
 3271SOL    HW121446   4.409   3.049   3.968  2.9113  0.2232  0.4228
 3271SOL    HW221447   4.400   3.126   3.845 -1.0361 -0.4009  0.0681
 3272SOL     OW21448   2.897   1.817   4.372 -0.2271  0.0379  0.3415
 3272SOL    HW121449   2.913   1.908   4.348 -3.8675  0.6515  0.2308
 3272SOL    HW221450   2.893   1.822   4.467 -0.0196 -2.7315  0.4971
 3273SOL     OW21451   2.611   3.805   6.174  0.0842 -0.1837 -0.1154
 3273SOL    HW121452   2.520   3.803   6.203 -0.3394 -0.0377 -1.4077
 3273SOL    HW221453   2.632   3.715   6.198  1.8157  0.8084  2.0603
 3274SOL     OW21454   4.677   3.004  14.926 -0.0021 -0.1553  0.6430
 3274SOL    HW121455   4.636   3.042  14.848 -0.7837  0.6084  1.4246
 3274SOL    HW221456   4.685   2.914  14.893  0.0073 -0.1406  0.6045
 3275SOL     OW21457   3.894   0.477  10.718  0.1730 -0.0052  0.5595
 3275SOL    HW121458   3.827   0.410  10.706  1.1882 -0.8009 -0.6058
 3275SOL    HW221459   3.843   0.549  10.756  0.4298  0.4365  0.0598
 3276SOL     OW21460   2.035   4.012  10.113 -0.5671  0.4246 -0.2495
 3276SOL    HW121461   2.014   4.046  10.200  1.4002 -0.8421  0.7034
 3276SOL    HW221462   1.963   4.055  10.067 -0.1101  0.3863 -1.0037
 3277SOL     OW21463   0.730   3.861  10.576  0.2231 -0.3040  0.3513
 3277SOL    HW121464   0.657   3.913  10.541  1.3616  1.3540  0.4541
 3277SOL    HW221465   0.736   3.773  10.540  0.5790 -0.1115 -0.0601
 3278SOL     OW21466   0.136   1.172   6.017 -0.1606  0.4247  0.0822
 3278SOL    HW121467   0.055   1.141   6.058 -1.0963 -1.4480 -3.2193
 3278SOL    HW221468   0.125   1.267   6.008 -0.2837  0.6716  2.6987
 3279SOL     OW21469   1.995   3.366   5.754  0.2172  0.7190  0.0359
 3279SOL    HW121470   1.930   3.320   5.701  1.9930 -0.4406 -1.1522
 3279SOL    HW221471   1.995   3.317   5.836 -1.9998  1.4686  0.4800
 3280SOL     OW21472   0.515   3.258   2.555 -0.1672  0.0413 -0.3302
 3280SOL    HW121473   0.459   3.335   2.545 -0.1704  0.1215  0.3160
 3280SOL    HW221474   0.567   3.261   2.475 -1.2057  2.0951 -0.9148
 3281SOL     OW21475   3.075   4.168   4.209 -0.2126  0.6219 -0.6182
 3281SOL    HW121476   3.062   4.118   4.129  1.1411  0.3958 -0.7102
 3281SOL    HW221477   3.010   4.237   4.195 -0.6468  0.1905 -0.7134
 3282SOL     OW21478   1.923   2.992   9.104  0.0067 -0.0716  0.3066
 3282SOL    HW121479   1.975   3.070   9.122 -1.3912  0.7197  0.8853
 3282SOL    HW221480   1.983   2.932   9.059 -0.1572  1.1826 -1.5776
 3283SOL     OW21481   0.441   1.312  10.005  0.3366 -0.7082  0.0226
 3283SOL    HW121482   0.484   1.292  10.088 -1.1702 -1.7134  0.5549
 3283SOL    HW221483   0.483   1.244   9.951  1.8282 -0.0144  0.3253
 3284SOL     OW21484   3.711   0.114   4.842  0.0044  0.0866  0.1333
 3284SOL    HW121485   3.670   0.200   4.829 -0.8058 -0.1372  1.1762
 3284SOL    HW221486   3.802   0.139   4.857 -0.5859  2.0162  0.6601
 3285SOL     OW21487   4.037   0.610   8.490  0.3444  0.3106 -0.7250
 3285SOL    HW121488   4.090   0.541   8.530 -0.9387 -1.5841 -2.2441
 3285SOL    HW221489   3.962   0.558   8.461  0.6081 -0.2022 -0.4895
 3286SOL     OW21490   0.301   3.800   5.156 -0.0664  0.9290 -0.3526
 3286SOL    HW121491   0.279   3.814   5.064  1.7567  0.7287 -0.8227
 3286SOL    HW221492   0.213   3.786   5.190  0.0186 -0.8510 -0.8628
 3287SOL     OW21493   3.712   1.411   0.516 -0.0963  0.0309 -0.0541
 3287SOL    HW121494   3.675   1.355   0.584 -1.3839 -0.4756 -1.1916
 3287SOL    HW221495   3.663   1.493   0.511  2.8462  1.8754  1.2784
 3288SOL     OW21496   0.095   3.205   3.406 -0.3250  0.0912 -0.2609
 3288SOL    HW121497   0.131   3.117   3.418 -1.0362 -0.2344 -0.5377
 3288SOL    HW221498   0.149   3.251   3.470 -1.9159  3.3196 -1.2357
 3289SOL     OW21499   4.135   2.886   7.351  0.5057 -0.0093  0.1211
 3289SOL    HW121500   4.115   2.964   7.300 -0.9242 -0.7969 -0.5361
 3289SOL    HW221501   4.220   2.916   7.382  1.4499 -0.6982 -1.8353
 3290SOL     OW21502   0.371   0.694   5.358 -0.0687  0.1604  0.7955
 3290SOL    HW121503   0.466   0.707   5.357 -0.4825  3.0626 -2.5370
 3290SOL    HW221504   0.347   0.770   5.411  1.7052  0.3347  1.3511
 3291SOL     OW21505   0.185   3.062   7.506  0.1686 -0.2394  0.0944
 3291SOL    HW121506   0.243   3.054   7.581  1.6157 -2.6284 -1.2671
 3291SOL    HW221507   0.205   2.975   7.470 -0.7658 -0.0349 -0.9177
 3292SOL     OW21508   0.999   0.618   8.740 -0.4942 -0.0558 -0.0567
 3292SOL    HW121509   1.054   0.678   8.790  1.3460 -0.8395 -1.1095
 3292SOL    HW221510   0.925   0.678   8.737  0.1559  0.7601  0.3204
 3293SOL     OW21511   2.062   4.054   7.563 -0.3868  0.3545  0.5402
 3293SOL    HW121512   2.140   4.051   7.618 -1.6371 -0.0667  2.2851
 3293SOL    HW221513   2.109   4.061   7.480  1.5630 -0.2257  1.5926
 3294SOL     OW21514   1.009   3.767   8.803  0.4056  0.3964  0.3709
 3294SOL    HW121515   1.090   3.722   8.776  0.7266 -0.2763  2.4366
 3294SOL    HW221516   1.046   3.812   8.879  2.3944  0.1451 -0.4427
 3295SOL     OW21517   3.770   1.990  14.817  0.2212 -0.5826 -0.0175
 3295SOL    HW121518   3.865   1.983  14.820  0.3108 -0.0317 -1.8098
 3295SOL    HW221519   3.738   1.903  14.793 -1.1826  0.2184 -1.0472
 3296SOL     OW21520   3.412   1.989   5.888 -0.1710  0.3410 -0.1078
 3296SOL    HW121521   3.351   1.998   5.960  1.1026  1.0204  0.8898
 3296SOL    HW221522   3.365   2.019   5.810 -4.5671 -1.9801  1.6532
 3297SOL     OW21523   2.146   1.157   5.302 -0.1167  0.0539  0.3732
 3297SOL    HW121524   2.088   1.195   5.236  0.8417  2.9723  1.2183
 3297SOL    HW221525   2.160   1.238   5.351 -0.9478  0.2544  0.2823
 3298SOL     OW21526   2.225   2.494   6.899  0.6432  0.2238  0.1563
 3298SOL    HW121527   2.237   2.460   6.988  1.3348  0.4177  0.1379
 3298SOL    HW221528   2.290   2.564   6.891  0.8052  0.3658  2.5801
 3299SOL     OW21529   4.522   2.463   6.089  0.1065  0.6844  0.2791
 3299SOL    HW121530   4.518   2.391   6.026 -2.4394  0.8464  0.2578
 3299SOL    HW221531   4.432   2.495   6.094  0.3005  1.8312 -3.4733
 3300SOL     OW21532   1.425   3.227   6.315 -0.6412 -0.5633  0.3097
 3300SOL    HW121533   1.388   3.176   6.243 -0.7671 -2.8269  1.9652
 3300SOL    HW221534   1.378   3.191   6.391 -0.1011  0.7068  1.2507
 3301SOL     OW21535   3.433   1.540   5.849  0.4608  0.5450  0.0388
 3301SOL    HW121536   3.355   1.539   5.794 -0.1026 -0.1733  0.8494
 3301SOL    HW221537   3.393   1.580   5.926 -0.0590 -1.0444  0.6006
 3302SOL     OW21538   0.756   2.586   5.569 -0.4858 -0.2921  0.0644
 3302SOL    HW121539   0.682   2.647   5.566 -0.4213 -0.2854 -1.4014
 3302SOL    HW221540   0.737   2.547   5.654 -0.0275 -3.0846 -1.1155
 3303SOL     OW21541   3.270   4.690   9.454  0.3436 -0.4098 -0.0290
 3303SOL    HW121542   3.302   4.607   9.489 -3.0894 -1.7347  0.0288
 3303SOL    HW221543   3.329   4.730   9.391  3.5695  1.4500  4.1300
 3304SOL     OW21544   0.763   0.671   9.264  0.1806  0.5125  0.3668
 3304SOL    HW121545   0.842   0.643   9.311 -2.8579 -1.2383  4.4961
 3304SOL    HW221546   0.697   0.692   9.331 -0.7113 -0.7370 -0.1126
 3305SOL     OW21547   3.122   3.392   1.487  0.0635  0.0352  0.3870
 3305SOL    HW121548   3.075   3.475   1.497 -0.2404  0.4330 -4.1215
 3305SOL    HW221549   3.209   3.426   1.509 -0.3662  2.9256 -2.4159
 3306SOL     OW21550   2.814   1.040   0.947  0.0990  0.2681  0.9146
 3306SOL    HW121551   2.844   1.111   0.889  1.3027 -0.8410  0.1501
 3306SOL    HW221552   2.888   0.980   0.932 -0.2025  0.8027 -2.6464
 3307SOL     OW21553   1.253   4.129   1.833  0.6077 -0.1049 -0.0613
 3307SOL    HW121554   1.286   4.189   1.766  0.1788  0.3694  0.1529
 3307SOL    HW221555   1.223   4.187   1.903 -1.1090 -0.3255 -0.6176
 3308SOL     OW21556   2.036   0.303   9.118  0.1176 -0.3478  0.1445
 3308SOL    HW121557   1.987   0.385   9.116  1.9727  0.7547 -0.4197
 3308SOL    HW221558   2.034   0.283   9.211  1.4097  0.3361  0.3189
 3309SOL     OW21559   0.395   3.208   5.549 -0.1546 -0.0237  0.0526
 3309SOL    HW121560   0.335   3.261   5.497 -0.2869 -0.1231  0.1059
 3309SOL    HW221561   0.344   3.142   5.596  0.4800  1.2897  2.6380
 3310SOL     OW21562   4.078   2.916  13.944 -0.1003  0.5231 -0.5056
 3310SOL    HW121563   4.088   2.914  13.848  2.0791 -0.9776 -0.2369
 3310SOL    HW221564   4.160   2.964  13.956  0.4425 -0.6746  0.4744
 3311SOL     OW21565   4.230   3.376  11.809  0.2792 -0.3346  0.3043
 3311SOL    HW121566   4.149   3.405  11.766  1.1371 -1.7661 -2.2932
 3311SOL    HW221567   4.201   3.307  11.868  2.9438 -0.4972  1.4257
 3312SOL     OW21568   4.311   3.303   0.113 -0.5390  0.3579 -0.2982
 3312SOL    HW121569   4.261   3.243   0.168 -0.6326  0.4293 -0.3059
 3312SOL    HW221570   4.242   3.339   0.057 -3.2550 -0.5689  2.4550
 3313SOL     OW21571   4.335   3.150   5.866  0.5671 -0.0789 -0.6557
 3313SOL    HW121572   4.296   3.224   5.912  0.9605 -1.0190  1.1906
 3313SOL    HW221573   4.333   3.162   5.771 -1.2955 -2.2160 -0.8746
 3314SOL     OW21574   3.808   3.784  17.132  0.0911 -0.2064  0.1064
 3314SOL    HW121575   3.877   3.839  17.096  0.4028 -0.8956 -0.3422
 3314SOL    HW221576   3.733   3.841  17.147  0.8108  0.6650  0.3909
 3315SOL     OW21577   0.929   4.421   2.008 -0.4690 -0.0337 -0.6037
 3315SOL    HW121578   0.959   4.333   2.031  0.6056  0.6699  0.7072
 3315SOL    HW221579   0.857   4.442   2.067 -0.9486 -1.7087 -0.5891
 3316SOL     OW21580   1.718   1.825   4.724  0.1450 -0.5340  0.6228
 3316SOL    HW121581   1.657   1.751   4.712  1.1695 -1.8328  3.4386
 3316SOL    HW221582   1.795   1.778   4.693  0.5577 -1.4174  2.9661
 3317SOL     OW21583   2.084   0.753  14.645  0.3234 -0.4299  0.0182
 3317SOL    HW121584   2.102   0.802  14.565  1.3775  1.3075  1.3283
 3317SOL    HW221585   2.075   0.825  14.708  3.0174  0.4109 -0.5624
 3318SOL     OW21586   3.190   3.341   0.283  0.3046 -0.0171  0.1399
 3318SOL    HW121587   3.285   3.351   0.278  0.3939 -1.2913 -0.6551
 3318SOL    HW221588   3.162   3.337   0.191  2.1872 -2.5229 -0.3089
 3319SOL     OW21589   4.028   1.497   3.968 -0.0190 -0.1547  0.4048
 3319SOL    HW121590   4.083   1.454   3.902  0.2386 -0.9345  1.1127
 3319SOL    HW221591   4.071   1.577   3.999  0.7250 -0.3543 -0.1272
 3320SOL     OW21592   2.902   2.890  11.147 -0.1834 -0.3107  0.0146
 3320SOL    HW121593   2.870   2.815  11.197 -1.1494  0.3355  0.3541
 3320SOL    HW221594   2.996   2.903  11.163  0.2278 -0.5618 -2.1792
 3321SOL     OW21595   0.219   3.817  11.531 -0.2737 -0.1663 -0.1630
 3321SOL    HW121596   0.299   3.868  11.519 -0.3482 -0.0114 -0.0017
 3321SOL    HW221597   0.174   3.877  11.591  2.4737  0.1090  1.5884
 3322SOL     OW21598   0.292   2.328  10.284 -0.3237 -0.1879 -0.3045
 3322SOL    HW121599   0.362   2.318  10.220 -1.3777 -2.2305 -1.1286
 3322SOL    HW221600   0.211   2.323  10.232 -0.7159 -1.6098  0.4451
 3323SOL     OW21601   3.495   2.127   4.662 -0.1443 -1.0990 -0.1828
 3323SOL    HW121602   3.427   2.076   4.706 -0.1669 -0.6147  0.3444
 3323SOL    HW221603   3.579   2.085   4.682  0.5936  1.2426  1.6440
 3324SOL     OW21604   2.666   1.541  15.946  0.3560 -0.6413  0.2066
 3324SOL    HW121605   2.627   1.454  15.931 -1.3268  0.4065 -1.5458
 3324SOL    HW221606   2.706   1.517  16.029  1.0011  1.3231  0.4533
 3325SOL     OW21607   1.255   2.291   4.239  0.2600  0.1440  0.3298
 3325SOL    HW121608   1.189   2.340   4.189 -1.3550 -2.5357 -0.1256
 3325SOL    HW221609   1.297   2.366   4.282  0.2906  0.1165  0.3475
 3326SOL     OW21610   2.926   0.434  16.129 -0.0315 -0.6075 -0.1179
 3326SOL    HW121611   2.932   0.480  16.213 -0.0228  0.4098 -0.6725
 3326SOL    HW221612   2.851   0.378  16.148  0.1279  0.0085  2.3959
 3327SOL     OW21613   2.886   2.785  14.819  0.6773 -1.0211  0.3700
 3327SOL    HW121614   2.918   2.851  14.881  0.2900  2.0608 -2.7115
 3327SOL    HW221615   2.903   2.822  14.732  0.5873 -4.0827 -0.9339
 3328SOL     OW21616   2.344   0.480  15.049  0.0222  0.1225  0.7858
 3328SOL    HW121617   2.407   0.503  15.117  0.4779 -1.3223  0.8477
 3328SOL    HW221618   2.384   0.398  15.021  0.8380  0.5525  0.6860
 3329SOL     OW21619   1.452   0.718   4.510  0.5661 -0.0859 -0.2006
 3329SOL    HW121620   1.502   0.656   4.456  0.4916 -2.0036  1.9489
 3329SOL    HW221621   1.468   0.794   4.454 -0.4523 -0.9296 -1.6495
 3330SOL     OW21622   0.816   1.905   6.669 -0.8380  0.5769  0.4149
 3330SOL    HW121623   0.724   1.929   6.656 -0.0405  2.0603 -2.4628
 3330SOL    HW221624   0.802   1.815   6.697  0.7362 -0.4570 -2.1734
 3331SOL     OW21625   3.926   2.623   4.074 -0.0833 -0.2563 -0.4587
 3331SOL    HW121626   3.881   2.566   4.137  0.6503 -0.3846 -0.0516
 3331SOL    HW221627   3.886   2.706   4.100  0.8549 -0.0686  0.3945
 3332SOL     OW21628   1.177   1.418   6.775 -0.1630  0.2998  0.1651
 3332SOL    HW121629   1.167   1.453   6.864 -1.8117 -0.0577  0.1226
 3332SOL    HW221630   1.097   1.366   6.767 -0.3861  0.6961 -0.1497
 3333SOL     OW21631   4.345   3.022  10.307 -0.2634 -0.0231  0.1457
 3333SOL    HW121632   4.318   3.055  10.222  0.8381 -0.0924 -0.2270
 3333SOL    HW221633   4.309   3.097  10.354  3.2580  1.8354 -0.1088
 3334SOL     OW21634   3.057   4.278   8.697  0.1317 -0.3658 -0.1924
 3334SOL    HW121635   3.046   4.321   8.782 -1.8060 -0.0643 -0.5964
 3334SOL    HW221636   3.153   4.269   8.696 -0.0514 -1.9836 -2.7083
 3335SOL     OW21637   3.146   3.681   7.965 -0.6666  0.6811  0.2239
 3335SOL    HW121638   3.238   3.661   7.983 -0.2993 -0.0466 -2.3715
 3335SOL    HW221639   3.151   3.644   7.877  0.1194  3.7013 -0.9993
 3336SOL     OW21640   1.314   2.226  12.269 -0.1541  0.2598 -0.2636
 3336SOL    HW121641   1.247   2.274  12.317 -0.9812 -2.0217  0.8796
 3336SOL    HW221642   1.358   2.286  12.209  0.8049 -3.5333 -3.3697
 3337SOL     OW21643   0.748   0.470   4.253 -0.8362  0.0351 -0.3035
 3337SOL    HW121644   0.817   0.480   4.187  0.1474 -1.4845  0.4790
 3337SOL    HW221645   0.725   0.377   4.253 -0.8785  0.0509  0.9422
 3338SOL     OW21646   0.925   1.997   6.241  0.3154 -0.2316  0.1747
 3338SOL    HW121647   0.860   2.033   6.302 -0.1943  0.9132 -1.0309
 3338SOL    HW221648   0.941   1.914   6.286 -0.7202 -0.5653 -0.0628
 3339SOL     OW21649   0.670   2.624  16.168 -0.1800  0.1364 -0.2402
 3339SOL    HW121650   0.722   2.606  16.090  0.4513  1.2196 -0.0644
 3339SOL    HW221651   0.728   2.693  16.201 -1.9016  1.2054  0.5716
 3340SOL     OW21652   0.200   3.355   5.353 -0.0754 -0.2440  0.5005
 3340SOL    HW121653   0.243   3.440   5.339  0.7139 -0.6756  0.3353
 3340SOL    HW221654   0.230   3.307   5.276 -1.1145  1.5768 -1.0314
 3341SOL     OW21655   1.165   0.862   2.649  0.0377 -0.1965  0.0046
 3341SOL    HW121656   1.174   0.957   2.655 -0.6487 -0.1174 -0.2394
 3341SOL    HW221657   1.078   0.839   2.616  0.9540 -1.3892 -1.5565
 3342SOL     OW21658   2.978   2.387   6.712  0.4095  0.4289 -0.9124
 3342SOL    HW121659   3.003   2.374   6.803 -0.3646  0.6261 -0.6777
 3342SOL    HW221660   2.941   2.300   6.692  1.6124  0.0924 -1.7184
 3343SOL     OW21661   4.540   1.669   4.372  0.1884 -0.2180 -0.0938
 3343SOL    HW121662   4.620   1.677   4.321  1.0853  0.4512  1.3992
 3343SOL    HW221663   4.476   1.630   4.312  0.4839  2.4835 -2.1276
 3344SOL     OW21664   0.166   3.008  13.083  0.0243  0.1734 -0.0061
 3344SOL    HW121665   0.255   2.974  13.079 -0.1503 -0.0395 -2.4014
 3344SOL    HW221666   0.132   2.950  13.151  1.7835 -0.2138  0.5382
 3345SOL     OW21667   3.736   1.750   7.148  0.0300  0.5676 -0.6677
 3345SOL    HW121668   3.678   1.691   7.100 -0.4941 -1.3260  2.2719
 3345SOL    HW221669   3.679   1.807   7.201  0.3051  1.2300 -1.0808
 3346SOL     OW21670   4.135   1.605   2.757  0.1556 -0.1129  0.2575
 3346SOL    HW121671   4.115   1.550   2.681  0.2222  0.6301 -0.2981
 3346SOL    HW221672   4.072   1.567   2.818 -0.3593  0.2132 -0.0728
 3347SOL     OW21673   3.470   3.735   6.862  0.0322  0.4201  0.2219
 3347SOL    HW121674   3.546   3.762   6.811 -0.0099  1.1323  0.5428
 3347SOL    HW221675   3.402   3.739   6.794 -1.3841 -0.9732  1.5654
 3348SOL     OW21676   3.697   1.803   9.200  0.3561  0.2887  0.5312
 3348SOL    HW121677   3.638   1.733   9.228  0.1660  0.7054  1.1699
 3348SOL    HW221678   3.724   1.774   9.113 -1.9136  1.4389 -0.5595
 3349SOL     OW21679   2.846   2.329   9.215  0.2818 -0.0869  0.6052
 3349SOL    HW121680   2.833   2.247   9.263  1.1619  0.2357  1.3929
 3349SOL    HW221681   2.878   2.295   9.131 -3.9330 -0.5160 -0.8300
 3350SOL     OW21682   2.013   4.100   6.812 -0.3479  0.0957  0.2369
 3350SOL    HW121683   1.999   4.130   6.902  1.5954 -1.1011  0.9194
 3350SOL    HW221684   2.002   4.005   6.812  1.8680 -0.1407 -3.8084
 3351SOL     OW21685   3.970   1.982   5.832  0.2029  0.3899  0.0113
 3351SOL    HW121686   3.940   1.906   5.882  0.2295 -0.5733 -1.4257
 3351SOL    HW221687   4.056   1.953   5.803 -0.6864 -2.3244  0.0472
 3352SOL     OW21688   1.794   0.125  10.125 -0.3352 -0.4158  0.8215
 3352SOL    HW121689   1.840   0.044  10.149  0.6179  0.2332  1.1563
 3352SOL    HW221690   1.701   0.109  10.141 -0.8330  0.9760 -0.6839
 3353SOL     OW21691   0.814   3.892   9.351 -0.3582 -0.1857  0.3947
 3353SOL    HW121692   0.874   3.840   9.298 -1.6321 -0.4906 -0.7471
 3353SOL    HW221693   0.745   3.904   9.286 -0.3159 -1.3430  0.1341
 3354SOL     OW21694   4.163   3.704  17.034  0.3451 -0.2969  0.2241
 3354SOL    HW121695   4.147   3.610  17.032  0.5602 -0.3621  1.8899
 3354SOL    HW221696   4.077   3.742  17.018  1.6354  1.5477 -2.3668
 3355SOL     OW21697   3.725   0.743  10.367  0.5808  0.0172  0.6893
 3355SOL    HW121698   3.750   0.651  10.377  1.5644  0.3905  1.6571
 3355SOL    HW221699   3.733   0.771  10.458 -1.9762 -2.2725  1.6401
 3356SOL     OW21700   1.190   4.008   5.973 -0.2880  0.2503 -0.0837
 3356SOL    HW121701   1.210   3.927   6.019 -0.3698  0.0321 -0.4347
 3356SOL    HW221702   1.094   4.012   5.966 -0.5184 -2.7985  1.1104
 3357SOL     OW21703   3.178   0.487   4.609  0.3139  0.7246  0.0619
 3357SOL    HW121704   3.123   0.542   4.553  0.4459 -0.3682 -1.1191
 3357SOL    HW221705   3.124   0.408   4.613  1.5651 -0.1731 -0.7569
 3358SOL     OW21706   3.884   1.986  17.196  0.0105  0.2099 -0.7815
 3358SOL    HW121707   3.815   1.947  17.143  0.6416 -0.5238 -1.0659
 3358SOL    HW221708   3.853   2.075  17.213 -2.0565 -1.2628  3.2162
 3359SOL     OW21709   1.937   0.735  10.514  0.2560  0.1837  0.1600
 3359SOL    HW121710   1.858   0.691  10.544 -0.8990  1.2472 -1.3429
 3359SOL    HW221711   1.895   0.812  10.476 -1.4583 -0.6380  0.3977
 3360SOL     OW21712   2.531   2.987   2.125 -0.0146 -0.4243 -0.2298
 3360SOL    HW121713   2.436   2.974   2.124 -0.0815  0.1078 -1.8420
 3360SOL    HW221714   2.542   3.066   2.179 -1.6007 -0.6887  0.4972
 3361SOL     OW21715   0.179   4.031  17.612 -0.5673  0.1172  0.3427
 3361SOL    HW121716   0.104   3.977  17.590  0.3404 -0.7134 -0.7083
 3361SOL    HW221717   0.163   4.068  17.699 -1.3479 -1.9898  1.0866
 3362SOL     OW21718   2.492   1.568   6.418 -0.0683 -0.2696  0.2090
 3362SOL    HW121719   2.476   1.646   6.365 -0.2991  0.3643  1.1961
 3362SOL    HW221720   2.408   1.529   6.441  0.4709 -0.8873  1.1229
 3363SOL     OW21721   2.422   1.364   1.662  0.2910 -0.4500  0.2401
 3363SOL    HW121722   2.340   1.342   1.618  0.9489 -1.4995 -0.4361
 3363SOL    HW221723   2.397   1.442   1.713  0.5466 -0.2083 -0.0060
 3364SOL     OW21724   0.486   2.047   6.328  0.1260  0.1554  0.2060
 3364SOL    HW121725   0.509   1.954   6.317  1.1897  0.4052  0.3066
 3364SOL    HW221726   0.501   2.087   6.243  1.9273 -2.4941 -0.7243
 3365SOL     OW21727   4.334   4.091   6.058  0.1101 -0.2743  0.3133
 3365SOL    HW121728   4.416   4.093   6.107 -0.1367 -0.5575  0.7397
 3365SOL    HW221729   4.295   4.011   6.094  1.2853 -0.3525  1.4170
 3366SOL     OW21730   0.972   1.503  15.108  0.7812 -0.4325 -0.3843
 3366SOL    HW121731   0.985   1.593  15.078  0.5551 -1.1682 -2.6874
 3366SOL    HW221732   0.929   1.469  15.030 -0.4004 -0.3018  0.2181
 3367SOL     OW21733   3.342   2.264   3.751  0.2595  0.2372  0.5908
 3367SOL    HW121734   3.373   2.343   3.796 -0.8624  1.5780 -0.9860
 3367SOL    HW221735   3.408   2.202   3.781  0.3198  0.1957  0.3662
 3368SOL     OW21736   1.387   0.701   4.107  0.2927  0.1508  0.2325
 3368SOL    HW121737   1.297   0.734   4.099  0.3339  0.0258 -0.6917
 3368SOL    HW221738   1.380   0.621   4.159 -1.6623  1.9566  2.7776
 3369SOL     OW21739   1.058   3.544  10.855  0.1868  0.2459  0.3456
 3369SOL    HW121740   1.004   3.600  10.910  0.4238 -0.1309  0.9594
 3369SOL    HW221741   1.073   3.465  10.906 -0.9590 -0.2526 -0.0978
 3370SOL     OW21742   4.634   3.177   9.394  0.1595 -0.0432  0.6348
 3370SOL    HW121743   4.703   3.165   9.460  1.2689 -1.1578 -0.7128
 3370SOL    HW221744   4.553   3.174   9.446  0.2528 -0.8409  0.7310
 3371SOL     OW21745   3.005   3.870  16.043  0.6484  0.5108  0.7753
 3371SOL    HW121746   2.952   3.910  15.974  0.9698 -2.8541 -1.4422
 3371SOL    HW221747   3.087   3.873  15.993 -0.2303  0.4813 -0.6747
 3372SOL     OW21748   1.063   4.718  12.046 -0.1251  0.5893  0.2243
 3372SOL    HW121749   1.116   4.640  12.061  0.9869  1.0050 -1.6047
 3372SOL    HW221750   0.981   4.677  12.021  0.5718 -0.0235 -1.0620
 3373SOL     OW21751   3.412   1.269   3.133  0.8126  0.1336 -0.2267
 3373SOL    HW121752   3.481   1.225   3.083  3.7577  2.8744  1.4307
 3373SOL    HW221753   3.434   1.240   3.222 -1.2021  0.3773  0.3504
 3374SOL     OW21754   3.510   3.432   6.692  0.3673 -0.6812  0.4753
 3374SOL    HW121755   3.427   3.475   6.671  0.9059  0.1674  0.0788
 3374SOL    HW221756   3.572   3.503   6.679 -0.7078  0.3575  0.9468
 3375SOL     OW21757   4.656   1.954   6.104  0.6266  0.1391 -0.7557
 3375SOL    HW121758   4.627   1.928   6.192  2.0101  0.5448 -0.1766
 3375SOL    HW221759   4.651   2.049   6.110  0.5444  0.0236  1.2069
 3376SOL     OW21760   2.149   3.039   8.092 -0.2519 -0.2113 -0.5604
 3376SOL    HW121761   2.116   3.125   8.120  0.2479 -0.5055  0.9000
 3376SOL    HW221762   2.182   3.060   8.005 -2.1389  1.5651 -0.8592
 3377SOL     OW21763   4.674   2.813  16.972  0.2545  0.0437  0.2224
 3377SOL    HW121764   4.698   2.844  17.059 -0.8124  2.3174 -0.3002
 3377SOL    HW221765   4.581   2.808  16.991  0.4397  1.2535  1.3987
 3378SOL     OW21766   0.600   1.049   4.696  0.0843 -0.6848 -0.4762
 3378SOL    HW121767   0.599   1.004   4.611 -1.3771  1.9084 -1.8370
 3378SOL    HW221768   0.680   1.100   4.683 -0.2043  0.0626  0.6753
 3379SOL     OW21769   1.212   1.466  17.366  0.1734 -0.8621 -0.7178
 3379SOL    HW121770   1.192   1.377  17.395 -1.3022 -0.3899 -0.2427
 3379SOL    HW221771   1.253   1.497  17.447 -0.8130 -1.4506  0.0115
 3380SOL     OW21772   2.404   2.411  14.617  0.1581 -0.3193 -0.1754
 3380SOL    HW121773   2.461   2.336  14.598  1.5497  1.2011 -2.0254
 3380SOL    HW221774   2.439   2.474  14.554 -1.3183  1.6344  0.9839
 3381SOL     OW21775   3.167   1.535   5.769 -0.1153 -0.0998 -0.4685
 3381SOL    HW121776   3.148   1.603   5.705  0.0825 -0.9927 -1.4792
 3381SOL    HW221777   3.084   1.490   5.784 -0.2555 -1.7657 -6.1372
 3382SOL     OW21778   3.389   3.626  14.602  0.5487  0.1126  0.0383
 3382SOL    HW121779   3.320   3.679  14.643  2.8293  1.7955  1.6662
 3382SOL    HW221780   3.336   3.547  14.588 -0.8390  0.6898  2.0129
 3383SOL     OW21781   2.033   0.477   3.013  0.6285  0.3343  0.2296
 3383SOL    HW121782   2.097   0.422   3.058  1.2298  1.0275  0.2146
 3383SOL    HW221783   1.956   0.463   3.068  2.2463 -0.5860  2.2313
 3384SOL     OW21784   2.720   0.244   8.427  0.2133 -0.1341 -0.1826
 3384SOL    HW121785   2.788   0.186   8.459  0.3029  0.9753  1.6700
 3384SOL    HW221786   2.765   0.308   8.372 -0.4388  0.4390 -0.0630
 3385SOL     OW21787   1.793   2.171   5.208 -0.0717  0.3013 -0.1196
 3385SOL    HW121788   1.760   2.258   5.231 -2.8159 -0.7091 -0.2207
 3385SOL    HW221789   1.879   2.176   5.249 -0.9307  1.8279  1.4683
 3386SOL     OW21790   1.436   2.587   2.158  0.1975  0.5398 -0.1222
 3386SOL    HW121791   1.456   2.582   2.251  0.0767 -0.9072 -0.1818
 3386SOL    HW221792   1.416   2.681   2.152  1.2663  0.5931 -2.8020
 3387SOL     OW21793   3.204   3.569   5.095 -0.3059 -0.0550 -0.5216
 3387SOL    HW121794   3.157   3.652   5.095 -1.1043 -0.5000 -1.3745
 3387SOL    HW221795   3.280   3.589   5.150 -0.3046 -2.3100  0.2818
 3388SOL     OW21796   3.943   1.685   2.308  0.2834 -0.2088  0.2726
 3388SOL    HW121797   3.852   1.712   2.318  0.9659  1.6786  1.3232
 3388SOL    HW221798   3.930   1.594   2.278 -0.5923  0.3800 -1.1585
 3389SOL     OW21799   0.893   2.184  16.750 -0.2221  0.1859  0.1609
 3389SOL    HW121800   0.861   2.230  16.672 -3.7221 -0.4991  1.2186
 3389SOL    HW221801   0.831   2.112  16.743 -0.9971  1.0100 -1.7510
 3390SOL     OW21802   3.581   2.320   3.098 -0.6401 -0.0655 -0.4077
 3390SOL    HW121803   3.636   2.312   3.020 -0.9689  1.1005 -0.7642
 3390SOL    HW221804   3.499   2.297   3.055 -1.5584 -2.3932  2.6289
 3391SOL     OW21805   2.827   2.549   0.805 -0.0724 -0.5286 -0.1919
 3391SOL    HW121806   2.792   2.636   0.786 -0.0943 -0.2439  1.1112
 3391SOL    HW221807   2.918   2.571   0.826 -0.6779  1.4657  0.3470
 3392SOL     OW21808   0.633   1.304   3.052  0.0890  0.2759 -0.0724
 3392SOL    HW121809   0.639   1.211   3.073  1.6786  0.1730 -1.0397
 3392SOL    HW221810   0.544   1.324   3.081  0.1692  1.3459 -0.5712
 3393SOL     OW21811   4.589   0.123  10.902 -0.2965  0.5420  0.6477
 3393SOL    HW121812   4.515   0.066  10.919  1.0366 -1.1346  0.7932
 3393SOL    HW221813   4.576   0.184  10.974 -0.5170  1.4908 -0.1820
 3394SOL     OW21814   3.365   0.496   7.725  0.3907  0.3055  0.5131
 3394SOL    HW121815   3.336   0.508   7.635  3.6743 -0.3704 -0.6201
 3394SOL    HW221816   3.433   0.429   7.714  0.0980  0.1559 -0.3403
 3395SOL     OW21817   3.747   2.579   7.744 -0.2034 -0.4041  0.6486
 3395SOL    HW121818   3.679   2.515   7.722 -0.6808  1.0748 -2.0657
 3395SOL    HW221819   3.773   2.610   7.657  4.0828 -2.4604  1.1619
 3396SOL     OW21820   1.536   3.481   9.291  0.2845 -0.4750 -0.5447
 3396SOL    HW121821   1.461   3.445   9.338 -0.8897  1.3635 -1.0376
 3396SOL    HW221822   1.601   3.453   9.356 -2.6216 -1.7092  1.8166
 3397SOL     OW21823   3.692   1.220  16.927  0.6450  0.1230  0.2481
 3397SOL    HW121824   3.721   1.206  16.837 -0.9256 -1.2624 -0.0348
 3397SOL    HW221825   3.768   1.267  16.962  0.0155  2.0845 -1.0045
 3398SOL     OW21826   1.044   4.338   7.876 -0.0411 -0.3837  0.0864
 3398SOL    HW121827   0.995   4.290   7.808  0.5130  2.5228 -2.3742
 3398SOL    HW221828   1.035   4.271   7.943 -0.3585 -0.4014  0.0247
 3399SOL     OW21829   0.677   1.605   0.690  0.2581 -0.5543  0.7632
 3399SOL    HW121830   0.728   1.676   0.651 -1.4285  0.4543  0.4008
 3399SOL    HW221831   0.642   1.564   0.611  0.8905 -0.0539  0.2165
 3400SOL     OW21832   1.907   1.964  13.804  0.5494 -0.2727 -0.0119
 3400SOL    HW121833   1.831   2.023  13.807 -0.0284 -0.8977 -1.8738
 3400SOL    HW221834   1.975   2.011  13.851 -0.0584  0.6118 -0.0066
 3401SOL     OW21835   2.109   0.784   6.972  0.0022 -0.1390 -0.6700
 3401SOL    HW121836   2.122   0.811   7.063  1.7549 -2.9109 -0.0915
 3401SOL    HW221837   2.163   0.849   6.927 -1.2670  0.4660 -1.3144
 3402SOL     OW21838   1.567   3.711   5.254  0.6155 -0.2773 -0.1846
 3402SOL    HW121839   1.503   3.708   5.326  0.1422 -1.3763 -0.6429
 3402SOL    HW221840   1.614   3.793   5.261 -1.8327  1.1579 -0.5270
 3403SOL     OW21841   1.007   3.412   2.299 -0.2832 -0.0213  0.3289
 3403SOL    HW121842   0.999   3.320   2.274 -3.0455  0.2892  0.0299
 3403SOL    HW221843   1.101   3.421   2.316 -0.8099 -0.0982  3.3417
 3404SOL     OW21844   3.578   3.012   1.215 -0.0259  0.1346  0.2259
 3404SOL    HW121845   3.588   3.018   1.310 -2.7264  4.6771  0.2089
 3404SOL    HW221846   3.593   2.918   1.207 -0.4103 -0.0256  1.2794
 3405SOL     OW21847   4.386   0.321  16.238 -0.4671  0.0448 -0.0080
 3405SOL    HW121848   4.322   0.383  16.203  0.3741  0.8454 -0.1117
 3405SOL    HW221849   4.398   0.266  16.161  0.0544 -1.8973  1.4611
 3406SOL     OW21850   4.196   3.720   5.288 -0.8437 -0.0259 -0.3857
 3406SOL    HW121851   4.237   3.805   5.271  0.7500 -0.2135  2.4830
 3406SOL    HW221852   4.241   3.709   5.371 -3.9311  0.2234  1.2990
 3407SOL     OW21853   1.676   3.944   3.662 -0.0874 -0.2179 -0.2305
 3407SOL    HW121854   1.758   3.973   3.700 -0.5031  0.3418  0.2342
 3407SOL    HW221855   1.690   3.983   3.575  0.9372  0.9580  0.4758
 3408SOL     OW21856   1.824   0.102   5.015 -0.2651 -0.4376  0.2256
 3408SOL    HW121857   1.774   0.132   5.091  0.4533  0.1206  0.4693
 3408SOL    HW221858   1.905   0.150   5.029  1.4896 -2.6247 -2.4037
 3409SOL     OW21859   4.530   3.226   3.203  0.2397  0.3238  0.6216
 3409SOL    HW121860   4.552   3.198   3.115  0.1940 -1.7419  1.2823
 3409SOL    HW221861   4.589   3.300   3.219  0.5578 -0.2907  2.2951
 3410SOL     OW21862   3.477   3.805   8.492 -0.0467  0.2887  0.8753
 3410SOL    HW121863   3.453   3.736   8.430  1.7918  1.6334 -1.3283
 3410SOL    HW221864   3.457   3.886   8.446 -1.0590 -1.2707 -1.4196
 3411SOL     OW21865   0.724   0.172  11.128 -0.5682  0.0814 -0.0413
 3411SOL    HW121866   0.729   0.128  11.213 -1.1136 -0.9097 -0.5368
 3411SOL    HW221867   0.719   0.264  11.156  1.2273 -0.2708  1.3983
 3412SOL     OW21868   1.824   4.260   8.845 -0.2036  0.1875 -0.7820
 3412SOL    HW121869   1.765   4.200   8.799  1.6576 -1.1276 -1.4446
 3412SOL    HW221870   1.908   4.218   8.831  0.3032  0.7678  0.5495
 3413SOL     OW21871   2.331   3.828   3.451  0.2878 -0.6510  0.4681
 3413SOL    HW121872   2.402   3.767   3.471  1.8075  0.7641 -0.6193
 3413SOL    HW221873   2.358   3.913   3.487 -2.2932 -0.1281  1.1560
 3414SOL     OW21874   1.276   3.152  11.887  0.0354 -0.0216 -0.8113
 3414SOL    HW121875   1.257   3.109  11.804 -2.5816 -0.0580 -0.1948
 3414SOL    HW221876   1.361   3.192  11.865  1.0235 -2.3414 -1.2375
 3415SOL     OW21877   1.908   3.964   3.473 -0.6194  0.7598 -0.0103
 3415SOL    HW121878   1.974   3.895   3.480  0.1170  1.5468  0.7786
 3415SOL    HW221879   1.905   3.978   3.378 -0.2881  3.0222  0.3197
 3416SOL     OW21880   2.215   1.010   2.665  0.4139 -0.0702 -0.0179
 3416SOL    HW121881   2.130   0.968   2.673  0.7493 -0.2290  2.8895
 3416SOL    HW221882   2.205   1.070   2.591  2.0351 -1.3851 -1.2988
 3417SOL     OW21883   1.504   0.349   3.356  0.2996  0.2975  0.2859
 3417SOL    HW121884   1.426   0.397   3.327 -1.9082 -2.9406  0.8268
 3417SOL    HW221885   1.570   0.417   3.348  0.7752 -0.2956 -0.8656
 3418SOL     OW21886   1.885   0.492   4.604  0.6665  0.3790  0.7639
 3418SOL    HW121887   1.813   0.458   4.550  1.6195 -0.3510 -0.0404
 3418SOL    HW221888   1.905   0.419   4.663 -0.6999  0.9526  1.9523
 3419SOL     OW21889   3.434   2.394  16.724 -0.1214 -0.0529 -0.0196
 3419SOL    HW121890   3.365   2.335  16.693 -1.3441  0.7329  1.2169
 3419SOL    HW221891   3.450   2.350  16.808 -0.5048 -0.5617 -0.2107
 3420SOL     OW21892   1.997   1.034   6.703  0.3834 -0.4805  0.0015
 3420SOL    HW121893   1.956   1.094   6.641 -0.0346 -1.3129 -0.5261
 3420SOL    HW221894   1.959   0.950   6.676  0.1360 -0.5293  0.5190
 3421SOL     OW21895   1.545   3.360   6.536  0.6789  0.3258 -1.0024
 3421SOL    HW121896   1.489   3.438   6.532  1.8176  1.1273 -1.3352
 3421SOL    HW221897   1.489   3.301   6.486  1.9515 -0.5100 -1.4363
 3422SOL     OW21898   3.383   4.094   7.074  0.3878  0.4396  0.2053
 3422SOL    HW121899   3.430   4.124   7.152 -0.0717 -0.5623  0.8671
 3422SOL    HW221900   3.373   4.178   7.028  1.5706 -0.0746 -0.9736
 3423SOL     OW21901   3.402   0.862  15.756  0.7450 -0.2803  0.0777
 3423SOL    HW121902   3.324   0.883  15.705  0.8307  1.7338  0.7627
 3423SOL    HW221903   3.355   0.855  15.839 -1.9284 -1.9677 -1.5609
 3424SOL     OW21904   2.388   0.419   6.300  0.2323  0.6575  0.1020
 3424SOL    HW121905   2.328   0.469   6.354 -0.9516 -0.5190 -0.1337
 3424SOL    HW221906   2.426   0.360   6.365 -2.8878 -1.5633 -0.0891
 3425SOL     OW21907   0.989   3.750  11.025  0.2332 -0.0398 -0.2856
 3425SOL    HW121908   0.982   3.694  11.101 -1.9733  2.1792  1.1384
 3425SOL    HW221909   1.066   3.807  11.035 -1.1157  1.3386  2.1088
 3426SOL     OW21910   0.493   0.590   4.579  0.1682  0.1475  0.2707
 3426SOL    HW121911   0.462   0.540   4.655  0.2832 -0.2085  0.0853
 3426SOL    HW221912   0.581   0.599   4.617  1.4312 -3.1290 -1.7705
 3427SOL     OW21913   2.717   2.939   6.680 -0.6608 -0.3047  0.0127
 3427SOL    HW121914   2.644   2.944   6.742 -2.2351 -2.1742 -1.6719
 3427SOL    HW221915   2.713   2.848   6.653 -2.1327  0.3954 -2.2003
 3428SOL     OW21916   2.804   4.637  12.830  0.6523  0.6230 -0.4137
 3428SOL    HW121917   2.732   4.645  12.893  0.9955 -0.3536  0.1018
 3428SOL    HW221918   2.877   4.655  12.890 -0.3087 -0.9878  1.2296
 3429SOL     OW21919   0.015   0.586  16.777  0.0430  0.0584  0.2199
 3429SOL    HW121920   4.689   0.654  16.763 -1.0189 -0.5811  2.0320
 3429SOL    HW221921   0.008   0.540  16.694  4.9556  1.8169 -1.2083
 3430SOL     OW21922   3.050   4.002   2.614  0.0180 -0.2925  0.2138
 3430SOL    HW121923   2.974   3.968   2.662 -0.7688 -0.4485 -1.1635
 3430SOL    HW221924   3.107   4.020   2.689  1.1868  1.0260 -1.0142
 3431SOL     OW21925   0.834   2.696   5.243  0.5051 -0.0010  0.1651
 3431SOL    HW121926   0.825   2.612   5.199 -1.0452 -0.3417  1.1023
 3431SOL    HW221927   0.900   2.741   5.191  0.1027 -0.4122 -0.7056
 3432SOL     OW21928   2.523   3.036   2.621 -0.2714  0.1906  0.6160
 3432SOL    HW121929   2.486   3.002   2.540 -0.7319 -1.4365  1.5246
 3432SOL    HW221930   2.603   2.983   2.631 -0.6555 -0.2043  1.6643
 3433SOL     OW21931   2.306   2.902   7.567  0.4036 -0.0268 -0.3938
 3433SOL    HW121932   2.269   2.911   7.479 -0.1594 -0.7810 -0.2344
 3433SOL    HW221933   2.375   2.968   7.564 -0.7171  1.1785  0.1741
 3434SOL     OW21934   3.796   2.074   1.328 -0.0074 -0.3429  0.2748
 3434SOL    HW121935   3.742   2.136   1.378  0.7392  0.7609 -0.2750
 3434SOL    HW221936   3.846   2.134   1.272 -0.5034  0.7236  0.9731
 3435SOL     OW21937   3.027   2.357   8.331  0.4937 -0.0428 -0.7057
 3435SOL    HW121938   3.047   2.446   8.359 -1.5499  0.6446 -1.4373
 3435SOL    HW221939   2.948   2.372   8.279  0.7087 -1.9554 -1.6021
 3436SOL     OW21940   0.386   0.654   1.901  0.3100 -0.2090  0.8438
 3436SOL    HW121941   0.385   0.737   1.853 -0.2152 -1.0471 -0.5956
 3436SOL    HW221942   0.428   0.592   1.841  3.3473 -0.0533  2.8618
 3437SOL     OW21943   4.668   0.406   8.633 -0.0836 -0.0023 -0.0910
 3437SOL    HW121944   4.684   0.351   8.710  1.4577  0.8086  0.1543
 3437SOL    HW221945   4.720   0.481   8.661  1.7675 -2.5336  3.1817
 3438SOL     OW21946   2.178   4.048   8.633  0.7874 -0.2858 -0.5010
 3438SOL    HW121947   2.090   4.011   8.630  0.3743  0.8563 -2.3342
 3438SOL    HW221948   2.163   4.106   8.708  0.1653  0.7169 -1.3973
 3439SOL     OW21949   4.084   2.336   4.870 -0.3147 -0.1031  1.2125
 3439SOL    HW121950   4.082   2.241   4.860 -0.2210 -0.0188  0.3774
 3439SOL    HW221951   4.159   2.345   4.928  1.3932 -1.4499 -0.7765
 3440SOL     OW21952   4.302   2.306   4.004 -0.3904 -0.1490 -0.1672
 3440SOL    HW121953   4.365   2.235   4.001  0.4147  0.5757 -0.5460
 3440SOL    HW221954   4.341   2.361   4.072 -3.9998  3.2055 -0.7567
 3441SOL     OW21955   2.385   0.696   8.685 -0.1445 -0.1293 -0.1952
 3441SOL    HW121956   2.435   0.642   8.746  2.1128  1.1716 -0.8975
 3441SOL    HW221957   2.455   0.743   8.639  1.6712 -0.1555  2.4988
 3442SOL     OW21958   4.720   2.141  11.981 -0.5901  0.0435 -0.4260
 3442SOL    HW121959   4.714   2.068  12.043  2.7792 -1.7727 -2.2197
 3442SOL    HW221960   4.713   2.108  11.892 -1.2034 -0.2930 -0.2565
 3443SOL     OW21961   3.559   1.465   9.654  0.2291  0.0431  0.4403
 3443SOL    HW121962   3.626   1.403   9.681 -0.5874 -0.5906  1.0323
 3443SOL    HW221963   3.554   1.525   9.728  1.1429  1.4394 -0.6285
 3444SOL     OW21964   2.068   0.065   7.215  0.0852  0.1345  0.1020
 3444SOL    HW121965   2.086   0.048   7.122 -0.5021 -0.7961  0.1544
 3444SOL    HW221966   2.068   0.160   7.202 -0.0390  0.1226  0.0135
 3445SOL     OW21967   0.082   2.816  11.658 -0.3615  0.0402 -0.7415
 3445SOL    HW121968   0.023   2.789  11.587  1.5946 -3.2827 -1.1063
 3445SOL    HW221969   0.026   2.870  11.714 -2.7372 -2.5927 -0.5473
 3446SOL     OW21970   1.179   3.414   7.217  0.3912 -0.1174  0.1433
 3446SOL    HW121971   1.111   3.408   7.149  1.1790 -1.3884 -0.5437
 3446SOL    HW221972   1.245   3.472   7.178 -1.7368  2.2455 -0.0075
 3447SOL     OW21973   0.719   3.483   6.010 -0.2431 -0.3265  0.3717
 3447SOL    HW121974   0.785   3.550   5.995 -2.0023  1.1220 -0.9120
 3447SOL    HW221975   0.655   3.531   6.064 -1.7169 -1.9263  0.0623
 3448SOL     OW21976   3.389   1.626   1.128 -0.2414 -0.5468  0.1859
 3448SOL    HW121977   3.341   1.553   1.089  0.5856 -0.2195 -1.4490
 3448SOL    HW221978   3.467   1.608   1.076 -1.2211 -1.5703 -0.9182
 3449SOL     OW21979   4.736   1.011   5.783  0.0761  0.8778 -0.0231
 3449SOL    HW121980   0.019   1.095   5.743  0.6689  0.0858 -1.3501
 3449SOL    HW221981   0.085   0.975   5.791  0.9455  3.0620  0.4913
 3450SOL     OW21982   1.327   4.566   8.601 -0.0381 -0.1189  0.1213
 3450SOL    HW121983   1.292   4.600   8.683  0.0527  0.4063 -0.0534
 3450SOL    HW221984   1.350   4.649   8.559 -1.4320 -0.3658 -1.0993
 3451SOL     OW21985   3.745   0.224   1.486 -0.2193 -0.3045 -0.6531
 3451SOL    HW121986   3.738   0.155   1.420  0.1983 -0.4233 -0.5724
 3451SOL    HW221987   3.783   0.302   1.447 -1.9865  0.3796 -1.0128
 3452SOL     OW21988   2.198   2.929   9.440 -0.0954 -0.5562  0.3201
 3452SOL    HW121989   2.264   2.924   9.371 -0.3006 -1.0293  0.1559
 3452SOL    HW221990   2.251   2.888   9.508  1.1136  0.0153 -0.2789
 3453SOL     OW21991   4.007   2.342  13.946  0.0149  0.4170 -0.4341
 3453SOL    HW121992   3.961   2.424  13.926  0.8122  0.8606 -0.4529
 3453SOL    HW221993   4.052   2.329  13.862  2.0881 -0.0187  0.7549
 3454SOL     OW21994   4.439   0.607  10.574 -0.3217 -0.6015 -0.0910
 3454SOL    HW121995   4.357   0.634  10.617 -0.1051 -1.9312  1.1180
 3454SOL    HW221996   4.414   0.574  10.488 -1.0805  1.3448 -0.6295
 3455SOL     OW21997   2.020   3.317   4.607 -0.8634 -0.2727  0.4651
 3455SOL    HW121998   1.996   3.258   4.535  2.7593  0.2824 -1.1960
 3455SOL    HW221999   1.959   3.384   4.576 -1.9479 -1.3928  0.1795
 3456SOL     OW22000   2.593   3.257  10.323 -0.0466 -0.0591  0.3520
 3456SOL    HW122001   2.672   3.288  10.279 -0.3162  1.9190  1.2704
 3456SOL    HW222002   2.579   3.316  10.397  0.9917 -0.6963  1.0558
 3457SOL     OW22003   0.102   0.956  12.808 -0.3969 -0.1625 -0.4306
 3457SOL    HW122004   0.133   0.992  12.725 -1.3916 -0.4118 -0.9207
 3457SOL    HW222005   0.154   0.875  12.812 -0.1577  0.2320  4.4641
 3458SOL     OW22006   2.316   2.984   7.850  0.1332  0.3368  0.5441
 3458SOL    HW122007   2.353   3.038   7.780  1.0192  0.2341  0.9337
 3458SOL    HW222008   2.230   2.955   7.821  1.1500 -1.8371 -0.2339
 3459SOL     OW22009   2.111   4.669   4.462 -0.4506  0.0315  0.2966
 3459SOL    HW122010   2.023   4.663   4.423  0.4644 -1.8462 -1.4298
 3459SOL    HW222011   2.153   4.598   4.414 -0.3487  0.3586 -0.1007
 3460SOL     OW22012   0.280   2.290   3.587 -0.2482  0.2648  0.0256
 3460SOL    HW122013   0.202   2.237   3.607 -0.6891  1.0581  0.4386
 3460SOL    HW222014   0.274   2.295   3.492  0.4446  1.1398  0.0322
 3461SOL     OW22015   4.643   4.362   4.471  0.6610  0.3246  0.2770
 3461SOL    HW122016   4.571   4.351   4.533 -1.5119  0.2372 -2.2710
 3461SOL    HW222017   4.593   4.357   4.389 -0.1912 -1.4139  0.9108
 3462SOL     OW22018   2.931   4.630  16.661  0.0359 -0.3296 -0.3037
 3462SOL    HW122019   2.910   4.721  16.684  0.2934 -0.2126 -0.5338
 3462SOL    HW222020   3.026   4.641  16.670 -0.1924  0.0670  1.8081
 3463SOL     OW22021   0.712   2.462   9.121 -0.8308  0.6100  0.0144
 3463SOL    HW122022   0.760   2.385   9.152  1.1645  2.0228  0.3844
 3463SOL    HW222023   0.637   2.412   9.088 -0.9636 -0.0955  1.3941
 3464SOL     OW22024   1.800   0.869   8.801 -0.5751 -0.0571  0.4636
 3464SOL    HW122025   1.757   0.790   8.835  0.4851 -0.9101 -0.1810
 3464SOL    HW222026   1.739   0.891   8.730  0.7390 -0.9696 -0.9712
 3465SOL     OW22027   2.680   0.926   5.732 -0.2595 -0.3886  0.0251
 3465SOL    HW122028   2.601   0.949   5.683 -1.9974 -2.2174  1.9706
 3465SOL    HW222029   2.686   0.834   5.705 -0.2338  0.1907 -1.9436
 3466SOL     OW22030   1.612   1.145   6.139 -0.2087 -0.3566 -0.3741
 3466SOL    HW122031   1.521   1.176   6.131 -0.3382 -0.4156  0.9382
 3466SOL    HW222032   1.640   1.144   6.047  1.7172 -0.1872  0.2256
 3467SOL     OW22033   4.453   1.256   6.234  0.2274 -0.0628 -0.2095
 3467SOL    HW122034   4.481   1.223   6.148 -3.2355  0.4898 -1.5561
 3467SOL    HW222035   4.520   1.243   6.301  0.8467 -0.2096 -0.8554
 3468SOL     OW22036   2.201   0.099   6.344  0.3344  0.6056  0.2262
 3468SOL    HW122037   2.197   0.135   6.433 -1.0628  0.2185  0.3180
 3468SOL    HW222038   2.202   0.177   6.288  1.9160 -1.0578 -2.0778
 3469SOL     OW22039   1.884   3.497   3.070  0.4465  0.0488  0.4104
 3469SOL    HW122040   1.815   3.432   3.085  0.3790 -0.0093 -0.1270
 3469SOL    HW222041   1.884   3.537   3.157  1.2928  2.4910 -0.7021
 3470SOL     OW22042   2.233   1.580  10.844  0.1079  0.8423 -0.5180
 3470SOL    HW122043   2.186   1.588  10.761  0.4041  1.8026 -0.5915
 3470SOL    HW222044   2.260   1.671  10.853 -2.2390  1.5293 -0.4490
 3471SOL     OW22045   3.825   2.900   5.245  0.7186 -0.0375 -0.0282
 3471SOL    HW122046   3.747   2.844   5.245  1.0916 -0.5576 -2.5425
 3471SOL    HW222047   3.863   2.873   5.328 -0.0452  2.5111  1.1503
 3472SOL     OW22048   3.565   0.964   8.268 -0.1383 -0.5614  0.4550
 3472SOL    HW122049   3.501   0.909   8.222  0.9683  0.3665 -2.2254
 3472SOL    HW222050   3.583   0.912   8.346 -1.2163 -1.1263  0.3306
 3473SOL     OW22051   3.175   2.247   0.233  0.5966  0.1085 -0.1688
 3473SOL    HW122052   3.095   2.299   0.219 -0.1477 -0.5423  1.6877
 3473SOL    HW222053   3.159   2.182   0.165 -0.6016  0.2789 -0.0584
 3474SOL     OW22054   0.308   1.041   7.343 -0.5544 -0.8250 -0.5843
 3474SOL    HW122055   0.288   0.982   7.415 -1.3010  1.1634  0.8283
 3474SOL    HW222056   0.233   1.029   7.283 -0.6092  3.0644 -1.2794
 3475SOL     OW22057   4.398   4.717   0.908  0.4758 -0.4683 -0.3866
 3475SOL    HW122058   4.476   4.663   0.920 -0.1887 -1.2349  0.4258
 3475SOL    HW222059   4.375   4.703   0.816 -0.3189  0.1218 -0.2863
 3476SOL     OW22060   2.730   1.204  11.507 -0.0798 -0.0631  0.2415
 3476SOL    HW122061   2.668   1.137  11.480 -0.4669 -0.5033  2.1924
 3476SOL    HW222062   2.819   1.172  11.497 -0.2865 -0.1722 -1.2889
 3477SOL     OW22063   0.534   0.172   5.603 -0.1212 -0.6623 -0.3466
 3477SOL    HW122064   0.609   0.115   5.622  0.3524 -0.0465 -0.3735
 3477SOL    HW222065   0.581   0.242   5.558  2.0261  0.0598  2.9678
 3478SOL     OW22066   4.253   1.908   5.889 -0.8657 -0.1026 -0.3156
 3478SOL    HW122067   4.348   1.899   5.900 -0.7944 -0.7576 -1.4558
 3478SOL    HW222068   4.238   1.981   5.950 -1.6270 -2.1166  1.8870
 3479SOL     OW22069   0.297   1.923   3.264 -0.5468  0.0430  0.2648
 3479SOL    HW122070   0.387   1.891   3.257 -0.4780  0.5758 -1.2946
 3479SOL    HW222071   0.257   1.862   3.326  0.6551 -0.6547  0.3687
 3480SOL     OW22072   0.271   2.563   7.585  0.8290  0.2114  0.0374
 3480SOL    HW122073   0.181   2.557   7.618  1.2729 -1.4790  0.9065
 3480SOL    HW222074   0.307   2.619   7.653 -0.9481  2.7253 -1.0478
 3481SOL     OW22075   4.451   2.798  14.054  0.3479 -1.0223 -0.7576
 3481SOL    HW122076   4.462   2.752  13.971 -1.6612 -1.7086 -0.6431
 3481SOL    HW222077   4.410   2.883  14.035  0.9889 -0.5771 -0.1434
 3482SOL     OW22078   0.903   0.879  12.111  0.3848 -0.3223 -0.0646
 3482SOL    HW122079   0.819   0.838  12.132 -0.1036  1.6680  1.9739
 3482SOL    HW222080   0.958   0.802  12.107 -1.2924 -1.6429  1.8960
 3483SOL     OW22081   2.498   4.161   1.326 -0.2334  0.2020  0.5482
 3483SOL    HW122082   2.529   4.071   1.339 -1.3832 -0.5327 -1.7691
 3483SOL    HW222083   2.429   4.165   1.392  0.0179  1.1845  0.7438
 3484SOL     OW22084   4.322   3.167   4.559 -0.3542  0.3130  0.3347
 3484SOL    HW122085   4.234   3.149   4.593  0.0591  0.8615  1.7229
 3484SOL    HW222086   4.302   3.153   4.467 -1.6231  2.0165  0.3433
 3485SOL     OW22087   0.785   2.422  16.520 -0.5715  0.8046 -0.5356
 3485SOL    HW122088   0.811   2.404  16.430  1.4000  1.5060 -0.1062
 3485SOL    HW222089   0.733   2.344  16.540 -0.8762  0.5217 -2.4672
 3486SOL     OW22090   2.845   2.612   7.225  0.1377  0.3576 -0.6711
 3486SOL    HW122091   2.817   2.659   7.303 -0.2047 -1.8863  0.5597
 3486SOL    HW222092   2.895   2.536   7.256 -1.5239 -0.0621  0.9664
 3487SOL     OW22093   4.119   1.400  10.109 -0.5691 -0.0703 -0.7024
 3487SOL    HW122094   4.085   1.352  10.033 -0.7096 -1.5838  0.3077
 3487SOL    HW222095   4.078   1.485  10.095 -2.8844 -0.9660  0.4341
 3488SOL     OW22096   3.809   0.678  13.219  0.3191 -0.2870  0.1645
 3488SOL    HW122097   3.898   0.711  13.235 -1.0055  2.9376  0.7017
 3488SOL    HW222098   3.788   0.735  13.146  0.4100 -0.3706  0.0726
 3489SOL     OW22099   1.011   3.604   2.900  0.0466 -0.4977  0.3171
 3489SOL    HW122100   1.016   3.570   2.810 -0.1974  1.6253 -0.5020
 3489SOL    HW222101   1.020   3.524   2.952  1.9431 -0.9411 -0.6998
 3490SOL     OW22102   2.650   3.611  10.267 -0.3172 -0.3134 -0.1963
 3490SOL    HW122103   2.630   3.599  10.360  2.2662 -3.9140 -0.1210
 3490SOL    HW222104   2.734   3.565  10.266 -0.0880  0.0879  0.5263
 3491SOL     OW22105   0.911   4.660   1.217  0.2231  0.0997 -0.0966
 3491SOL    HW122106   0.827   4.621   1.241  1.2866 -1.7802  0.5249
 3491SOL    HW222107   0.871   4.736   1.174 -1.0644 -1.2752 -1.3366
 3492SOL     OW22108   4.504   3.232   7.394 -0.7532 -0.2050 -0.1392
 3492SOL    HW122109   4.572   3.241   7.460  0.1831  0.0758 -1.1339
 3492SOL    HW222110   4.508   3.319   7.354 -0.2882 -1.1383 -2.1606
 3493SOL     OW22111   3.235   0.416   6.977  0.4341  0.3670  0.1297
 3493SOL    HW122112   3.165   0.439   6.916  1.1947 -2.5739 -1.8053
 3493SOL    HW222113   3.282   0.351   6.926  1.0976  0.1915  0.9677
 3494SOL     OW22114   0.116   2.435  12.754 -0.3438  0.4576  0.0172
 3494SOL    HW122115   0.181   2.424  12.822  0.0080  1.4526 -0.1604
 3494SOL    HW222116   0.077   2.348  12.750 -0.7196  0.6501 -0.7064
 3495SOL     OW22117   4.573   2.636  14.294  0.2435  0.2179  0.2959
 3495SOL    HW122118   4.606   2.725  14.310 -1.5683  1.0343 -0.4713
 3495SOL    HW222119   4.538   2.641  14.205  1.2124  0.7801 -0.0624
 3496SOL     OW22120   0.603   4.026   5.069  0.3518 -0.6084  0.4156
 3496SOL    HW122121   0.552   4.068   5.000  0.7187  0.0947  0.5643
 3496SOL    HW222122   0.677   3.992   5.018 -0.1497 -0.2133 -0.5711
 3497SOL     OW22123   3.591   3.413   0.690  0.1572  0.1871 -0.3141
 3497SOL    HW122124   3.620   3.504   0.686 -0.1634  0.3218  0.3923
 3497SOL    HW222125   3.659   3.375   0.635 -0.5393  2.4625 -2.7678
 3498SOL     OW22126   2.364   2.220   2.940  0.1498  0.1874 -0.3779
 3498SOL    HW122127   2.345   2.132   2.908  0.2257  0.0146  0.0594
 3498SOL    HW222128   2.281   2.253   2.974 -0.0439  0.4144 -1.0707
 3499SOL     OW22129   4.263   1.428   6.510  0.6473 -0.2210 -0.0260
 3499SOL    HW122130   4.249   1.430   6.415 -0.5908 -1.7060  0.1233
 3499SOL    HW222131   4.246   1.519   6.534  2.0079  0.4173 -1.5048
 3500SOL     OW22132   1.913   1.961   3.054 -0.0354  0.1516  0.5105
 3500SOL    HW122133   1.869   2.039   3.020  0.4056  1.1989  2.3766
 3500SOL    HW222134   1.952   1.990   3.136 -0.7132  0.5668  0.6838
 3501SOL     OW22135   2.275   4.549   1.152  0.3336 -0.0307 -0.2409
 3501SOL    HW122136   2.317   4.531   1.236  1.0485  1.1999 -0.3448
 3501SOL    HW222137   2.329   4.617   1.113  0.2091  1.1872  1.6981
 3502SOL     OW22138   0.890   2.321  16.967  0.2206 -0.2431  0.5627
 3502SOL    HW122139   0.866   2.397  16.913  0.3742  0.6264  1.7108
 3502SOL    HW222140   0.902   2.256  16.898  1.7040 -0.2498  0.8426
 3503SOL     OW22141   4.688   4.383   3.901 -0.0700 -0.1500 -0.1439
 3503SOL    HW122142   4.600   4.420   3.905 -0.2481 -0.8518  2.0833
 3503SOL    HW222143   0.007   4.459   3.914  0.0508 -0.4968  1.3992
 3504SOL     OW22144   3.400   2.434   4.945  0.2320  0.0229  0.0447
 3504SOL    HW122145   3.373   2.396   4.862 -2.6113  1.5523  0.2922
 3504SOL    HW222146   3.446   2.512   4.915 -0.0973  0.1268 -0.1868
 3505SOL     OW22147   3.851   2.494   0.113 -0.1596 -0.2925  0.2548
 3505SOL    HW122148   3.782   2.429   0.099 -0.4674  0.4847 -1.9517
 3505SOL    HW222149   3.865   2.491   0.207 -0.8084 -0.0611  0.3571
 3506SOL     OW22150   1.636   0.715   5.240 -0.1806 -0.3048  0.1651
 3506SOL    HW122151   1.541   0.730   5.245 -0.4113 -1.7863  0.3262
 3506SOL    HW222152   1.671   0.799   5.210 -0.2129 -0.1397  0.5942
 3507SOL     OW22153   0.297   3.737  13.682  0.0844 -0.2873 -0.7126
 3507SOL    HW122154   0.218   3.706  13.725  0.1145 -0.5660 -0.8561
 3507SOL    HW222155   0.272   3.810  13.626  0.2386 -0.7872 -1.4358
 3508SOL     OW22156   0.584   4.077   8.971  0.0448 -0.3943  0.5485
 3508SOL    HW122157   0.492   4.093   8.951  0.3261 -0.5262 -0.8802
 3508SOL    HW222158   0.609   4.166   8.995 -2.1408  0.8737 -1.8479
 3509SOL     OW22159   2.992   0.121   6.869  0.0753 -0.2961 -0.0513
 3509SOL    HW122160   2.945   0.048   6.908  1.1715 -0.7050  0.4826
 3509SOL    HW222161   2.982   0.110   6.774 -2.5121  0.2420  0.1620
 3510SOL     OW22162   3.697   1.519   5.968  0.3887 -0.3948  0.1906
 3510SOL    HW122163   3.762   1.500   5.901  1.4920  0.8400  0.9184
 3510SOL    HW222164   3.620   1.512   5.912  0.1814  0.5112  0.3697
 3511SOL     OW22165   2.132   1.620   8.266 -0.3241 -0.1133 -0.7485
 3511SOL    HW122166   2.087   1.576   8.338  0.6027  0.3462  0.1175
 3511SOL    HW222167   2.141   1.545   8.208  0.0495 -1.2908  0.8403
 3512SOL     OW22168   3.654   1.534  17.503  0.2933 -0.5457  0.3523
 3512SOL    HW122169   3.742   1.565  17.483 -0.0720 -0.9191 -1.8222
 3512SOL    HW222170   3.631   1.495  17.419  0.6436  0.1505 -0.0745
 3513SOL     OW22171   2.424   1.570   5.605  0.2115  0.8110 -0.6609
 3513SOL    HW122172   2.489   1.632   5.572  2.7534 -1.1439  0.6226
 3513SOL    HW222173   2.482   1.508   5.650  0.9948  1.0201 -1.3817
 3514SOL     OW22174   0.266   2.007   2.676 -0.6132  0.2788  0.6612
 3514SOL    HW122175   0.178   2.028   2.709 -1.4835 -0.5257 -1.1769
 3514SOL    HW222176   0.245   1.947   2.605 -0.6820  1.4332 -0.2819
 3515SOL     OW22177   3.638   0.414   1.717  0.3034 -0.2479  0.0860
 3515SOL    HW122178   3.706   0.348   1.732 -0.2880 -1.1647 -1.2837
 3515SOL    HW222179   3.656   0.479   1.785  1.8592 -0.5565 -0.0333
 3516SOL     OW22180   3.395   3.657   2.849 -0.3542 -0.5334 -0.2344
 3516SOL    HW122181   3.433   3.712   2.917 -0.9012 -2.8229  1.9138
 3516SOL    HW222182   3.477   3.650   2.800 -0.8114 -0.2246 -1.0457
 3517SOL     OW22183   0.371   2.074   7.869 -0.0835  0.6469  0.0827
 3517SOL    HW122184   0.436   2.058   7.937  1.3456  2.3001 -0.8902
 3517SOL    HW222185   0.416   2.142   7.819  0.0585  2.2415  2.3736
 3518SOL     OW22186   0.260   1.582  16.015  0.3008  0.1353  0.2406
 3518SOL    HW122187   0.250   1.661  15.961  0.0318  0.7111  1.1329
 3518SOL    HW222188   0.242   1.622  16.100  2.3679  0.2247  0.6264
 3519SOL     OW22189   1.603   3.353   2.216 -0.8654 -0.0572  0.0879
 3519SOL    HW122190   1.640   3.266   2.198  0.3433  0.3230  0.7296
 3519SOL    HW222191   1.574   3.332   2.305  1.1978 -1.0576  0.5271
 3520SOL     OW22192   2.091   2.651  11.865  0.1428 -0.0261 -0.5542
 3520SOL    HW122193   2.046   2.729  11.899  2.4614  0.3213  1.6610
 3520SOL    HW222194   2.059   2.577  11.916 -2.2953  0.3142 -1.5592
 3521SOL     OW22195   0.574   2.739  14.262  0.4217 -0.0229  0.2291
 3521SOL    HW122196   0.517   2.816  14.267  0.7668  0.1499  1.3716
 3521SOL    HW222197   0.570   2.704  14.351 -1.2215 -1.4690 -0.4098
 3522SOL     OW22198   2.777   2.164  17.272 -0.2002  0.8376 -0.2521
 3522SOL    HW122199   2.844   2.101  17.299 -0.1321  0.3910 -1.4600
 3522SOL    HW222200   2.829   2.245  17.276 -2.0903  1.9419  2.1015
 3523SOL     OW22201   3.622   4.308   4.942 -0.2583 -0.2201  0.2258
 3523SOL    HW122202   3.692   4.263   4.989 -0.7461  0.4786  1.6169
 3523SOL    HW222203   3.561   4.235   4.939 -1.0562  0.4198  1.0198
 3524SOL     OW22204   2.287   4.643   5.709 -0.6694 -0.4147  0.5364
 3524SOL    HW122205   2.317   4.664   5.797  0.7029 -1.6466  0.3543
 3524SOL    HW222206   2.334   4.564   5.681  0.3084  0.0219  0.9276
 3525SOL     OW22207   3.649   2.564  12.214  0.1169 -0.0783 -0.1038
 3525SOL    HW122208   3.735   2.538  12.180  0.0092 -0.4132 -0.1200
 3525SOL    HW222209   3.641   2.647  12.167 -0.1955 -0.8295 -1.3885
 3526SOL     OW22210   2.950   1.587  11.639  0.0275 -0.7639 -0.3470
 3526SOL    HW122211   2.899   1.605  11.718 -0.7368 -1.4351 -0.6847
 3526SOL    HW222212   3.038   1.621  11.652 -0.6556  0.5546  0.9084
 3527SOL     OW22213   3.987   3.306  16.638 -0.1306  0.6975 -0.0195
 3527SOL    HW122214   4.077   3.281  16.622 -0.1383  0.6529  0.0073
 3527SOL    HW222215   3.974   3.326  16.545  0.8001 -0.1957 -0.3439
 3528SOL     OW22216   1.665   3.720   6.038  0.2699 -0.6782 -0.9818
 3528SOL    HW122217   1.602   3.713   6.109  1.3195  0.2752  0.0465
 3528SOL    HW222218   1.611   3.748   5.964  1.1863  2.3946 -0.4672
 3529SOL     OW22219   3.097   4.196  16.345 -1.1347 -0.5589 -0.6458
 3529SOL    HW122220   3.026   4.142  16.381 -2.3144  2.4581  1.4950
 3529SOL    HW222221   3.177   4.147  16.364 -0.7207  1.1651  2.0971
 3530SOL     OW22222   4.582   2.344   6.345 -0.1215 -0.2506  0.6671
 3530SOL    HW122223   4.594   2.431   6.385 -2.6926 -0.1281  1.1840
 3530SOL    HW222224   4.579   2.369   6.253  1.5531 -0.6324  0.5180
 3531SOL     OW22225   3.352   0.761   1.920 -0.2190 -0.4866  0.2556
 3531SOL    HW122226   3.290   0.829   1.944  1.2099  1.2003 -0.7732
 3531SOL    HW222227   3.313   0.680   1.953  0.3038 -0.7854  0.1449
 3532SOL     OW22228   1.870   1.064   7.047 -0.0721  0.1342 -0.2164
 3532SOL    HW122229   1.907   1.052   7.135  0.6886 -0.5204 -0.6263
 3532SOL    HW222230   1.940   1.024   6.996 -0.2074  0.1883 -0.4425
 3533SOL     OW22231   2.542   4.245   6.023 -0.5455  0.0182  0.0281
 3533SOL    HW122232   2.540   4.212   5.932 -0.4083 -0.2057  0.1051
 3533SOL    HW222233   2.541   4.340   6.016  0.0570  0.0192 -0.0357
 3534SOL     OW22234   2.865   4.000   7.115 -0.5833 -0.0631  0.4467
 3534SOL    HW122235   2.782   3.954   7.104 -1.0806  0.4603  1.9767
 3534SOL    HW222236   2.858   4.058   7.039  1.3246 -0.2407  0.1423
 3535SOL     OW22237   4.162   0.058   3.929  0.5855  0.0853 -0.6183
 3535SOL    HW122238   4.118   0.104   4.001  1.2555  0.5696 -0.5209
 3535SOL    HW222239   4.169   4.711   3.972  1.0681  0.3450 -0.1750
 3536SOL     OW22240   3.926   3.962   8.350  0.1162  0.5045 -0.1653
 3536SOL    HW122241   3.964   4.046   8.374 -1.7330  1.1207  0.6009
 3536SOL    HW222242   3.839   3.991   8.376  0.1895 -0.7987  1.5082
 3537SOL     OW22243   4.300   0.959   3.991  0.1954  0.0661  0.8801
 3537SOL    HW122244   4.246   1.036   4.007  0.0444 -0.3401  2.2648
 3537SOL    HW222245   4.347   0.983   3.910 -1.2380 -0.4677 -0.1042
 3538SOL     OW22246   4.560   2.545   1.941  0.2147  0.2401  0.3452
 3538SOL    HW122247   4.547   2.480   2.010 -2.3141 -0.6904 -1.0129
 3538SOL    HW222248   4.550   2.627   1.988  0.7293 -0.2586  1.3323
 3539SOL     OW22249   4.420   3.357  14.750 -0.4248 -0.5614 -0.7513
 3539SOL    HW122250   4.326   3.368  14.757 -0.1934  1.5079 -0.6828
 3539SOL    HW222251   4.458   3.443  14.772  0.7088 -0.8853 -1.4649
 3540SOL     OW22252   3.186   3.017  13.963 -0.4203 -0.2415 -0.1931
 3540SOL    HW122253   3.192   2.936  13.912  3.7158  0.1843 -0.3485
 3540SOL    HW222254   3.279   3.030  13.983 -0.8836 -0.5999  2.2158
 3541SOL     OW22255   4.702   3.464  10.774  0.1740 -0.2184  0.0244
 3541SOL    HW122256   4.720   3.398  10.841 -3.3399 -1.1725  0.0328
 3541SOL    HW222257   4.658   3.527  10.830 -0.2777 -1.0914  0.6442
 3542SOL     OW22258   0.189   3.696  13.016 -0.9051  0.4025 -0.1713
 3542SOL    HW122259   0.218   3.739  12.935 -0.7505 -0.8712 -0.7836
 3542SOL    HW222260   0.148   3.770  13.060 -3.3071 -0.8205 -0.3401
 3543SOL     OW22261   0.757   1.752  15.189 -0.4980 -0.3016 -0.1974
 3543SOL    HW122262   0.680   1.794  15.152 -1.3304 -1.6665  0.0055
 3543SOL    HW222263   0.747   1.803  15.269 -1.7037 -0.4135 -0.2768
 3544SOL     OW22264   2.420   1.265   6.241 -0.1204  0.2532  0.3857
 3544SOL    HW122265   2.409   1.340   6.183 -5.3185 -1.0912 -0.3570
 3544SOL    HW222266   2.513   1.245   6.245  0.3049  1.9646 -0.9942
 3545SOL     OW22267   4.554   3.904   5.302  0.2986 -0.1551 -0.6913
 3545SOL    HW122268   4.630   3.929   5.354 -0.1456  0.7909 -0.5095
 3545SOL    HW222269   4.489   3.973   5.309 -0.1289 -0.5603 -0.6723
 3546SOL     OW22270   4.392   2.856   5.042  0.7176 -0.1846 -0.4856
 3546SOL    HW122271   4.316   2.799   5.051  0.4878  0.1208 -0.4846
 3546SOL    HW222272   4.465   2.794   5.043 -0.3665 -1.4672 -3.1974
 3547SOL     OW22273   0.140   0.645   3.849 -0.4483 -0.3860 -0.3910
 3547SOL    HW122274   0.140   0.556   3.886 -1.4456 -0.1068  0.2801
 3547SOL    HW222275   0.233   0.652   3.827 -0.2765  1.5535  0.9373
 3548SOL     OW22276   3.474   3.295   4.860 -0.8761  0.3678  0.5239
 3548SOL    HW122277   3.490   3.291   4.954 -2.2601  0.5757  0.7541
 3548SOL    HW222278   3.563   3.271   4.831 -1.0449  0.2818  0.0754
 3549SOL     OW22279   1.641   1.270   4.236  0.4706  0.7200  0.4957
 3549SOL    HW122280   1.725   1.225   4.240  0.7561  1.2878  0.8296
 3549SOL    HW222281   1.641   1.304   4.146 -1.5962 -3.4845 -1.1288
 3550SOL     OW22282   4.547   1.094   1.409  0.1925  0.6444 -0.6074
 3550SOL    HW122283   4.465   1.115   1.366 -0.7742 -2.3457 -0.1996
 3550SOL    HW222284   4.561   1.178   1.453  1.0341  1.1530 -1.8355
 3551SOL     OW22285   0.699   0.168   7.333  0.0809 -0.4812 -0.6025
 3551SOL    HW122286   0.628   0.118   7.374  0.0187 -1.2307 -1.6180
 3551SOL    HW222287   0.727   0.217   7.410  0.6297 -0.7299 -0.6480
 3552SOL     OW22288   1.725   0.812   2.185 -0.2762 -0.1448 -0.5004
 3552SOL    HW122289   1.720   0.844   2.094 -1.4220 -1.4788 -0.9136
 3552SOL    HW222290   1.641   0.768   2.172 -0.0666 -0.8376  0.5416
 3553SOL     OW22291   3.756   1.383   9.207 -0.2112  0.0862  0.1954
 3553SOL    HW122292   3.678   1.378   9.152  0.6927 -2.4337 -0.8338
 3553SOL    HW222293   3.736   1.458   9.264 -2.1158 -0.4880  0.2909
 3554SOL     OW22294   4.263   0.252   7.425 -0.1579  0.1117  0.2240
 3554SOL    HW122295   4.344   0.303   7.427 -0.3093  0.3186  0.9855
 3554SOL    HW222296   4.277   0.195   7.501 -0.8061 -1.6167 -0.9414
 3555SOL     OW22297   1.176   4.592   7.136 -0.1331 -0.1000 -0.0083
 3555SOL    HW122298   1.264   4.554   7.140  0.0138  0.2771  0.4234
 3555SOL    HW222299   1.193   4.655   7.066  1.1716 -0.6847 -0.2229
 3556SOL     OW22300   0.276   4.154  11.529 -0.2800  0.4855  0.0259
 3556SOL    HW122301   0.230   4.214  11.470  0.7755  1.7932  0.5473
 3556SOL    HW222302   0.348   4.121  11.475  0.0775  2.2518 -0.5929
 3557SOL     OW22303   3.665   4.466   2.183  0.3584  0.4278 -0.4071
 3557SOL    HW122304   3.695   4.378   2.206  1.2824  0.2176 -2.3904
 3557SOL    HW222305   3.628   4.464   2.095  0.1281  1.1548 -0.3231
 3558SOL     OW22306   3.041   2.252  15.333  0.0772  0.2231  0.5717
 3558SOL    HW122307   3.016   2.340  15.361  3.1343  1.6446 -1.1149
 3558SOL    HW222308   3.044   2.205  15.416  1.0212  2.6017  1.8901
 3559SOL     OW22309   1.911   3.371   2.177 -0.2586 -0.0781 -0.0564
 3559SOL    HW122310   1.890   3.435   2.245 -1.2982 -0.2270 -0.2354
 3559SOL    HW222311   1.919   3.298   2.239  2.0427  1.1596  1.1132
 3560SOL     OW22312   4.685   0.258   3.455  0.1649  0.0629 -0.1830
 3560SOL    HW122313   0.010   0.273   3.525  0.6055  0.5139 -0.6754
 3560SOL    HW222314   4.631   0.187   3.489 -2.4613 -0.3598 -5.2902
 3561SOL     OW22315   2.765   0.817   4.013  0.1110  0.5958 -0.6886
 3561SOL    HW122316   2.803   0.735   4.046  0.1672  0.6205 -0.6920
 3561SOL    HW222317   2.826   0.845   3.945  1.1738  1.4013  0.5865
 3562SOL     OW22318   2.227   2.989  16.757  0.3274  0.4649 -0.1803
 3562SOL    HW122319   2.321   2.992  16.777  0.6132 -0.0598 -1.4787
 3562SOL    HW222320   2.184   3.018  16.837  2.7822 -0.6869  1.5504
 3563SOL     OW22321   2.566   3.700   4.173 -1.0094  0.3058  0.1062
 3563SOL    HW122322   2.480   3.741   4.173 -1.6257 -0.9644  0.6024
 3563SOL    HW222323   2.579   3.679   4.266  0.4266 -2.2021 -0.6551
 3564SOL     OW22324   3.776   1.472   4.574  0.2461 -0.0618 -0.4428
 3564SOL    HW122325   3.687   1.475   4.540 -0.1482 -2.9240  0.3272
 3564SOL    HW222326   3.831   1.489   4.498  0.3318  0.8556 -0.1704
 3565SOL     OW22327   3.517   0.161  10.807 -0.6681  0.7572 -0.0799
 3565SOL    HW122328   3.553   0.161  10.896 -1.3337  0.5334  0.1848
 3565SOL    HW222329   3.451   0.231  10.808 -0.2817  1.0983  1.8780
 3566SOL     OW22330   0.138   4.181   9.187  0.7457 -0.3919  0.1681
 3566SOL    HW122331   0.156   4.113   9.122 -0.4769  0.0051 -0.6081
 3566SOL    HW222332   0.046   4.164   9.207  1.2704 -2.4359  0.8087
 3567SOL     OW22333   2.644   4.118   2.081 -0.6497 -0.1854 -0.0074
 3567SOL    HW122334   2.594   4.124   2.000  0.2949  0.5884 -0.5312
 3567SOL    HW222335   2.656   4.023   2.086  2.3502  0.0956 -1.7019
 3568SOL     OW22336   0.853   2.189   2.298  0.3063  0.4585 -0.0449
 3568SOL    HW122337   0.835   2.172   2.206  0.6273  0.9251 -0.1974
 3568SOL    HW222338   0.796   2.265   2.310 -1.8893 -1.6481  2.7180
 3569SOL     OW22339   3.650   0.394   8.438  0.6126 -0.0440 -0.5435
 3569SOL    HW122340   3.571   0.443   8.460  0.1507 -0.9606 -0.1308
 3569SOL    HW222341   3.628   0.370   8.348  0.9370  0.0873 -0.6564
 3570SOL     OW22342   0.168   3.146   4.809 -0.5029  0.0998 -0.3558
 3570SOL    HW122343   0.185   3.215   4.874 -0.3315 -0.0425 -0.2504
 3570SOL    HW222344   0.113   3.082   4.856 -0.4640  0.4606  0.1884
 3571SOL     OW22345   0.570   0.071  11.404  0.5380 -0.3340  0.0725
 3571SOL    HW122346   0.486   0.084  11.449 -0.2058 -1.8689 -0.8743
 3571SOL    HW222347   0.560   0.001  11.340  0.2313  0.0927 -0.3430
 3572SOL     OW22348   1.839   0.156  15.918  0.3917  0.2907  0.1302
 3572SOL    HW122349   1.798   0.240  15.939 -1.4148 -0.9358  1.5977
 3572SOL    HW222350   1.772   0.123  15.859 -1.6257  2.0446  1.4235
 3573SOL     OW22351   0.499   1.062  15.367  0.1695 -0.0414 -0.1106
 3573SOL    HW122352   0.558   1.094  15.298 -0.0109 -1.7043 -1.0405
 3573SOL    HW222353   0.420   1.112  15.350 -0.5184 -0.7000  1.2018
 3574SOL     OW22354   2.012   2.943  13.942  0.1921  0.2528 -0.3477
 3574SOL    HW122355   2.085   3.005  13.938  0.4567 -0.0737 -0.6474
 3574SOL    HW222356   1.978   2.969  14.028 -2.1062 -0.0790 -1.1746
 3575SOL     OW22357   4.498   0.383   7.447 -0.1926 -0.1796  0.2718
 3575SOL    HW122358   4.564   0.437   7.405 -2.3849  2.6653  0.4847
 3575SOL    HW222359   4.538   0.344   7.524 -1.3968  0.4552  1.2206
 3576SOL     OW22360   4.622   0.575   2.196 -0.3413 -0.0108  0.2954
 3576SOL    HW122361   4.685   0.550   2.264 -0.1505  2.1920  0.9269
 3576SOL    HW222362   4.681   0.625   2.139 -1.2991  0.7714 -0.0107
 3577SOL     OW22363   4.620   2.314  15.203  0.1616  0.1385 -0.4279
 3577SOL    HW122364   4.544   2.354  15.161  0.1509  2.6961  1.9913
 3577SOL    HW222365   4.574   2.277  15.279 -2.9076  0.1402 -2.3096
 3578SOL     OW22366   0.113   0.078  17.557 -0.0313 -0.0274 -0.3531
 3578SOL    HW122367   0.028   0.039  17.578 -0.0308  0.3391  0.3079
 3578SOL    HW222368   0.130   0.018  17.484 -0.2511 -0.2507 -0.2248
 3579SOL     OW22369   0.752   0.579   4.701  0.3800 -0.6253 -0.0094
 3579SOL    HW122370   0.783   0.531   4.778 -1.1160 -0.8927  0.4277
 3579SOL    HW222371   0.781   0.668   4.720 -0.3129 -0.7679  1.7303
 3580SOL     OW22372   2.712   2.472  10.474 -0.0879 -0.0663  0.4704
 3580SOL    HW122373   2.785   2.534  10.475 -0.0731 -0.1299  4.2619
 3580SOL    HW222374   2.656   2.505  10.544  0.7764 -1.0638  1.6574
 3581SOL     OW22375   3.274   4.353   2.227 -0.3001  0.3890  0.5187
 3581SOL    HW122376   3.181   4.366   2.207 -0.1680  1.0722  0.3334
 3581SOL    HW222377   3.309   4.384   2.144 -2.3161 -0.5211 -0.6722
 3582SOL     OW22378   1.469   1.988   5.409  0.2019  0.1189  0.1112
 3582SOL    HW122379   1.419   2.007   5.488 -1.9788 -0.1839 -1.1801
 3582SOL    HW222380   1.406   1.975   5.338  0.9833  1.8898 -0.9080
 3583SOL     OW22381   1.072   1.913   8.498  0.1850  0.0184  0.2349
 3583SOL    HW122382   1.150   1.860   8.481  0.9990  0.7750  1.5840
 3583SOL    HW222383   1.029   1.859   8.563 -0.1049  0.3609  0.3267
 3584SOL     OW22384   0.852   3.074   5.355  0.1358  0.7120 -0.1288
 3584SOL    HW122385   0.769   3.045   5.391  0.3938  1.0046  0.6964
 3584SOL    HW222386   0.855   3.157   5.402 -2.0438  1.2675 -0.9643
 3585SOL     OW22387   3.796   4.008   7.994 -0.2474  0.3001 -0.6214
 3585SOL    HW122388   3.755   4.094   7.981  1.1305  1.0812  0.1672
 3585SOL    HW222389   3.889   4.022   8.011  0.1901 -1.8094 -1.2704
 3586SOL     OW22390   3.504   4.430   1.315 -1.1778 -0.1522 -0.4980
 3586SOL    HW122391   3.465   4.365   1.373 -0.4111  0.2223  0.4326
 3586SOL    HW222392   3.428   4.485   1.295 -1.2364 -0.8462 -2.2103
 3587SOL     OW22393   2.421   3.661   6.486  0.3361  0.0602  0.0515
 3587SOL    HW122394   2.343   3.638   6.536  1.0810 -1.5363  0.5110
 3587SOL    HW222395   2.411   3.756   6.483 -0.9837 -0.0933 -0.0213
 3588SOL     OW22396   2.383   2.496  10.965  1.2013  0.4431  0.5409
 3588SOL    HW122397   2.448   2.516  10.898  2.7042 -1.2342  1.5044
 3588SOL    HW222398   2.400   2.574  11.018  0.3653  0.1246  1.2674
 3589SOL     OW22399   3.669   1.209   1.670  0.4422  0.2281 -0.7352
 3589SOL    HW122400   3.669   1.303   1.691  1.8124  0.0556  0.0491
 3589SOL    HW222401   3.575   1.190   1.667  0.3606  0.6842 -1.2155
 3590SOL     OW22402   1.031   0.182   5.811 -0.2938 -0.5027 -0.1857
 3590SOL    HW122403   1.112   0.172   5.760 -0.5486 -0.9128 -0.5117
 3590SOL    HW222404   1.002   0.267   5.778 -2.5532 -0.3732  2.2239
 3591SOL     OW22405   1.094   2.010   6.569 -0.4028 -0.6036 -0.0352
 3591SOL    HW122406   1.044   2.078   6.614  0.0665 -0.4623  0.2611
 3591SOL    HW222407   1.026   1.954   6.530  0.1947 -1.2487 -0.1505
 3592SOL     OW22408   0.056   2.496  12.474  0.3381 -0.1184 -0.8463
 3592SOL    HW122409   4.701   2.512  12.488  0.3938 -0.2887 -0.2628
 3592SOL    HW222410   0.082   2.476  12.564  0.3626 -0.3174 -0.8995
 3593SOL     OW22411   2.307   0.145   8.163 -0.3946 -0.0034  0.0926
 3593SOL    HW122412   2.319   0.214   8.098 -3.4484  1.7450  1.3473
 3593SOL    HW222413   2.211   0.138   8.157 -0.3292  1.2458 -2.4194
 3594SOL     OW22414   2.594   4.556   0.005 -0.5017  0.1024 -0.0714
 3594SOL    HW122415   2.603   4.631   0.064 -3.1029 -0.9890  1.6985
 3594SOL    HW222416   2.585   4.483   0.065 -0.9539  0.3731  0.1957
 3595SOL     OW22417   2.859   3.787  17.719 -0.3679  0.5762  0.5477
 3595SOL    HW122418   2.943   3.832  17.708 -1.4496  2.4845 -0.0046
 3595SOL    HW222419   2.825   3.818   0.049 -0.2558 -0.4943  0.9883
 3596SOL     OW22420   3.285   0.799  15.980  0.4655  0.4180  0.4853
 3596SOL    HW122421   3.191   0.781  15.983  0.3123  1.8123  4.1291
 3596SOL    HW222422   3.302   0.797  16.074 -0.8133  1.5000  0.7349
 3597SOL     OW22423   3.607   3.768   9.566  0.1418  0.1319 -0.1245
 3597SOL    HW122424   3.534   3.816   9.604  0.8977  0.2657  1.1587
 3597SOL    HW222425   3.612   3.689   9.620 -0.4358  0.8093  0.9158
 3598SOL     OW22426   2.077   4.556  12.513  0.1362 -0.4291  0.2806
 3598SOL    HW122427   2.109   4.489  12.453 -0.6625  1.0134 -1.7595
 3598SOL    HW222428   1.987   4.570  12.483  0.6295 -1.1380 -1.5498
 3599SOL     OW22429   2.079   1.763   4.055 -0.0369 -0.9097  0.8385
 3599SOL    HW122430   2.131   1.685   4.073  2.7415  0.2874 -1.9865
 3599SOL    HW222431   2.141   1.827   4.090 -1.5412  0.0831  1.7115
 3600SOL     OW22432   1.758   0.436  15.977 -0.3393  0.2258 -0.3062
 3600SOL    HW122433   1.717   0.472  15.899 -1.8906 -0.6620  0.0867
 3600SOL    HW222434   1.690   0.437  16.045  0.7797  0.7232  0.8210
 3601SOL     OW22435   3.423   1.769  17.369 -0.1934  0.3466 -0.2580
 3601SOL    HW122436   3.469   1.836  17.419  0.2283  0.3247 -0.6239
 3601SOL    HW222437   3.463   1.687  17.397  2.0501  1.2758 -0.7207
 3602SOL     OW22438   2.877   2.677   5.870 -0.1382 -0.2769  0.2594
 3602SOL    HW122439   2.799   2.725   5.841 -0.1542 -1.0839 -1.0289
 3602SOL    HW222440   2.840   2.589   5.876 -0.8692  0.0040 -0.0779
 3603SOL     OW22441   3.636   3.729  11.274 -0.3353  0.8472 -0.2565
 3603SOL    HW122442   3.696   3.780  11.328 -1.5613  2.0808 -0.0474
 3603SOL    HW222443   3.695   3.659  11.247  1.6188  2.3132  0.2888
 3604SOL     OW22444   4.323   1.202   0.634  0.4172 -0.0180  0.3183
 3604SOL    HW122445   4.237   1.229   0.667  0.5628  3.0246 -1.8523
 3604SOL    HW222446   4.352   1.136   0.697 -2.5422  0.0505  1.7311
 3605SOL     OW22447   2.640   3.072   7.295  0.5630  0.2418  0.3616
 3605SOL    HW122448   2.558   3.116   7.270  1.5845  2.6413  1.2563
 3605SOL    HW222449   2.603   2.984   7.287 -1.1066  0.9697 -0.0757
 3606SOL     OW22450   1.324   4.487  16.688 -0.3930  0.1343  0.0026
 3606SOL    HW122451   1.360   4.437  16.761 -0.1266  2.6071  1.5658
 3606SOL    HW222452   1.399   4.541  16.666  0.7307 -0.5117  2.3098
 3607SOL     OW22453   3.086   4.713   2.112 -0.5397  0.1358  0.3859
 3607SOL    HW122454   2.995   4.686   2.129 -0.3424 -0.4982  0.4320
 3607SOL    HW222455   3.096   4.734   2.205  0.1764 -0.4822  0.4450
 3608SOL     OW22456   3.533   1.437   2.519  0.2265 -0.2489 -0.8317
 3608SOL    HW122457   3.579   1.521   2.531  0.2414 -0.4316  0.2933
 3608SOL    HW222458   3.578   1.399   2.444  1.4511 -0.6874  0.1356
 3609SOL     OW22459   4.113   1.554   7.085  0.5549 -0.6707  0.1132
 3609SOL    HW122460   4.073   1.609   7.151  1.3861 -0.9381  0.8353
 3609SOL    HW222461   4.044   1.488   7.073  1.5888 -1.6368 -0.6113
 3610SOL     OW22462   2.551   1.057   7.303 -1.2596 -0.1936 -0.3963
 3610SOL    HW122463   2.565   1.023   7.214  1.5043  1.4194 -0.5787
 3610SOL    HW222464   2.624   1.009   7.342 -1.0818  0.6085  0.2623
 3611SOL     OW22465   3.403   0.986   3.688  0.2878 -0.7139 -0.5821
 3611SOL    HW122466   3.382   0.933   3.766  0.8101 -1.0600 -0.6712
 3611SOL    HW222467   3.348   1.064   3.690  0.7576 -0.4062  0.5993
 3612SOL     OW22468   0.594   2.213   9.223 -0.1640  0.0422 -0.2720
 3612SOL    HW122469   0.523   2.209   9.287 -0.3944  3.1535 -0.3210
 3612SOL    HW222470   0.562   2.143   9.166  2.4366 -0.2672 -1.3591
 3613SOL     OW22471   0.610   4.129  12.675 -0.1017 -0.0435 -0.7271
 3613SOL    HW122472   0.579   4.131  12.585 -1.1119 -1.4685 -0.4101
 3613SOL    HW222473   0.535   4.134  12.735  1.3532  1.2763  0.9617
 3614SOL     OW22474   4.084   2.911  10.308 -0.0356  0.7058  0.5991
 3614SOL    HW122475   4.144   2.944  10.375  1.4301 -0.2615 -0.2218
 3614SOL    HW222476   4.092   2.815  10.312  0.0826  0.7218  0.7626
 3615SOL     OW22477   0.635   0.439   2.704  0.2500  0.1507  0.4444
 3615SOL    HW122478   0.587   0.459   2.785  1.6706  1.8786  0.8906
 3615SOL    HW222479   0.721   0.476   2.729  0.6647  0.0065 -0.7684
 3616SOL     OW22480   2.603   4.086   3.244 -0.2708 -0.1170  0.3129
 3616SOL    HW122481   2.611   3.991   3.240 -0.2310 -0.1051  0.1298
 3616SOL    HW222482   2.513   4.088   3.213  0.0772  0.0371 -0.6603
 3617SOL     OW22483   3.283   0.290   9.196  0.0504  0.5293  0.0530
 3617SOL    HW122484   3.344   0.340   9.143  1.0221 -0.0923  0.5912
 3617SOL    HW222485   3.258   0.362   9.254  0.2066  0.7593 -0.1680
 3618SOL     OW22486   3.649   1.748   2.296 -0.1382  0.3003  0.0956
 3618SOL    HW122487   3.644   1.815   2.227  2.6373 -1.5440 -1.8980
 3618SOL    HW222488   3.656   1.803   2.374  2.8852 -0.3608  0.3104
 3619SOL     OW22489   3.777   4.237   6.496  0.0827 -0.2155  0.1419
 3619SOL    HW122490   3.776   4.267   6.587  1.6915 -0.4852  0.2428
 3619SOL    HW222491   3.831   4.306   6.459  0.0539  0.4998  1.4381
 3620SOL     OW22492   2.208   2.140  14.399 -0.1810  0.2968  0.1457
 3620SOL    HW122493   2.113   2.138  14.396 -0.1591 -1.0881  0.3048
 3620SOL    HW222494   2.226   2.068  14.460 -3.3805  0.3498  1.1074
 3621SOL     OW22495   3.393   2.140   5.468  0.1524  0.8011  0.3239
 3621SOL    HW122496   3.329   2.126   5.538 -1.8762  3.2118 -1.0188
 3621SOL    HW222497   3.346   2.201   5.410 -2.0205 -2.2229 -1.1066
 3622SOL     OW22498   0.526   4.605  13.566  0.4648 -0.4881  0.0773
 3622SOL    HW122499   0.496   4.517  13.588 -2.7616  0.5358 -0.1520
 3622SOL    HW222500   0.525   4.599  13.471 -2.1419 -1.4075  0.1506
 3623SOL     OW22501   3.087   0.193   7.451 -0.4918  0.7393  0.1585
 3623SOL    HW122502   3.122   0.236   7.373 -0.3016  0.0668 -0.1292
 3623SOL    HW222503   3.039   0.267   7.488  0.0083  0.6957  0.8870
 3624SOL     OW22504   3.968   2.598   3.802  0.1628  0.2218 -0.1343
 3624SOL    HW122505   3.963   2.591   3.897  1.6406  0.7390 -0.0305
 3624SOL    HW222506   4.009   2.684   3.798  1.5212 -0.4917 -1.7671
 3625SOL     OW22507   3.355   3.022   5.231 -0.1641 -0.4252  0.3890
 3625SOL    HW122508   3.266   3.042   5.201  0.8251  1.5363 -1.2415
 3625SOL    HW222509   3.396   3.108   5.223  2.3282 -1.6204  0.0986
 3626SOL     OW22510   3.761   2.580   8.976  0.2895 -0.2983 -0.2219
 3626SOL    HW122511   3.817   2.503   8.980  1.4770  0.5907  0.1580
 3626SOL    HW222512   3.691   2.543   8.922 -2.1294  1.9475  1.3824
 3627SOL     OW22513   0.247   0.968   7.597 -0.1272  0.2993  0.0316
 3627SOL    HW122514   0.245   1.041   7.659 -1.7395 -0.2719  0.6529
 3627SOL    HW222515   0.164   0.932   7.628  0.3654 -0.1494  0.8393
 3628SOL     OW22516   2.086   3.556   7.701  0.2347 -0.0035  0.5942
 3628SOL    HW122517   2.009   3.601   7.666 -0.3788 -1.4311  0.1275
 3628SOL    HW222518   2.155   3.622   7.700  1.2199 -1.0802 -1.9948
 3629SOL     OW22519   1.636   3.177   5.403  0.3482  0.1172 -0.3560
 3629SOL    HW122520   1.568   3.110   5.411  1.4511 -0.5545  3.4300
 3629SOL    HW222521   1.615   3.206   5.314 -2.7153 -0.0521  0.3182
 3630SOL     OW22522   2.261   1.720  14.883  0.1151 -0.3543 -0.0578
 3630SOL    HW122523   2.290   1.755  14.967 -1.9774  1.4845 -0.1194
 3630SOL    HW222524   2.305   1.635  14.876  1.5524  0.3885 -0.0748
 3631SOL     OW22525   4.151   1.965   9.025  0.1327 -0.3761  0.0121
 3631SOL    HW122526   4.170   2.026   9.096 -0.4615 -0.5606  0.3316
 3631SOL    HW222527   4.234   1.988   8.984 -0.4795  0.1701 -0.9447
 3632SOL     OW22528   3.841   0.020   3.960 -0.6745  0.3661 -0.3764
 3632SOL    HW122529   3.766   0.011   4.018 -1.7906 -0.3950 -1.9353
 3632SOL    HW222530   3.886   0.096   3.996 -0.1831 -0.9067  1.7046
 3633SOL     OW22531   0.647   4.442   3.635 -0.3215 -0.0732 -0.1893
 3633SOL    HW122532   0.558   4.451   3.669 -1.1334  2.4897 -3.0012
 3633SOL    HW222533   0.670   4.526   3.595  0.1758  0.5760  1.4782
 3634SOL     OW22534   2.287   2.889  17.464  0.4793  0.3636  0.1516
 3634SOL    HW122535   2.235   2.923  17.537  0.8277  0.7038  0.2433
 3634SOL    HW222536   2.311   2.974  17.427  2.7194 -0.9344 -1.3390
 3635SOL     OW22537   3.899   1.050   6.742  0.0656  0.2394  0.3989
 3635SOL    HW122538   3.960   0.992   6.695  1.4311  0.1984  2.2402
 3635SOL    HW222539   3.819   1.054   6.690 -0.6996  1.7291  1.7151
 3636SOL     OW22540   3.887   3.140   1.358 -0.0617 -0.3915 -0.0399
 3636SOL    HW122541   3.926   3.187   1.432  0.8605  0.0919 -0.8474
 3636SOL    HW222542   3.827   3.084   1.408  1.2068 -1.6090  0.1007
 3637SOL     OW22543   3.049   4.233   7.646 -0.1770  0.2323  0.1823
 3637SOL    HW122544   3.059   4.230   7.741 -2.1761  1.9143  0.4404
 3637SOL    HW222545   3.109   4.302   7.618 -1.4813  1.7646  1.1883
 3638SOL     OW22546   1.630   2.932   3.257 -0.0423  0.0347  0.5124
 3638SOL    HW122547   1.650   3.026   3.254 -0.9956  0.1108 -3.3977
 3638SOL    HW222548   1.715   2.893   3.237 -0.1538 -0.4442  0.9931
 3639SOL     OW22549   2.392   0.566   6.935 -0.0621 -0.2521 -0.0983
 3639SOL    HW122550   2.425   0.476   6.927 -0.8900 -0.3830 -2.1410
 3639SOL    HW222551   2.376   0.581   6.842  0.1172 -0.6617 -0.1965
 3640SOL     OW22552   3.923   0.083   5.400 -0.1253  0.5132  0.1710
 3640SOL    HW122553   4.008   0.094   5.444  0.1187  0.7846 -0.3649
 3640SOL    HW222554   3.873   0.028   5.461  1.3801 -0.2377  0.7269
 3641SOL     OW22555   2.811   3.009   6.402  0.7382 -0.5062 -0.3496
 3641SOL    HW122556   2.740   2.946   6.411  1.4526 -1.0612  1.2716
 3641SOL    HW222557   2.873   2.983   6.470  0.9939 -0.8716 -0.7186
 3642SOL     OW22558   1.507   2.056  15.021 -0.1657  0.0404 -0.6759
 3642SOL    HW122559   1.588   2.008  15.040 -1.7058 -2.0125  0.6998
 3642SOL    HW222560   1.535   2.146  15.037  1.7555 -0.7180  0.3391
 3643SOL     OW22561   1.071   1.223   7.498 -0.7854  0.5131 -0.3200
 3643SOL    HW122562   1.053   1.290   7.432 -2.6949  1.7044  1.4127
 3643SOL    HW222563   1.139   1.165   7.464 -0.2333  0.5366  0.7260
 3644SOL     OW22564   1.133   1.003  17.724  0.3719  0.2038  0.2385
 3644SOL    HW122565   1.131   0.948  17.646 -1.3151 -0.1842  0.5608
 3644SOL    HW222566   1.089   1.084  17.698 -0.6731 -1.0703 -1.9733
 3645SOL     OW22567   2.539   0.519   5.224 -0.2885 -1.0296 -0.2918
 3645SOL    HW122568   2.514   0.427   5.238 -1.8500 -0.5574  0.0017
 3645SOL    HW222569   2.546   0.552   5.314 -0.4808  0.0353 -0.6784
 3646SOL     OW22570   2.532   2.616   0.214 -0.1240 -0.3805  0.0150
 3646SOL    HW122571   2.561   2.640   0.302 -1.4863  0.7326  0.1616
 3646SOL    HW222572   2.508   2.524   0.226 -2.0460 -0.3247 -3.1575
 3647SOL     OW22573   3.586   3.537   6.331 -0.1306 -0.0439  0.1224
 3647SOL    HW122574   3.602   3.630   6.344 -1.3035 -0.1206  1.9778
 3647SOL    HW222575   3.595   3.511   6.422  2.4006 -1.2558 -0.4692
 3648SOL     OW22576   3.118   2.019   0.064  0.0490  0.3029 -0.0312
 3648SOL    HW122577   3.050   1.951   0.067  0.0320  0.4976  3.7348
 3648SOL    HW222578   3.195   1.979   0.023  0.3018  1.6761 -0.8644
 3649SOL     OW22579   0.983   3.524  13.609 -0.1777 -0.1127  0.1597
 3649SOL    HW122580   1.035   3.560  13.537 -2.0370  1.8197 -0.2091
 3649SOL    HW222581   1.051   3.504  13.673  0.3256  5.1808  1.2689
 3650SOL     OW22582   0.332   4.148   8.887  0.1422  0.0739 -0.1437
 3650SOL    HW122583   0.247   4.184   8.911 -0.7115  0.2602 -3.3864
 3650SOL    HW222584   0.297   4.106   8.808  0.3562 -1.4987  0.5930
 3651SOL     OW22585   0.627   4.470  10.215  0.3399 -0.5045  0.3155
 3651SOL    HW122586   0.663   4.548  10.257  0.5378 -1.4526  1.9379
 3651SOL    HW222587   0.578   4.432  10.288 -1.3670  1.4886  0.2136
 3652SOL     OW22588   0.019   2.317  14.772 -0.1820  0.8365  0.9546
 3652SOL    HW122589   0.087   2.370  14.813 -1.2276  2.2183  0.9062
 3652SOL    HW222590   4.678   2.344  14.818 -0.3990 -0.1096  1.1404
 3653SOL     OW22591   4.589   3.047   0.363 -0.4860 -0.2756  0.1284
 3653SOL    HW122592   4.511   3.047   0.308  2.1825 -1.7031 -3.7027
 3653SOL    HW222593   4.649   3.093   0.305  0.7213 -0.2606  1.3792
 3654SOL     OW22594   3.625   3.009   8.339  0.5116 -0.0898  0.1604
 3654SOL    HW122595   3.681   2.986   8.266  0.8290 -2.3622  1.1274
 3654SOL    HW222596   3.655   3.099   8.353  0.0667  0.4302 -2.3602
 3655SOL     OW22597   2.133   4.381   5.564  0.4192  0.0578  0.5572
 3655SOL    HW122598   2.136   4.314   5.496 -1.2616 -0.5487  1.0933
 3655SOL    HW222599   2.224   4.392   5.591 -0.2909  0.7791  2.6782
 3656SOL     OW22600   0.970   1.968   7.986 -0.7516  0.1282  0.2198
 3656SOL    HW122601   0.935   2.053   8.013 -1.2023 -0.4555  1.4416
 3656SOL    HW222602   0.891   1.915   7.977 -0.6113 -0.2739  1.3630
 3657SOL     OW22603   3.727   2.944   8.644 -0.0358 -0.0282 -0.2861
 3657SOL    HW122604   3.646   2.909   8.681  0.4715 -1.6928 -0.7733
 3657SOL    HW222605   3.718   3.038   8.665 -1.9389 -0.4046  0.6407
 3658SOL     OW22606   4.706   0.511   5.868  0.7244  0.3705 -0.2368
 3658SOL    HW122607   4.688   0.598   5.904  0.5317  0.1374  0.2395
 3658SOL    HW222608   4.620   0.474   5.888  0.0820  1.7960 -0.3970
 3659SOL     OW22609   2.766   2.288   6.866  0.1556 -0.0338  0.0090
 3659SOL    HW122610   2.756   2.369   6.815 -0.2432  2.0629  3.3894
 3659SOL    HW222611   2.691   2.298   6.925  1.3014  1.9454  1.1375
 3660SOL     OW22612   4.078   1.888   8.729 -0.0025  0.2386 -0.3304
 3660SOL    HW122613   4.037   1.836   8.660  0.2257 -2.0654  1.2639
 3660SOL    HW222614   4.079   1.829   8.805  2.6537 -0.5871 -1.0221
 3661SOL     OW22615   2.860   2.193  13.060 -0.4657 -0.4587 -1.0319
 3661SOL    HW122616   2.913   2.260  13.104 -0.1832 -0.1346 -1.8541
 3661SOL    HW222617   2.804   2.160  13.130  0.0958  0.9155  0.0618
 3662SOL     OW22618   2.818   2.723  15.326  0.2981  0.2625 -0.0617
 3662SOL    HW122619   2.824   2.781  15.402  0.8671  0.5254 -0.3079
 3662SOL    HW222620   2.906   2.725  15.287  1.4010  0.0107  2.3874
 3663SOL     OW22621   0.311   4.534   4.171  0.1058 -0.1339 -0.3029
 3663SOL    HW122622   0.283   4.479   4.244 -3.0861 -0.4584 -1.7890
 3663SOL    HW222623   0.368   4.470   4.127  2.0886  1.2745  0.1825
 3664SOL     OW22624   2.714   4.710   5.785  0.1742 -0.1056  0.4855
 3664SOL    HW122625   2.658   0.020   5.725  0.3099  1.3788  1.5992
 3664SOL    HW222626   2.656   4.684   5.856  1.0102  1.4730  1.7175
 3665SOL     OW22627   3.579   3.707   5.930 -0.1409 -0.3181 -0.5174
 3665SOL    HW122628   3.663   3.675   5.962 -0.1295 -1.7270 -1.9453
 3665SOL    HW222629   3.570   3.775   5.996  1.3637 -0.4539 -0.1765
 3666SOL     OW22630   0.626   0.665   0.552 -0.2081 -0.0963 -0.4292
 3666SOL    HW122631   0.695   0.654   0.617  1.7175 -0.4117 -2.5452
 3666SOL    HW222632   0.677   0.728   0.501 -0.1182 -1.8559 -2.5128
 3667SOL     OW22633   3.978   1.042   6.998 -0.1282  0.0445  0.1106
 3667SOL    HW122634   3.892   1.083   7.005  0.9763  2.2508  0.5549
 3667SOL    HW222635   3.987   1.048   6.902  1.9831  0.1316  0.3058
 3668SOL     OW22636   1.905   3.520   6.287  0.0033 -0.0821  0.1116
 3668SOL    HW122637   1.981   3.568   6.319  0.0200 -0.6616  0.9558
 3668SOL    HW222638   1.878   3.485   6.372 -0.1436 -1.0836 -0.3369
 3669SOL     OW22639   2.459   2.142   9.903 -0.5629 -0.1789  0.7272
 3669SOL    HW122640   2.412   2.065   9.870  0.1706 -0.8002  1.1605
 3669SOL    HW222641   2.433   2.205   9.835  0.7066 -0.5247 -0.0720
 3670SOL     OW22642   4.056   1.560   8.082  0.2552 -0.1279  0.1867
 3670SOL    HW122643   4.019   1.578   8.169 -0.7827 -3.2254  0.3960
 3670SOL    HW222644   3.979   1.544   8.028 -0.4856 -1.1001  1.5220
 3671SOL     OW22645   0.720   0.193   2.965  0.1374  0.0544  0.2660
 3671SOL    HW122646   0.650   0.228   3.020  0.1554  1.1241 -0.3952
 3671SOL    HW222647   0.777   0.143   3.024 -0.6260  0.9417  1.7731
 3672SOL     OW22648   3.264   0.689   4.234  0.6861  0.4858 -0.0142
 3672SOL    HW122649   3.279   0.595   4.250  0.9286  0.7516  1.2855
 3672SOL    HW222650   3.179   0.705   4.274  1.5192 -0.8435  2.2986
 3673SOL     OW22651   3.765   0.972   4.992  0.5344 -0.1344 -0.3368
 3673SOL    HW122652   3.687   0.931   4.953  0.2160 -0.3343  0.5014
 3673SOL    HW222653   3.760   0.940   5.082  0.6671 -1.7365 -0.9015
 3674SOL     OW22654   4.196   2.595   5.117 -0.8858 -0.1458  0.6085
 3674SOL    HW122655   4.265   2.528   5.113 -1.2882 -0.4696 -0.7629
 3674SOL    HW222656   4.130   2.554   5.174 -0.7204 -0.3876  0.6272
 3675SOL     OW22657   3.888   3.491   0.877  0.5278  0.2793 -0.7065
 3675SOL    HW122658   3.975   3.505   0.916  0.9584 -0.1700 -1.5052
 3675SOL    HW222659   3.905   3.412   0.826  0.0477 -1.0969  1.2658
 3676SOL     OW22660   1.817   3.624   5.740 -0.1623  0.2556 -0.2537
 3676SOL    HW122661   1.854   3.670   5.665  0.4203  1.3619  0.7156
 3676SOL    HW222662   1.894   3.620   5.798  0.2213  1.6528 -0.6710
 3677SOL     OW22663   1.795   1.722   5.092 -1.0260  0.0628  0.3402
 3677SOL    HW122664   1.725   1.780   5.122 -1.5518  1.1393 -3.0052
 3677SOL    HW222665   1.772   1.635   5.126 -1.2518 -0.4893 -1.2400
 3678SOL     OW22666   1.280   1.380   7.407  0.2277  0.1753  0.1858
 3678SOL    HW122667   1.247   1.452   7.352  1.1512 -0.3340 -1.0285
 3678SOL    HW222668   1.358   1.350   7.361  0.6997 -1.0619  1.8285
 3679SOL     OW22669   3.035   2.905   5.954 -0.2465  0.0913 -0.0487
 3679SOL    HW122670   3.049   2.810   5.950  4.1329  0.7474  0.1336
 3679SOL    HW222671   2.947   2.908   5.993 -0.0705  3.7223  0.0789
 3680SOL     OW22672   0.243   3.776   6.717 -0.6580  0.1326 -0.4518
 3680SOL    HW122673   0.267   3.736   6.801  0.3393  3.3652  0.7924
 3680SOL    HW222674   0.155   3.806   6.741 -1.1795 -2.1364  0.4296
 3681SOL     OW22675   1.872   3.884   2.267 -0.3888  0.2307 -0.5237
 3681SOL    HW122676   1.855   3.871   2.173 -1.5375 -0.4338 -0.2260
 3681SOL    HW222677   1.857   3.800   2.310 -1.5065 -0.8320 -2.9387
 3682SOL     OW22678   3.916   3.368   1.960 -0.3354  0.2220  0.4885
 3682SOL    HW122679   3.980   3.334   2.022 -0.5564  0.9970  1.1499
 3682SOL    HW222680   3.950   3.457   1.949 -0.2882  0.1626  0.1689
 3683SOL     OW22681   3.333   0.163   2.252 -0.1542 -0.5216  0.3450
 3683SOL    HW122682   3.315   0.158   2.158 -1.6163  0.0395  0.6007
 3683SOL    HW222683   3.258   0.119   2.292 -0.5157 -1.1770 -1.0549
 3684SOL     OW22684   0.953   1.178   2.921 -0.6578 -0.2519  0.5448
 3684SOL    HW122685   0.859   1.188   2.909 -0.5294 -0.0837 -0.3371
 3684SOL    HW222686   0.971   1.125   2.843 -1.0529 -0.2489  0.4546
 3685SOL     OW22687   4.162   1.506   3.269  0.5302 -0.1761 -0.3140
 3685SOL    HW122688   4.166   1.461   3.185  1.0007  0.2223 -0.5025
 3685SOL    HW222689   4.070   1.487   3.288  0.4879  0.2523 -0.0847
 3686SOL     OW22690   0.425   0.552   8.107 -0.2038  0.2328  0.0715
 3686SOL    HW122691   0.423   0.641   8.142  1.1291  0.2254  0.1688
 3686SOL    HW222692   0.368   0.515   8.174 -1.1627  0.6257 -0.5415
 3687SOL     OW22693   1.037   4.500   4.488  0.5178  0.0676  0.0332
 3687SOL    HW122694   1.050   4.453   4.406 -0.7527  0.9133 -0.6603
 3687SOL    HW222695   1.085   4.449   4.553 -1.9392 -1.7146  0.4619
 3688SOL     OW22696   4.467   2.532   7.265  0.0419 -0.6735 -0.3306
 3688SOL    HW122697   4.441   2.444   7.292  2.6801 -1.2983  0.2123
 3688SOL    HW222698   4.491   2.517   7.174 -2.1877 -0.2833 -0.9855
 3689SOL     OW22699   3.593   4.373  12.759  0.6728  0.2919  0.4150
 3689SOL    HW122700   3.581   4.280  12.744 -1.1678  0.0943  3.0520
 3689SOL    HW222701   3.511   4.395  12.803 -0.3656 -1.3378 -0.7017
 3690SOL     OW22702   2.673   1.963  12.322 -0.1124 -0.2004  0.5835
 3690SOL    HW122703   2.748   2.018  12.343 -0.3601 -0.4372  2.0568
 3690SOL    HW222704   2.679   1.950  12.227  2.6920 -0.6052  0.8177
 3691SOL     OW22705   2.723   4.423   2.377 -0.9219  0.1793  0.2829
 3691SOL    HW122706   2.647   4.375   2.344 -0.1960 -0.8591  0.0956
 3691SOL    HW222707   2.706   4.420   2.472  2.5949 -1.4177  0.8893
 3692SOL     OW22708   3.105   3.285   2.612  0.7065 -0.0535 -0.2666
 3692SOL    HW122709   3.098   3.190   2.601 -0.1669 -0.0245  0.0753
 3692SOL    HW222710   3.197   3.296   2.639  0.3924 -0.7246  1.1294
 3693SOL     OW22711   1.626   3.078   2.221 -0.2274  0.1285 -0.0122
 3693SOL    HW122712   1.593   3.032   2.143  1.3693  1.7962 -1.6710
 3693SOL    HW222713   1.719   3.066   2.203 -0.4560 -1.0430 -0.4200
 3694SOL     OW22714   3.700   3.498  13.341  0.1382 -0.0392  0.5946
 3694SOL    HW122715   3.613   3.463  13.320 -1.2178  1.7593  3.1295
 3694SOL    HW222716   3.671   3.564  13.405  0.8984  0.4461  0.4360
 3695SOL     OW22717   4.068   2.879  17.215  0.2690  0.0591  0.0919
 3695SOL    HW122718   3.992   2.899  17.160 -0.2882  1.1879  1.2911
 3695SOL    HW222719   4.030   2.824  17.284  0.5268  1.3256  1.2421
 3696SOL     OW22720   0.147   4.422  15.269 -0.5678  0.3228 -0.3873
 3696SOL    HW122721   0.189   4.346  15.229  2.4381  1.2769  0.9487
 3696SOL    HW222722   0.132   4.484  15.198 -2.1738  0.8220  0.4081
 3697SOL     OW22723   1.630   4.585   9.789  0.3400 -0.6162  0.3960
 3697SOL    HW122724   1.566   4.564   9.857 -1.1005  1.8321 -0.2038
 3697SOL    HW222725   1.594   4.663   9.746  1.2592 -0.3412  0.1328
 3698SOL     OW22726   2.937   3.008   3.120  0.4398  0.1421 -0.1197
 3698SOL    HW122727   2.887   3.090   3.131  0.5771  0.6230 -3.2137
 3698SOL    HW222728   2.894   2.969   3.044  1.2922  0.7932 -0.9315
 3699SOL     OW22729   1.228   3.594   5.559  0.1631 -0.1790  0.3022
 3699SOL    HW122730   1.202   3.663   5.498  0.4703 -0.2950  0.0402
 3699SOL    HW222731   1.322   3.603   5.542 -0.1401  2.8849  0.2666
 3700SOL     OW22732   3.029   2.890   7.107 -0.6915  0.3417 -0.0520
 3700SOL    HW122733   2.981   2.844   7.038  0.2761  0.7785 -1.0103
 3700SOL    HW222734   3.098   2.830   7.134 -0.8836 -0.2986 -0.9765
 3701SOL     OW22735   3.346   2.985   8.239 -0.1301 -0.2839 -0.4650
 3701SOL    HW122736   3.379   2.921   8.177 -0.7766 -0.4849 -0.6029
 3701SOL    HW222737   3.424   2.986   8.294 -0.4051 -0.9626 -0.0560
 3702SOL     OW22738   4.474   0.225   8.541  0.0916  0.2156  1.0583
 3702SOL    HW122739   4.535   0.298   8.540 -0.3990  0.6177 -0.0068
 3702SOL    HW222740   4.540   0.159   8.560 -0.6408 -0.8135  0.0644
 3703SOL     OW22741   4.481   0.944  15.362  0.2801 -0.3608  0.0978
 3703SOL    HW122742   4.389   0.970  15.358  0.0039 -1.2004  0.8027
 3703SOL    HW222743   4.506   1.020  15.311  2.2263 -0.6616  0.6110
 3704SOL     OW22744   4.136   0.606   5.650  0.3420  0.1418 -0.0000
 3704SOL    HW122745   4.188   0.525   5.650 -0.4119 -0.3284 -0.9223
 3704SOL    HW222746   4.124   0.610   5.556  0.6437 -1.3284 -0.1037
 3705SOL     OW22747   3.929   2.200   5.339  0.3426  0.3364  0.0471
 3705SOL    HW122748   3.978   2.152   5.405  0.4672  1.7510  0.9783
 3705SOL    HW222749   3.841   2.164   5.356  0.2055  0.5215 -0.2789
 3706SOL     OW22750   0.402   4.556  14.384 -0.0582 -0.1337  0.2139
 3706SOL    HW122751   0.374   4.645  14.363 -1.1016 -0.3938  0.5065
 3706SOL    HW222752   0.365   4.545  14.472 -1.7323  2.2871 -0.2048
 3707SOL     OW22753   0.135   4.148  12.654  0.5725 -0.4517  0.2782
 3707SOL    HW122754   0.076   4.222  12.643  0.9061  0.0134  1.7187
 3707SOL    HW222755   0.190   4.171  12.729  0.3554  0.6370  0.1054
 3708SOL     OW22756   0.003   4.650   7.227  0.5559 -0.1104 -0.0269
 3708SOL    HW122757   4.684   4.577   7.249  0.9729 -0.5213 -0.2801
 3708SOL    HW222758   0.017   4.688   7.314 -0.7063  0.0034  0.1174
 3709SOL     OW22759   2.241   0.670   3.279  0.3852 -0.6337 -0.4581
 3709SOL    HW122760   2.265   0.686   3.370 -0.9295 -2.3484  0.1794
 3709SOL    HW222761   2.329   0.673   3.241  0.2413  0.3634 -0.6992
 3710SOL     OW22762   4.613   1.713   3.906 -0.1699 -0.1686  0.1080
 3710SOL    HW122763   4.617   1.809   3.901  0.0750 -0.1248  1.3350
 3710SOL    HW222764   4.688   1.698   3.848 -1.2876  0.5851 -1.5568
 3711SOL     OW22765   2.704   2.291   4.936 -0.1628 -0.3578  1.2191
 3711SOL    HW122766   2.753   2.215   4.904 -1.0974 -0.8630  1.0016
 3711SOL    HW222767   2.718   2.295   5.031 -0.8033  0.8489  1.2500
 3712SOL     OW22768   0.266   0.883   9.005 -0.2880  0.5163  0.4155
 3712SOL    HW122769   0.182   0.919   8.976 -1.9440 -2.2783  1.8604
 3712SOL    HW222770   0.329   0.942   8.963 -1.6842  0.8521 -1.1988
 3713SOL     OW22771   1.110   1.153   5.199 -0.1953  0.2094  0.0288
 3713SOL    HW122772   1.037   1.157   5.260 -0.5593 -1.5254 -0.3020
 3713SOL    HW222773   1.083   1.208   5.125  1.4749  0.0600 -0.6865
 3714SOL     OW22774   0.885   2.504   8.303 -0.4888 -0.7412  0.3232
 3714SOL    HW122775   0.793   2.487   8.322 -0.9332  0.2641 -0.8659
 3714SOL    HW222776   0.874   2.581   8.247  1.6594  1.6124  3.1097
 3715SOL     OW22777   2.581   0.214   5.725  0.4964 -0.2631  0.2330
 3715SOL    HW122778   2.618   0.253   5.646  0.4711 -1.6901 -0.4792
 3715SOL    HW222779   2.519   0.281   5.755  1.2250  0.4714  0.0848
 3716SOL     OW22780   4.404   3.743   7.312 -0.5751  0.1510 -0.1728
 3716SOL    HW122781   4.496   3.746   7.285 -0.7470 -0.9819 -0.8841
 3716SOL    HW222782   4.392   3.836   7.331  2.6074  0.2425  1.4203
 3717SOL     OW22783   1.394   4.015  17.216  0.6956  0.5934 -0.7054
 3717SOL    HW122784   1.472   4.069  17.209  0.2004  1.2011 -1.4568
 3717SOL    HW222785   1.429   3.936  17.174 -3.8066 -2.3680  1.0238
 3718SOL     OW22786   2.561   3.627  11.118  0.4023 -0.5037 -0.0139
 3718SOL    HW122787   2.614   3.670  11.185 -3.0698  0.5779  2.0090
 3718SOL    HW222788   2.511   3.556  11.158  2.8069 -1.6720  0.9259
 3719SOL     OW22789   1.752   4.146  10.682 -0.3854 -0.3546  0.4173
 3719SOL    HW122790   1.806   4.077  10.643 -1.2432  0.0955 -1.5326
 3719SOL    HW222791   1.715   4.192  10.607  4.1614  1.2821 -0.7965
 3720SOL     OW22792   3.406   1.517   3.413 -0.0712 -0.2856 -0.6861
 3720SOL    HW122793   3.478   1.505   3.351  1.0010  1.3293  0.2547
 3720SOL    HW222794   3.443   1.526   3.500  1.1984 -1.0319 -1.1615
 3721SOL     OW22795   0.466   0.178   3.061 -0.0308  0.2132  0.1556
 3721SOL    HW122796   0.483   0.097   3.013  2.5611 -0.1122  1.6171
 3721SOL    HW222797   0.400   0.144   3.122 -0.2741 -0.0637 -0.2670
 3722SOL     OW22798   2.244   3.725   4.460 -0.2487  0.1256 -0.4338
 3722SOL    HW122799   2.196   3.806   4.439 -1.6540 -0.7253 -0.5452
 3722SOL    HW222800   2.172   3.678   4.502 -0.3667 -1.3942 -2.3369
 3723SOL     OW22801   1.355   4.378   1.713  0.2091  0.0275  0.0652
 3723SOL    HW122802   1.370   4.468   1.741 -0.6789  0.1454  0.1493
 3723SOL    HW222803   1.276   4.398   1.663 -0.4537  1.7886  1.8086
 3724SOL     OW22804   3.603   1.527   6.459  0.2185  0.3406  0.2336
 3724SOL    HW122805   3.654   1.571   6.391 -0.4080  2.1008  0.8907
 3724SOL    HW222806   3.666   1.533   6.531  0.5558  0.4122 -0.0693
 3725SOL     OW22807   2.829   3.102  10.432 -0.4787 -0.0573  0.3896
 3725SOL    HW122808   2.768   3.174  10.449 -1.2463 -0.6270  0.0281
 3725SOL    HW222809   2.808   3.081  10.341  0.3873  0.3919  0.0869
 3726SOL     OW22810   3.291   0.495   9.748 -0.3981 -0.2715  0.2187
 3726SOL    HW122811   3.341   0.469   9.825 -0.5565 -2.2576 -0.3533
 3726SOL    HW222812   3.217   0.435   9.740 -0.7488  0.6135 -3.1599
 3727SOL     OW22813   1.839   4.255  17.625  0.0927  0.1739  0.0766
 3727SOL    HW122814   1.894   4.252  17.703 -2.1190 -0.2156  1.6227
 3727SOL    HW222815   1.757   4.292  17.659 -1.3927 -0.7168 -2.5083
 3728SOL     OW22816   1.307   2.959   3.174 -0.6650  0.2776  0.2751
 3728SOL    HW122817   1.251   2.884   3.154  0.1463  0.0073 -0.9298
 3728SOL    HW222818   1.269   3.004   3.249 -1.9190 -0.8178  0.2907
 3729SOL     OW22819   3.393   0.694   0.950  0.3003 -0.1963  0.2184
 3729SOL    HW122820   3.341   0.662   1.024 -1.8376  3.0704  0.1372
 3729SOL    HW222821   3.468   0.635   0.955  0.5331  0.0955  0.1437
 3730SOL     OW22822   0.120   4.671   6.505 -0.5969  0.9783  0.2936
 3730SOL    HW122823   0.101   0.018   6.469 -0.3779  1.0488  0.3443
 3730SOL    HW222824   0.116   4.690   6.599  3.0059 -1.9921  1.0793
 3731SOL     OW22825   2.538   3.529   7.860 -0.4768 -0.2747  0.2884
 3731SOL    HW122826   2.485   3.578   7.923 -1.0358 -0.0543 -0.3452
 3731SOL    HW222827   2.622   3.541   7.904 -0.8978 -0.3836  1.1214
 3732SOL     OW22828   1.617   2.371  11.551 -0.3656  0.2890 -0.1112
 3732SOL    HW122829   1.625   2.446  11.492 -0.6503 -2.3336 -3.5299
 3732SOL    HW222830   1.706   2.364  11.586 -1.2702  0.3368  2.2239
 3733SOL     OW22831   0.926   2.114  12.442  0.0534  0.9949  0.2098
 3733SOL    HW122832   0.886   2.179  12.384 -0.3306  0.6431  0.0729
 3733SOL    HW222833   1.006   2.151  12.477  1.0402  1.4449 -2.5264
 3734SOL     OW22834   1.244   2.810   6.224  0.2411 -0.0617  0.0577
 3734SOL    HW122835   1.240   2.905   6.211 -3.9944 -0.2040  0.2126
 3734SOL    HW222836   1.152   2.796   6.245  0.0651  0.6721 -0.2150
 3735SOL     OW22837   0.272   1.700   6.739 -0.6801  0.0279  0.1518
 3735SOL    HW122838   0.270   1.710   6.644  2.0055  0.1538  0.0970
 3735SOL    HW222839   0.254   1.790   6.764  0.6192  0.3950 -0.2058
 3736SOL     OW22840   0.982   0.960   8.440 -0.3133  0.1806  0.5428
 3736SOL    HW122841   0.975   1.016   8.517 -3.3562  0.0008  0.3868
 3736SOL    HW222842   1.067   0.916   8.453 -0.3029 -0.3387 -1.2004
 3737SOL     OW22843   0.830   2.836  12.979  0.1824 -0.7107 -0.3046
 3737SOL    HW122844   0.818   2.896  12.905 -2.6344 -2.4064 -1.2193
 3737SOL    HW222845   0.779   2.758  12.956 -1.1785 -0.5071  2.0324
 3738SOL     OW22846   2.493   1.916  15.936 -0.5580 -0.2972 -0.5651
 3738SOL    HW122847   2.407   1.901  15.976  0.2051 -1.5257  0.6115
 3738SOL    HW222848   2.476   2.004  15.901 -0.5429  0.1636  0.5762
 3739SOL     OW22849   2.617   0.078   6.583 -1.1645  0.3580 -0.1161
 3739SOL    HW122850   2.673   0.010   6.619 -1.8279 -1.0759 -1.8007
 3739SOL    HW222851   2.673   0.098   6.508 -0.1247  0.0366  0.5615
 3740SOL     OW22852   3.110   0.939  16.895  0.3791  0.1641  0.0989
 3740SOL    HW122853   3.085   1.022  16.935  0.1791  0.0642  0.1812
 3740SOL    HW222854   3.203   0.934  16.918  0.1028 -1.6388  0.8158
 3741SOL     OW22855   0.716   3.207   7.329 -0.1804  0.4385 -0.9364
 3741SOL    HW122856   0.710   3.246   7.242  2.2203  0.5585 -1.0255
 3741SOL    HW222857   0.790   3.147   7.323  0.3938  1.1323 -0.7249
 3742SOL     OW22858   0.925   3.862   6.195 -0.2205  0.2391  0.1910
 3742SOL    HW122859   1.004   3.889   6.241 -0.4178  1.9257 -0.4758
 3742SOL    HW222860   0.877   3.816   6.265 -2.8136  0.2267 -1.6017
 3743SOL     OW22861   4.147   3.794   1.458 -0.6709 -0.3342 -0.3556
 3743SOL    HW122862   4.190   3.786   1.373 -1.1757  2.5525 -0.8831
 3743SOL    HW222863   4.057   3.768   1.438 -0.6185 -0.8925  0.1554
 3744SOL     OW22864   3.499   1.565   9.935  0.4034 -0.5199 -0.2675
 3744SOL    HW122865   3.583   1.525   9.956  0.9449  0.8740  0.1980
 3744SOL    HW222866   3.452   1.496   9.982  0.4764 -1.4486 -1.5668
 3745SOL     OW22867   1.398   4.623   9.934  0.2267  0.3121 -0.2458
 3745SOL    HW122868   1.339   4.676   9.881  0.3918  0.6779 -0.0624
 3745SOL    HW222869   1.336   4.551   9.946 -0.4861  1.3782  2.5312
 3746SOL     OW22870   0.605   3.856   3.060 -0.1437  0.4895 -0.1785
 3746SOL    HW122871   0.690   3.827   3.094 -0.0420  2.1573  0.9685
 3746SOL    HW222872   0.622   3.828   2.970 -0.4456  0.8209 -0.3414
 3747SOL     OW22873   3.975   2.582  11.039  0.2492  0.1722  0.1080
 3747SOL    HW122874   3.939   2.505  10.995  3.0625 -0.4964 -0.9532
 3747SOL    HW222875   4.052   2.554  11.087  0.5021  0.4144 -0.1574
 3748SOL     OW22876   1.211   3.810   7.940 -0.2660 -0.4776  0.4280
 3748SOL    HW122877   1.237   3.849   7.857  2.2169 -0.4663  1.2248
 3748SOL    HW222878   1.208   3.885   8.000  0.3724 -0.5929  0.5993
 3749SOL     OW22879   3.576   1.878  16.340 -0.1482 -0.0699 -0.6177
 3749SOL    HW122880   3.639   1.906  16.274  1.4939  0.0441  1.0369
 3749SOL    HW222881   3.492   1.892  16.295 -1.1814  0.9870  1.6353
 3750SOL     OW22882   4.524   2.751   7.076  0.2442  0.5449 -0.0300
 3750SOL    HW122883   4.536   2.760   6.982 -0.8669 -1.4102 -0.3506
 3750SOL    HW222884   4.429   2.741   7.080  0.3386 -1.0431 -1.7440
 3751SOL     OW22885   4.359   0.713  10.899  0.4660  0.5677 -0.1161
 3751SOL    HW122886   4.418   0.777  10.858  2.2446  1.2269  3.4509
 3751SOL    HW222887   4.317   0.668  10.826 -2.2466  0.9165  1.2172
 3752SOL     OW22888   0.910   3.165   1.407  0.3620  0.0851 -0.1139
 3752SOL    HW122889   0.839   3.123   1.455 -0.9905  0.7124 -1.5503
 3752SOL    HW222890   0.963   3.087   1.393  0.5373 -0.1267  1.7287
 3753SOL     OW22891   4.025   1.610   4.922  0.3468 -0.1835 -0.3060
 3753SOL    HW122892   3.964   1.600   4.994 -0.7202 -1.1265 -1.3397
 3753SOL    HW222893   4.039   1.518   4.898 -0.9237 -0.6808  0.8919
 3754SOL     OW22894   1.942   4.489   7.526 -0.2548  0.5907  0.1217
 3754SOL    HW122895   2.012   4.504   7.462 -0.6916 -0.2080 -0.5426
 3754SOL    HW222896   1.898   4.574   7.539  0.6385  1.1015 -0.1685
 3755SOL     OW22897   0.707   2.648  16.938  0.3976 -0.0695 -0.1289
 3755SOL    HW122898   0.772   2.582  16.916  1.2903 -0.2672  3.2797
 3755SOL    HW222899   0.704   2.641  17.033  0.6602  1.3959 -0.0078
 3756SOL     OW22900   2.344   3.792   6.196  0.8221  0.6646  0.1849
 3756SOL    HW122901   2.301   3.841   6.267  3.9713 -0.5791  2.9260
 3756SOL    HW222902   2.269   3.768   6.141  0.5312 -0.8927  1.2655
 3757SOL     OW22903   1.319   0.002   6.569  0.5502  0.3441 -0.5746
 3757SOL    HW122904   1.264   0.002   6.648 -0.1653  1.0095 -1.0743
 3757SOL    HW222905   1.266   4.710   6.497 -0.1256 -1.2892  0.6338
 3758SOL     OW22906   2.204   3.370   3.119  0.0997 -0.4873  0.1812
 3758SOL    HW122907   2.257   3.377   3.040 -1.0440 -0.8877 -0.6210
 3758SOL    HW222908   2.247   3.435   3.175  0.4625  0.6108 -1.3790
 3759SOL     OW22909   4.669   2.053   0.689 -0.5806  0.3936 -0.5086
 3759SOL    HW122910   4.717   1.979   0.652 -1.2467  1.1204 -2.8504
 3759SOL    HW222911   4.621   2.006   0.757  0.7990 -0.2359  0.0349
 3760SOL     OW22912   1.938   2.359  10.511 -0.0831 -0.4044  0.3178
 3760SOL    HW122913   1.914   2.267  10.497  0.0502 -0.5023  0.7365
 3760SOL    HW222914   1.892   2.392  10.588  0.9413 -0.4316  0.9226
 3761SOL     OW22915   1.110   4.461   5.826  0.1976  0.0068 -0.6220
 3761SOL    HW122916   1.175   4.392   5.842 -0.6376 -0.7198 -0.3462
 3761SOL    HW222917   1.045   4.416   5.772 -1.8320  0.5373  1.3690
 3762SOL     OW22918   4.447   0.551   5.162  0.2221 -1.1884 -0.1518
 3762SOL    HW122919   4.540   0.530   5.159  0.7387  1.1622 -0.0842
 3762SOL    HW222920   4.445   0.591   5.075  3.3932 -0.0163  0.3241
 3763SOL     OW22921   1.154   4.709   5.649 -0.2310  0.1204 -0.0483
 3763SOL    HW122922   1.164   4.633   5.706  1.2740  1.4004  1.4096
 3763SOL    HW222923   1.241   0.010   5.658 -0.7368  1.4736 -1.1832
 3764SOL     OW22924   1.349   1.393   5.559  0.0330 -0.3217 -0.1802
 3764SOL    HW122925   1.271   1.425   5.603  0.2022  1.0122 -0.8372
 3764SOL    HW222926   1.333   1.298   5.556 -1.3844 -0.0726 -0.4418
 3765SOL     OW22927   3.777   2.181  13.147 -0.3775  0.3946  0.3801
 3765SOL    HW122928   3.768   2.086  13.157 -0.8185  0.1290 -2.3954
 3765SOL    HW222929   3.799   2.172  13.054 -0.9418  0.5415  0.2317
 3766SOL     OW22930   2.588   2.604  15.501  0.1862  0.1562  0.0835
 3766SOL    HW122931   2.655   2.613  15.434 -0.0474 -1.2183 -0.3459
 3766SOL    HW222932   2.506   2.618  15.454  1.8159  0.6959 -2.5434
 3767SOL     OW22933   3.802   4.490   8.744 -0.2966  0.2762 -0.6657
 3767SOL    HW122934   3.809   4.469   8.837 -0.1257 -0.3793 -0.8311
 3767SOL    HW222935   3.892   4.482   8.715  0.1475 -0.6357  0.9937
 3768SOL     OW22936   2.798   2.555   2.187 -0.2150 -0.1208  0.4769
 3768SOL    HW122937   2.722   2.509   2.222  0.1491 -0.8612  0.2973
 3768SOL    HW222938   2.866   2.533   2.250 -0.1767 -0.7568  0.2111
 3769SOL     OW22939   3.568   4.515   1.918 -0.0463 -0.0985 -0.4813
 3769SOL    HW122940   3.488   4.539   1.965 -1.2429 -1.9853 -1.5321
 3769SOL    HW222941   3.541   4.544   1.831  0.2831 -0.3775 -0.6797
 3770SOL     OW22942   2.576   3.081   4.010  0.5548 -0.8472  0.3640
 3770SOL    HW122943   2.659   3.042   4.038  1.8007  0.4727 -1.4665
 3770SOL    HW222944   2.524   3.075   4.090 -0.1222 -0.0680 -0.0115
 3771SOL     OW22945   2.156   0.708   2.368 -0.1317  0.2691 -0.1307
 3771SOL    HW122946   2.093   0.737   2.302  1.1825  2.5087 -0.3777
 3771SOL    HW222947   2.117   0.623   2.389 -0.2152  0.2267 -0.4650
 3772SOL     OW22948   0.900   4.500   2.398 -0.4381 -0.0261  0.2132
 3772SOL    HW122949   0.924   4.536   2.312  2.3316 -1.7354  0.2792
 3772SOL    HW222950   0.863   4.576   2.443  2.8763  1.0715  1.0520
 3773SOL     OW22951   4.264   1.129  14.844  0.3294  0.7714 -0.0588
 3773SOL    HW122952   4.326   1.074  14.795 -2.1465 -1.4612 -0.7205
 3773SOL    HW222953   4.250   1.197  14.778 -0.2624  0.3588 -0.3613
 3774SOL     OW22954   4.317   1.769   9.525 -0.1885  0.0209  0.1433
 3774SOL    HW122955   4.271   1.736   9.601 -1.7468  0.5044 -0.5894
 3774SOL    HW222956   4.408   1.742   9.536 -0.9698 -2.7905 -0.1921
 3775SOL     OW22957   0.658   3.900  11.608  0.2540  0.6213 -0.5500
 3775SOL    HW122958   0.572   3.876  11.574 -0.0362  0.7015  0.1311
 3775SOL    HW222959   0.629   3.966  11.671  0.5037 -2.4468  2.7732
 3776SOL     OW22960   4.616   2.703   3.246  0.0276 -0.4669  0.2461
 3776SOL    HW122961   4.624   2.681   3.153  0.8374  1.2447 -0.0867
 3776SOL    HW222962   4.675   2.779   3.249  1.8820 -1.9051  0.6080
 3777SOL     OW22963   4.665   1.088   9.876 -0.6998 -0.0160  0.2990
 3777SOL    HW122964   4.581   1.133   9.868 -0.3407  0.7318  0.7340
 3777SOL    HW222965   4.684   1.095   9.969  2.2022  0.9362 -0.3459
 3778SOL     OW22966   0.473   1.808  16.093 -0.2098  0.7927 -0.4201
 3778SOL    HW122967   0.400   1.748  16.110 -0.0527  1.1349  1.4469
 3778SOL    HW222968   0.413   1.880  16.113 -0.3691  0.7009 -0.5702
 3779SOL     OW22969   2.404   2.956   3.749 -0.1097  0.5899 -0.6247
 3779SOL    HW122970   2.423   2.978   3.840 -1.0141  0.6398 -0.4566
 3779SOL    HW222971   2.316   2.923   3.765 -0.1324  0.1488 -1.6558
 3780SOL     OW22972   2.353   2.452  15.789 -0.0264  0.0462  0.1083
 3780SOL    HW122973   2.427   2.505  15.815 -0.8946  1.2654  0.0982
 3780SOL    HW222974   2.288   2.493  15.846  0.9428  0.2470  1.0625
 3781SOL     OW22975   3.601   3.913   3.603 -0.3634  0.2375  0.2068
 3781SOL    HW122976   3.673   3.855   3.578  0.4292  0.4858  1.8731
 3781SOL    HW222977   3.578   3.872   3.687 -1.6205 -0.6034 -0.5411
 3782SOL     OW22978   3.232   2.052   1.853  0.0175 -0.8607  0.5008
 3782SOL    HW122979   3.214   1.966   1.890 -0.7564 -1.3641 -1.0217
 3782SOL    HW222980   3.324   2.065   1.874 -0.3760 -1.1282  2.3502
 3783SOL     OW22981   2.677   0.566  13.986 -0.4099  0.0950  0.1286
 3783SOL    HW122982   2.636   0.593  13.904  1.9463  1.0213 -0.7430
 3783SOL    HW222983   2.609   0.592  14.048 -0.7243  1.4553 -0.7706
 3784SOL     OW22984   1.806   3.984   5.926 -0.3403  0.4615 -0.0359
 3784SOL    HW122985   1.796   3.891   5.946  1.6916  0.0952 -0.7591
 3784SOL    HW222986   1.901   3.993   5.929 -0.3426  0.6426 -0.4879
 3785SOL     OW22987   4.153   2.494   4.675  0.4375  0.0671 -0.6515
 3785SOL    HW122988   4.137   2.421   4.615 -3.8894 -1.7497  2.7300
 3785SOL    HW222989   4.123   2.447   4.753 -0.6353 -0.2028 -1.2249
 3786SOL     OW22990   0.853   2.273   9.302 -0.4083  0.3064  0.4113
 3786SOL    HW122991   0.767   2.248   9.267  0.6059 -2.3092 -0.2273
 3786SOL    HW222992   0.843   2.360   9.341  1.1611  0.3833  0.6184
 3787SOL     OW22993   0.939   2.130   8.829 -0.3174  0.6244  0.1103
 3787SOL    HW122994   0.909   2.173   8.750  2.0357  1.1227 -0.5310
 3787SOL    HW222995   0.860   2.114   8.881 -1.4806  0.7982 -1.6365
 3788SOL     OW22996   1.123   0.721   3.237  0.1841  0.4913  0.2473
 3788SOL    HW122997   1.035   0.755   3.220 -0.7732 -1.6568  0.8870
 3788SOL    HW222998   1.165   0.769   3.165  0.8219  1.5845  1.3600
 3789SOL     OW22999   0.097   1.023   2.178 -0.0592 -0.0636  0.5551
 3789SOL    HW123000   0.073   0.949   2.122  1.4818 -0.9111  0.9934
 3789SOL    HW223001   0.134   0.981   2.256  0.3597  1.2998  1.0844
 3790SOL     OW23002   1.669   3.545  13.478  0.0019 -0.0205 -0.5337
 3790SOL    HW123003   1.743   3.569  13.423 -0.7854  1.9601 -0.7309
 3790SOL    HW223004   1.636   3.632  13.500 -0.7209 -0.4735  0.1934
 3791SOL     OW23005   4.157   3.289   2.084 -0.0586 -0.2493 -0.1268
 3791SOL    HW123006   4.224   3.346   2.045 -0.0456 -1.1464 -1.4318
 3791SOL    HW223007   4.212   3.254   2.154  0.4142 -0.7495 -0.7455
 3792SOL     OW23008   2.012   1.811   3.769 -0.4423  0.2072  0.2305
 3792SOL    HW123009   2.058   1.812   3.853  0.5436  1.3080 -0.3179
 3792SOL    HW223010   1.948   1.876   3.796  1.8580  1.6625  2.1555
 3793SOL     OW23011   3.537   2.665   4.261 -0.4189 -0.1754  0.0898
 3793SOL    HW123012   3.554   2.759   4.270 -1.1766 -0.0472  0.1794
 3793SOL    HW223013   3.625   2.639   4.288 -0.4459  1.1440  1.4573
 3794SOL     OW23014   1.423   2.060   7.306 -0.2660 -0.2137 -0.2920
 3794SOL    HW123015   1.461   1.972   7.306 -0.6813 -0.3857 -1.0686
 3794SOL    HW223016   1.438   2.090   7.217  0.0460  0.5447  0.0185
 3795SOL     OW23017   4.195   3.512   6.928 -0.0189 -0.3452 -0.2893
 3795SOL    HW123018   4.129   3.486   6.993  0.1318 -0.9218 -0.3661
 3795SOL    HW223019   4.210   3.426   6.889 -1.3544 -0.5065 -0.4434
 3796SOL     OW23020   4.413   2.914  14.647 -0.2550 -0.4792  0.1329
 3796SOL    HW123021   4.445   2.995  14.687 -2.9552  2.4840 -3.7108
 3796SOL    HW223022   4.409   2.860  14.727  1.9442 -0.8000  0.0475
 3797SOL     OW23023   3.960   1.531   0.530  0.0672  0.0852  0.1627
 3797SOL    HW123024   3.879   1.480   0.533 -0.1096  0.4559  1.8348
 3797SOL    HW223025   4.015   1.490   0.597 -0.8804  0.5531  1.2414
 3798SOL     OW23026   3.298   3.057   0.910 -0.6166  0.1478 -0.0239
 3798SOL    HW123027   3.384   3.084   0.879 -1.6905  1.9535 -1.4345
 3798SOL    HW223028   3.300   3.120   0.981  0.5570  1.1654 -0.9734
 3799SOL     OW23029   0.180   1.390   3.999  0.3014  0.4790  0.3841
 3799SOL    HW123030   0.121   1.408   4.072 -1.3638  2.3958 -1.4536
 3799SOL    HW223031   0.202   1.474   3.960 -1.0615  0.5052 -0.3084
 3800SOL     OW23032   2.055   0.670   8.446 -0.1853 -0.3009 -0.1970
 3800SOL    HW123033   2.031   0.606   8.513 -2.2109 -0.9727 -1.5674
 3800SOL    HW223034   2.117   0.618   8.394 -1.4208 -2.1268  0.1525
 3801SOL     OW23035   1.885   1.256   3.691 -0.1852 -0.4234  0.1729
 3801SOL    HW123036   1.791   1.250   3.677 -0.4559  0.4844  1.5468
 3801SOL    HW223037   1.900   1.350   3.684 -0.3354 -0.5507 -1.8753
 3802SOL     OW23038   0.139   2.013  14.163  0.1644 -0.0269 -0.3215
 3802SOL    HW123039   0.103   2.065  14.235  2.0472  2.0690 -0.9065
 3802SOL    HW223040   0.149   1.925  14.200  1.8259  0.0119 -0.6698
 3803SOL     OW23041   0.763   3.045  17.286 -0.0913  0.5578  0.0258
 3803SOL    HW123042   0.850   3.012  17.266  0.1310  1.1963 -0.0664
 3803SOL    HW223043   0.782   3.098  17.364 -0.7089  0.3758  0.3065
 3804SOL     OW23044   3.936   4.582   3.786  0.2557  0.2829 -0.1685
 3804SOL    HW123045   3.904   4.633   3.860  1.0567 -1.1117  1.1389
 3804SOL    HW223046   4.029   4.603   3.789  0.7729 -1.8946 -0.7515
 3805SOL     OW23047   3.407   0.644   6.240 -0.3303 -0.6653  0.3189
 3805SOL    HW123048   3.449   0.613   6.159 -0.7410 -0.6018  0.0806
 3805SOL    HW223049   3.450   0.728   6.252 -1.0182 -0.6557  2.6837
 3806SOL     OW23050   0.644   0.360   5.445 -0.4533 -0.0407 -0.1419
 3806SOL    HW123051   0.590   0.386   5.371  0.5478 -3.4121 -2.0322
 3806SOL    HW223052   0.692   0.442   5.458 -1.7692  1.2159 -3.1100
 3807SOL     OW23053   0.401   2.394   5.719  0.4608 -0.5089 -0.3467
 3807SOL    HW123054   0.470   2.332   5.695  0.3938 -0.8295  0.2966
 3807SOL    HW223055   0.412   2.463   5.654 -0.6874 -0.5280 -0.5630
 3808SOL     OW23056   0.990   3.373   6.071  0.3633 -0.6214  0.1007
 3808SOL    HW123057   1.017   3.436   6.138 -1.4437  0.3989 -0.1182
 3808SOL    HW223058   0.940   3.427   6.009  0.7715  0.4926  0.7423
 3809SOL     OW23059   0.732   4.691   3.564 -0.8765 -0.1895 -0.0758
 3809SOL    HW123060   0.776   0.032   3.593 -1.8383  0.1631  0.4157
 3809SOL    HW223061   0.699   4.717   3.478  0.2844 -0.4466 -0.6025
 3810SOL     OW23062   4.518   2.535   9.686 -0.2893 -0.7707  0.5553
 3810SOL    HW123063   4.451   2.528   9.617  1.1168 -1.0207 -0.7915
 3810SOL    HW223064   4.577   2.462   9.669  0.3944  0.1661 -1.1273
 3811SOL     OW23065   2.645   1.617   3.283  0.2120  0.4246 -0.1466
 3811SOL    HW123066   2.684   1.674   3.349  1.2435  0.5111 -0.8241
 3811SOL    HW223067   2.643   1.673   3.206  0.7510 -0.2992 -0.6943
 3812SOL     OW23068   3.896   3.970  11.136 -0.1159 -0.9744 -0.5877
 3812SOL    HW123069   3.856   4.021  11.207  2.5795  0.1862  0.1244
 3812SOL    HW223070   3.960   4.038  11.113  1.3981 -2.1369  0.1973
 3813SOL     OW23071   0.093   2.972   8.622  0.6032  0.6041 -0.0329
 3813SOL    HW123072   0.119   2.919   8.697  1.9372 -0.3416 -1.1605
 3813SOL    HW223073   0.030   3.027   8.668 -0.3275  0.1455 -0.7614
 3814SOL     OW23074   2.959   4.583   9.664 -0.0192  0.7762 -0.2596
 3814SOL    HW123075   2.869   4.559   9.683 -0.2218  2.0105  0.3667
 3814SOL    HW223076   2.945   4.558   9.573  0.8276  0.4211 -0.2889
 3815SOL     OW23077   3.913   2.483   0.417  0.2439  0.0405  0.2158
 3815SOL    HW123078   3.885   2.398   0.451 -0.6890  0.3016  0.1076
 3815SOL    HW223079   3.849   2.541   0.459 -0.1074 -1.6527  2.0345
 3816SOL     OW23080   4.118   2.106   0.405  0.0896  0.0324 -0.0954
 3816SOL    HW123081   4.106   2.069   0.493 -0.1767  0.2420 -0.0445
 3816SOL    HW223082   4.056   2.178   0.401  0.5278  0.5113  1.6030
 3817SOL     OW23083   1.824   1.591   4.534  0.2329 -0.0209  0.5279
 3817SOL    HW123084   1.894   1.546   4.581  2.2006  0.0179 -2.3127
 3817SOL    HW223085   1.871   1.652   4.477 -1.1233  0.5403  0.0146
 3818SOL     OW23086   0.234   2.514   3.789 -0.1153  0.0917 -0.3599
 3818SOL    HW123087   0.251   2.510   3.694 -3.0608  3.8203 -1.0743
 3818SOL    HW223088   0.319   2.498   3.829  0.7132  2.1592 -1.2864
 3819SOL     OW23089   2.079   1.478   6.608  0.0876 -0.1197  0.2600
 3819SOL    HW123090   2.090   1.572   6.597 -0.0810 -0.2059 -0.6298
 3819SOL    HW223091   2.146   1.441   6.551  0.6392  0.3649  0.5917
 3820SOL     OW23092   2.719   2.051   8.205  0.5631 -0.6935 -0.3550
 3820SOL    HW123093   2.692   1.975   8.257 -0.3216  0.3399  0.6989
 3820SOL    HW223094   2.814   2.051   8.211  0.6491  0.6922 -1.4651
 3821SOL     OW23095   3.057   3.770   0.261  0.1575  0.2170  0.4306
 3821SOL    HW123096   2.981   3.825   0.278 -1.1653 -2.2060  2.3660
 3821SOL    HW223097   3.018   3.686   0.284  0.2270 -0.0994 -0.6240
 3822SOL     OW23098   3.850   2.551  13.867 -0.1265  0.0929 -0.4285
 3822SOL    HW123099   3.878   2.586  13.783  1.4985 -2.1704 -0.8282
 3822SOL    HW223100   3.857   2.638  13.905 -0.7098  0.0893 -0.3074
 3823SOL     OW23101   4.539   1.094  16.971  0.5068 -0.0676  0.1511
 3823SOL    HW123102   4.468   1.092  16.907  0.5489  0.1764  0.0967
 3823SOL    HW223103   4.493   1.055  17.046 -0.4466  1.0604  0.1535
 3824SOL     OW23104   3.720   1.802   4.149  0.2501  0.3248  0.3088
 3824SOL    HW123105   3.698   1.893   4.170  2.7821  1.3954 -1.6072
 3824SOL    HW223106   3.812   1.813   4.123 -0.3930  1.6863 -1.4003
 3825SOL     OW23107   1.759   2.519   3.339 -0.1144  0.0047  0.1360
 3825SOL    HW123108   1.829   2.563   3.290 -1.1623 -0.5334 -1.8268
 3825SOL    HW223109   1.701   2.595   3.338 -0.5639 -0.3426  0.1219
 3826SOL     OW23110   2.814   3.004   6.127 -0.0861  0.2875  0.0397
 3826SOL    HW123111   2.820   2.985   6.221  1.9259 -1.5001 -0.4425
 3826SOL    HW223112   2.788   3.096   6.123 -1.7939 -0.2831 -1.8349
 3827SOL     OW23113   3.875   0.263   1.711 -0.0298  0.2285 -0.5268
 3827SOL    HW123114   3.940   0.324   1.678 -0.9037  0.3787 -1.9463
 3827SOL    HW223115   3.833   0.238   1.629  0.4045  1.3058 -1.0639
 3828SOL     OW23116   3.737   2.043  10.642 -0.1962  0.1639  0.3012
 3828SOL    HW123117   3.690   2.125  10.628 -1.1813 -0.5241 -0.3954
 3828SOL    HW223118   3.701   1.996  10.567 -0.4627 -0.1187  0.6085
 3829SOL     OW23119   0.271   2.317   4.658 -0.2858 -0.4017 -0.6736
 3829SOL    HW123120   0.266   2.312   4.563  0.9171 -0.9405 -0.7067
 3829SOL    HW223121   0.354   2.273   4.675  0.9170  2.5861  1.3314
 3830SOL     OW23122   0.397   3.933   2.724  0.1673  0.1275  0.7843
 3830SOL    HW123123   0.481   3.921   2.767  0.2896 -2.2088 -0.1088
 3830SOL    HW223124   0.401   4.025   2.697  1.1857  0.0312  0.6316
 3831SOL     OW23125   1.470   2.866  15.267  0.5182 -0.3408  0.4487
 3831SOL    HW123126   1.511   2.924  15.204  0.1926  0.0569  0.6055
 3831SOL    HW223127   1.395   2.828  15.222 -0.1349 -1.1037  2.1587
 3832SOL     OW23128   2.579   3.168   1.092  0.2190 -0.1213 -0.8450
 3832SOL    HW123129   2.551   3.164   1.183  1.0703 -1.2197 -0.6316
 3832SOL    HW223130   2.492   3.151   1.055  0.8875  0.0096 -2.4973
 3833SOL     OW23131   1.438   2.024   3.184  0.7348  0.2102  0.0104
 3833SOL    HW123132   1.482   1.943   3.158 -0.1014 -0.1281 -0.3332
 3833SOL    HW223133   1.522   2.058   3.215  1.9332 -3.2602  0.5938
 3834SOL     OW23134   3.012   3.955   3.497  0.1871 -0.2442 -0.1852
 3834SOL    HW123135   3.016   4.042   3.536 -1.4490 -0.5058  0.5720
 3834SOL    HW223136   3.046   3.899   3.567  0.6365  0.0106 -0.2040
 3835SOL     OW23137   2.399   1.236   0.232 -0.3932  0.3241 -0.3787
 3835SOL    HW123138   2.493   1.227   0.249 -0.6657 -1.3213  0.3748
 3835SOL    HW223139   2.375   1.148   0.262 -1.0369  0.8507  0.6346
 3836SOL     OW23140   0.194   3.670   3.455 -0.1103  0.0671 -0.0731
 3836SOL    HW123141   0.200   3.743   3.516 -2.9030  1.3369 -1.3207
 3836SOL    HW223142   0.182   3.713   3.371  1.4492 -0.3750 -0.5237
 3837SOL     OW23143   4.223   4.022   0.211 -0.2387 -0.2826  0.2240
 3837SOL    HW123144   4.166   4.078   0.264 -1.4771 -2.5082  1.2732
 3837SOL    HW223145   4.155   3.973   0.165 -0.2145  0.0519 -0.1649
 3838SOL     OW23146   0.110   0.752   2.352  0.2014  0.0954  0.5858
 3838SOL    HW123147   0.095   0.769   2.445 -2.1079  1.8333 -0.1272
 3838SOL    HW223148   0.112   0.656   2.346 -0.5817  0.1431 -0.3719
 3839SOL     OW23149   2.810   2.307  11.751 -0.2538  0.5317 -0.5490
 3839SOL    HW123150   2.725   2.279  11.718 -0.1132 -1.8494  1.0896
 3839SOL    HW223151   2.817   2.395  11.713  0.2865  0.8797  0.3490
 3840SOL     OW23152   4.568   1.012   3.629  0.1504 -0.2597  0.3306
 3840SOL    HW123153   4.644   1.063   3.599 -0.3965  0.5082  0.2507
 3840SOL    HW223154   4.625   0.953   3.679  2.3233  0.6484 -1.0746
 3841SOL     OW23155   0.458   0.768  15.249  0.2037 -0.7387  0.3642
 3841SOL    HW123156   0.368   0.739  15.240  0.1872  0.0570 -2.0826
 3841SOL    HW223157   0.447   0.830  15.322  2.7989  0.8157 -0.5482
 3842SOL     OW23158   0.638   1.781   9.192  0.2881 -0.6259 -0.5505
 3842SOL    HW123159   0.724   1.794   9.233  1.1639 -1.1815 -2.2193
 3842SOL    HW223160   0.668   1.706   9.139  0.3234 -0.3904 -0.8622
 3843SOL     OW23161   2.976   3.543   5.561  0.2280 -0.3648  0.1224
 3843SOL    HW123162   3.057   3.535   5.510 -0.1507 -0.9248 -0.3835
 3843SOL    HW223163   2.926   3.601   5.504  0.0881 -1.2560 -0.6657
 3844SOL     OW23164   3.067   4.731   4.929 -0.2518  0.2392 -0.6220
 3844SOL    HW123165   3.151   0.028   4.901 -0.0151  1.1905  1.2595
 3844SOL    HW223166   3.074   4.646   4.886  2.3248 -0.6080  1.4141
 3845SOL     OW23167   2.211   0.484   8.326  0.4998 -0.3452 -0.1170
 3845SOL    HW123168   2.178   0.453   8.241  0.4037  0.1577 -0.2606
 3845SOL    HW223169   2.302   0.453   8.327 -0.3570 -2.8620 -1.5271
 3846SOL     OW23170   2.347   4.104   7.175 -0.0465 -0.1960  0.3180
 3846SOL    HW123171   2.320   4.019   7.140  0.3520  0.2090 -0.9586
 3846SOL    HW223172   2.294   4.162   7.121  1.7371  0.1607 -1.0600
 3847SOL     OW23173   1.919   3.876   5.240 -0.1721  0.6458 -0.3406
 3847SOL    HW123174   1.877   3.895   5.324  1.3114  0.2667  0.4927
 3847SOL    HW223175   2.003   3.836   5.264 -1.9653 -2.3484  0.9172
 3848SOL     OW23176   2.232   3.085   3.938 -0.8222  0.3348  0.4945
 3848SOL    HW123177   2.192   3.038   4.011 -0.3687 -1.3413 -0.3197
 3848SOL    HW223178   2.257   3.161   3.990  0.5910  1.1587 -1.3655
 3849SOL     OW23179   1.082   2.026  17.695 -0.2160  0.7132 -0.0417
 3849SOL    HW123180   1.097   2.116  17.723 -0.0739  0.7595 -0.2606
 3849SOL    HW223181   1.055   2.039  17.604  0.4754 -0.5618 -0.4378
 3850SOL     OW23182   2.839   2.773   4.194 -0.3611 -0.0615  0.8153
 3850SOL    HW123183   2.916   2.781   4.138 -1.2954  3.2100 -0.0034
 3850SOL    HW223184   2.766   2.778   4.133  1.0473  0.3181 -0.8287
 3851SOL     OW23185   2.741   4.694   0.902  0.5478  0.0485  0.0303
 3851SOL    HW123186   2.686   4.647   0.839 -0.4660 -1.3928  2.0104
 3851SOL    HW223187   2.708   4.668   0.988 -1.9737  2.3345 -0.2570
 3852SOL     OW23188   2.031   0.006  16.527 -0.1670 -0.9149 -0.7667
 3852SOL    HW123189   2.031   4.687  16.603  2.9719  1.2441  0.8602
 3852SOL    HW223190   2.026   0.096  16.558  0.4543 -0.6678 -1.3789
 3853SOL     OW23191   1.154   0.809   8.191 -0.1507 -0.0629 -0.3062
 3853SOL    HW123192   1.158   0.874   8.262 -1.6842 -0.4029  0.1043
 3853SOL    HW223193   1.187   0.862   8.118 -1.4133  0.5963 -0.3996
 3854SOL     OW23194   2.340   1.642   8.544  0.1504 -0.3702  0.3604
 3854SOL    HW123195   2.296   1.719   8.507 -2.6300 -0.5430  3.3625
 3854SOL    HW223196   2.396   1.609   8.473 -1.8582  1.0244 -1.8657
 3855SOL     OW23197   4.114   1.510   8.816  0.4166  0.1342  0.1346
 3855SOL    HW123198   4.198   1.540   8.850 -0.6605  2.1007  1.0028
 3855SOL    HW223199   4.105   1.417   8.838 -1.1962  0.8304  2.3542
 3856SOL     OW23200   2.319   3.521   4.284  0.3993  0.2318  0.0461
 3856SOL    HW123201   2.339   3.589   4.348 -1.0949 -0.7934  1.5982
 3856SOL    HW223202   2.412   3.501   4.270  0.6075  2.0685 -1.2076
 3857SOL     OW23203   3.329   3.581   1.510  0.4477  0.2012 -0.1408
 3857SOL    HW123204   3.404   3.577   1.570 -0.9172 -0.0153  1.5503
 3857SOL    HW223205   3.371   3.564   1.426  0.1301  1.9897 -0.6568
 3858SOL     OW23206   0.689   4.016  17.598 -0.0925  0.3141  0.1267
 3858SOL    HW123207   0.741   4.093  17.575  0.1966  0.2696  0.6196
 3858SOL    HW223208   0.597   4.043  17.594  0.1764  1.0602 -0.8579
 3859SOL     OW23209   0.793   2.991  11.789 -0.4150 -0.0196  0.4157
 3859SOL    HW123210   0.880   3.021  11.816  0.3386  0.0009 -2.0855
 3859SOL    HW223211   0.811   2.952  11.704 -3.5714  1.3830 -0.8791
 3860SOL     OW23212   3.116   1.070   5.346 -0.0031 -0.1557 -0.1163
 3860SOL    HW123213   3.070   1.092   5.426 -0.5237  0.0117 -0.4593
 3860SOL    HW223214   3.188   1.134   5.341 -0.8652  0.8305  0.1429
 3861SOL     OW23215   1.300   3.810   4.492  0.3376 -0.1561  0.0096
 3861SOL    HW123216   1.395   3.805   4.489  0.3008 -0.9473  0.1535
 3861SOL    HW223217   1.289   3.752   4.568 -2.8268 -3.1159 -2.7076
 3862SOL     OW23218   3.967   3.396   3.605 -0.1694 -0.1320 -0.2809
 3862SOL    HW123219   4.062   3.379   3.612 -0.5391 -1.6697  1.0513
 3862SOL    HW223220   3.934   3.346   3.679  1.4663 -1.1812 -0.2650
 3863SOL     OW23221   4.510   0.819   2.487  0.1545 -0.1815 -0.0947
 3863SOL    HW123222   4.500   0.895   2.544 -0.5940  0.7079 -1.4163
 3863SOL    HW223223   4.589   0.783   2.526  0.0831 -0.1966  0.0396
 3864SOL     OW23224   4.146   3.020   7.703 -0.2620 -0.3588 -0.4050
 3864SOL    HW123225   4.220   3.076   7.677 -1.0235  0.1981 -1.3861
 3864SOL    HW223226   4.140   3.044   7.795  0.9227  0.3012 -0.4962
 3865SOL     OW23227   3.940   1.571  17.382  0.3188 -0.0179  0.2570
 3865SOL    HW123228   3.993   1.576  17.303 -0.1247  0.4544 -0.0183
 3865SOL    HW223229   3.930   1.478  17.399 -2.0309  0.2535  0.4169
 3866SOL     OW23230   4.040   2.793   4.705  0.5068 -0.2353 -0.1469
 3866SOL    HW123231   3.944   2.802   4.711  0.7127  1.2726  1.1097
 3866SOL    HW223232   4.060   2.762   4.794 -2.8169  0.5534  0.9047
 3867SOL     OW23233   1.968   2.705   2.950  0.5719 -0.6530 -0.6347
 3867SOL    HW123234   2.035   2.772   2.960  0.7145 -1.1589  1.6183
 3867SOL    HW223235   1.984   2.683   2.858  0.9829 -0.6141 -0.5724
 3868SOL     OW23236   4.656   2.854   2.289 -0.5641 -0.0767  0.1521
 3868SOL    HW123237   4.593   2.818   2.226 -1.1075  0.4209  0.4094
 3868SOL    HW223238   4.737   2.840   2.241 -0.9732  0.7370 -0.7867
 3869SOL     OW23239   2.472   1.883   7.512  0.2230 -0.2202  0.1051
 3869SOL    HW123240   2.507   1.913   7.596 -2.0805 -1.4921  1.5318
 3869SOL    HW223241   2.549   1.896   7.456 -0.6098 -0.5462 -1.1141
 3870SOL     OW23242   0.676   2.374  14.475  0.1780  0.1728  0.3342
 3870SOL    HW123243   0.750   2.430  14.501  1.7278 -1.0371 -1.5721
 3870SOL    HW223244   0.607   2.440  14.468  0.7103  0.7013  0.0546
 3871SOL     OW23245   2.709   4.314   5.414 -0.3489  0.0454  0.0753
 3871SOL    HW123246   2.790   4.347   5.375 -0.0194 -0.9939 -0.1319
 3871SOL    HW223247   2.744   4.242   5.467 -2.1812 -0.9705 -0.0887
 3872SOL     OW23248   4.097   3.268   7.207 -0.4036 -0.0197 -0.6315
 3872SOL    HW123249   4.052   3.269   7.291  1.9922 -0.0607  0.6519
 3872SOL    HW223250   4.052   3.338   7.159 -1.2689  0.3296  0.7073
 3873SOL     OW23251   3.819   3.658   7.724 -0.1024  0.4917  0.0928
 3873SOL    HW123252   3.866   3.656   7.808 -0.0458  1.9478  0.1069
 3873SOL    HW223253   3.774   3.574   7.720  0.6583  0.2045 -1.9975
 3874SOL     OW23254   3.861   0.250  16.761  0.7091  0.1328  0.8189
 3874SOL    HW123255   3.842   0.160  16.788 -1.1891 -0.0116 -0.9917
 3874SOL    HW223256   3.850   0.300  16.842  0.5073  1.3623  0.0310
 3875SOL     OW23257   4.449   2.806   2.487 -0.1548  0.3948 -0.0970
 3875SOL    HW123258   4.477   2.828   2.576  3.2593 -3.2816 -0.2906
 3875SOL    HW223259   4.533   2.806   2.441  1.0558  0.0966  2.1089
 3876SOL     OW23260   1.254   0.869   8.524 -0.5326 -0.2696  0.6737
 3876SOL    HW123261   1.348   0.867   8.507 -0.5514  1.3410  0.3438
 3876SOL    HW223262   1.246   0.917   8.607 -1.7989  0.3647  0.1881
 3877SOL     OW23263   2.760   4.474   9.811 -0.3629  0.1714 -0.3414
 3877SOL    HW123264   2.805   4.470   9.895 -1.4659  0.8276  0.2824
 3877SOL    HW223265   2.685   4.417   9.830  1.9635 -3.0428 -0.8572
 3878SOL     OW23266   3.090   2.621   0.357 -0.2264 -0.5254 -0.3112
 3878SOL    HW123267   3.011   2.674   0.363  0.4001  0.2349  1.1866
 3878SOL    HW223268   3.073   2.547   0.415  0.0560 -0.0986  0.3216
 3879SOL     OW23269   4.570   3.564   1.646  0.1960 -0.1115  0.5499
 3879SOL    HW123270   4.476   3.583   1.646  0.1916 -0.1587 -0.6642
 3879SOL    HW223271   4.585   3.611   1.564  0.9724 -1.5211 -0.1330
 3880SOL     OW23272   1.846   0.580   9.127  0.4165  0.4314 -0.5165
 3880SOL    HW123273   1.923   0.634   9.108 -1.3395  3.0119 -0.2564
 3880SOL    HW223274   1.848   0.574   9.222 -0.4576 -1.2770 -0.6010
 3881SOL     OW23275   1.373   2.438   0.033 -0.2819 -0.0718  0.4293
 3881SOL    HW123276   1.452   2.465   0.080 -0.3244  1.7917 -0.6052
 3881SOL    HW223277   1.334   2.521   0.008 -1.5802 -0.2811  1.7319
 3882SOL     OW23278   2.331   0.054   5.945 -0.2282 -0.1428  0.7066
 3882SOL    HW123279   2.323   0.034   6.038  0.1136 -1.5279  0.4336
 3882SOL    HW223280   2.317   0.149   5.950 -0.7274 -0.2654  1.5643
 3883SOL     OW23281   3.255   0.750   8.699 -0.1045  0.2083 -0.2747
 3883SOL    HW123282   3.234   0.659   8.720 -0.9286  0.0404 -1.8061
 3883SOL    HW223283   3.168   0.788   8.709  0.7470  2.1559 -0.3134
 3884SOL     OW23284   2.443   3.740   4.695 -0.1190  0.0042 -0.0347
 3884SOL    HW123285   2.380   3.735   4.623  0.6660  0.1166 -0.7195
 3884SOL    HW223286   2.499   3.809   4.661  0.2149 -0.1317  0.2444
 3885SOL     OW23287   4.549   4.259  12.812  0.5710  0.2507  0.5990
 3885SOL    HW123288   4.601   4.265  12.732  1.0663 -0.4229  0.8726
 3885SOL    HW223289   4.494   4.336  12.796  2.0639  0.6203 -2.7340
 3886SOL     OW23290   1.224   2.705   3.039 -0.6905  0.0522 -0.2586
 3886SOL    HW123291   1.293   2.752   2.992 -1.0490  0.0389 -0.8039
 3886SOL    HW223292   1.169   2.686   2.963  0.5396 -0.8953 -0.9161
 3887SOL     OW23293   4.712   4.084  16.148  0.1342  0.1893  0.0437
 3887SOL    HW123294   0.003   4.040  16.069 -1.1045  1.6003 -1.1992
 3887SOL    HW223295   4.729   4.174  16.120 -2.4867  1.4159  2.3938
 3888SOL     OW23296   1.338   1.605   2.502  0.1473 -0.1660 -0.5292
 3888SOL    HW123297   1.361   1.555   2.580 -0.3049  0.7072  0.1656
 3888SOL    HW223298   1.401   1.677   2.495  0.1313  0.0402  1.3475
 3889SOL     OW23299   3.753   3.990   9.502 -0.1280 -0.2944 -0.1152
 3889SOL    HW123300   3.704   3.911   9.524  0.0449 -0.3612  0.0279
 3889SOL    HW223301   3.711   4.026   9.424  0.1212 -2.0404 -1.0562
 3890SOL     OW23302   2.638   0.905   6.359 -0.9884  0.1972 -0.1157
 3890SOL    HW123303   2.655   0.996   6.383  0.1634  0.8750 -3.5880
 3890SOL    HW223304   2.711   0.856   6.399 -0.7527  1.5339  1.0860
 3891SOL     OW23305   3.218   2.402   5.808  0.0719  0.0144  0.0328
 3891SOL    HW123306   3.137   2.406   5.757  1.3662 -0.4025 -2.0552
 3891SOL    HW223307   3.200   2.449   5.889  3.3630 -0.9140  1.3148
 3892SOL     OW23308   1.831   0.464  11.677  0.4097 -0.1588  0.6387
 3892SOL    HW123309   1.743   0.489  11.650  0.3109 -2.1212 -0.7952
 3892SOL    HW223310   1.880   0.447  11.596 -0.0885  0.4962  0.1965
 3893SOL     OW23311   2.613   0.428   7.345 -0.3346 -0.3529  0.1416
 3893SOL    HW123312   2.530   0.431   7.296 -0.2279  0.7299  0.0282
 3893SOL    HW223313   2.627   0.511   7.390  1.6710 -1.1259  0.9486
 3894SOL     OW23314   4.099   2.446   7.515  0.0159 -0.1400 -0.1761
 3894SOL    HW123315   4.013   2.433   7.556 -0.0339  0.8009  0.0262
 3894SOL    HW223316   4.150   2.384   7.567  0.9323 -1.5029 -2.6927
 3895SOL     OW23317   0.574   4.530   7.375  0.4530  0.1061  0.3659
 3895SOL    HW123318   0.505   4.574   7.326 -0.1419 -0.1152  1.0116
 3895SOL    HW223319   0.551   4.562   7.462  0.8454  0.4016  0.3636
 3896SOL     OW23320   3.840   1.948   1.927  0.1023 -0.1272 -0.2662
 3896SOL    HW123321   3.767   1.916   1.980 -2.1999 -0.3379 -3.5313
 3896SOL    HW223322   3.896   1.870   1.919  1.8055  0.9181  1.7064
 3897SOL     OW23323   2.092   3.240  10.759 -0.7485  0.1140  0.3126
 3897SOL    HW123324   2.099   3.173  10.826 -2.2025  0.5482  0.9147
 3897SOL    HW223325   2.009   3.222  10.715 -0.5634  1.1295 -0.4562
 3898SOL     OW23326   3.270   2.131  15.729 -0.1354  0.0207 -0.5350
 3898SOL    HW123327   3.297   2.221  15.744  1.3539 -0.4512 -0.2962
 3898SOL    HW223328   3.241   2.126  15.639  0.7256  0.8068 -0.8589
 3899SOL     OW23329   2.039   1.840  12.900 -0.1669  0.5164  0.7706
 3899SOL    HW123330   2.083   1.924  12.888 -1.4615  1.0905  0.0901
 3899SOL    HW223331   1.954   1.857  12.858  1.4264 -0.5964 -2.8558
 3900SOL     OW23332   2.180   4.404   9.021 -0.2326  0.6215  0.0159
 3900SOL    HW123333   2.131   4.344   9.077 -0.9802 -0.2550 -1.5679
 3900SOL    HW223334   2.139   4.488   9.043 -2.1287 -0.0792 -0.8178
 3901SOL     OW23335   1.637   3.451   5.396 -1.3344  0.1438  0.2662
 3901SOL    HW123336   1.610   3.366   5.359 -2.5640  0.3068  0.7827
 3901SOL    HW223337   1.666   3.421   5.482  0.9140  0.6322 -0.3243
 3902SOL     OW23338   0.582   2.239   7.458  0.3808  0.7317  0.3402
 3902SOL    HW123339   0.580   2.146   7.481 -0.7259  0.6712 -0.0094
 3902SOL    HW223340   0.675   2.256   7.443  0.4100 -0.0970 -0.4936
 3903SOL     OW23341   0.687   0.489   6.244  0.3275 -0.1546  0.5510
 3903SOL    HW123342   0.639   0.561   6.204  2.0552  0.4058 -0.5221
 3903SOL    HW223343   0.653   0.413   6.197  0.4086  0.0902  0.0988
 3904SOL     OW23344   2.523   2.843  14.550  0.3343  0.3618  0.0479
 3904SOL    HW123345   2.525   2.810  14.460 -2.7393 -2.2215  0.9128
 3904SOL    HW223346   2.470   2.776  14.593 -1.7310  2.8251  1.3554
 3905SOL     OW23347   4.489   0.286  11.093 -0.7764 -0.0044  0.2483
 3905SOL    HW123348   4.449   0.321  11.173  2.2742  4.3196 -0.1203
 3905SOL    HW223349   4.433   0.325  11.026 -1.3903  1.9901  1.9417
 3906SOL     OW23350   3.214   2.414   6.512 -0.1628  0.2637 -0.4809
 3906SOL    HW123351   3.293   2.463   6.537 -0.9903  2.5378 -2.2348
 3906SOL    HW223352   3.166   2.408   6.595 -1.0497  0.5118 -0.9732
 3907SOL     OW23353   3.693   2.602   9.438 -0.0911 -0.8879 -0.5072
 3907SOL    HW123354   3.683   2.622   9.531 -1.3755  1.2276 -1.0895
 3907SOL    HW223355   3.685   2.508   9.420 -1.0863 -0.8647 -0.1661
 3908SOL     OW23356   3.760   2.226  17.231  0.0509  0.1568  0.0387
 3908SOL    HW123357   3.671   2.241  17.261  0.3987  1.2958  0.4994
 3908SOL    HW223358   3.802   2.299  17.277  2.5863 -0.7264 -0.8843
 3909SOL     OW23359   2.155   0.454  10.171 -0.3582  0.0019 -0.4780
 3909SOL    HW123360   2.088   0.407  10.123  0.1560 -1.0690 -0.1421
 3909SOL    HW223361   2.118   0.452  10.260 -0.5508 -0.1385 -0.5638
 3910SOL     OW23362   0.655   2.659  16.501  0.0702 -0.1058  0.2635
 3910SOL    HW123363   0.703   2.577  16.485  0.8535  0.0381  1.8672
 3910SOL    HW223364   0.731   2.717  16.494  0.5542 -0.8274 -0.4616
 3911SOL     OW23365   2.253   0.355   8.633 -0.3316 -0.2964 -0.0315
 3911SOL    HW123366   2.319   0.378   8.568  0.2010  0.4050  0.7646
 3911SOL    HW223367   2.287   0.345   8.722 -1.4968 -0.7082  0.3776
 3912SOL     OW23368   0.965   3.450   3.266 -0.0418  0.0792 -0.2671
 3912SOL    HW123369   1.058   3.472   3.261 -0.2903  1.1822 -0.0279
 3912SOL    HW223370   0.963   3.363   3.224  2.1984  0.8895 -2.0284
 3913SOL     OW23371   4.274   2.150  12.596  0.0791  0.2664  0.0503
 3913SOL    HW123372   4.261   2.092  12.521 -1.3263  1.2782 -0.5016
 3913SOL    HW223373   4.339   2.216  12.574  1.3015 -0.7325  0.7228
 3914SOL     OW23374   4.333   4.447  16.481 -0.2350  0.0020  0.1103
 3914SOL    HW123375   4.387   4.405  16.413  0.9898  0.6450  0.6935
 3914SOL    HW223376   4.288   4.510  16.425 -2.4517 -1.3661  0.3274
 3915SOL     OW23377   4.287   2.467   3.494  0.4240 -0.3581 -0.6631
 3915SOL    HW123378   4.335   2.451   3.413 -2.0342 -2.7965 -1.6205
 3915SOL    HW223379   4.339   2.539   3.531 -0.1675 -0.7035  0.8339
 3916SOL     OW23380   4.198   2.731   0.217  0.3510  0.4399  0.6376
 3916SOL    HW123381   4.256   2.784   0.163  0.8135  0.1762  0.8721
 3916SOL    HW223382   4.235   2.740   0.305 -1.6120  0.0844  1.5109
 3917SOL     OW23383   2.553   2.351   4.292  0.1475  0.8479 -0.0910
 3917SOL    HW123384   2.469   2.359   4.247 -0.4716  1.0737  1.1104
 3917SOL    HW223385   2.604   2.279   4.256 -0.7702  0.2195 -0.1122
 3918SOL     OW23386   3.695   2.384   6.001  0.2164 -1.0047 -0.8137
 3918SOL    HW123387   3.721   2.353   5.915  2.9670 -0.6758 -0.1078
 3918SOL    HW223388   3.632   2.449   5.971  0.6823  0.6138  1.6768
 3919SOL     OW23389   0.753   2.003   3.934 -0.2041  0.6907  0.0672
 3919SOL    HW123390   0.704   1.985   3.854  0.4356 -1.3660  0.1426
 3919SOL    HW223391   0.709   1.943   3.994  0.9895 -1.6675 -1.4338
 3920SOL     OW23392   1.224   1.755  14.560  0.4920  0.1055  0.5762
 3920SOL    HW123393   1.309   1.770  14.601 -0.1322  1.1110  1.5159
 3920SOL    HW223394   1.160   1.800  14.616 -0.6331 -0.5302 -0.2143
 3921SOL     OW23395   2.999   2.968   6.610  0.4086  0.3406  0.1808
 3921SOL    HW123396   3.016   3.059   6.632  0.8304  0.9635 -2.8230
 3921SOL    HW223397   2.951   2.946   6.690  1.6924  1.9903  1.4038
 3922SOL     OW23398   4.033   2.872   3.655 -0.0846  0.0584 -0.1686
 3922SOL    HW123399   3.991   2.933   3.717  0.1393  0.8587 -0.7987
 3922SOL    HW223400   4.071   2.943   3.602  3.6406  0.5703  3.1675
 3923SOL     OW23401   1.406   3.991  15.629  0.2034  0.3742 -0.2480
 3923SOL    HW123402   1.460   4.068  15.611  1.0764 -0.1872 -0.0140
 3923SOL    HW223403   1.320   4.033  15.623 -0.0847 -0.0639  0.9272
 3924SOL     OW23404   4.691   0.015   7.477 -0.3938  0.1289  0.1807
 3924SOL    HW123405   4.671   0.104   7.503  1.8044  0.7262 -0.1450
 3924SOL    HW223406   4.718   4.718   7.561  1.8646 -0.5080 -0.8249
 3925SOL     OW23407   2.978   1.430   2.436  0.0200  0.6590 -0.0398
 3925SOL    HW123408   2.969   1.347   2.390 -1.9602  0.7820  0.1316
 3925SOL    HW223409   3.073   1.430   2.448  0.2257 -0.3132 -1.6265
 3926SOL     OW23410   0.693   3.738  17.599 -0.4703 -0.0547  0.0276
 3926SOL    HW123411   0.662   3.828  17.602 -0.2910  0.0394 -1.0877
 3926SOL    HW223412   0.786   3.754  17.617  0.5308 -2.3998 -2.9171
 3927SOL     OW23413   1.576   2.778   3.767 -0.6767 -0.1347  0.0705
 3927SOL    HW123414   1.583   2.736   3.853  2.6088  1.2495  0.4513
 3927SOL    HW223415   1.482   2.778   3.747 -0.5014 -0.6427 -0.7260
 3928SOL     OW23416   0.824   2.735   3.262  0.4531 -0.4437  0.0734
 3928SOL    HW123417   0.771   2.761   3.186 -0.2734  1.4856  1.2348
 3928SOL    HW223418   0.790   2.646   3.270 -1.6305  0.5895  2.8309
 3929SOL     OW23419   2.562   3.054  11.511  0.4859  0.0843  0.4928
 3929SOL    HW123420   2.605   3.137  11.533  0.8348  0.1100 -0.2875
 3929SOL    HW223421   2.474   3.068  11.545  0.2311  0.1650 -0.1974
 3930SOL     OW23422   4.310   2.563  10.600 -0.0086  0.3108  0.0005
 3930SOL    HW123423   4.314   2.632  10.533  1.4295 -0.6634 -0.9023
 3930SOL    HW223424   4.317   2.611  10.683 -3.7606  1.7685 -0.5218
 3931SOL     OW23425   1.707   3.179  16.579 -0.2499 -0.0209 -0.2086
 3931SOL    HW123426   1.761   3.131  16.641 -0.9656  0.8694  1.1175
 3931SOL    HW223427   1.646   3.106  16.567 -2.6199  1.8588  0.4293
 3932SOL     OW23428   3.680   2.077   5.423  0.2452  0.6005 -0.1142
 3932SOL    HW123429   3.701   2.001   5.477 -0.8057  0.8416  0.6369
 3932SOL    HW223430   3.596   2.112   5.454 -0.7995 -1.6399 -0.3913
 3933SOL     OW23431   2.649   0.423   9.768 -0.0060  0.2532 -0.4399
 3933SOL    HW123432   2.570   0.473   9.787  0.0028  0.7473 -1.6764
 3933SOL    HW223433   2.649   0.434   9.673 -2.6315  0.9003 -0.3707
 3934SOL     OW23434   1.484   2.588   9.085 -0.0101 -0.2923 -0.4217
 3934SOL    HW123435   1.530   2.520   9.035  0.1864 -0.8658  0.5461
 3934SOL    HW223436   1.400   2.582   9.040  0.4901 -0.1785 -1.3871
 3935SOL     OW23437   2.921   2.582   9.104 -0.0642  0.3863 -0.3714
 3935SOL    HW123438   2.890   2.496   9.134 -1.4460  0.8079 -0.5985
 3935SOL    HW223439   3.014   2.585   9.127  0.2849  0.8647 -1.8546
 3936SOL     OW23440   1.265   3.920   5.706 -0.1214 -0.2095 -0.3657
 3936SOL    HW123441   1.243   3.955   5.793 -0.7680  0.9209 -0.9764
 3936SOL    HW223442   1.258   4.000   5.654  1.3853  1.5327  2.0985
 3937SOL     OW23443   1.204   2.027  15.928 -0.5677  0.0558  0.0914
 3937SOL    HW123444   1.195   1.939  15.891  0.6773  0.8681 -2.1044
 3937SOL    HW223445   1.217   2.084  15.852  1.4351  0.0917  0.4581
 3938SOL     OW23446   2.904   0.406  11.263 -0.8203 -0.2344 -0.1079
 3938SOL    HW123447   2.994   0.375  11.258 -0.7350 -0.0248  0.1265
 3938SOL    HW223448   2.911   0.496  11.231  0.5730 -0.3467 -0.0955
 3939SOL     OW23449   2.278   1.988   4.022 -0.2839  0.0556 -0.4281
 3939SOL    HW123450   2.327   2.037   4.087 -1.5696 -2.7519  2.6798
 3939SOL    HW223451   2.352   1.953   3.972 -0.8019 -0.5316 -0.7918
 3940SOL     OW23452   0.217   0.137   7.646 -0.2952  0.2343 -0.2014
 3940SOL    HW123453   0.287   0.202   7.641  1.0965 -1.1747  1.0466
 3940SOL    HW223454   0.157   0.173   7.581  1.0330  1.4952 -0.7148
 3941SOL     OW23455   1.826   2.362   8.374 -0.4264 -0.4113  0.3942
 3941SOL    HW123456   1.859   2.410   8.298 -3.1441  3.4398  1.6095
 3941SOL    HW223457   1.773   2.298   8.327  0.5042 -0.5887 -0.4248
 3942SOL     OW23458   0.759   1.468   1.016  0.4800 -0.2386  0.5407
 3942SOL    HW123459   0.787   1.400   1.077  0.3898 -1.9720 -1.3443
 3942SOL    HW223460   0.672   1.441   0.986  0.8151 -0.4684 -0.2266
 3943SOL     OW23461   1.679   0.245   1.450  0.3089 -0.0005  0.4282
 3943SOL    HW123462   1.585   0.250   1.433  0.7813 -0.9922 -2.3544
 3943SOL    HW223463   1.721   0.293   1.379  1.2985 -0.7480  0.5068
 3944SOL     OW23464   3.946   0.389   7.267 -0.4164  0.7400 -0.1292
 3944SOL    HW123465   3.880   0.432   7.211  1.8057  2.3357 -1.5233
 3944SOL    HW223466   4.025   0.381   7.214  0.1621 -0.4836  0.9407
 3945SOL     OW23467   3.392   4.438   4.901 -0.3315  0.2217  0.5781
 3945SOL    HW123468   3.354   4.351   4.916 -2.0938  0.2623 -3.5089
 3945SOL    HW223469   3.488   4.427   4.903  0.0124  3.4826  0.9085
 3946SOL     OW23470   1.292   1.440  15.999 -0.1678 -0.1445 -0.0388
 3946SOL    HW123471   1.238   1.362  16.017 -0.6618  0.2354  0.1161
 3946SOL    HW223472   1.226   1.509  15.995 -1.0710 -0.9747  0.6117
 3947SOL     OW23473   1.235   0.850   3.028  0.4795 -0.2021  0.4938
 3947SOL    HW123474   1.216   0.787   2.959  1.9515  0.6807 -0.7151
 3947SOL    HW223475   1.317   0.881   2.990  0.0840  1.2008  0.7791
 3948SOL     OW23476   1.923   3.161   4.411  0.8600  0.1468  0.1231
 3948SOL    HW123477   1.923   3.072   4.375 -2.0501 -0.4056  1.5229
 3948SOL    HW223478   1.835   3.191   4.388  0.6110  0.5413  1.6212
 3949SOL     OW23479   4.051   1.970   2.319 -0.8234 -0.3471  0.3106
 3949SOL    HW123480   4.083   1.901   2.260  0.3577 -0.8264  1.5265
 3949SOL    HW223481   4.013   1.913   2.385 -2.8868 -0.6123 -1.0967
 3950SOL     OW23482   1.062   1.112  15.501 -0.0240  0.4635  0.4120
 3950SOL    HW123483   1.142   1.087  15.547 -0.1428  2.3282  1.6229
 3950SOL    HW223484   1.061   1.205  15.524  0.9580  0.5583  0.0585
 3951SOL     OW23485   4.631   2.001   4.641 -0.7860 -0.0038 -0.0181
 3951SOL    HW123486   4.630   2.054   4.561  0.8153 -0.9586 -0.6600
 3951SOL    HW223487   4.550   1.952   4.637  0.8260 -2.6962  0.6503
 3952SOL     OW23488   1.712   1.898   1.786  0.3810  0.2760  0.3406
 3952SOL    HW123489   1.799   1.885   1.749  0.6172  0.8301  0.7123
 3952SOL    HW223490   1.740   1.878   1.875 -0.9387 -0.8997  0.5058
 3953SOL     OW23491   3.556   0.816   8.943 -0.2515  0.2382  0.9207
 3953SOL    HW123492   3.609   0.777   8.873 -0.9752  0.8835  0.0065
 3953SOL    HW223493   3.562   0.910   8.925 -0.9117 -0.3796 -2.4600
 3954SOL     OW23494   2.690   2.431   3.962 -0.0732 -0.4215  0.1283
 3954SOL    HW123495   2.640   2.370   3.907 -0.4948 -0.3822  0.4660
 3954SOL    HW223496   2.702   2.376   4.039  1.5838  0.8301  0.7670
 3955SOL     OW23497   1.258   1.672   6.295 -0.5729 -0.2231  0.0510
 3955SOL    HW123498   1.181   1.693   6.243 -0.0544 -1.5328 -1.2615
 3955SOL    HW223499   1.320   1.724   6.243 -1.4591  1.1534  0.3887
 3956SOL     OW23500   3.564   3.506  13.695  0.1664  0.5006 -0.1554
 3956SOL    HW123501   3.512   3.499  13.615  0.7594 -1.6992 -0.3690
 3956SOL    HW223502   3.498   3.495  13.763 -0.2061  0.0266 -0.5922
 3957SOL     OW23503   0.174   3.136  12.808  0.1547 -0.0818  0.2309
 3957SOL    HW123504   0.132   3.059  12.770 -0.7974  0.7922 -0.4717
 3957SOL    HW223505   0.190   3.115  12.900 -1.2677  2.2312  0.9928
 3958SOL     OW23506   1.096   1.690   5.435  0.2413  0.0982 -0.0005
 3958SOL    HW123507   1.039   1.631   5.385 -0.7492 -0.3033  1.5857
 3958SOL    HW223508   1.089   1.655   5.523 -0.4632 -2.5799 -1.1300
 3959SOL     OW23509   2.653   2.187  10.631  0.0631  0.0569  0.2081
 3959SOL    HW123510   2.694   2.267  10.599  1.6271 -0.3162  1.2729
 3959SOL    HW223511   2.706   2.146  10.699  1.7057 -1.7714 -2.2018
 3960SOL     OW23512   2.980   4.645   5.753  0.1164  0.2298  0.1159
 3960SOL    HW123513   2.979   4.653   5.657 -0.1912 -1.3604 -0.0137
 3960SOL    HW223514   2.893   4.677   5.777  0.5559 -0.7812  3.0718
 3961SOL     OW23515   4.008   1.941   3.196 -0.4252  0.3448 -0.1923
 3961SOL    HW123516   3.947   2.005   3.159 -1.0915  0.2323  0.7174
 3961SOL    HW223517   4.037   1.990   3.273 -0.9820 -1.2462  1.0216
 3962SOL     OW23518   0.426   1.628  13.547  0.4614 -0.0264  0.3441
 3962SOL    HW123519   0.438   1.625  13.642  2.2680  1.3757  0.1880
 3962SOL    HW223520   0.444   1.718  13.518  1.5247 -0.4152 -0.2191
 3963SOL     OW23521   1.932   4.535   5.928  0.1564 -0.3447  0.1617
 3963SOL    HW123522   1.870   4.515   5.998 -0.6011  1.7497  0.1003
 3963SOL    HW223523   2.007   4.485   5.960  0.8032 -0.2561 -1.2218
 3964SOL     OW23524   3.429   0.086  16.081  0.0106 -0.1944  0.3168
 3964SOL    HW123525   3.344   0.129  16.089  0.0069 -0.2399  0.5207
 3964SOL    HW223526   3.474   0.123  16.157 -0.3428 -1.0367  0.9384
 3965SOL     OW23527   0.476   4.346   2.486  0.1303  0.1349  0.9241
 3965SOL    HW123528   0.547   4.290   2.455  0.4903  0.7888  0.5755
 3965SOL    HW223529   0.484   4.411   2.416 -1.6277 -0.0729  0.5146
 3966SOL     OW23530   1.130   0.391   3.563  0.6195 -0.0773  0.3437
 3966SOL    HW123531   1.193   0.433   3.505 -1.1524  0.8575 -0.9133
 3966SOL    HW223532   1.179   0.364   3.641  0.6958 -0.5708  0.1297
 3967SOL     OW23533   1.916   1.196   4.236 -0.0467 -0.0485  0.3764
 3967SOL    HW123534   2.005   1.163   4.242  1.2378  3.2498 -0.1653
 3967SOL    HW223535   1.926   1.285   4.201 -0.2737  0.0863  0.6542
 3968SOL     OW23536   4.333   3.464   4.427  0.2707  0.1903  0.1805
 3968SOL    HW123537   4.252   3.415   4.441 -1.0624  1.6454 -2.5276
 3968SOL    HW223538   4.364   3.461   4.518 -1.1198  3.1754  0.7362
 3969SOL     OW23539   0.798   3.355   4.634  0.4119  0.0608  0.6513
 3969SOL    HW123540   0.890   3.330   4.626 -0.3228 -1.5166 -2.8937
 3969SOL    HW223541   0.777   3.350   4.727  0.3677  0.7377  0.6760
 3970SOL     OW23542   0.291   1.253   8.493 -0.0100 -0.6389 -0.5191
 3970SOL    HW123543   0.335   1.325   8.447 -0.3322  0.0236  0.2079
 3970SOL    HW223544   0.331   1.259   8.581 -0.3660 -0.4015 -0.3748
 3971SOL     OW23545   4.674   2.352   2.123  0.0692  0.3914  0.4346
 3971SOL    HW123546   4.672   2.299   2.203 -1.4635 -0.1942  0.0095
 3971SOL    HW223547   4.720   2.429   2.158 -1.5400  1.0880  0.9992
 3972SOL     OW23548   4.573   2.352   4.165 -0.4164 -0.6176 -0.2410
 3972SOL    HW123549   4.593   2.368   4.073  3.1771  0.0899  0.6696
 3972SOL    HW223550   4.615   2.432   4.196 -0.6130 -1.0173  1.0844
 3973SOL     OW23551   4.482   1.758   7.329 -0.2719 -0.0994  0.0626
 3973SOL    HW123552   4.562   1.711   7.353 -0.8208 -0.8170  0.4706
 3973SOL    HW223553   4.463   1.800   7.413 -1.3299 -0.6810  0.1065
 3974SOL     OW23554   2.997   0.768   3.335  0.5601  0.2607  0.4838
 3974SOL    HW123555   3.033   0.680   3.317 -3.1443 -1.0624 -0.3890
 3974SOL    HW223556   2.959   0.748   3.420 -1.7817 -1.0948 -0.8851
 3975SOL     OW23557   1.940   4.694   1.489  0.1870 -0.5205 -0.3987
 3975SOL    HW123558   2.007   0.020   1.471  0.4370 -1.1955 -1.8490
 3975SOL    HW223559   1.943   4.695   1.585  0.4695 -1.2406 -0.4034
 3976SOL     OW23560   3.130   3.408  10.151  0.4407  0.5147  0.3144
 3976SOL    HW123561   3.169   3.370  10.073 -1.0177 -0.3447  0.0047
 3976SOL    HW223562   3.199   3.388  10.215  1.2957 -1.4601 -1.2308
 3977SOL     OW23563   2.563   0.585   8.215  0.3263 -0.0792  0.1102
 3977SOL    HW123564   2.512   0.508   8.243 -0.8493  0.3092 -0.9542
 3977SOL    HW223565   2.647   0.540   8.216  0.0277 -0.6518 -0.4313
 3978SOL     OW23566   1.910   0.695  13.672 -0.4400 -0.3177  1.1037
 3978SOL    HW123567   2.002   0.672  13.674 -0.3194  0.1028  0.3961
 3978SOL    HW223568   1.879   0.642  13.745 -2.4955 -0.3192  0.2572
 3979SOL     OW23569   0.981   1.475   5.309  0.4429 -0.0506  0.2624
 3979SOL    HW123570   0.944   1.445   5.226  1.4910  0.6559 -0.4498
 3979SOL    HW223571   0.982   1.390   5.353 -1.1260 -1.2898 -2.0539
 3980SOL     OW23572   1.666   1.762   4.116  0.2607  0.4777  0.5373
 3980SOL    HW123573   1.631   1.770   4.205 -3.2225 -0.2956 -0.7554
 3980SOL    HW223574   1.588   1.787   4.067  1.2605  0.4720 -1.0407
 3981SOL     OW23575   1.179   1.429   9.097 -0.2282  0.2403 -0.0359
 3981SOL    HW123576   1.106   1.386   9.141  0.9830  0.0813  1.8267
 3981SOL    HW223577   1.219   1.352   9.057  0.4447  0.6743 -0.2057
 3982SOL     OW23578   2.547   2.480   2.258 -0.7704 -0.5198  1.3398
 3982SOL    HW123579   2.515   2.487   2.348 -1.3389  1.1875  1.0037
 3982SOL    HW223580   2.468   2.508   2.212 -2.2824 -1.9998  3.0452
 3983SOL     OW23581   1.093   4.093   6.973 -0.3743 -0.1314  0.2367
 3983SOL    HW123582   1.138   4.009   6.983 -1.8784 -1.0818 -1.0015
 3983SOL    HW223583   1.161   4.160   6.968 -1.9522  1.2523 -2.3490
 3984SOL     OW23584   2.288   3.957  10.326 -0.0657  0.1631 -0.2010
 3984SOL    HW123585   2.256   3.952  10.236 -0.3814 -1.4192  0.0003
 3984SOL    HW223586   2.294   4.052  10.334  0.8137  0.2839 -2.2628
 3985SOL     OW23587   0.173   0.329  11.952  0.1910  0.0234  0.5248
 3985SOL    HW123588   0.168   0.412  11.904  1.1405  1.3228  2.7024
 3985SOL    HW223589   0.152   0.352  12.042 -1.6120 -0.1859  0.1583
 3986SOL     OW23590   1.526   2.894   7.669  0.0659  0.0786  0.3602
 3986SOL    HW123591   1.594   2.894   7.737 -0.8021  0.0651  1.2247
 3986SOL    HW223592   1.458   2.861   7.728  0.4846  1.0932  1.4255
 3987SOL     OW23593   2.503   3.051   8.176 -0.1192 -0.0278 -0.1781
 3987SOL    HW123594   2.516   2.959   8.198 -0.6846 -0.5586 -2.0133
 3987SOL    HW223595   2.458   3.045   8.091  0.2523  2.2624 -0.5515
 3988SOL     OW23596   4.558   3.080   8.294 -0.0758  0.2046  0.6775
 3988SOL    HW123597   4.497   3.024   8.246 -0.3111  1.4632 -0.4886
 3988SOL    HW223598   4.641   3.033   8.291 -0.0402  0.4196 -1.5869
 3989SOL     OW23599   1.651   4.548   2.814  0.4099 -0.6880  0.0861
 3989SOL    HW123600   1.563   4.587   2.812  1.1285  0.9364  0.6770
 3989SOL    HW223601   1.655   4.465   2.767 -1.2857  0.9027 -2.9114
 3990SOL     OW23602   0.535   0.911   3.850  0.6589 -0.2495 -0.4707
 3990SOL    HW123603   0.622   0.950   3.837  1.3787 -2.4538 -2.2795
 3990SOL    HW223604   0.486   0.992   3.834  1.7059  0.5063  0.1236
 3991SOL     OW23605   0.344   4.536   6.835  0.0469 -0.1352  0.1283
 3991SOL    HW123606   0.312   4.463   6.888  0.5707  0.1096  0.7821
 3991SOL    HW223607   0.302   4.601   6.891  0.1645  1.2398 -1.3892
 3992SOL     OW23608   3.137   4.121   1.929  0.2601 -0.6017  0.0893
 3992SOL    HW123609   3.144   4.093   2.021  0.9738  0.8462  0.4721
 3992SOL    HW223610   3.218   4.082   1.896 -0.0287 -2.8042  1.8897
 3993SOL     OW23611   2.967   3.693   2.849  0.5250 -0.3824 -0.0918
 3993SOL    HW123612   2.976   3.656   2.937  0.0078 -0.1588  0.0503
 3993SOL    HW223613   2.985   3.618   2.792  1.2202  0.5570 -1.1088
 3994SOL     OW23614   2.150   0.066   5.241  0.2989  0.0018  0.5161
 3994SOL    HW123615   2.237   0.050   5.205 -0.1993  0.8695 -1.0720
 3994SOL    HW223616   2.175   0.079   5.332  1.7120  1.4034 -0.0678
 3995SOL     OW23617   3.173   0.877  15.553  0.6317 -0.4103 -0.4481
 3995SOL    HW123618   3.158   0.789  15.516 -0.3647 -1.5382  2.6395
 3995SOL    HW223619   3.122   0.937  15.498  0.6372  0.6490  0.7252
 3996SOL     OW23620   3.083   0.874   2.675  0.0641 -0.0513  0.2951
 3996SOL    HW123621   2.998   0.855   2.635  0.0454 -1.3359  0.9466
 3996SOL    HW223622   3.139   0.886   2.599 -0.7940 -0.7144 -0.4301
 3997SOL     OW23623   3.500   4.172  15.741 -0.7092 -0.5250  0.5084
 3997SOL    HW123624   3.551   4.123  15.677  0.3818  0.0447  0.9329
 3997SOL    HW223625   3.565   4.242  15.752  0.6217 -1.4199 -1.8986
 3998SOL     OW23626   1.132   0.993   7.619  0.8692  0.1933  0.0066
 3998SOL    HW123627   1.148   0.968   7.528 -2.8730 -3.1537  0.2715
 3998SOL    HW223628   1.111   1.084   7.596 -0.0703  0.2547  1.0811
 3999SOL     OW23629   4.407   4.420   7.133 -0.1052  0.5538 -0.6081
 3999SOL    HW123630   4.416   4.454   7.222  1.7827 -0.4371 -0.4189
 3999SOL    HW223631   4.324   4.462   7.110 -0.1008  0.0957 -1.4772
 4000SOL     OW23632   4.045   3.058   2.149 -0.4530  0.1144  0.0935
 4000SOL    HW123633   3.985   3.039   2.077 -0.8134  2.5581 -0.2608
 4000SOL    HW223634   4.066   3.149   2.127 -2.4815  1.0840  2.1254
 4001SOL     OW23635   1.549   3.534  10.238  0.2331 -0.2521 -0.0987
 4001SOL    HW123636   1.620   3.519  10.176  1.2283  0.6968  0.8098
 4001SOL    HW223637   1.597   3.582  10.306 -0.9576  1.3397 -0.3823
 4002SOL     OW23638   2.378   4.696   7.391 -0.3889 -0.6611 -0.0708
 4002SOL    HW123639   2.432   4.707   7.469  0.8131 -1.6378 -0.7742
 4002SOL    HW223640   2.407   0.033   7.340  0.1730 -0.0348  1.1648
 4003SOL     OW23641   2.347   3.429   8.216  0.4769  0.3640  0.6307
 4003SOL    HW123642   2.305   3.409   8.133  1.9527 -1.5017  0.3465
 4003SOL    HW223643   2.439   3.447   8.202  0.1715  1.6411  0.2837
 4004SOL     OW23644   4.576   1.902   8.756  0.0688 -0.0611 -0.3628
 4004SOL    HW123645   4.547   1.920   8.846 -1.4909 -1.8577 -0.5066
 4004SOL    HW223646   4.501   1.853   8.723  0.7704 -0.2659 -1.6284
 4005SOL     OW23647   2.752   1.848   8.407 -0.4991  0.4011 -0.2848
 4005SOL    HW123648   2.837   1.886   8.429 -0.2053  0.3155 -1.2586
 4005SOL    HW223649   2.746   1.779   8.472  1.6525 -0.0995 -0.6190
 4006SOL     OW23650   0.165   1.193   9.678 -0.4352  0.2181 -0.6534
 4006SOL    HW123651   0.138   1.274   9.720 -0.2355  0.7681 -1.5746
 4006SOL    HW223652   0.140   1.126   9.741  1.6041 -0.2056 -0.2976
 4007SOL     OW23653   2.946   1.741   7.456 -0.3045 -0.1732 -0.0350
 4007SOL    HW123654   2.999   1.720   7.379  0.6989 -0.2074  0.6733
 4007SOL    HW223655   2.934   1.647   7.474  0.9713 -0.2533  0.3777
 4008SOL     OW23656   1.948   4.597  13.806 -0.1176 -0.4008  0.1824
 4008SOL    HW123657   1.928   4.550  13.887 -1.7610 -0.2832 -0.1564
 4008SOL    HW223658   1.921   4.688  13.816  1.7476 -0.1690  3.2305
 4009SOL     OW23659   1.997   4.719  11.563 -0.1157  0.0158 -0.2880
 4009SOL    HW123660   1.947   0.017  11.490 -0.8728  0.2278  0.3321
 4009SOL    HW223661   1.934   4.648  11.578  0.6878 -0.0897  2.5592
 4010SOL     OW23662   0.998   1.461   7.922  0.3131  0.1694 -0.1229
 4010SOL    HW123663   1.019   1.535   7.979 -3.7222  1.0534  0.2386
 4010SOL    HW223664   0.905   1.449   7.939  0.2356  2.0658  0.7593
 4011SOL     OW23665   0.375   4.474   3.773  0.1229  0.3200 -0.1785
 4011SOL    HW123666   0.375   4.549   3.833  0.7331 -0.2440  0.5169
 4011SOL    HW223667   0.290   4.477   3.729  0.1584  0.5578 -0.2351
 4012SOL     OW23668   1.314   3.326   8.650 -0.0395 -0.0631 -0.4283
 4012SOL    HW123669   1.292   3.414   8.682 -3.0927 -0.8051 -0.4462
 4012SOL    HW223670   1.255   3.305   8.578 -1.3711  0.0830  0.6116
 4013SOL     OW23671   0.257   0.153   6.807 -0.4941 -0.6664  0.1971
 4013SOL    HW123672   0.352   0.142   6.797 -0.1444  1.4841  1.2945
 4013SOL    HW223673   0.243   0.168   6.900  2.5246  1.1023  0.3618
 4014SOL     OW23674   4.719   0.220   3.197 -0.0333 -0.0622 -0.0180
 4014SOL    HW123675   4.694   0.237   3.288  1.8221  3.0171 -0.1022
 4014SOL    HW223676   4.633   0.230   3.156  0.6346 -0.8581 -1.6241
 4015SOL     OW23677   4.332   2.191   3.488 -0.2180  0.7164  0.3864
 4015SOL    HW123678   4.344   2.285   3.470  0.8288  0.6746  0.8761
 4015SOL    HW223679   4.240   2.180   3.464  0.1906 -0.5820 -0.5583
 4016SOL     OW23680   2.687   0.203   9.094  0.3695 -0.7866 -0.6415
 4016SOL    HW123681   2.611   0.152   9.124  0.2158 -0.4759 -0.4954
 4016SOL    HW223682   2.674   0.196   8.999 -1.9256  1.7879 -0.5428
 4017SOL     OW23683   1.668   4.210   6.042  0.1690 -0.0402  1.2443
 4017SOL    HW123684   1.669   4.276   5.972  0.7958 -1.2273  0.1297
 4017SOL    HW223685   1.734   4.154   6.001  1.1350  0.4802  2.1152
 4018SOL     OW23686   2.463   4.039   2.600  0.3441 -0.1998  0.7112
 4018SOL    HW123687   2.394   4.088   2.555  1.2629  0.8442  0.4464
 4018SOL    HW223688   2.541   4.092   2.619 -1.7495  3.0582  0.3072
 4019SOL     OW23689   4.183   2.293   5.569 -0.0482  0.2681 -0.3560
 4019SOL    HW123690   4.106   2.259   5.616 -1.4028  2.5019 -0.9833
 4019SOL    HW223691   4.163   2.386   5.558  2.7341  0.8724 -0.2269
 4020SOL     OW23692   2.485   2.319  10.132  0.5782  0.0212 -0.0833
 4020SOL    HW123693   2.479   2.297  10.039  2.7672 -0.0256 -0.2185
 4020SOL    HW223694   2.393   2.311  10.155 -0.0174  3.2519 -1.4610
 4021SOL     OW23695   3.505   0.555   0.388  0.5838 -0.3020 -0.0843
 4021SOL    HW123696   3.469   0.642   0.371 -0.5544 -0.9249 -0.8564
 4021SOL    HW223697   3.597   0.580   0.386  0.2410  1.0154  0.8154
 4022SOL     OW23698   0.025   2.691   7.265  0.4193  0.0190 -0.2936
 4022SOL    HW123699   0.001   2.600   7.282 -1.5770  0.1846 -2.1702
 4022SOL    HW223700   4.691   2.714   7.208 -0.1786 -0.6803  0.1909
 4023SOL     OW23701   4.656   3.138   5.196 -0.0945  0.3805  0.2216
 4023SOL    HW123702   4.661   3.073   5.126 -1.7981  1.4998 -0.9228
 4023SOL    HW223703   4.615   3.210   5.149 -1.0897  1.1469  2.2675
 4024SOL     OW23704   0.477   2.872  16.257  0.0015 -0.1011  0.3914
 4024SOL    HW123705   0.460   2.803  16.321  0.4299 -1.9640 -1.4980
 4024SOL    HW223706   0.562   2.836  16.231 -0.1350 -0.5661  0.5867
 4025SOL     OW23707   4.473   4.493   8.416 -0.5575  0.1629  0.6415
 4025SOL    HW123708   4.567   4.503   8.431  0.1087 -1.4290 -2.4434
 4025SOL    HW223709   4.448   4.507   8.507  4.0667 -0.2449  1.9818
 4026SOL     OW23710   0.781   1.523   2.953  0.0654  0.1877  0.4480
 4026SOL    HW123711   0.727   1.596   2.981 -0.3897  0.2000 -0.4417
 4026SOL    HW223712   0.725   1.446   2.962 -0.0089  0.5505  2.8965
 4027SOL     OW23713   3.834   2.802  13.970 -0.2675 -0.0649 -0.2892
 4027SOL    HW123714   3.767   2.860  13.932 -0.0514  0.6700  0.4546
 4027SOL    HW223715   3.910   2.860  13.976  1.4763 -2.4937  1.0008
 4028SOL     OW23716   0.422   3.532  10.544  0.2000 -0.5735  0.1836
 4028SOL    HW123717   0.516   3.513  10.553  0.2818 -0.6438 -0.8581
 4028SOL    HW223718   0.377   3.466  10.597 -1.7366 -1.1437 -2.1680
 4029SOL     OW23719   3.953   0.064   7.173 -0.2601 -0.0198  0.0746
 4029SOL    HW123720   3.921   0.104   7.092  0.2531  1.5484  0.6619
 4029SOL    HW223721   3.889   0.084   7.241 -0.5857  1.1628 -0.5902
 4030SOL     OW23722   3.841   0.067   9.406 -0.2614  0.1145  0.1680
 4030SOL    HW123723   3.845   0.048   9.500  0.1508 -0.2065  0.0866
 4030SOL    HW223724   3.852   0.162   9.400 -1.4403  0.2912  0.9237
 4031SOL     OW23725   0.465   2.347   5.058  0.0343  0.2383 -0.3139
 4031SOL    HW123726   0.500   2.374   5.143  0.4093  0.4656 -0.5408
 4031SOL    HW223727   0.420   2.429   5.036  1.5793  0.7551 -1.5846
 4032SOL     OW23728   1.612   4.395   2.164 -0.2719  0.0344 -0.2830
 4032SOL    HW123729   1.670   4.420   2.236  1.1075 -1.9033 -0.7078
 4032SOL    HW223730   1.637   4.302   2.159  2.5895  0.7128  1.1040
 4033SOL     OW23731   1.746   2.019   8.851  0.4587  0.6288 -0.3788
 4033SOL    HW123732   1.787   2.054   8.772 -1.9163  0.3789 -1.7113
 4033SOL    HW223733   1.800   2.059   8.919  0.5670  1.1007 -0.7487
 4034SOL     OW23734   0.720   1.759  16.243  0.0579  0.1539 -0.1602
 4034SOL    HW123735   0.685   1.678  16.280  0.6068 -0.1487 -0.3003
 4034SOL    HW223736   0.637   1.798  16.215 -0.8686 -1.3760  0.4856
 4035SOL     OW23737   3.000   4.160   8.448 -0.0601 -0.2195 -0.1975
 4035SOL    HW123738   3.007   4.210   8.529 -0.9103 -1.7860  0.8404
 4035SOL    HW223739   2.999   4.073   8.487  1.0663 -0.4972 -0.7985
 4036SOL     OW23740   1.587   4.135  11.426 -0.3599 -0.3121 -0.0993
 4036SOL    HW123741   1.615   4.226  11.434 -2.9637  0.5553 -0.8120
 4036SOL    HW223742   1.501   4.145  11.386 -0.7141  2.4661  1.3494
 4037SOL     OW23743   3.294   3.629   0.540 -0.7442  0.2948 -0.1011
 4037SOL    HW123744   3.318   3.575   0.465 -2.9186  2.0196 -2.0235
 4037SOL    HW223745   3.382   3.662   0.562  0.2712 -1.2587 -1.7885
 4038SOL     OW23746   4.341   2.858  15.407  0.0818  0.3769  0.2741
 4038SOL    HW123747   4.377   2.942  15.433  1.1663 -0.0956  0.3055
 4038SOL    HW223748   4.364   2.801  15.481  1.2255 -2.4740 -2.2725
 4039SOL     OW23749   0.838   4.492   6.404 -0.0546  0.2955  0.6879
 4039SOL    HW123750   0.831   4.461   6.314  1.1502 -1.9126  1.3659
 4039SOL    HW223751   0.749   4.518   6.428 -0.8761 -2.4610  0.6328
 4040SOL     OW23752   4.413   2.164   8.423  1.1175  0.1197  0.4240
 4040SOL    HW123753   4.372   2.238   8.468 -0.6499 -0.3997 -0.3674
 4040SOL    HW223754   4.382   2.091   8.475  1.3165  0.1045  0.5244
 4041SOL     OW23755   4.544   2.582  16.836  0.3730 -0.5185  0.2952
 4041SOL    HW123756   4.523   2.662  16.883  1.1956  0.2948 -0.7309
 4041SOL    HW223757   4.521   2.511  16.897  1.8393 -2.7130 -1.7010
 4042SOL     OW23758   1.475   0.853   7.653  0.1337 -1.2668  0.1243
 4042SOL    HW123759   1.427   0.926   7.694  1.6864  0.5514 -1.2806
 4042SOL    HW223760   1.453   0.869   7.562 -0.2838  0.2145  0.4823
 4043SOL     OW23761   3.289   0.208   1.971 -0.2954 -0.2218 -0.1985
 4043SOL    HW123762   3.238   0.143   1.923  1.9485 -3.1193  1.3661
 4043SOL    HW223763   3.235   0.285   1.952  0.6329  0.1480 -1.3523
 4044SOL     OW23764   3.045   2.943   4.350 -0.4310 -0.0725  0.0187
 4044SOL    HW123765   2.974   2.955   4.286  0.9067 -1.7184 -1.7688
 4044SOL    HW223766   3.012   3.002   4.417  1.3444 -0.0918  0.8884
 4045SOL     OW23767   4.283   1.807  14.444 -0.0423  0.1071 -0.0944
 4045SOL    HW123768   4.210   1.827  14.385  0.1310  4.4098  1.1473
 4045SOL    HW223769   4.351   1.778  14.383 -1.8743 -0.8736 -1.6940
 4046SOL     OW23770   1.401   3.308   2.491  0.1243  0.3723 -0.2540
 4046SOL    HW123771   1.338   3.358   2.440  0.1731 -0.8558 -1.5330
 4046SOL    HW223772   1.378   3.316   2.583 -3.3318  1.8946 -1.2625
 4047SOL     OW23773   3.175   4.592   9.839 -0.7525 -0.1621  0.4265
 4047SOL    HW123774   3.129   4.607   9.922 -1.0763  2.4509 -0.2288
 4047SOL    HW223775   3.106   4.581   9.774  1.2484  0.2905 -1.7834
 4048SOL     OW23776   3.752   1.343   8.428 -0.5058 -0.0438 -0.2611
 4048SOL    HW123777   3.768   1.281   8.356  1.0910 -0.2540  0.2681
 4048SOL    HW223778   3.741   1.295   8.510 -1.4194  0.3861 -0.1331
 4049SOL     OW23779   2.711   4.323   3.042 -0.0917 -0.3334  0.5005
 4049SOL    HW123780   2.634   4.287   3.000 -0.8507  0.9334  0.8159
 4049SOL    HW223781   2.705   4.276   3.125 -3.2995 -0.9787 -0.1185
 4050SOL     OW23782   0.186   2.465   6.117  1.0218 -0.1001  0.1803
 4050SOL    HW123783   0.137   2.479   6.036  1.6917  0.5898 -0.1079
 4050SOL    HW223784   0.253   2.410   6.077 -1.4450 -1.8309 -1.5643
 4051SOL     OW23785   2.324   4.250   2.496 -0.2462  0.5272 -0.2187
 4051SOL    HW123786   2.250   4.304   2.468 -0.1392  1.5446  1.4549
 4051SOL    HW223787   2.380   4.242   2.419 -0.0860 -3.1472  0.2876
 4052SOL     OW23788   3.497   3.138   0.775  0.5534  0.3877 -0.3002
 4052SOL    HW123789   3.471   3.093   0.695  1.0173  0.0576 -0.2641
 4052SOL    HW223790   3.527   3.224   0.746  0.7591 -0.4575 -2.6103
 4053SOL     OW23791   3.768   2.929   7.765  0.4235  0.0395  0.4940
 4053SOL    HW123792   3.752   2.855   7.825 -1.2302 -1.5209 -1.8882
 4053SOL    HW223793   3.724   2.994   7.819 -1.8665 -2.8386  2.1105
 4054SOL     OW23794   2.504   0.961   4.380  0.4064 -0.4750  0.0045
 4054SOL    HW123795   2.532   0.960   4.288 -1.6953  0.9093 -0.6313
 4054SOL    HW223796   2.492   1.055   4.371 -2.3487 -0.8800 -0.6119
 4055SOL     OW23797   0.526   4.134   7.599  0.1936 -0.8079 -0.0320
 4055SOL    HW123798   0.545   4.102   7.687 -0.6812  0.9424  0.7869
 4055SOL    HW223799   0.460   4.074   7.564 -0.4171  0.1698 -0.5356
 4056SOL     OW23800   3.910   0.563   3.745  0.3219  0.1433  0.3231
 4056SOL    HW123801   3.826   0.544   3.704  0.3210 -0.9095  0.8190
 4056SOL    HW223802   3.966   0.543   3.670  0.9487 -0.9832  1.0812
 4057SOL     OW23803   0.314   3.493   3.245 -0.0870  0.1097  0.4708
 4057SOL    HW123804   0.356   3.578   3.259  2.5657 -0.8338 -1.5922
 4057SOL    HW223805   0.248   3.495   3.314 -1.0265  0.7325 -0.4272
 4058SOL     OW23806   4.043   2.051   0.684  0.4019 -1.2391 -0.4448
 4058SOL    HW123807   4.039   2.132   0.734  0.9602  0.5752 -3.3402
 4058SOL    HW223808   4.041   1.993   0.760  0.5315 -0.4318  0.1742
 4059SOL     OW23809   1.861   2.245  12.089 -0.3088  0.5735 -0.6880
 4059SOL    HW123810   1.879   2.165  12.041 -0.0168  0.1637  0.1057
 4059SOL    HW223811   1.938   2.293  12.059 -0.0110 -1.0177 -2.4319
 4060SOL     OW23812   2.949   2.643   3.539 -0.3091  0.2028  0.1513
 4060SOL    HW123813   2.890   2.670   3.469 -0.1713  0.1315  0.0079
 4060SOL    HW223814   2.894   2.580   3.586  0.4086  0.1716  0.9471
 4061SOL     OW23815   1.549   2.811  13.086  0.3654  0.0975  0.4311
 4061SOL    HW123816   1.513   2.774  13.005 -0.9171  1.2448  0.4802
 4061SOL    HW223817   1.497   2.775  13.158 -0.1327 -0.6306 -0.2833
 4062SOL     OW23818   4.556   1.382   2.356  0.2196 -0.6478  0.4392
 4062SOL    HW123819   4.475   1.434   2.363  0.1985 -0.7301  0.8199
 4062SOL    HW223820   4.559   1.379   2.261 -0.7217  1.2548  0.3484
 4063SOL     OW23821   0.077   1.925   4.053 -0.4295 -0.1560 -0.5956
 4063SOL    HW123822   0.051   1.962   3.968  1.2085  2.0375 -0.1453
 4063SOL    HW223823   0.142   1.859   4.028  0.7556  0.5527  0.6191
 4064SOL     OW23824   3.050   0.164   6.215 -0.2576 -0.1718  0.7565
 4064SOL    HW123825   3.055   0.260   6.218 -0.6435 -0.1160 -0.5125
 4064SOL    HW223826   2.960   0.140   6.198  0.3983 -0.7197 -1.9250
 4065SOL     OW23827   0.030   2.165   2.325 -0.1152  0.7058  0.5296
 4065SOL    HW123828   4.720   2.085   2.305  0.3701  0.4620  0.3133
 4065SOL    HW223829   0.118   2.132   2.341 -0.2318  1.3691  2.5241
 4066SOL     OW23830   0.161   2.696  12.950  0.1903  0.0955  0.3042
 4066SOL    HW123831   0.223   2.660  13.014  1.5853 -0.2462 -1.2385
 4066SOL    HW223832   0.092   2.629  12.955 -1.1130  1.4450  0.3725
 4067SOL     OW23833   4.595   4.007   2.473  0.1694  0.5423  0.0364
 4067SOL    HW123834   4.581   4.101   2.474 -1.7803  0.2761 -1.9312
 4067SOL    HW223835   4.515   3.977   2.430  0.9171  0.0064 -0.9824
 4068SOL     OW23836   2.457   0.110   7.840 -0.2949 -0.1300  0.1998
 4068SOL    HW123837   2.483   0.159   7.917 -0.6969 -1.5413  1.2253
 4068SOL    HW223838   2.365   0.135   7.828 -0.1890  0.0624 -0.2198
 4069SOL     OW23839   2.032   2.461   3.158  0.4986 -0.4354 -0.3270
 4069SOL    HW123840   2.113   2.500   3.190  1.3557 -3.1976  0.8866
 4069SOL    HW223841   1.996   2.527   3.099 -2.4445  0.0381  1.9524
 4070SOL     OW23842   3.212   2.090   4.487  0.0597 -0.1521 -0.1106
 4070SOL    HW123843   3.230   2.060   4.397  1.8524 -1.4939  0.6701
 4070SOL    HW223844   3.168   2.173   4.475  0.4476  0.0119 -0.4276
 4071SOL     OW23845   0.181   0.752   0.203 -0.3174 -0.7242 -0.3349
 4071SOL    HW123846   0.150   0.789   0.120  3.4020  2.8936 -0.0922
 4071SOL    HW223847   0.267   0.721   0.176  0.3484  0.3515  0.5552
 4072SOL     OW23848   1.125   3.879   9.761  0.0839 -0.3705 -0.5143
 4072SOL    HW123849   1.145   3.791   9.728 -2.3083 -0.5633 -1.4341
 4072SOL    HW223850   1.212   3.907   9.789 -0.8810  2.1486 -0.0561
 4073SOL     OW23851   4.704   0.617   5.400 -0.5082 -0.2111  0.4651
 4073SOL    HW123852   0.043   0.575   5.363 -0.0288 -0.0611  1.3195
 4073SOL    HW223853   4.714   0.702   5.357  1.3027  0.0252  1.3657
 4074SOL     OW23854   2.370   1.500   7.406 -0.0917 -0.0919  0.6302
 4074SOL    HW123855   2.424   1.439   7.356 -1.0029  0.8838 -1.5795
 4074SOL    HW223856   2.336   1.560   7.340  1.9028 -0.3304 -0.6340
 4075SOL     OW23857   2.874   3.519   3.832  0.1291 -0.6514 -0.2421
 4075SOL    HW123858   2.866   3.550   3.922 -0.7598 -1.4281 -0.0552
 4075SOL    HW223859   2.827   3.436   3.833  0.1459 -0.6389  0.9537
 4076SOL     OW23860   2.839   3.148   8.651  0.3650 -0.5119  0.7447
 4076SOL    HW123861   2.887   3.223   8.686  0.0207  0.0747 -0.0695
 4076SOL    HW223862   2.899   3.079   8.680  1.3813  0.2532  0.4643
 4077SOL     OW23863   3.207   0.379   6.053 -0.0084  0.1083  0.3264
 4077SOL    HW123864   3.160   0.325   5.989  1.0841  1.0254 -1.2714
 4077SOL    HW223865   3.169   0.464   6.029 -0.6552 -0.7092 -1.5676
 4078SOL     OW23866   1.441   1.549   8.193 -1.0032 -0.4063  0.4057
 4078SOL    HW123867   1.404   1.632   8.161  1.9782  1.0605  0.8072
 4078SOL    HW223868   1.382   1.491   8.144  0.6088 -1.0470 -0.7681
 4079SOL     OW23869   3.202   1.451   1.376  0.2887 -0.2696  0.4153
 4079SOL    HW123870   3.167   1.418   1.293  0.4524  1.1995 -0.2365
 4079SOL    HW223871   3.247   1.531   1.352 -1.4677  0.6432  0.1900
 4080SOL     OW23872   0.114   0.549   6.683 -0.3263 -0.5930  0.7996
 4080SOL    HW123873   0.108   0.632   6.729  2.4355  0.1740 -0.1788
 4080SOL    HW223874   0.205   0.538   6.653 -0.0560  0.2304  1.3392
 4081SOL     OW23875   0.190   1.062   4.881  0.0456 -0.0989  0.5731
 4081SOL    HW123876   0.140   1.142   4.868 -0.5995 -0.6622 -0.3935
 4081SOL    HW223877   0.145   1.020   4.954  2.5620 -0.9017  1.6700
 4082SOL     OW23878   3.409   3.492  17.077 -0.6053 -0.3323 -0.4489
 4082SOL    HW123879   3.504   3.496  17.080 -0.7114  2.0305 -1.0173
 4082SOL    HW223880   3.394   3.459  17.166 -0.3078  0.1821 -0.2064
 4083SOL     OW23881   3.497   0.855   8.641  0.4348  0.4127 -0.8805
 4083SOL    HW123882   3.469   0.941   8.611 -0.2428 -0.1605 -1.9046
 4083SOL    HW223883   3.418   0.815   8.678  0.5257  1.1366  0.0871
 4084SOL     OW23884   4.159   2.862  13.687 -0.4318 -0.2417 -0.3750
 4084SOL    HW123885   4.130   2.781  13.646  0.3434 -1.5019  1.6069
 4084SOL    HW223886   4.215   2.892  13.615 -0.3489  0.9307  0.1640
 4085SOL     OW23887   0.839   4.223  14.223  0.4818  0.0284 -0.4328
 4085SOL    HW123888   0.875   4.311  14.237  1.9638 -0.7400  0.4694
 4085SOL    HW223889   0.839   4.211  14.128 -0.9148  2.6202 -0.7836
 4086SOL     OW23890   0.592   1.538   5.492 -0.7332  0.6103  0.2280
 4086SOL    HW123891   0.586   1.562   5.584 -2.1857  1.6854 -0.1484
 4086SOL    HW223892   0.594   1.442   5.499  1.2136  0.4566 -2.2090
 4087SOL     OW23893   2.943   4.500   2.824  0.0708  0.1583 -0.2781
 4087SOL    HW123894   2.883   4.534   2.891 -2.0550 -2.3353 -0.9118
 4087SOL    HW223895   3.000   4.577   2.815 -1.8198  1.4508 -1.2627
 4088SOL     OW23896   1.690   3.787   7.209 -0.4521  0.0491 -0.5849
 4088SOL    HW123897   1.650   3.869   7.237 -0.6190 -0.1336 -0.2925
 4088SOL    HW223898   1.775   3.780   7.252 -1.1784 -4.8872  0.0812
 4089SOL     OW23899   0.462   4.738   9.165  0.2232  0.1246  0.3445
 4089SOL    HW123900   0.379   0.045   9.170  0.3834  0.5624 -0.9904
 4089SOL    HW223901   0.438   4.649   9.191  1.0330 -0.6115 -1.3988
 4090SOL     OW23902   3.731   1.448   8.800  0.0870  0.5069  0.5389
 4090SOL    HW123903   3.685   1.464   8.882  0.2372 -1.1985  0.9566
 4090SOL    HW223904   3.740   1.353   8.794  0.2198  0.5284  0.3966
 4091SOL     OW23905   0.204   2.827   2.214  0.0139 -0.0321  0.2445
 4091SOL    HW123906   0.266   2.868   2.275 -0.8007 -0.3418  1.2785
 4091SOL    HW223907   0.214   2.732   2.223  2.0220  0.2284  0.8607
 4092SOL     OW23908   1.868   1.309  12.602  0.0406  0.0409  0.1443
 4092SOL    HW123909   1.793   1.255  12.576  1.0593 -0.9612 -0.6483
 4092SOL    HW223910   1.917   1.242  12.649 -1.5009 -0.8742  0.4538
 4093SOL     OW23911   0.517   2.116  12.865  0.6191 -0.7664 -0.4866
 4093SOL    HW123912   0.585   2.064  12.823  1.6176  0.5648 -0.5270
 4093SOL    HW223913   0.564   2.164  12.933 -0.5718 -0.2696 -0.0236
 4094SOL     OW23914   1.122   2.912   6.465 -0.3885  0.3015 -0.2629
 4094SOL    HW123915   1.088   2.830   6.430 -1.3364 -0.2610  1.9930
 4094SOL    HW223916   1.065   2.939   6.537  0.7831 -0.0794  0.7995
 4095SOL     OW23917   3.375   4.420   2.484 -0.1317 -0.8260  0.1486
 4095SOL    HW123918   3.346   4.398   2.395 -0.5769  0.4818 -0.0256
 4095SOL    HW223919   3.310   4.485   2.511 -1.0824 -1.3974 -0.7557
 4096SOL     OW23920   4.430   0.698   8.668 -0.4485 -0.2507 -0.3790
 4096SOL    HW123921   4.416   0.733   8.580  3.2337  1.4661 -0.2815
 4096SOL    HW223922   4.510   0.748   8.683 -0.2539 -0.2356 -1.4998
 4097SOL     OW23923   2.865   4.223  17.133  0.0516 -0.1661 -0.0821
 4097SOL    HW123924   2.934   4.289  17.126  0.6865 -0.5348  2.7533
 4097SOL    HW223925   2.782   4.270  17.146  0.4617  0.6346 -0.3760
 4098SOL     OW23926   0.016   0.485   4.804 -0.0692 -0.2403  0.3734
 4098SOL    HW123927   0.100   0.507   4.765 -0.0913  0.0886  0.5139
 4098SOL    HW223928   4.706   0.464   4.724  0.9759  0.8983 -0.5561
 4099SOL     OW23929   0.333   2.290   6.788  0.5239  0.4041  0.4052
 4099SOL    HW123930   0.318   2.237   6.710 -0.6632  0.0306  0.8707
 4099SOL    HW223931   0.368   2.370   6.751  0.0189 -0.2689 -1.5281
 4100SOL     OW23932   0.675   3.423   7.479  0.1341  0.4442  0.1994
 4100SOL    HW123933   0.704   3.345   7.431  2.3504  1.2173  0.3177
 4100SOL    HW223934   0.717   3.490   7.425 -0.8805  0.5494 -0.4656
 4101SOL     OW23935   1.555   4.129   0.815  0.2225 -0.0214  0.0848
 4101SOL    HW123936   1.623   4.066   0.792  0.4888 -0.7377  2.8439
 4101SOL    HW223937   1.479   4.098   0.766  1.4937 -0.4095 -1.6332
 4102SOL     OW23938   0.687   4.519   5.848 -0.5511 -0.4342  0.5081
 4102SOL    HW123939   0.735   4.600   5.864 -2.8674  0.7400  1.4831
 4102SOL    HW223940   0.618   4.556   5.792 -0.2280  1.0923  1.1102
 4103SOL     OW23941   1.698   1.984   3.368 -0.0478  0.1978  0.1028
 4103SOL    HW123942   1.673   2.075   3.384 -0.3520  0.4932 -1.9844
 4103SOL    HW223943   1.793   1.992   3.355  0.0366  0.2861  0.7819
 4104SOL     OW23944   0.806   4.286   0.068 -0.0177 -0.1406  0.5192
 4104SOL    HW123945   0.884   4.340   0.069 -1.0201  1.3062 -1.0976
 4104SOL    HW223946   0.736   4.351   0.061  1.9530  1.9105  0.0688
 4105SOL     OW23947   4.093   4.158  17.237  0.0680  0.3673 -0.6979
 4105SOL    HW123948   4.156   4.087  17.246  0.3001  0.4464 -1.6925
 4105SOL    HW223949   4.126   4.201  17.158  1.7063  0.1307 -0.1492
 4106SOL     OW23950   1.780   2.721   6.819  0.0763 -0.6271  0.3471
 4106SOL    HW123951   1.725   2.658   6.865  1.4792 -0.5870  2.0755
 4106SOL    HW223952   1.718   2.767   6.762  0.1485 -0.6483  0.2507
 4107SOL     OW23953   3.431   2.658  16.675  0.1254  0.2529 -0.2073
 4107SOL    HW123954   3.339   2.680  16.689 -0.1674 -1.3342  0.3389
 4107SOL    HW223955   3.434   2.570  16.711  1.8208 -0.4518 -2.0539
 4108SOL     OW23956   0.304   0.136   8.254 -0.0521 -0.3538 -0.0894
 4108SOL    HW123957   0.366   0.064   8.270  0.1992 -0.1358 -0.0708
 4108SOL    HW223958   0.344   0.201   8.313 -0.6888  1.4960 -1.7099
 4109SOL     OW23959   4.502   2.173  16.835 -0.0856  0.8867  0.1587
 4109SOL    HW123960   4.596   2.183  16.847  0.5018 -0.8775 -3.0921
 4109SOL    HW223961   4.507   2.169  16.740  0.9312 -0.6618  0.2773
 4110SOL     OW23962   0.304   2.626  12.319 -0.3667  0.7473 -0.0736
 4110SOL    HW123963   0.324   2.564  12.249 -1.0596  0.1203  0.2818
 4110SOL    HW223964   0.217   2.594  12.346 -0.5095 -0.8148 -2.3718
 4111SOL     OW23965   3.865   3.026   6.202 -0.2449 -0.3508 -0.1302
 4111SOL    HW123966   3.844   2.956   6.140  0.0498  0.3157 -0.9883
 4111SOL    HW223967   3.940   2.986   6.246  1.4311  0.4072 -2.3101
 4112SOL     OW23968   2.323   3.541   5.519 -0.5963 -0.1382  0.0098
 4112SOL    HW123969   2.270   3.572   5.593 -1.3334 -2.8310  0.5995
 4112SOL    HW223970   2.411   3.556   5.553  0.1550  0.0182 -2.0484
 4113SOL     OW23971   4.523   2.166   4.906  0.1355 -0.2976  0.3882
 4113SOL    HW123972   4.611   2.196   4.886 -0.6079  1.3247 -0.4386
 4113SOL    HW223973   4.487   2.247   4.942 -0.6444 -0.7988  0.7444
 4114SOL     OW23974   4.602   2.398   8.326 -0.1101  0.4910 -0.9268
 4114SOL    HW123975   4.553   2.325   8.363  1.7382  0.4857  1.4854
 4114SOL    HW223976   4.589   2.391   8.231 -1.5669  1.3501 -0.7851
 4115SOL     OW23977   2.704   0.014  14.437 -0.2067  0.0424  0.4147
 4115SOL    HW123978   2.741   0.051  14.357 -2.8921 -0.4981 -1.0920
 4115SOL    HW223979   2.760   0.046  14.508 -1.6237  0.9906  1.1064
 4116SOL     OW23980   4.046   1.250   5.890 -0.3368 -0.0180  0.3895
 4116SOL    HW123981   4.122   1.261   5.947  1.6574  2.4688 -2.7852
 4116SOL    HW223982   4.075   1.204   5.811  2.1926  2.3955 -0.1107
 4117SOL     OW23983   1.323   4.502  11.666 -0.3726 -0.0841  0.1495
 4117SOL    HW123984   1.276   4.531  11.588  1.0631  0.9328 -0.3462
 4117SOL    HW223985   1.303   4.570  11.731 -0.9359 -1.4852  1.4357
 4118SOL     OW23986   4.585   3.533   3.061 -0.0973 -0.1464 -0.1406
 4118SOL    HW123987   4.523   3.495   3.122  2.3080 -0.1789  2.3003
 4118SOL    HW223988   4.525   3.585   3.008 -0.5319 -0.7761 -0.2589
 4119SOL     OW23989   4.355   3.468   3.201 -0.7553 -0.5487  0.1242
 4119SOL    HW123990   4.315   3.555   3.193 -0.8255 -0.5909  0.0122
 4119SOL    HW223991   4.284   3.408   3.176  0.7750 -2.6811  0.9123
 4120SOL     OW23992   0.950   3.959   3.651 -0.3670  0.6429  0.8100
 4120SOL    HW123993   0.916   4.039   3.691 -1.1459  1.5793 -1.7258
 4120SOL    HW223994   1.035   3.949   3.693  0.6090  0.5189 -1.1739
 4121SOL     OW23995   3.210   0.165   4.465 -0.0429 -0.2334  0.1955
 4121SOL    HW123996   3.291   0.211   4.442  0.1239 -0.5753  0.0900
 4121SOL    HW223997   3.147   0.203   4.404  0.5013  2.2067  1.1681
 4122SOL     OW23998   4.309   0.103   5.218 -0.3183 -0.1033 -0.0190
 4122SOL    HW123999   4.314   0.036   5.150 -3.0582  0.0536 -0.3658
 4122SOL    HW224000   4.394   0.091   5.259  0.2588  4.2761  0.0727
 4123SOL     OW24001   4.560   3.596  14.764 -0.7392  0.0556 -0.3560
 4123SOL    HW124002   4.650   3.567  14.749 -1.0097 -1.4101  0.8103
 4123SOL    HW224003   4.569   3.652  14.841 -1.7309 -2.1314  1.3467
 4124SOL     OW24004   0.175   4.006  11.736  0.1453 -1.1401  0.3914
 4124SOL    HW124005   0.258   4.006  11.784  0.9426  0.9358 -1.0246
 4124SOL    HW224006   0.197   4.054  11.657 -0.2200  0.7666  1.4477
 4125SOL     OW24007   4.124   1.958  14.301  0.5425 -0.1310  0.5073
 4125SOL    HW124008   4.148   2.050  14.294 -1.2327  0.4017  1.3690
 4125SOL    HW224009   4.033   1.958  14.330 -0.0125  2.8790 -1.3016
 4126SOL     OW24010   1.119   2.454  12.093 -0.2710  0.2191 -0.5386
 4126SOL    HW124011   1.118   2.447  12.189  2.1843  1.8797 -0.3911
 4126SOL    HW224012   1.053   2.386  12.082 -1.3145  1.2602 -0.6917
 4127SOL     OW24013   2.295   2.294   4.782  0.1869  0.8155  0.5602
 4127SOL    HW124014   2.377   2.338   4.759 -0.4665  0.6757 -2.0424
 4127SOL    HW224015   2.319   2.203   4.766 -1.1915  0.3179  1.2819
 4128SOL     OW24016   4.068   0.604   5.379  0.1067 -0.1517 -0.3079
 4128SOL    HW124017   4.105   0.691   5.363 -2.6467  1.0077 -0.3256
 4128SOL    HW224018   4.128   0.546   5.332 -1.5976 -1.2686 -1.0872
 4129SOL     OW24019   4.681   0.764   5.992 -0.8596  0.2153  0.1917
 4129SOL    HW124020   0.021   0.802   6.031 -1.3996  0.4979  1.0031
 4129SOL    HW224021   4.638   0.842   5.956  1.9697  0.2704 -3.1466
 4130SOL     OW24022   2.318   3.316   4.927  0.4503  0.1426  0.3298
 4130SOL    HW124023   2.414   3.310   4.926  0.2492 -2.5581 -0.8700
 4130SOL    HW224024   2.306   3.379   4.856  1.0161  0.8892  0.9000
 4131SOL     OW24025   1.490   4.729   0.583  0.5187 -0.0925  0.5833
 4131SOL    HW124026   1.525   0.033   0.661  1.5921  0.4847 -0.2117
 4131SOL    HW224027   1.426   0.053   0.551 -0.2556 -1.8028 -1.2387
 4132SOL     OW24028   0.320   3.647  12.473  0.3522  0.0958  0.2100
 4132SOL    HW124029   0.259   3.691  12.532  0.1849  2.2034 -1.5493
 4132SOL    HW224030   0.277   3.650  12.387  2.0333  1.3950 -0.5920
 4133SOL     OW24031   3.712   1.853   8.564  0.3874  0.9689  0.5282
 4133SOL    HW124032   3.772   1.927   8.558  0.6565  0.7512  0.5236
 4133SOL    HW224033   3.784   1.791   8.577 -0.4098 -0.3099 -1.2133
 4134SOL     OW24034   3.137   3.145   5.508 -0.1338 -0.5768 -0.6176
 4134SOL    HW124035   3.086   3.078   5.554  0.7435 -0.0218  1.1483
 4134SOL    HW224036   3.204   3.173   5.570  0.1478  1.1990 -1.7326
 4135SOL     OW24037   2.533   0.632   5.484  0.5894 -0.0504 -0.5183
 4135SOL    HW124038   2.455   0.686   5.495  0.6285  0.5083 -2.9367
 4135SOL    HW224039   2.602   0.699   5.486  0.6714 -0.2683  3.1444
 4136SOL     OW24040   4.644   4.018   9.220 -0.0619  0.6718 -0.1659
 4136SOL    HW124041   4.648   4.034   9.314 -0.0317  0.4858 -0.1357
 4136SOL    HW224042   4.647   3.923   9.218  4.2951  0.8140  1.0198
 4137SOL     OW24043   0.870   1.321   1.210  0.1614 -0.0406  0.1340
 4137SOL    HW124044   0.954   1.360   1.185  0.5180 -0.5302  0.5396
 4137SOL    HW224045   0.866   1.359   1.298 -0.1279 -0.5261  0.3294
 4138SOL     OW24046   1.735   3.073  15.362  0.0824 -1.1177 -0.7024
 4138SOL    HW124047   1.701   3.031  15.440  1.3527  0.9707  0.9899
 4138SOL    HW224048   1.698   3.015  15.295 -2.0542 -1.4080  0.7538
 4139SOL     OW24049   0.871   1.218   4.011  0.1440 -0.6986 -0.2474
 4139SOL    HW124050   0.900   1.264   3.932  1.4315  1.9169  1.7339
 4139SOL    HW224051   0.949   1.215   4.067  1.7706 -0.1395 -2.5091
 4140SOL     OW24052   2.316   3.486   6.252  0.2963 -0.3009 -0.6828
 4140SOL    HW124053   2.383   3.477   6.320 -0.8815  2.6146  0.8473
 4140SOL    HW224054   2.277   3.562   6.295 -0.5476 -1.1191 -0.0277
 4141SOL     OW24055   3.063   0.347   8.879  0.1231 -0.2246 -0.2703
 4141SOL    HW124056   3.043   0.372   8.970  2.0365  1.1698 -0.2489
 4141SOL    HW224057   2.977   0.343   8.836  0.9045 -2.3911 -1.6097
 4142SOL     OW24058   0.448   4.149   3.276  0.4299  0.3791 -0.7212
 4142SOL    HW124059   0.501   4.089   3.328  1.4141  1.3294 -0.6101
 4142SOL    HW224060   0.373   4.138   3.334  1.1243  1.3138  0.3556
 4143SOL     OW24061   0.661   1.056   3.119  0.3458  0.2364  0.0236
 4143SOL    HW124062   0.756   1.061   3.131  0.1605  0.5091  1.3850
 4143SOL    HW224063   0.636   0.980   3.171  0.2425  0.1736 -0.1173
 4144SOL     OW24064   0.422   2.988   4.290 -0.2878  0.0597  0.2561
 4144SOL    HW124065   0.475   3.066   4.306 -0.3399 -0.1042  1.2297
 4144SOL    HW224066   0.477   2.919   4.326 -1.4466 -1.0680 -0.1162
 4145SOL     OW24067   0.506   4.334   2.024  0.6157 -0.3126  0.1908
 4145SOL    HW124068   0.451   4.324   1.946 -1.7306  3.9307  1.2809
 4145SOL    HW224069   0.578   4.384   1.987 -0.2064  1.8094  1.4702
 4146SOL     OW24070   2.671   2.615  14.841  0.0548 -0.0188  0.3379
 4146SOL    HW124071   2.752   2.655  14.810  0.0775  0.3395  0.8547
 4146SOL    HW224072   2.616   2.622  14.763  1.2702 -1.6002 -0.6494
 4147SOL     OW24073   1.168   3.639   0.923 -0.7156  0.3317  0.0313
 4147SOL    HW124074   1.081   3.644   0.883 -0.8784 -0.5757  0.2823
 4147SOL    HW224075   1.169   3.546   0.943  0.0024 -0.1750 -2.3415
 4148SOL     OW24076   1.221   4.287   3.190  0.4180  0.3665 -0.4583
 4148SOL    HW124077   1.230   4.247   3.276  0.5412  0.5118 -0.4039
 4148SOL    HW224078   1.136   4.252   3.163  0.5038 -0.6667  0.5962
 4149SOL     OW24079   0.211   0.438   5.364  0.2288 -0.1251  0.2401
 4149SOL    HW124080   0.234   0.359   5.414 -0.7121 -0.7589 -0.3186
 4149SOL    HW224081   0.288   0.494   5.362 -0.8759  1.4625  2.2325
 4150SOL     OW24082   3.436   4.225  17.522 -0.2312 -0.0131 -0.0966
 4150SOL    HW124083   3.435   4.242  17.616  0.1271 -0.6789  0.0248
 4150SOL    HW224084   3.521   4.265  17.502  0.3630 -1.8499 -1.2405
 4151SOL     OW24085   4.192   1.498  15.851  0.2104  0.6309  0.5006
 4151SOL    HW124086   4.209   1.468  15.940 -0.7032  1.4005  0.9317
 4151SOL    HW224087   4.282   1.498  15.818  0.8724 -2.8712  2.3443
 4152SOL     OW24088   2.666   2.440   5.877 -0.4659 -0.7770  0.2990
 4152SOL    HW124089   2.620   2.370   5.830  0.3943 -0.9792 -0.2464
 4152SOL    HW224090   2.591   2.493   5.905  0.3393  1.1059 -1.1047
 4153SOL     OW24091   2.484   4.175   8.600  0.1282 -0.3978  0.2974
 4153SOL    HW124092   2.410   4.114   8.605  0.6512 -1.0563  0.0395
 4153SOL    HW224093   2.441   4.250   8.641  0.7289  0.9933 -1.6521
 4154SOL     OW24094   2.065   0.023   5.814 -0.0996  0.6856 -0.2327
 4154SOL    HW124095   2.151   4.736   5.847 -1.5280  1.0627  3.8068
 4154SOL    HW224096   2.017   4.680   5.815 -1.4648  1.4844 -0.9320
 4155SOL     OW24097   4.268   1.066   2.948  0.2604 -0.4201 -0.0218
 4155SOL    HW124098   4.318   1.136   2.991 -0.3258 -0.4442  0.7007
 4155SOL    HW224099   4.239   1.021   3.028 -1.1672  2.7605  1.2859
 4156SOL     OW24100   0.179   2.799   7.466  0.5229  0.3777 -0.2417
 4156SOL    HW124101   0.113   2.769   7.404  0.5232  2.5033 -1.2608
 4156SOL    HW224102   0.185   2.726   7.527  1.4023  0.7795  0.1493
 4157SOL     OW24103   3.186   0.486  11.254  0.0836  0.2678 -0.0755
 4157SOL    HW124104   3.278   0.513  11.251  0.4783 -1.2842 -2.2439
 4157SOL    HW224105   3.159   0.526  11.336 -2.6865  0.1667 -0.9456
 4158SOL     OW24106   4.005   4.361   2.499 -0.0383 -0.7466  0.2251
 4158SOL    HW124107   4.011   4.457   2.499 -2.4375 -0.5966  0.7369
 4158SOL    HW224108   4.054   4.345   2.418  0.7419 -1.4990  0.8381
 4159SOL     OW24109   1.926   0.286  10.556 -0.5027  0.2724  0.4410
 4159SOL    HW124110   1.988   0.311  10.624 -0.2226  0.7069  0.0228
 4159SOL    HW224111   1.855   0.347  10.574 -0.1059  1.1840 -1.0657
 4160SOL     OW24112   4.182   0.502   1.946  0.3790  0.2174 -0.4247
 4160SOL    HW124113   4.196   0.590   1.979  0.6233  0.2933 -0.7289
 4160SOL    HW224114   4.137   0.461   2.020  1.5671 -1.5396 -0.6672
 4161SOL     OW24115   4.035   2.530   2.235 -0.5699  0.5206  0.0770
 4161SOL    HW124116   4.104   2.474   2.198 -0.7586 -0.0159  0.5330
 4161SOL    HW224117   4.053   2.610   2.186  0.0638  0.5530  0.3604
 4162SOL     OW24118   4.115   0.630   4.311 -0.8425 -0.3078 -0.1956
 4162SOL    HW124119   4.061   0.551   4.315 -1.0542 -0.0888  1.2495
 4162SOL    HW224120   4.145   0.634   4.402 -1.1515 -2.1572 -0.0130
 4163SOL     OW24121   3.214   3.484  13.314  1.4128  0.7716  0.0556
 4163SOL    HW124122   3.240   3.462  13.224 -0.2796  0.1038 -0.2629
 4163SOL    HW224123   3.167   3.406  13.343  2.6857  0.0904  0.2710
 4164SOL     OW24124   2.605   1.854   1.816  0.2766 -0.0588 -0.0353
 4164SOL    HW124125   2.629   1.937   1.857  2.6150 -1.0565  0.6442
 4164SOL    HW224126   2.677   1.793   1.835 -0.2642 -0.6019  0.2716
 4165SOL     OW24127   2.377   3.993   8.060  0.6561 -0.0535 -0.1154
 4165SOL    HW124128   2.431   4.064   8.096 -1.3046  0.9442  0.8828
 4165SOL    HW224129   2.310   3.983   8.128 -0.3736 -0.0561 -1.1405
 4166SOL     OW24130   4.070   4.046   9.456  0.1189  0.1370  0.0075
 4166SOL    HW124131   4.147   4.098   9.432 -1.4500  2.2658 -0.4098
 4166SOL    HW224132   4.012   4.088   9.393 -1.7827 -1.8340  0.4564
 4167SOL     OW24133   0.004   2.089   9.723  0.3836 -0.3861  0.1160
 4167SOL    HW124134   4.731   2.096   9.817 -3.1926 -3.1666 -0.1124
 4167SOL    HW224135   4.738   1.996   9.704 -1.5255 -0.2373 -0.1459
 4168SOL     OW24136   3.299   0.970   7.676  0.0141 -0.1558 -0.2292
 4168SOL    HW124137   3.389   0.941   7.688 -0.8494 -1.6837  2.5032
 4168SOL    HW224138   3.315   1.063   7.658  1.3188 -0.1790  0.8087
 4169SOL     OW24139   2.159   2.802   5.014 -0.2336 -0.1488 -0.3601
 4169SOL    HW124140   2.181   2.742   5.085 -0.1024 -0.2555 -0.4908
 4169SOL    HW224141   2.218   2.875   5.031  3.0050 -2.7997 -0.0713
 4170SOL     OW24142   4.382   4.348  12.570 -0.0211 -0.0793  0.0174
 4170SOL    HW124143   4.327   4.417  12.608  1.3095  0.7648  0.3735
 4170SOL    HW224144   4.414   4.384  12.488  1.0273 -0.6194  0.1926
 4171SOL     OW24145   1.192   1.380  17.661 -0.6753  0.6209 -0.0108
 4171SOL    HW124146   1.157   1.469  17.666 -1.0972  0.4909 -0.6748
 4171SOL    HW224147   1.110   1.333  17.648 -0.9988  0.5331  2.3383
 4172SOL     OW24148   4.061   1.807   1.443  0.4738 -0.0311 -0.3964
 4172SOL    HW124149   3.977   1.848   1.463 -0.7382 -1.0597 -3.3789
 4172SOL    HW224150   4.082   1.772   1.530  1.7474  3.6870  0.8090
 4173SOL     OW24151   3.484   0.711   3.243  0.0956 -0.0201 -0.2951
 4173SOL    HW124152   3.491   0.798   3.204 -2.6624  0.6506  0.7004
 4173SOL    HW224153   3.484   0.740   3.334 -3.0315  3.0569 -1.2598
 4174SOL     OW24154   0.125   1.330  16.303 -0.4818 -0.2137 -0.1644
 4174SOL    HW124155   0.187   1.281  16.357  0.0882  1.8895  1.0557
 4174SOL    HW224156   0.125   1.405  16.362  1.3217 -0.2347 -0.1333
 4175SOL     OW24157   0.286   3.711   8.815  0.0466 -0.0617 -0.0939
 4175SOL    HW124158   0.369   3.739   8.776 -1.7583  0.9792 -3.2195
 4175SOL    HW224159   0.294   3.733   8.908  1.2183 -0.4677 -0.1068
 4176SOL     OW24160   2.688   2.544   5.602  0.6012 -0.0570 -0.1451
 4176SOL    HW124161   2.712   2.523   5.692  0.4493  0.0050 -0.0903
 4176SOL    HW224162   2.619   2.481   5.580  1.4816 -1.6001  1.5131
 4177SOL     OW24163   1.216   0.357   7.263  0.4387 -0.1689 -0.5504
 4177SOL    HW124164   1.236   0.430   7.321 -1.2668  0.3884 -0.6463
 4177SOL    HW224165   1.228   0.292   7.332 -0.3787  1.3857  1.0649
 4178SOL     OW24166   1.947   1.750  13.331 -0.2336 -0.2797  0.0480
 4178SOL    HW124167   1.976   1.672  13.379 -0.2609  0.5817  1.4838
 4178SOL    HW224168   1.933   1.707  13.247 -0.7646  0.1508 -0.0833
 4179SOL     OW24169   0.862   3.481   8.192  0.2446 -0.2017  0.3177
 4179SOL    HW124170   0.928   3.549   8.180  1.3720 -1.0264  1.7748
 4179SOL    HW224171   0.878   3.462   8.285 -1.0458 -3.2908 -0.1021
 4180SOL     OW24172   4.633   1.240   7.938  0.1141  0.9042  0.5964
 4180SOL    HW124173   4.644   1.264   7.846 -0.9200  1.2248  0.5699
 4180SOL    HW224174   4.586   1.157   7.928  1.9860 -0.3357  1.9936
 4181SOL     OW24175   2.985   4.244   3.574 -0.2219 -0.3915 -0.1906
 4181SOL    HW124176   3.007   4.282   3.488  2.4950 -2.0367 -0.2377
 4181SOL    HW224177   3.076   4.252   3.604 -0.9681  1.2961  1.5674
 4182SOL     OW24178   4.670   3.038   1.550  0.0543  0.5597  0.0962
 4182SOL    HW124179   4.647   3.129   1.566  0.6997  1.1843 -2.5192
 4182SOL    HW224180   0.027   3.035   1.549  0.0344 -0.3241  0.0858
 4183SOL     OW24181   2.159   0.927   8.351 -0.2504  0.1652  0.3063
 4183SOL    HW124182   2.242   0.900   8.311 -2.3975 -2.7578 -2.2159
 4183SOL    HW224183   2.118   0.841   8.359 -1.6234  0.8203  0.1707
 4184SOL     OW24184   2.095   3.648   2.255 -0.6157  0.4188  0.2204
 4184SOL    HW124185   2.139   3.710   2.312 -1.1127  1.0409 -0.0793
 4184SOL    HW224186   2.012   3.660   2.302 -0.6458 -0.0115  0.2783
 4185SOL     OW24187   3.212   2.560   6.044 -0.2354 -0.3573 -0.0049
 4185SOL    HW124188   3.285   2.620   6.062  2.1330 -2.8001 -1.3940
 4185SOL    HW224189   3.149   2.595   6.107 -0.8824  1.0978 -1.4603
 4186SOL     OW24190   1.978   3.761   4.585 -0.3331 -0.3580  0.0456
 4186SOL    HW124191   1.963   3.683   4.532 -2.4036  0.2534 -0.2905
 4186SOL    HW224192   1.976   3.725   4.673  0.8054  1.5749  0.8681
 4187SOL     OW24193   1.246   1.413   8.060  0.5819 -0.2097  0.3003
 4187SOL    HW124194   1.202   1.347   8.114 -0.4898 -0.8809 -1.4232
 4187SOL    HW224195   1.200   1.404   7.977 -1.1797 -1.1796  1.3915
 4188SOL     OW24196   2.229   4.490   4.268  0.1681 -0.2991  0.4694
 4188SOL    HW124197   2.298   4.426   4.258 -1.4712 -1.9409 -0.2901
 4188SOL    HW224198   2.253   4.549   4.196 -3.0967  0.2240 -0.1942
 4189SOL     OW24199   0.328   3.004   0.552 -0.2828 -0.0293  0.3325
 4189SOL    HW124200   0.362   2.980   0.466 -0.6489 -0.1261  0.2152
 4189SOL    HW224201   0.391   2.965   0.612 -1.7273 -1.1359  1.1272
 4190SOL     OW24202   4.045   0.360   8.076 -0.2177  0.3375 -0.9286
 4190SOL    HW124203   4.087   0.429   8.127 -0.8255  0.6775 -0.8824
 4190SOL    HW224204   4.012   0.412   8.002 -0.9941  0.0259 -0.7977
 4191SOL     OW24205   2.042   0.419   8.067  0.4767 -0.5134  0.2719
 4191SOL    HW124206   2.117   0.399   8.010  1.8708  1.9838  1.2227
 4191SOL    HW224207   2.034   0.514   8.071  4.1228 -0.2172  0.4707
 4192SOL     OW24208   0.686   1.780   8.793 -0.5468  0.2440 -0.2162
 4192SOL    HW124209   0.608   1.756   8.744 -3.2314  0.4692  3.9466
 4192SOL    HW224210   0.671   1.866   8.832  0.9866  0.3274  0.2119
 4193SOL     OW24211   3.691   4.652   0.562  0.5071 -0.4679  0.3359
 4193SOL    HW124212   3.784   4.677   0.564  0.5841 -0.6330 -0.9424
 4193SOL    HW224213   3.659   4.707   0.491 -1.1948 -1.5434  0.2816
 4194SOL     OW24214   0.534   4.034   4.784  0.6147  0.3432 -0.2175
 4194SOL    HW124215   0.624   4.003   4.797 -0.7688 -3.0110  1.5327
 4194SOL    HW224216   0.478   3.956   4.782  0.8556  0.1300  1.7951
 4195SOL     OW24217   3.480   4.036  10.842  0.6179  0.1681  0.4000
 4195SOL    HW124218   3.426   3.964  10.873  1.3320 -0.8284 -0.6583
 4195SOL    HW224219   3.562   3.986  10.840  1.2590  1.2011  0.7242
 4196SOL     OW24220   0.050   0.441   8.385  0.0448 -0.3973  0.4256
 4196SOL    HW124221   4.718   0.402   8.334 -1.2204  0.3116  1.6213
 4196SOL    HW224222   0.028   0.424   8.477 -1.2668 -1.0480 -0.0009
 4197SOL     OW24223   3.293   1.317  13.483 -0.3464  0.1845 -0.1216
 4197SOL    HW124224   3.300   1.327  13.578 -0.9337 -1.4443  0.0800
 4197SOL    HW224225   3.219   1.259  13.470 -2.9055  3.6228 -1.0812
 4198SOL     OW24226   4.059   0.568   6.438 -0.1044  0.6941 -0.4362
 4198SOL    HW124227   4.146   0.607   6.430  0.1397 -0.0561 -1.4348
 4198SOL    HW224228   4.009   0.615   6.371 -0.2226  3.3102  1.4685
 4199SOL     OW24229   2.449   2.226   7.627  0.2168 -0.6184 -0.2293
 4199SOL    HW124230   2.495   2.187   7.701 -0.7579 -0.3632  0.5168
 4199SOL    HW224231   2.512   2.226   7.555  0.7941 -1.0559  0.2776
 4200SOL     OW24232   3.079   4.200   7.904 -0.2538 -0.4767 -0.2053
 4200SOL    HW124233   3.090   4.108   7.882 -0.3531 -0.2792 -1.0883
 4200SOL    HW224234   3.069   4.191   7.999  2.2858 -0.8915  0.0075
 4201SOL     OW24235   3.393   2.331   6.162 -0.2112  0.0460 -0.0074
 4201SOL    HW124236   3.424   2.395   6.227  0.8749 -1.6974  1.1888
 4201SOL    HW224237   3.390   2.396   6.091  1.6717 -0.8879 -0.9560
 4202SOL     OW24238   0.262   2.664  16.631 -0.4553  0.1210  0.0765
 4202SOL    HW124239   0.327   2.640  16.697 -0.4195 -0.1486 -0.0516
 4202SOL    HW224240   0.189   2.622  16.676 -0.7909  0.7348  0.0959
 4203SOL     OW24241   4.105   0.802  12.117  0.5708  0.0151 -0.5084
 4203SOL    HW124242   4.065   0.794  12.030 -0.5406  2.2105 -0.1928
 4203SOL    HW224243   4.173   0.867  12.101 -1.0038  1.0914 -2.7034
 4204SOL     OW24244   0.616   4.354   7.884 -0.2482 -0.8925 -0.2333
 4204SOL    HW124245   0.701   4.398   7.884 -0.5336 -0.3531  1.7021
 4204SOL    HW224246   0.563   4.431   7.865 -1.9995 -1.4382  2.4170
 4205SOL     OW24247   2.482   4.579  12.904 -0.3079 -0.2617  0.0967
 4205SOL    HW124248   2.461   4.670  12.923 -1.5726 -0.5337 -0.0373
 4205SOL    HW224249   2.496   4.576  12.810  0.3586 -1.9952  0.2494
 4206SOL     OW24250   3.680   1.932   4.456 -0.4607 -0.9026  0.1860
 4206SOL    HW124251   3.701   1.922   4.548  1.5237  1.1248 -0.0635
 4206SOL    HW224252   3.588   1.960   4.462 -0.1592 -0.2534  1.5616
 4207SOL     OW24253   4.705   0.464  13.388  0.1193  0.2880 -0.2360
 4207SOL    HW124254   0.042   0.486  13.335 -0.0319 -0.2126 -0.6607
 4207SOL    HW224255   4.729   0.440  13.478  2.9938  2.9055 -0.2892
 4208SOL     OW24256   0.363   1.051   8.267 -0.5389  0.0373 -0.4945
 4208SOL    HW124257   0.454   1.070   8.288 -0.8674  1.2226 -0.1196
 4208SOL    HW224258   0.328   1.056   8.356 -1.0479  0.5164 -0.7204
 4209SOL     OW24259   1.832   0.122  13.795  0.2570  0.1856  0.7447
 4209SOL    HW124260   1.771   0.118  13.869 -1.1520 -0.8087 -0.4520
 4209SOL    HW224261   1.902   0.178  13.828  0.3824  0.5031 -0.0765
 4210SOL     OW24262   2.563   3.266  11.706 -0.9429 -0.6007 -0.0110
 4210SOL    HW124263   2.493   3.268  11.772  0.4833  2.5863  1.3858
 4210SOL    HW224264   2.539   3.346  11.660  2.2882  0.4427  0.1397
 4211SOL     OW24265   2.995   2.020   3.871  0.4314 -0.5157 -0.4955
 4211SOL    HW124266   3.054   2.069   3.928 -1.7771  0.0970  1.2681
 4211SOL    HW224267   3.014   2.058   3.786 -0.0473  0.0955 -0.3251
 4212SOL     OW24268   4.229   1.602   6.293 -0.9015  0.3094  0.1160
 4212SOL    HW124269   4.291   1.675   6.295 -0.3639 -0.1789  1.3284
 4212SOL    HW224270   4.156   1.652   6.257 -0.8806 -1.3611 -2.2238
 4213SOL     OW24271   1.287   3.695   7.181  0.3012 -0.2129 -0.2848
 4213SOL    HW124272   1.290   3.652   7.096 -0.9152  0.4034 -0.6320
 4213SOL    HW224273   1.308   3.786   7.160 -0.3835  0.0906  0.3317
 4214SOL     OW24274   4.664   3.832   7.263  0.2198 -0.1499 -0.0763
 4214SOL    HW124275   0.008   3.812   7.306  1.6020  0.9860 -2.1984
 4214SOL    HW224276   4.622   3.899   7.317  1.3591 -0.1156  0.7671
 4215SOL     OW24277   0.300   2.289   5.944 -0.5064  0.0322  0.2309
 4215SOL    HW124278   0.342   2.325   5.866 -0.2828  0.0825  0.3771
 4215SOL    HW224279   0.256   2.211   5.910 -1.3246  1.1909 -1.3628
 4216SOL     OW24280   2.053   0.223   8.862  0.2719  0.4285  0.0348
 4216SOL    HW124281   2.076   0.265   8.946  0.7898  1.0196 -0.4017
 4216SOL    HW224282   2.040   0.137   8.902 -0.5870  1.0376  1.0678
 4217SOL     OW24283   0.147   1.473   9.224  0.6251  0.0959  0.3833
 4217SOL    HW124284   0.236   1.437   9.219  0.5613 -0.0171  0.0643
 4217SOL    HW224285   0.160   1.548   9.165 -2.0115  0.1771 -0.0686
 4218SOL     OW24286   2.092   2.681   1.940  0.2234  0.5185 -0.4073
 4218SOL    HW124287   2.056   2.629   1.869 -0.1361 -0.6039  0.5973
 4218SOL    HW224288   2.180   2.687   1.902  1.1475 -1.7285  1.3366
 4219SOL     OW24289   0.706   2.498   0.993  0.2500  0.0003  0.4951
 4219SOL    HW124290   0.656   2.430   0.948 -0.9166  1.8038 -0.9343
 4219SOL    HW224291   0.639   2.563   1.015 -1.1041 -1.8337  1.7681
 4220SOL     OW24292   3.951   1.456  15.739  0.2469  0.3156  0.2729
 4220SOL    HW124293   3.973   1.417  15.655  2.1767  3.4309 -0.6979
 4220SOL    HW224294   4.033   1.441  15.786 -0.1327  0.6387  1.0492
 4221SOL     OW24295   2.535   1.784   7.200 -0.7973  0.2711 -0.0201
 4221SOL    HW124296   2.597   1.719   7.232 -1.9387 -0.2546  1.1175
 4221SOL    HW224297   2.448   1.755   7.228 -0.0663 -0.7253  1.1766
 4222SOL     OW24298   0.631   3.995   8.550 -0.6559  0.5535 -0.3630
 4222SOL    HW124299   0.716   3.954   8.567 -1.3307  0.0315  1.7662
 4222SOL    HW224300   0.635   4.058   8.622 -2.8964  1.3242 -0.9128
 4223SOL     OW24301   0.153   3.530  13.261  0.6333 -0.2743  0.1088
 4223SOL    HW124302   0.141   3.440  13.232 -2.1741  0.7781 -2.0443
 4223SOL    HW224303   0.122   3.577  13.183 -0.7757  0.4306  1.0944
 4224SOL     OW24304   4.460   1.562   7.758  0.1493  0.3576 -0.4463
 4224SOL    HW124305   4.373   1.558   7.798  1.0005  0.9799  1.4300
 4224SOL    HW224306   4.442   1.531   7.669  0.2282  0.8761 -0.6429
 4225SOL     OW24307   4.128   1.935   1.209 -0.0282  0.2871  0.4267
 4225SOL    HW124308   4.062   1.888   1.261 -1.0127  0.6704 -0.4638
 4225SOL    HW224309   4.203   1.876   1.217 -0.7203 -0.4326  1.5609
 4226SOL     OW24310   1.394   3.389   7.376 -0.0655 -0.0338 -0.7210
 4226SOL    HW124311   1.305   3.417   7.352  0.7268  1.4583 -1.8858
 4226SOL    HW224312   1.416   3.471   7.421  0.5963 -0.7038  0.1630
 4227SOL     OW24313   4.076   3.380   3.347 -0.3022 -0.5873  0.5326
 4227SOL    HW124314   4.031   3.300   3.320  0.7578 -0.3325 -1.8945
 4227SOL    HW224315   4.029   3.405   3.427  0.8059 -0.0131  1.0057
 4228SOL     OW24316   3.229   4.119   8.295 -0.6517  0.1665 -0.5427
 4228SOL    HW124317   3.143   4.133   8.334 -0.3963 -0.5024  0.2496
 4228SOL    HW224318   3.244   4.193   8.235 -2.4047  0.9590  0.0142
 4229SOL     OW24319   3.699   0.457   6.660 -0.2342 -0.1500 -0.5388
 4229SOL    HW124320   3.639   0.458   6.735  0.5246 -0.5774  0.0839
 4229SOL    HW224321   3.651   0.509   6.596  1.3035  0.8379 -0.8809
 4230SOL     OW24322   0.918   2.236   7.474 -0.0035  0.0723 -0.2880
 4230SOL    HW124323   1.007   2.258   7.499  0.1328 -0.0328 -0.6920
 4230SOL    HW224324   0.902   2.295   7.399 -3.6109 -2.9098 -1.8818
 4231SOL     OW24325   3.270   4.539   9.206  0.1542  0.0037  0.1119
 4231SOL    HW124326   3.206   4.546   9.277 -0.5837 -3.0154 -0.2443
 4231SOL    HW224327   3.326   4.614   9.223 -0.3999  0.1785  1.1430
 4232SOL     OW24328   2.275   1.372   2.165 -0.3826  0.1937 -0.0492
 4232SOL    HW124329   2.179   1.370   2.165 -0.4229  2.0007 -0.5934
 4232SOL    HW224330   2.299   1.288   2.126  1.2559 -1.1175  3.7919
 4233SOL     OW24331   2.551   1.271   9.218  0.1388  0.1780 -0.4953
 4233SOL    HW124332   2.573   1.241   9.306 -1.4896  1.7793  0.4288
 4233SOL    HW224333   2.474   1.220   9.194  0.9164 -1.9273  1.5212
 4234SOL     OW24334   2.555   0.829  14.360  0.5552 -0.4363 -0.3470
 4234SOL    HW124335   2.506   0.770  14.418  0.4944  1.7182  1.8374
 4234SOL    HW224336   2.644   0.796  14.353  0.7439 -0.6749  2.8506
 4235SOL     OW24337   2.063   2.742   2.678 -0.6964  0.6900  0.3580
 4235SOL    HW124338   2.101   2.828   2.694  0.7816 -0.0021  0.5375
 4235SOL    HW224339   2.118   2.705   2.609 -1.7506 -0.4057  0.0930
 4236SOL     OW24340   0.987   2.772   7.707 -0.2179  0.0913  0.2245
 4236SOL    HW124341   1.017   2.776   7.617  0.3438 -0.9175  0.3701
 4236SOL    HW224342   0.921   2.840   7.694  0.4775  0.6490 -0.3009
 4237SOL     OW24343   2.546   1.136  11.734  0.1698  0.1833 -0.5374
 4237SOL    HW124344   2.451   1.144  11.734  0.1315 -0.2286 -1.0996
 4237SOL    HW224345   2.564   1.059  11.680  1.1171 -0.9417  1.3927
 4238SOL     OW24346   3.729   0.431  16.386 -0.4082  0.7194 -0.5620
 4238SOL    HW124347   3.814   0.401  16.418 -1.0147  3.4310  3.6006
 4238SOL    HW224348   3.749   0.468  16.300  2.2196 -0.0750 -0.2810
 4239SOL     OW24349   3.646   1.895  12.783  0.1022  0.1335 -0.0869
 4239SOL    HW124350   3.695   1.963  12.829  0.5103 -0.1350 -0.1147
 4239SOL    HW224351   3.609   1.853  12.861 -0.1790  2.6088  1.0872
 4240SOL     OW24352   0.430   0.207   6.179  0.5564 -0.3923  0.0410
 4240SOL    HW124353   0.521   0.216   6.151  0.2375 -1.0964 -1.1876
 4240SOL    HW224354   0.432   0.113   6.199 -2.5626 -0.5275 -0.3684
 4241SOL     OW24355   2.696   3.196   3.369  0.2102  0.1080  0.4245
 4241SOL    HW124356   2.758   3.258   3.409 -0.1216 -0.0915  1.2560
 4241SOL    HW224357   2.695   3.121   3.428  0.5517  0.2730  0.6386
 4242SOL     OW24358   2.708   2.183   4.121  0.5581 -0.0786  0.1476
 4242SOL    HW124359   2.690   2.144   4.035 -1.7936  0.4858  0.3818
 4242SOL    HW224360   2.788   2.136   4.145  1.6233  0.7797 -1.7205
 4243SOL     OW24361   1.929   4.186   8.341 -0.5056  0.5340  0.2353
 4243SOL    HW124362   2.014   4.212   8.305  0.0567 -0.6305  0.7249
 4243SOL    HW224363   1.871   4.229   8.277 -1.0165 -1.0090 -0.3418
 4244SOL     OW24364   1.311   0.018  17.580  0.0515  0.1163 -0.3142
 4244SOL    HW124365   1.234   0.027  17.637  0.2950 -3.7997  0.6607
 4244SOL    HW224366   1.300   4.666  17.552  1.9542  0.0001 -0.6747
 4245SOL     OW24367   1.306   2.709  11.105 -0.0567 -0.2990 -0.4576
 4245SOL    HW124368   1.272   2.623  11.082 -0.8767  0.0987 -0.7396
 4245SOL    HW224369   1.292   2.750  11.020  0.4484  0.2896 -0.2576
 4246SOL     OW24370   0.834   0.737   3.556  0.4154  0.1583  0.3361
 4246SOL    HW124371   0.866   0.652   3.526  0.6422  1.3480 -2.7336
 4246SOL    HW224372   0.911   0.785   3.526  0.4348 -0.8023 -1.1321
 4247SOL     OW24373   0.008   2.981   4.970 -0.2745  0.0722 -0.3545
 4247SOL    HW124374   4.672   2.947   4.922  0.4197  0.7984 -1.9461
 4247SOL    HW224375   0.043   2.899   5.005  2.3096 -0.1658 -3.4885
 4248SOL     OW24376   0.767   0.792   8.748  0.3835  0.6154 -0.7293
 4248SOL    HW124377   0.698   0.728   8.766  0.4820 -0.2351 -3.3087
 4248SOL    HW224378   0.725   0.854   8.688  1.3000  1.4505 -0.4983
 4249SOL     OW24379   0.245   2.551   4.814 -0.3520  0.4214  0.2050
 4249SOL    HW124380   0.203   2.597   4.741 -1.4907 -0.6809  0.1684
 4249SOL    HW224381   0.257   2.463   4.778  2.2426  0.0172  2.0561
 4250SOL     OW24382   4.075   0.590  16.492  0.3218 -0.4421  0.6012
 4250SOL    HW124383   4.076   0.501  16.525 -0.5518 -0.5773  0.2624
 4250SOL    HW224384   4.038   0.629  16.571  3.1956  0.1625  1.6262
 4251SOL     OW24385   1.795   0.066   9.205 -0.1372 -0.4808  0.5510
 4251SOL    HW124386   1.798   0.079   9.110 -0.4071  0.8315  0.7162
 4251SOL    HW224387   1.700   0.075   9.219  0.0617 -0.7098  2.1233
 4252SOL     OW24388   0.574   2.074   3.472 -0.2009 -0.0580 -0.0895
 4252SOL    HW124389   0.515   2.145   3.451 -1.4210 -1.0210  0.0987
 4252SOL    HW224390   0.655   2.099   3.426  0.4627 -1.1806  0.4549
 4253SOL     OW24391   1.047   2.951   3.962  0.2802 -0.0413 -0.3322
 4253SOL    HW124392   1.004   2.967   3.878 -0.9214 -0.2679  0.2287
 4253SOL    HW224393   0.999   2.873   3.990 -1.7326  0.8893 -1.1651
 4254SOL     OW24394   1.303   3.481   6.486 -0.2786 -0.2809 -0.4120
 4254SOL    HW124395   1.271   3.551   6.542 -0.4602 -1.0517  0.4498
 4254SOL    HW224396   1.232   3.417   6.485 -1.2362  0.7745 -0.0512
 4255SOL     OW24397   2.154   4.413   5.003  0.0576  0.4266  0.5419
 4255SOL    HW124398   2.104   4.488   5.034 -1.9190 -0.6909  0.0388
 4255SOL    HW224399   2.173   4.438   4.912  2.6267 -0.1405  0.9030
 4256SOL     OW24400   4.459   1.446   5.091  0.1920 -0.1964 -0.0498
 4256SOL    HW124401   4.532   1.504   5.113 -0.4145  1.1808 -1.6252
 4256SOL    HW224402   4.447   1.476   5.001 -1.2633  0.0811  0.2427
 4257SOL     OW24403   2.208   3.525   6.654  0.2596 -0.0624  0.4577
 4257SOL    HW124404   2.171   3.437   6.653  0.9844 -0.3628 -0.4925
 4257SOL    HW224405   2.259   3.520   6.735  0.7182  0.7208  0.2190
 4258SOL     OW24406   2.693   1.860  16.146  0.2661  0.3159 -0.0551
 4258SOL    HW124407   2.637   1.784  16.159 -0.1176  0.3183 -1.6763
 4258SOL    HW224408   2.631   1.920  16.104 -0.0193  1.4930  2.0303
 4259SOL     OW24409   3.808   3.282  17.088  0.1326  0.2479  0.1017
 4259SOL    HW124410   3.830   3.264  16.997 -1.2159  1.8335 -0.5261
 4259SOL    HW224411   3.739   3.215  17.097  0.6190 -0.0824  1.3991
 4260SOL     OW24412   3.412   2.287   6.865 -0.6474  0.5349  0.5470
 4260SOL    HW124413   3.372   2.204   6.840  0.4589 -0.0557  0.7320
 4260SOL    HW224414   3.434   2.340   6.789  1.4885 -0.3801  0.5266
 4261SOL     OW24415   0.015   2.696   9.636  0.4866 -0.3157  0.9132
 4261SOL    HW124416   4.684   2.671   9.698  0.2010 -1.3269  0.1918
 4261SOL    HW224417   4.705   2.730   9.561  1.7424 -0.0186  0.2447
 4262SOL     OW24418   1.756   3.525  10.049 -0.5133  0.0087 -0.3875
 4262SOL    HW124419   1.677   3.480  10.019  0.7065 -2.3115 -0.0969
 4262SOL    HW224420   1.743   3.607  10.001  1.5725  0.7424  0.3209
 4263SOL     OW24421   1.026   3.524   5.027  0.0857 -0.1801 -0.8230
 4263SOL    HW124422   1.080   3.447   5.044 -2.7500 -1.7785  0.9168
 4263SOL    HW224423   1.077   3.579   4.967  0.9843  0.6249  0.6807
 4264SOL     OW24424   2.277   3.340   5.366 -0.0107 -0.2499  0.9416
 4264SOL    HW124425   2.301   3.424   5.403 -0.6704 -0.3790  1.6782
 4264SOL    HW224426   2.183   3.359   5.366  0.1946  0.7099 -1.0029
 4265SOL     OW24427   0.032   2.669   0.564  0.6558  0.1441 -0.0618
 4265SOL    HW124428   0.028   2.575   0.548 -1.0174  0.6535 -2.6681
 4265SOL    HW224429   0.118   2.683   0.604 -0.6470 -0.9050  3.1353
 4266SOL     OW24430   0.641   2.644  11.953  0.2643 -0.1847 -0.3557
 4266SOL    HW124431   0.638   2.548  11.950  1.5192 -0.2356  0.2208
 4266SOL    HW224432   0.554   2.678  11.929  0.3959 -2.0612 -3.4924
 4267SOL     OW24433   2.983   0.218  16.322 -0.3494  0.1241  0.3120
 4267SOL    HW124434   2.901   0.175  16.345 -1.7009  1.9599 -1.0531
 4267SOL    HW224435   2.955   0.308  16.303  0.2106  0.0682 -0.7719
 4268SOL     OW24436   3.233   0.110   3.543  0.4998  0.1876 -0.1214
 4268SOL    HW124437   3.308   0.167   3.532  0.8348  0.0855  1.7408
 4268SOL    HW224438   3.200   0.106   3.453 -1.4983  1.2996  0.5571
 4269SOL     OW24439   0.440   1.999   1.840  0.2117 -0.1887  0.1251
 4269SOL    HW124440   0.391   1.976   1.760  0.0210 -0.4693  0.3188
 4269SOL    HW224441   0.381   2.056   1.889  1.3045  0.6946  0.4055
 4270SOL     OW24442   3.969   3.754  15.749  0.6204 -0.3645  0.2394
 4270SOL    HW124443   4.041   3.695  15.771 -0.6487 -1.8602  0.3701
 4270SOL    HW224444   3.899   3.692  15.766 -0.0251  0.8968  2.1389
 4271SOL     OW24445   2.948   1.398   2.819 -0.4480 -0.3265  0.2144
 4271SOL    HW124446   2.979   1.320   2.773 -0.8190  0.5040 -1.4628
 4271SOL    HW224447   2.890   1.376   2.892 -1.2742 -0.7188 -0.5633
 4272SOL     OW24448   2.098   1.340   6.982  0.1247 -0.1486 -0.1529
 4272SOL    HW124449   2.031   1.379   6.925  0.3920  1.4869  0.6481
 4272SOL    HW224450   2.132   1.274   6.922  0.7224  1.2429 -1.3654
 4273SOL     OW24451   1.935   1.017  15.120 -0.2662 -0.3924  0.0548
 4273SOL    HW124452   1.943   0.922  15.109  1.4032 -0.3438  0.9467
 4273SOL    HW224453   2.012   1.049  15.072 -0.3859 -0.3844 -0.1315
 4274SOL     OW24454   2.892   0.498   6.594  0.3333 -0.2467  0.6263
 4274SOL    HW124455   2.804   0.491   6.630  0.1295  0.6953  0.3157
 4274SOL    HW224456   2.941   0.465   6.669  0.2496 -1.6731  0.0660
 4275SOL     OW24457   0.782   3.624   8.846  0.3721  0.0068  0.1568
 4275SOL    HW124458   0.873   3.642   8.820  0.4827 -0.7205  0.0573
 4275SOL    HW224459   0.770   3.675   8.926 -0.0986  0.1542 -0.0069
 4276SOL     OW24460   1.767   0.326  12.958 -0.1341  0.4280  0.1264
 4276SOL    HW124461   1.778   0.401  12.900 -0.4893  0.9084  0.6823
 4276SOL    HW224462   1.699   0.355  13.020  0.9434  0.4272  1.3045
 4277SOL     OW24463   4.452   2.216  12.256 -0.3381 -0.2865  0.1033
 4277SOL    HW124464   4.409   2.132  12.274 -0.1503 -0.2483  0.7153
 4277SOL    HW224465   4.493   2.231  12.341 -0.4021 -0.9472  0.2515
 4278SOL     OW24466   3.955   1.395   2.244  0.2148 -0.0340  0.2603
 4278SOL    HW124467   3.977   1.312   2.201 -0.6513 -0.5463  0.7934
 4278SOL    HW224468   3.886   1.357   2.299  1.3863 -0.0973  1.6839
 4279SOL     OW24469   3.720   3.223   7.996 -0.1076 -0.2358 -0.3548
 4279SOL    HW124470   3.626   3.210   8.008  0.0476 -0.4371  0.6686
 4279SOL    HW224471   3.741   3.133   8.020  0.1867  0.0049  0.2897
 4280SOL     OW24472   1.405   2.284   9.036 -0.0226  0.1300  0.6546
 4280SOL    HW124473   1.498   2.291   9.012 -0.3832  1.6526 -0.3644
 4280SOL    HW224474   1.367   2.372   9.025  0.0488  0.0508 -0.2974
 4281SOL     OW24475   2.895   0.094   9.262  0.1473  0.4129  0.2927
 4281SOL    HW124476   2.816   0.134   9.225  0.8224  0.2258 -1.3373
 4281SOL    HW224477   2.912   0.032   9.192  0.6480  0.4960  0.3400
 4282SOL     OW24478   3.291   0.162   4.957  0.5842 -0.5525  0.5861
 4282SOL    HW124479   3.383   0.144   4.937  1.3791  1.7716  2.2020
 4282SOL    HW224480   3.266   0.245   4.917 -0.4007 -0.6762  0.9687
 4283SOL     OW24481   4.107   3.942   2.324  0.2829  0.4306 -0.5388
 4283SOL    HW124482   4.074   4.023   2.285 -2.2841  0.2571  1.2868
 4283SOL    HW224483   4.105   3.966   2.416 -0.0029  0.8912 -0.6665
 4284SOL     OW24484   2.992   1.586   4.293  0.3053  0.1593 -0.1937
 4284SOL    HW124485   2.947   1.542   4.221  0.8664 -1.5668  0.4934
 4284SOL    HW224486   2.925   1.650   4.315  0.1062 -0.4364  0.9495
 4285SOL     OW24487   1.310   2.495   7.894  0.4516 -0.3266  0.1592
 4285SOL    HW124488   1.302   2.467   7.985 -0.1365  2.7778  1.0426
 4285SOL    HW224489   1.232   2.463   7.849  2.0223 -1.5653 -1.7228
 4286SOL     OW24490   3.451   0.243   3.466  0.3439 -0.1859  0.4711
 4286SOL    HW124491   3.449   0.291   3.383  0.6237 -0.3309  0.3823
 4286SOL    HW224492   3.508   0.167   3.455 -0.1450 -0.6003  0.7961
 4287SOL     OW24493   2.906   4.720   7.421 -0.0040 -0.1132 -0.7137
 4287SOL    HW124494   2.974   4.709   7.487 -2.0007  0.5810  1.4668
 4287SOL    HW224495   2.938   0.066   7.392 -1.9715  0.8891  0.0755
 4288SOL     OW24496   1.929   2.102   4.370  0.0017  0.8151  0.4362
 4288SOL    HW124497   1.892   2.075   4.286  0.9857  2.7319 -0.6078
 4288SOL    HW224498   1.857   2.068   4.423 -0.3862  2.2560  0.8219
 4289SOL     OW24499   1.394   1.774   4.886  0.5208  0.3348 -0.5843
 4289SOL    HW124500   1.436   1.731   4.961 -1.1811 -1.2290 -0.5267
 4289SOL    HW224501   1.426   1.864   4.892 -0.3697  0.5729  0.6319
 4290SOL     OW24502   1.927   3.599   4.392 -0.3382 -0.5925  0.1097
 4290SOL    HW124503   1.837   3.585   4.362  0.0113  0.8303 -1.5882
 4290SOL    HW224504   1.982   3.573   4.319 -1.6600  0.9815 -1.4447
 4291SOL     OW24505   4.538   2.658   4.399 -0.4543  0.2099 -0.2640
 4291SOL    HW124506   4.477   2.624   4.464 -0.5395  1.4963  0.3255
 4291SOL    HW224507   4.604   2.589   4.399 -0.5578  0.1119  0.2789
 4292SOL     OW24508   0.870   2.192   7.100 -0.8203  0.7404 -0.1930
 4292SOL    HW124509   0.786   2.218   7.063 -1.1950 -2.4829 -1.6693
 4292SOL    HW224510   0.891   2.127   7.032 -2.4155  0.4511 -0.4159
 4293SOL     OW24511   0.176   1.971  12.317  0.4182 -0.1960 -0.3871
 4293SOL    HW124512   0.195   2.009  12.403 -1.1654  2.0625 -1.0145
 4293SOL    HW224513   0.115   2.036  12.282 -0.3507 -0.1099  1.0729
 4294SOL     OW24514   0.129   4.593   3.962 -0.0940  0.5995  1.1050
 4294SOL    HW124515   0.146   4.670   3.908  0.8465 -0.5795 -0.2409
 4294SOL    HW224516   0.205   4.588   4.019  3.7163  0.2068 -4.0655
 4295SOL     OW24517   0.164   1.013   0.941 -0.1286  0.3350  0.1154
 4295SOL    HW124518   0.227   0.970   0.999 -0.9784 -0.6443  0.3056
 4295SOL    HW224519   0.181   0.972   0.856  2.7406  0.1925  0.7575
 4296SOL     OW24520   3.894   2.145   6.745 -0.0763  0.5492 -0.0550
 4296SOL    HW124521   3.931   2.221   6.790  1.3808  0.2349 -0.7483
 4296SOL    HW224522   3.954   2.078   6.776 -0.3933 -0.2350 -1.1190
 4297SOL     OW24523   4.367   2.381  13.830 -0.2802  0.1520  0.3672
 4297SOL    HW124524   4.296   2.380  13.765  0.8968 -2.2544 -0.8764
 4297SOL    HW224525   4.373   2.288  13.853  2.7565  0.0302 -1.0035
 4298SOL     OW24526   3.416   0.805   3.918  0.2754  0.6105 -0.1900
 4298SOL    HW124527   3.507   0.773   3.914  0.3282  0.9150 -1.3994
 4298SOL    HW224528   3.426   0.873   3.985  0.6529  0.6575 -0.2896
 4299SOL     OW24529   1.208   3.178   2.930  0.1813  0.7163 -0.2170
 4299SOL    HW124530   1.245   3.116   2.992  1.0078  1.6346  0.2024
 4299SOL    HW224531   1.159   3.235   2.988  0.3745  0.8812 -0.2166
 4300SOL     OW24532   2.536   1.109   2.247 -0.3971  0.1253  0.1125
 4300SOL    HW124533   2.442   1.096   2.240 -0.4304  1.3165 -1.7279
 4300SOL    HW224534   2.536   1.159   2.329 -0.4123 -0.9984  0.8023
 4301SOL     OW24535   1.928   2.127   7.264 -0.3709  0.2331  0.2481
 4301SOL    HW124536   1.954   2.064   7.197  0.5175  1.0368 -0.1676
 4301SOL    HW224537   1.916   2.066   7.337  1.0336  0.1062  0.3813
 4302SOL     OW24538   4.623   3.443  13.409 -0.3541 -0.5898 -0.7510
 4302SOL    HW124539   4.709   3.455  13.370  0.1087 -4.3918 -0.8203
 4302SOL    HW224540   4.571   3.521  13.386  0.3587  0.6145  1.7406
 4303SOL     OW24541   3.221   1.717   3.383  0.3472 -0.0298 -0.1596
 4303SOL    HW124542   3.289   1.650   3.392  0.9968  0.8616  1.4657
 4303SOL    HW224543   3.278   1.785   3.346  0.8690  0.0113  0.7051
 4304SOL     OW24544   1.276   2.108  13.722 -0.1141 -0.2707 -0.3916
 4304SOL    HW124545   1.292   2.123  13.815  0.0954  0.1850 -0.5017
 4304SOL    HW224546   1.338   2.039  13.699 -1.0295 -1.0615 -0.5060
 4305SOL     OW24547   2.837   1.676   5.975 -0.2061  0.0090 -0.7142
 4305SOL    HW124548   2.836   1.640   6.063 -0.2104  2.3807  0.2582
 4305SOL    HW224549   2.930   1.682   5.950 -0.3527  1.6429 -0.8836
 4306SOL     OW24550   3.321   4.055  13.697 -0.0956 -0.1518  0.7715
 4306SOL    HW124551   3.408   4.020  13.713  0.4001  0.8852  0.3562
 4306SOL    HW224552   3.305   4.102  13.779  0.5545  0.4078  0.5793
 4307SOL     OW24553   0.202   3.542   7.312  0.2444 -0.1324  0.4708
 4307SOL    HW124554   0.185   3.539   7.406  0.5722  0.0553  0.5359
 4307SOL    HW224555   0.222   3.451   7.290 -2.8791 -0.8245  0.3720
 4308SOL     OW24556   0.534   3.288   7.678  0.2780 -0.2115  0.7819
 4308SOL    HW124557   0.579   3.347   7.617 -1.8220 -0.1184 -0.6530
 4308SOL    HW224558   0.445   3.323   7.680  0.2531 -0.1620 -1.0566
 4309SOL     OW24559   2.716   2.999   8.877  0.4071 -0.4043  0.6748
 4309SOL    HW124560   2.631   2.974   8.841  0.0654 -0.1013  1.2735
 4309SOL    HW224561   2.746   3.062   8.811 -0.0668 -1.0808 -0.1849
 4310SOL     OW24562   3.405   2.588   5.412  0.2525  0.0897 -0.1592
 4310SOL    HW124563   3.402   2.682   5.398 -1.8836 -0.3122 -2.3055
 4310SOL    HW224564   3.328   2.565   5.360 -1.5176  0.4337  2.3089
 4311SOL     OW24565   4.330   1.236   5.728 -0.1230 -0.0917 -0.3858
 4311SOL    HW124566   4.353   1.250   5.819  2.3142 -0.9048 -0.8841
 4311SOL    HW224567   4.379   1.306   5.684  2.3116 -0.3988  1.8878
 4312SOL     OW24568   2.543   2.297   7.047 -0.0341  0.6103 -0.0429
 4312SOL    HW124569   2.542   2.211   7.089 -1.3322  1.0912  0.8777
 4312SOL    HW224570   2.454   2.329   7.061  0.1274  0.6011  1.0050
 4313SOL     OW24571   2.104   4.384   6.648 -0.0876  0.1875  0.3015
 4313SOL    HW124572   2.139   4.398   6.736 -0.2742 -0.2247  0.4385
 4313SOL    HW224573   2.067   4.299   6.670 -0.4218  0.4086  0.5992
 4314SOL     OW24574   1.850   1.305  15.745  0.3184 -0.1910 -0.4639
 4314SOL    HW124575   1.884   1.394  15.754  2.2675 -0.9411 -0.3701
 4314SOL    HW224576   1.810   1.297  15.832 -0.1533  3.5662 -0.3626
 4315SOL     OW24577   1.235   4.509   2.941 -0.3583  0.4941  0.4117
 4315SOL    HW124578   1.192   4.532   3.023 -0.5985  1.7242 -0.0591
 4315SOL    HW224579   1.181   4.435   2.916  0.0771  0.5086 -0.5852
 4316SOL     OW24580   3.083   1.605   3.133  0.0839  0.4817 -0.2302
 4316SOL    HW124581   3.128   1.638   3.211 -2.5695  1.4338  0.9281
 4316SOL    HW224582   3.011   1.559   3.178  1.7297  1.7592  3.7595
 4317SOL     OW24583   0.221   3.910  12.537 -0.7418  0.4251 -0.1935
 4317SOL    HW124584   0.164   3.880  12.465 -1.1764  2.6719 -0.7882
 4317SOL    HW224585   0.168   3.979  12.577 -0.9170  0.6742 -0.8448
 4318SOL     OW24586   2.762   2.632   5.336 -0.4127 -0.5335 -0.5009
 4318SOL    HW124587   2.739   2.556   5.283  1.0886 -1.1099 -0.3369
 4318SOL    HW224588   2.761   2.588   5.421  0.2116 -0.2756 -0.3578
 4319SOL     OW24589   2.442   4.382   9.627 -0.4868  0.4346  0.2149
 4319SOL    HW124590   2.515   4.430   9.590 -0.4998  0.3031  0.0170
 4319SOL    HW224591   2.486   4.350   9.706 -0.6826  2.2473  1.0499
 4320SOL     OW24592   1.076   2.276   5.117  0.2451  0.3645 -0.0823
 4320SOL    HW124593   1.021   2.352   5.095 -1.9897 -0.8800  1.3140
 4320SOL    HW224594   1.108   2.288   5.206 -0.3335 -0.7500  0.2685
 4321SOL     OW24595   0.254   1.917   8.450 -0.5617 -0.7114  0.0851
 4321SOL    HW124596   0.259   1.856   8.376 -0.3672 -0.6037  0.0093
 4321SOL    HW224597   0.168   1.956   8.435 -0.1077  0.5678  0.8524
 4322SOL     OW24598   2.684   4.077   5.168 -0.2692 -0.2477 -0.3948
 4322SOL    HW124599   2.653   4.009   5.108 -1.2041  1.5674 -1.9853
 4322SOL    HW224600   2.607   4.099   5.221  0.3154  0.8002  0.0248
 4323SOL     OW24601   3.408   1.775   1.344 -0.1751 -0.4664  0.1554
 4323SOL    HW124602   3.365   1.752   1.262 -0.4719 -1.0755  0.4824
 4323SOL    HW224603   3.494   1.788   1.304  0.2532 -0.3976  1.1014
 4324SOL     OW24604   0.696   3.143   1.873 -0.2493 -0.3493  0.2474
 4324SOL    HW124605   0.613   3.133   1.919 -0.2038  1.5803  0.7408
 4324SOL    HW224606   0.668   3.182   1.790 -2.5776 -0.8321  0.8202
 4325SOL     OW24607   0.163   2.032  13.909  0.0920  0.4974 -0.2120
 4325SOL    HW124608   0.134   2.019  13.999 -1.1770 -2.0038 -0.9918
 4325SOL    HW224609   0.092   2.080  13.865 -0.1995  1.3736  1.2175
 4326SOL     OW24610   4.673   4.034  12.883  0.0608  0.2274 -0.0433
 4326SOL    HW124611   4.648   3.962  12.826 -0.8963  0.0035  0.6712
 4326SOL    HW224612   4.614   4.105  12.858 -0.2948 -0.6142 -1.5814
 4327SOL     OW24613   4.309   0.495   6.033 -0.1105 -0.2645 -0.6652
 4327SOL    HW124614   4.298   0.589   6.042 -0.0531 -0.2809 -0.4204
 4327SOL    HW224615   4.362   0.475   6.110 -2.1756 -2.8644  0.0839
 4328SOL     OW24616   4.208   3.745   4.459 -0.2500 -0.0744 -0.9817
 4328SOL    HW124617   4.230   3.652   4.447 -0.2632 -0.1237 -0.6178
 4328SOL    HW224618   4.115   3.737   4.481 -0.2977  0.6814 -0.9369
 4329SOL     OW24619   2.371   1.553  10.476  0.0082  0.6959 -0.1233
 4329SOL    HW124620   2.398   1.626  10.420 -0.4338  0.8781 -0.0947
 4329SOL    HW224621   2.454   1.511  10.501  0.2325  1.9378  1.2059
 4330SOL     OW24622   1.581   2.189   2.136  0.5695  0.0524 -0.0872
 4330SOL    HW124623   1.638   2.232   2.072  0.6739 -0.8646 -0.6022
 4330SOL    HW224624   1.593   2.242   2.215 -1.5026 -1.1278  1.0145
 4331SOL     OW24625   2.401   2.893   6.742  0.5679 -0.4686 -0.4680
 4331SOL    HW124626   2.345   2.920   6.814 -1.0826 -1.0255 -1.5219
 4331SOL    HW224627   2.420   2.801   6.762 -1.8432 -1.2333 -1.5722
 4332SOL     OW24628   3.929   4.354   3.345  0.1765 -0.0291  0.2276
 4332SOL    HW124629   3.904   4.411   3.418  1.0874  0.3878  0.2124
 4332SOL    HW224630   3.839   4.352   3.312 -0.6077 -3.2321  2.5798
 4333SOL     OW24631   1.139   3.228   4.287 -0.1598 -0.1682  0.4338
 4333SOL    HW124632   1.061   3.182   4.258 -0.3269 -0.3970  1.2475
 4333SOL    HW224633   1.115   3.282   4.363  2.2105  1.7182 -0.1371
 4334SOL     OW24634   4.204   0.749  10.323  0.1849  0.6788 -0.1790
 4334SOL    HW124635   4.137   0.710  10.380  1.5432 -0.5801  0.5384
 4334SOL    HW224636   4.274   0.684  10.322  0.5872  1.1334 -2.1317
 4335SOL     OW24637   3.650   2.445   5.345 -0.3959  0.2026 -0.2604
 4335SOL    HW124638   3.665   2.358   5.383 -0.3536  0.0419 -0.6477
 4335SOL    HW224639   3.561   2.464   5.375 -0.4477  0.6370 -0.6891
 4336SOL     OW24640   0.537   3.782   7.493  0.4169  0.1749  0.5074
 4336SOL    HW124641   0.568   3.718   7.557  0.0600  2.3850  2.8737
 4336SOL    HW224642   0.620   3.829   7.483  2.2001 -3.2515 -0.7697
 4337SOL     OW24643   3.818   3.568   2.273 -1.1346 -0.2942 -0.0464
 4337SOL    HW124644   3.787   3.638   2.331 -2.3420 -1.0984  0.2946
 4337SOL    HW224645   3.905   3.598   2.248 -0.6830  0.7093  2.7117
 4338SOL     OW24646   3.938   4.211   7.512  0.4552 -0.1291 -0.4679
 4338SOL    HW124647   4.019   4.261   7.500  0.7374  0.5332  4.0870
 4338SOL    HW224648   3.974   4.126   7.488 -0.1506 -0.8968  1.3224
 4339SOL     OW24649   2.452   3.498  11.626 -0.1648  0.3677 -0.3240
 4339SOL    HW124650   2.474   3.573  11.571  1.6338 -1.1205 -1.6287
 4339SOL    HW224651   2.396   3.540  11.691 -0.3257  1.0491 -0.8942
 4340SOL     OW24652   0.980   3.867   5.096 -0.2566  0.4442  0.3220
 4340SOL    HW124653   1.040   3.909   5.159 -0.3874 -0.4901  1.0690
 4340SOL    HW224654   0.928   3.821   5.161 -3.6326  3.5241 -0.2357
 4341SOL     OW24655   1.150   4.643   4.113 -0.1112  0.1682  0.1426
 4341SOL    HW124656   1.089   4.660   4.185 -0.1434 -1.3548  0.4828
 4341SOL    HW224657   1.096   4.633   4.034  0.6845  0.2454 -0.4186
 4342SOL     OW24658   2.335   1.913   6.683  0.2294  0.0643  0.3925
 4342SOL    HW124659   2.245   1.940   6.699  0.4330  1.2863 -0.4861
 4342SOL    HW224660   2.357   1.843   6.744  2.5354  0.2104 -0.2811
 4343SOL     OW24661   0.007   2.635   1.666  0.6048 -0.1734 -0.2113
 4343SOL    HW124662   0.011   2.541   1.686  1.9186  1.0328  5.0986
 4343SOL    HW224663   4.664   2.625   1.617 -1.0152 -1.5768  2.7775
 4344SOL     OW24664   4.244   0.295  10.417  0.3351  0.4316  0.0216
 4344SOL    HW124665   4.303   0.220  10.418 -0.0316  0.0980 -2.5954
 4344SOL    HW224666   4.171   0.267  10.472  1.0626 -1.4209  0.0331
 4345SOL     OW24667   4.352   4.202   2.182 -0.4764 -0.6522  0.0782
 4345SOL    HW124668   4.353   4.268   2.112 -3.6537  0.5980  1.1965
 4345SOL    HW224669   4.419   4.137   2.163  1.6673  1.0772  1.7773
 4346SOL     OW24670   4.448   2.541  17.747  0.1070  0.0819 -0.0167
 4346SOL    HW124671   4.403   2.501   0.067  1.3722  0.7441  1.1178
 4346SOL    HW224672   4.389   2.513  17.678 -0.5564 -0.4860  0.7857
 4347SOL     OW24673   3.957   0.242   4.083  0.2545 -0.1948 -0.0958
 4347SOL    HW124674   3.947   0.327   4.041  3.2277  1.1696  1.9596
 4347SOL    HW224675   3.938   0.264   4.174  0.9998 -1.1592  0.2956
 4348SOL     OW24676   3.299   2.368   8.275  0.7282  0.0095  0.0340
 4348SOL    HW124677   3.216   2.337   8.310  1.0653 -1.4244 -0.4695
 4348SOL    HW224678   3.321   2.434   8.341  0.0869 -0.4524  0.7056
 4349SOL     OW24679   4.122   2.473  16.297 -0.3338  0.1727  0.1239
 4349SOL    HW124680   4.140   2.566  16.300  0.2024  0.0980 -0.7003
 4349SOL    HW224681   4.029   2.488  16.310 -0.3009 -0.4419  1.0499
 4350SOL     OW24682   4.491   0.125   2.878 -0.1556  0.7251  0.3163
 4350SOL    HW124683   4.544   0.060   2.924 -2.2152 -1.4001 -0.2851
 4350SOL    HW224684   4.446   0.167   2.951 -0.6307  1.8567 -0.6321
 4351SOL     OW24685   3.334   0.764   8.351  0.4417  0.2362 -0.0066
 4351SOL    HW124686   3.359   0.835   8.410 -3.3377  0.9985  0.6877
 4351SOL    HW224687   3.252   0.795   8.314  1.0508  1.0133 -0.7057
 4352SOL     OW24688   0.497   0.995   7.155 -0.2272 -0.1817 -0.2175
 4352SOL    HW124689   0.516   0.911   7.198  0.4302 -0.3821 -0.8992
 4352SOL    HW224690   0.429   1.018   7.217 -0.2445 -1.2415  0.1543
 4353SOL     OW24691   3.741   3.860   1.259 -0.0257 -0.4933 -0.3373
 4353SOL    HW124692   3.697   3.861   1.174 -1.3996  2.0311  0.4159
 4353SOL    HW224693   3.725   3.950   1.286 -2.1754 -1.6251  2.2614
 4354SOL     OW24694   3.361   3.476   7.295  0.1062 -0.0235  0.6134
 4354SOL    HW124695   3.425   3.531   7.340  0.0548 -0.9659  1.8588
 4354SOL    HW224696   3.389   3.490   7.205  0.7086  0.8118  0.9411
 4355SOL     OW24697   3.666   3.176   1.013  0.3857 -0.0805  0.3378
 4355SOL    HW124698   3.632   3.126   1.087 -1.3046 -0.7644 -0.8933
 4355SOL    HW224699   3.601   3.164   0.943 -2.7311 -0.2798  3.2569
 4356SOL     OW24700   2.201   4.290  10.029  0.6624 -0.0656 -0.2638
 4356SOL    HW124701   2.280   4.237  10.035 -0.6918 -1.8966  1.3605
 4356SOL    HW224702   2.207   4.300   9.934  0.2820  3.0904  0.0346
 4357SOL     OW24703   2.972   4.712   9.976 -0.2778  0.5318 -0.5222
 4357SOL    HW124704   2.901   4.725  10.038 -0.2708  1.2333 -0.6651
 4357SOL    HW224705   2.932   4.721   9.889  1.0766 -1.2350 -1.3330
 4358SOL     OW24706   1.682   3.968   5.392 -0.0552 -0.1845 -0.1636
 4358SOL    HW124707   1.645   3.947   5.478 -0.6114  2.2399  0.1880
 4358SOL    HW224708   1.747   4.035   5.411  0.4648 -0.5998 -0.4926
 4359SOL     OW24709   2.425   4.302   4.235  0.5714  0.2478  0.2036
 4359SOL    HW124710   2.436   4.301   4.139 -2.3358 -0.3417 -0.1141
 4359SOL    HW224711   2.470   4.223   4.265 -0.2227 -1.4243 -3.0312
 4360SOL     OW24712   4.221   2.695   1.901  0.0088 -0.3830  0.0516
 4360SOL    HW124713   4.164   2.706   1.976  0.7708  1.8526  0.3091
 4360SOL    HW224714   4.240   2.787   1.882  1.2697 -0.9373 -1.4180
 4361SOL     OW24715   1.395   2.361   2.810  0.2897 -0.2716 -0.2198
 4361SOL    HW124716   1.476   2.360   2.861  0.1637 -1.1857 -0.0344
 4361SOL    HW224717   1.429   2.341   2.723  3.4138  4.4926 -0.0848
 4362SOL     OW24718   4.680   1.661   5.246 -0.2683  0.0931  0.6230
 4362SOL    HW124719   0.006   1.594   5.224 -0.0218  0.8106 -0.8787
 4362SOL    HW224720   4.704   1.745   5.207 -0.1173 -0.3742 -0.3053
 4363SOL     OW24721   2.096   1.138   9.521 -0.5299  0.3619 -0.2390
 4363SOL    HW124722   2.191   1.143   9.534 -0.9330  1.2166  2.1880
 4363SOL    HW224723   2.100   1.192   9.442  0.1444  0.4709 -0.1311
 4364SOL     OW24724   3.423   1.851   6.174  0.4757 -0.0261  0.4084
 4364SOL    HW124725   3.517   1.866   6.182  0.3702  1.6854 -1.5484
 4364SOL    HW224726   3.386   1.938   6.189 -0.3082 -0.6490  2.1064
 4365SOL     OW24727   0.577   4.457   8.184 -0.0049  0.1563  0.2650
 4365SOL    HW124728   0.651   4.438   8.241  1.5995  0.6597 -1.6778
 4365SOL    HW224729   0.549   4.372   8.151  0.0227  0.2406  0.0188
 4366SOL     OW24730   3.705   3.330   1.814  0.6385 -0.0845  0.4287
 4366SOL    HW124731   3.792   3.350   1.848  0.7633  2.5098 -1.4328
 4366SOL    HW224732   3.647   3.367   1.880 -0.8132  1.5181 -1.7495
 4367SOL     OW24733   1.016   3.007   6.684  0.1048  0.2684  0.1033
 4367SOL    HW124734   1.043   3.098   6.671  0.7457 -0.0033 -0.4480
 4367SOL    HW224735   1.018   3.006   6.780  0.2804  0.6968  0.1048
 4368SOL     OW24736   2.124   3.592   5.713  0.0835  0.1939  0.5790
 4368SOL    HW124737   2.152   3.579   5.803  0.7696  2.1710  0.6604
 4368SOL    HW224738   2.076   3.511   5.697 -1.2859  1.1753 -0.2923
 4369SOL     OW24739   1.400   1.346   6.095 -0.6513 -0.0105 -0.1547
 4369SOL    HW124740   1.459   1.421   6.086 -1.7674  0.7602 -1.0456
 4369SOL    HW224741   1.395   1.341   6.190  0.1326  0.2670 -0.1034
 4370SOL     OW24742   0.316   1.052   2.391 -0.0847  0.2156  0.0970
 4370SOL    HW124743   0.369   1.040   2.470 -0.0267  0.2702  0.0654
 4370SOL    HW224744   0.314   0.962   2.359 -2.2053  0.3875 -0.2551
 4371SOL     OW24745   0.170   3.786  10.183 -0.1183 -0.6218 -0.1879
 4371SOL    HW124746   0.154   3.692  10.168  1.0583 -0.9531  0.6358
 4371SOL    HW224747   0.191   3.788  10.276 -0.5606 -1.1095 -0.0765
 4372SOL     OW24748   1.913   0.727   7.300 -0.0815 -0.5767 -0.5287
 4372SOL    HW124749   1.887   0.820   7.300 -0.7834 -0.7767  0.1515
 4372SOL    HW224750   2.001   0.723   7.262  0.2006  1.7494 -0.1717
 4373SOL     OW24751   0.721   0.608   7.334 -0.5036  0.5615  0.4909
 4373SOL    HW124752   0.790   0.575   7.276 -0.7046  1.1327 -0.0663
 4373SOL    HW224753   0.769   0.615   7.416 -1.5644  2.2402  0.9562
 4374SOL     OW24754   0.563   1.844  13.460 -0.5668  0.3004 -0.2015
 4374SOL    HW124755   0.561   1.939  13.445  1.3572  0.1195 -1.6984
 4374SOL    HW224756   0.631   1.846  13.527  0.1751 -0.0227 -0.9434
 4375SOL     OW24757   1.837   2.768   3.198  0.0105 -0.3604  0.2377
 4375SOL    HW124758   1.876   2.772   3.110 -1.8088 -0.4836 -0.5800
 4375SOL    HW224759   1.917   2.799   3.241  0.0733  1.0224 -0.8460
 4376SOL     OW24760   2.118   4.669   8.964  0.7491 -0.1958 -0.1371
 4376SOL    HW124761   2.098   4.598   8.903 -0.2679 -0.0565  0.0400
 4376SOL    HW224762   2.183   4.721   8.917 -0.3368  1.0724 -0.2486
 4377SOL     OW24763   4.020   0.382   4.576  0.0931  0.3438 -0.0764
 4377SOL    HW124764   3.959   0.403   4.646  2.0582  2.2228  1.0616
 4377SOL    HW224765   4.069   0.464   4.585  1.7577 -0.6331 -0.1599
 4378SOL     OW24766   2.793   1.445  16.170  0.8222 -0.8651  0.6237
 4378SOL    HW124767   2.884   1.415  16.173  1.0718 -0.1347  0.2615
 4378SOL    HW224768   2.769   1.461  16.262  1.1106  1.2822  0.3099
 4379SOL     OW24769   0.500   1.538   6.559 -0.8130  0.1357 -0.0664
 4379SOL    HW124770   0.573   1.582   6.516 -1.3880 -0.3208 -1.5338
 4379SOL    HW224771   0.427   1.581   6.513 -1.8649  1.3566  2.7387
 4380SOL     OW24772   2.189   4.293   0.533 -0.1108  0.3846 -0.1112
 4380SOL    HW124773   2.128   4.353   0.576  1.2946  1.7113  0.0394
 4380SOL    HW224774   2.243   4.259   0.604  1.1997 -0.2256 -1.4029
 4381SOL     OW24775   1.103   0.020   5.139  0.1304  0.2313  0.1815
 4381SOL    HW124776   1.127   4.669   5.116 -1.4704  0.1694 -1.3116
 4381SOL    HW224777   1.021   0.014   5.188 -0.1088  1.8700 -0.0349
 4382SOL     OW24778   3.670   3.627   0.447 -0.0462  0.0668 -0.2071
 4382SOL    HW124779   3.732   3.554   0.450 -0.5198 -0.3822 -2.0225
 4382SOL    HW224780   3.630   3.610   0.362 -1.0943 -3.3305  0.9755
 4383SOL     OW24781   3.267   3.503  10.740  0.0396 -0.2781 -0.0052
 4383SOL    HW124782   3.333   3.564  10.708  1.5255 -1.9069 -0.0251
 4383SOL    HW224783   3.188   3.557  10.734  1.2990  1.4969 -0.5594
 4384SOL     OW24784   3.953   2.836   8.544  0.1466 -0.5633 -0.6203
 4384SOL    HW124785   3.923   2.750   8.574  1.0780 -0.2100  1.2642
 4384SOL    HW224786   3.878   2.885   8.577 -0.3413 -1.0580 -0.9879
 4385SOL     OW24787   0.741   4.445  16.769 -0.0752 -0.2629 -0.3341
 4385SOL    HW124788   0.680   4.485  16.707  0.4772  2.3494  0.8109
 4385SOL    HW224789   0.765   4.522  16.820 -0.9430 -0.1790 -0.0522
 4386SOL     OW24790   0.618   0.690   1.585  0.2689 -0.0516  0.2757
 4386SOL    HW124791   0.549   0.744   1.548  1.8148  0.3914 -1.8988
 4386SOL    HW224792   0.685   0.752   1.557 -0.3174  0.6195  0.3579
 4387SOL     OW24793   0.505   1.775   2.116 -0.8934  0.8611  0.1874
 4387SOL    HW124794   0.539   1.847   2.168  2.0696  1.8097 -3.0817
 4387SOL    HW224795   0.418   1.814   2.102 -0.0085  2.3160 -1.2334
 4388SOL     OW24796   3.340   4.079  16.415 -0.0852  0.9220 -0.1280
 4388SOL    HW124797   3.435   4.084  16.410  0.0979 -1.0162  1.4685
 4388SOL    HW224798   3.328   4.081  16.510 -1.0825  2.0384 -0.2703
 4389SOL     OW24799   4.205   0.120   1.621  0.2406 -0.5029 -0.1445
 4389SOL    HW124800   4.299   0.110   1.613  0.1588  0.0465 -1.9454
 4389SOL    HW224801   4.173   0.062   1.552 -1.2938 -0.3652  0.4407
 4390SOL     OW24802   4.672   2.567  13.043  0.0230  0.2894  0.1858
 4390SOL    HW124803   4.644   2.543  12.955 -0.6467  1.5845  0.0416
 4390SOL    HW224804   4.662   2.477  13.072  1.0986 -0.3906 -1.6094
 4391SOL     OW24805   4.371   3.896   2.321  0.9517 -0.2718 -0.1809
 4391SOL    HW124806   4.351   3.830   2.388 -1.0103 -2.3165 -2.8006
 4391SOL    HW224807   4.295   3.951   2.340  1.9693  0.4577  1.8130
 4392SOL     OW24808   1.522   2.767  14.922  0.7354 -0.3908  0.2609
 4392SOL    HW124809   1.537   2.847  14.972  1.1074  0.3343 -1.0156
 4392SOL    HW224810   1.453   2.734  14.979  0.2525  0.9643  0.4538
 4393SOL     OW24811   1.365   2.104   0.271  0.2110 -0.3614  0.6782
 4393SOL    HW124812   1.421   2.114   0.194 -0.6573  0.1994  0.1292
 4393SOL    HW224813   1.373   2.010   0.287 -0.5528 -0.6771 -0.8132
 4394SOL     OW24814   4.177   3.611   7.245 -0.8141  0.4072 -0.1253
 4394SOL    HW124815   4.215   3.538   7.197 -1.2200  1.0965 -1.4994
 4394SOL    HW224816   4.259   3.658   7.260 -0.5506 -0.8307  2.3583
 4395SOL     OW24817   0.453   1.500   6.871 -0.0515 -0.5152 -0.3227
 4395SOL    HW124818   0.524   1.496   6.808 -0.1280  0.5602 -0.4703
 4395SOL    HW224819   0.421   1.590   6.866  1.2297  0.0346  1.2725
 4396SOL     OW24820   3.762   0.903   5.247  0.6772  0.8000 -0.0323
 4396SOL    HW124821   3.815   0.825   5.233 -0.5743 -0.3034  1.4014
 4396SOL    HW224822   3.818   0.969   5.287  0.3694  0.4854  0.9172
 4397SOL     OW24823   2.153   2.951   8.695  0.1058 -0.1147  0.4311
 4397SOL    HW124824   2.176   2.953   8.603  2.5131 -0.9421  1.0231
 4397SOL    HW224825   2.081   2.888   8.684  0.1938 -0.0785 -0.3466
 4398SOL     OW24826   1.265   2.952   8.537 -0.1964 -0.3587 -0.0657
 4398SOL    HW124827   1.355   2.962   8.567 -1.5894  2.1876  3.3501
 4398SOL    HW224828   1.269   2.865   8.498  0.4436 -1.4799  2.4614
 4399SOL     OW24829   3.946   2.200   5.676  0.0241  0.0170 -0.3248
 4399SOL    HW124830   3.857   2.210   5.709  0.1286  0.6666 -0.2375
 4399SOL    HW224831   3.964   2.126   5.733 -0.2299 -1.0734 -1.6551
 4400SOL     OW24832   4.066   1.370  15.521 -0.4470  0.3569  0.0962
 4400SOL    HW124833   4.059   1.324  15.437 -1.9005 -0.3498  0.6152
 4400SOL    HW224834   4.101   1.452  15.485  1.5362 -1.2631 -1.7221
 4401SOL     OW24835   3.434   1.704   4.365 -0.4007 -0.0415  0.1296
 4401SOL    HW124836   3.515   1.699   4.315 -0.4014  0.1526  0.1065
 4401SOL    HW224837   3.367   1.720   4.299 -0.0595  0.1105 -0.1743
 4402SOL     OW24838   2.252   1.170   9.927 -0.4414  0.2739 -0.5937
 4402SOL    HW124839   2.279   1.177   9.836  0.2320  0.1177 -0.4016
 4402SOL    HW224840   2.192   1.242   9.945  1.7848  2.5453 -2.4662
 4403SOL     OW24841   1.842   3.079  10.604 -0.4250 -0.3591  0.3857
 4403SOL    HW124842   1.799   2.994  10.595  2.6131 -1.8232 -0.0972
 4403SOL    HW224843   1.890   3.087  10.522  0.1133 -0.7818  0.6635
 4404SOL     OW24844   4.736   4.028   2.712  0.3572 -0.3485  0.8155
 4404SOL    HW124845   4.668   3.992   2.655 -0.5124  1.3756  0.7539
 4404SOL    HW224846   4.696   4.114   2.727  1.6836  0.4134 -0.0066
 4405SOL     OW24847   2.913   4.549   9.377 -0.3558  0.1179  0.0284
 4405SOL    HW124848   2.925   4.630   9.327  1.3908  1.0073  1.8682
 4405SOL    HW224849   2.933   4.490   9.305 -1.4385 -0.7488  0.4336
 4406SOL     OW24850   4.501   0.787   1.296  0.0680 -0.7093 -0.0877
 4406SOL    HW124851   4.457   0.787   1.211 -1.3400  0.9054  0.6413
 4406SOL    HW224852   4.465   0.866   1.337  0.9766 -0.3416 -0.0065
 4407SOL     OW24853   3.387   3.343   3.542  0.5234 -0.3608 -0.6286
 4407SOL    HW124854   3.327   3.306   3.477  1.1028  1.4148 -2.1685
 4407SOL    HW224855   3.384   3.439   3.543  0.7483 -0.3543 -0.5494
 4408SOL     OW24856   4.071   3.903   5.635 -0.1137 -0.2799 -0.1069
 4408SOL    HW124857   4.098   3.946   5.716  1.1902 -2.8450  0.8122
 4408SOL    HW224858   4.063   3.991   5.599 -1.5720 -1.2578 -2.1739
 4409SOL     OW24859   0.286   0.233   5.512  0.3806  0.5189 -0.4284
 4409SOL    HW124860   0.251   0.228   5.601 -0.3160 -0.3136 -0.7454
 4409SOL    HW224861   0.378   0.214   5.529 -0.6044 -3.9355  0.0772
 4410SOL     OW24862   0.483   2.435   3.902 -0.4087 -0.1108 -0.4748
 4410SOL    HW124863   0.563   2.471   3.865  1.1719  0.3165  3.3709
 4410SOL    HW224864   0.451   2.512   3.949 -1.7417 -0.8128 -0.2188
 4411SOL     OW24865   4.557   0.215  15.029 -0.0556  0.0453 -0.0295
 4411SOL    HW124866   4.646   0.252  15.032 -0.0151  0.1106 -2.5680
 4411SOL    HW224867   4.555   0.151  15.100 -0.0023  1.4312  1.2277
 4412SOL     OW24868   1.127   0.710   9.324  1.3849  0.0202 -0.0773
 4412SOL    HW124869   1.184   0.743   9.393  1.0756  2.0017 -0.7689
 4412SOL    HW224870   1.074   0.650   9.375 -0.6540 -0.3280 -2.6416
 4413SOL     OW24871   2.465   3.753   6.810 -0.3903 -0.2865  0.2413
 4413SOL    HW124872   2.519   3.686   6.768  0.0992  0.8603 -0.9383
 4413SOL    HW224873   2.501   3.835   6.777 -1.9394 -0.4141 -1.7308
 4414SOL     OW24874   3.799   4.235  10.214 -0.5265  0.0031  0.0906
 4414SOL    HW124875   3.751   4.153  10.206  1.9244 -1.4467  0.3738
 4414SOL    HW224876   3.731   4.286  10.258 -1.1098  1.0066 -1.9957
 4415SOL     OW24877   2.115   3.875  16.340  0.3445  0.1910  0.2032
 4415SOL    HW124878   2.114   3.969  16.322  0.2626 -0.0364 -0.9795
 4415SOL    HW224879   2.036   3.874  16.393 -0.3753  1.4651 -0.8418
 4416SOL     OW24880   4.214   0.301  14.681  0.5296  0.3384 -0.3952
 4416SOL    HW124881   4.150   0.371  14.692  0.8752  1.0524 -2.8796
 4416SOL    HW224882   4.183   0.264  14.598 -1.4849 -0.9265  0.9446
 4417SOL     OW24883   4.038   2.603   1.441  0.3894  0.1142 -0.2140
 4417SOL    HW124884   4.057   2.674   1.502  1.8145 -0.7235  0.3220
 4417SOL    HW224885   4.062   2.530   1.499 -0.6156  0.7078  0.9387
 4418SOL     OW24886   2.329   3.289  11.880  0.0058 -0.2134 -0.4820
 4418SOL    HW124887   2.261   3.252  11.936  0.1308 -1.2201 -0.9895
 4418SOL    HW224888   2.354   3.365  11.932 -1.4972  0.2330 -0.4182
 4419SOL     OW24889   3.248   3.639  11.019 -0.2592  0.3822  0.0642
 4419SOL    HW124890   3.191   3.566  10.993  0.0632  0.5731 -1.1904
 4419SOL    HW224891   3.185   3.708  11.038 -0.3056  0.9445 -2.1027
 4420SOL     OW24892   2.367   0.193   9.628 -0.1563 -0.3366  0.1012
 4420SOL    HW124893   2.340   0.107   9.597 -2.1470 -0.7557  2.9605
 4420SOL    HW224894   2.299   0.202   9.695  0.0251 -1.1071  0.3892
 4421SOL     OW24895   1.859   2.248   5.901  0.4404 -0.5133  0.4295
 4421SOL    HW124896   1.878   2.333   5.862 -2.4568 -1.4329 -3.0502
 4421SOL    HW224897   1.765   2.259   5.918  0.4444  0.3841 -0.1293
 4422SOL     OW24898   1.564   2.236  17.402 -0.1044  0.0572 -0.1807
 4422SOL    HW124899   1.646   2.190  17.421  0.1641  1.1234  1.1966
 4422SOL    HW224900   1.495   2.173  17.425  0.9632 -0.0321  2.7178
 4423SOL     OW24901   3.030   2.594   5.064  0.2780  0.2720 -0.0078
 4423SOL    HW124902   3.017   2.518   5.007  2.9267  0.5566 -0.9719
 4423SOL    HW224903   2.951   2.587   5.118  1.6002 -1.7381  1.6922
 4424SOL     OW24904   0.188   3.577   4.631  0.6493  0.3760  0.3428
 4424SOL    HW124905   0.235   3.579   4.714  0.6141  0.8665  0.3502
 4424SOL    HW224906   0.181   3.483   4.613 -2.3542  1.0370 -1.9388
 4425SOL     OW24907   4.065   4.666   2.752  0.4846 -0.3226 -0.2588
 4425SOL    HW124908   4.083   4.648   2.660  0.0585  1.8586 -0.7614
 4425SOL    HW224909   3.969   4.656   2.751  0.4094  0.6506 -1.4441
 4426SOL     OW24910   1.386   3.758   1.591 -0.1361  0.1655  0.0328
 4426SOL    HW124911   1.317   3.816   1.560  0.1281  0.4351 -0.0406
 4426SOL    HW224912   1.453   3.816   1.627 -0.8798  1.6763 -1.0300
 4427SOL     OW24913   4.256   3.744   3.130  0.5229 -0.2035  0.6347
 4427SOL    HW124914   4.180   3.720   3.185  0.6308 -0.0475  0.8540
 4427SOL    HW224915   4.239   3.835   3.107  2.2807 -0.3779 -1.2440
 4428SOL     OW24916   2.104   2.938   7.044 -0.2625  0.0315 -0.2363
 4428SOL    HW124917   2.059   3.019   7.069  2.2843  1.3445  0.1767
 4428SOL    HW224918   2.052   2.868   7.083  1.7833 -1.4122 -0.0671
 4429SOL     OW24919   0.059   0.538   9.670  0.4500  0.6075 -0.2116
 4429SOL    HW124920   0.118   0.554   9.743  1.2884 -1.8368 -0.3504
 4429SOL    HW224921   0.038   0.630   9.656  0.6085  0.6689 -0.0351
 4430SOL     OW24922   0.544   2.878   0.654  0.5751  0.1165 -0.2110
 4430SOL    HW124923   0.614   2.941   0.669 -0.6211  1.3447  0.2376
 4430SOL    HW224924   0.589   2.798   0.626  1.5875  0.8226 -0.5850
 4431SOL     OW24925   3.148   1.319   3.039  0.0104 -0.2754 -0.4154
 4431SOL    HW124926   3.118   1.408   3.056 -0.9411 -0.7965  0.6498
 4431SOL    HW224927   3.235   1.299   3.076  0.2168  0.5854 -0.4462
 4432SOL     OW24928   4.289   4.310   8.387  0.2418 -0.3672 -1.3606
 4432SOL    HW124929   4.354   4.378   8.374 -0.2389  0.1429 -1.0881
 4432SOL    HW224930   4.213   4.365   8.406  0.7821 -0.5880  1.4492
 4433SOL     OW24931   3.828   0.774   4.494 -0.3075  0.4064  0.6258
 4433SOL    HW124932   3.839   0.791   4.588 -0.1989  0.7241  0.5566
 4433SOL    HW224933   3.913   0.807   4.465 -0.2953 -3.7552 -3.9871
 4434SOL     OW24934   0.231   4.090   3.765  0.2182 -0.7739  0.3386
 4434SOL    HW124935   0.311   4.136   3.789  0.0448 -0.4302  0.2704
 4434SOL    HW224936   0.159   4.153   3.771  1.9663  1.2511 -0.1714
 4435SOL     OW24937   2.908   2.084  12.811 -0.3154 -0.2690 -0.1526
 4435SOL    HW124938   2.859   2.134  12.876  1.3220 -0.0211  0.9011
 4435SOL    HW224939   2.923   2.143  12.737  2.2285 -1.2276 -0.3871
 4436SOL     OW24940   0.744   1.898   8.318  0.0669 -0.3002 -0.3061
 4436SOL    HW124941   0.803   1.824   8.329  1.4714  0.7624 -0.6649
 4436SOL    HW224942   0.663   1.861   8.354 -0.1727  0.0025 -0.5315
 4437SOL     OW24943   0.626   3.519   5.303 -0.0468 -0.1720  0.2003
 4437SOL    HW124944   0.636   3.427   5.278 -1.5711 -1.2764  3.6046
 4437SOL    HW224945   0.643   3.525   5.397 -1.1484  0.3723  0.3627
 4438SOL     OW24946   3.627   2.792   1.897 -0.4361 -0.2242  0.5359
 4438SOL    HW124947   3.562   2.827   1.959  2.3383  1.4904  2.5167
 4438SOL    HW224948   3.612   2.840   1.816  2.1235  2.2017  1.4913
 4439SOL     OW24949   4.520   2.605  12.514 -0.1560 -0.5908  0.0510
 4439SOL    HW124950   4.545   2.667  12.446 -0.0105 -0.6776  0.0254
 4439SOL    HW224951   4.505   2.654  12.595  3.4084  1.0775 -0.3147
 4440SOL     OW24952   1.997   1.293  12.357  0.1425  0.2674 -0.0760
 4440SOL    HW124953   2.059   1.220  12.358 -1.0338 -0.7151  0.9634
 4440SOL    HW224954   1.945   1.278  12.436  2.0285 -0.9337  0.9454
 4441SOL     OW24955   3.819   1.193   4.052  0.1238  0.0101  0.3669
 4441SOL    HW124956   3.868   1.121   4.093 -0.9416  0.6272  2.7668
 4441SOL    HW224957   3.777   1.236   4.127 -3.0214 -0.1516 -1.3144
 4442SOL     OW24958   0.344   2.667  14.879  0.4604  0.7580 -0.3139
 4442SOL    HW124959   0.287   2.726  14.830 -0.3579  0.6108  0.4670
 4442SOL    HW224960   0.365   2.726  14.952 -4.2025  0.5596  1.1780
 4443SOL     OW24961   1.720   2.733   0.954  0.1930  0.2967 -0.1625
 4443SOL    HW124962   1.629   2.719   0.926  0.5334  0.4551 -1.3520
 4443SOL    HW224963   1.767   2.650   0.941 -0.3698  0.1826 -1.4824
 4444SOL     OW24964   4.664   4.587   8.083  0.1519  0.1547 -0.5924
 4444SOL    HW124965   0.010   4.608   8.121  0.2337  1.1559 -1.3276
 4444SOL    HW224966   4.670   4.492   8.076  0.8533  0.1859 -0.4059
 4445SOL     OW24967   3.868   0.172   1.028  0.1732 -0.1058 -0.2338
 4445SOL    HW124968   3.860   0.112   0.953  1.5430 -1.3894  0.6345
 4445SOL    HW224969   3.784   0.169   1.074  0.8477  0.0713  1.0054
 4446SOL     OW24970   1.868   4.204   3.598  0.2993  0.4293 -0.3237
 4446SOL    HW124971   1.886   4.121   3.555 -0.7442  0.3493 -0.6117
 4446SOL    HW224972   1.944   4.257   3.572  1.1481 -1.6835 -2.1226
 4447SOL     OW24973   0.918   3.531  12.586 -0.5454  0.0415  0.0137
 4447SOL    HW124974   0.948   3.618  12.558 -2.3188  0.4267 -0.6617
 4447SOL    HW224975   0.863   3.554  12.661  2.3075  0.7818  1.8781
 4448SOL     OW24976   0.873   2.273   8.599  0.1180 -0.5457 -0.1314
 4448SOL    HW124977   0.778   2.283   8.592  0.0062  0.7401  3.6877
 4448SOL    HW224978   0.874   2.214   8.523 -1.7065 -1.2826  0.4190
 4449SOL     OW24979   4.237   0.031   7.247 -0.3371 -0.2577  0.6693
 4449SOL    HW124980   4.154   0.052   7.204  1.3644 -0.1982 -2.5800
 4449SOL    HW224981   4.253   0.104   7.307  0.3239  2.1220 -2.3371
 4450SOL     OW24982   1.098   4.175   3.937  0.3211  0.9328  0.4498
 4450SOL    HW124983   1.077   4.230   3.861  2.2801  1.0049 -0.0167
 4450SOL    HW224984   1.186   4.148   3.912  0.5386  1.8229  0.2284
 4451SOL     OW24985   2.851   0.181   2.116  0.4290  0.1291  0.3730
 4451SOL    HW124986   2.765   0.140   2.122  0.2097  0.3733 -0.9889
 4451SOL    HW224987   2.875   0.157   2.026  0.9909 -0.5774  0.7102
 4452SOL     OW24988   0.759   0.847   4.803  0.6022 -0.1623 -0.2957
 4452SOL    HW124989   0.699   0.919   4.781 -0.5583 -0.8988  0.4310
 4452SOL    HW224990   0.814   0.836   4.726 -0.9772 -2.0854 -1.1583
 4453SOL     OW24991   2.060   1.568   7.099 -0.1459 -0.6175 -0.1540
 4453SOL    HW124992   1.970   1.580   7.070 -0.7793 -1.1608  1.5710
 4453SOL    HW224993   2.076   1.474   7.084  1.3052 -0.3542 -0.2807
 4454SOL     OW24994   2.580   1.748  12.494 -0.7369 -0.4794 -0.5233
 4454SOL    HW124995   2.516   1.768  12.562  0.7467  1.0424  0.4265
 4454SOL    HW224996   2.599   1.835  12.458  3.2650 -1.2827 -0.3256
 4455SOL     OW24997   0.929   2.466   5.406 -0.6387 -0.4186  0.5004
 4455SOL    HW124998   0.877   2.400   5.360  0.8336 -1.6735  0.6581
 4455SOL    HW224999   0.867   2.511   5.463  1.3567  0.9227  1.6277
 4456SOL     OW25000   4.491   4.252   9.750 -0.2169  0.3876  0.4532
 4456SOL    HW125001   4.518   4.209   9.832 -0.6597 -1.6067 -0.4579
 4456SOL    HW225002   4.424   4.196   9.713  2.3057 -2.5552  0.3189
 4457SOL     OW25003   2.371   3.133   6.609  0.9000 -0.2720  0.5652
 4457SOL    HW125004   2.381   3.142   6.514 -0.3387  2.0006  0.6425
 4457SOL    HW225005   2.398   3.042   6.620 -1.9576 -1.0727  1.1043
 4458SOL     OW25006   1.157   1.804  15.812  0.0863 -0.3294 -0.0576
 4458SOL    HW125007   1.100   1.756  15.752  1.1705 -0.2164 -1.1587
 4458SOL    HW225008   1.189   1.727  15.860  0.4477  0.5349  1.0942
 4459SOL     OW25009   0.929   0.669   8.144 -0.0608  0.1193 -0.6524
 4459SOL    HW125010   0.922   0.596   8.205 -1.1058  0.5396 -0.2716
 4459SOL    HW225011   1.012   0.706   8.175 -1.3933  0.5915  2.3546
 4460SOL     OW25012   3.910   0.487   1.448  0.6459 -0.3867 -0.0149
 4460SOL    HW125013   3.833   0.542   1.435  0.5039 -0.4163  0.7094
 4460SOL    HW225014   3.963   0.542   1.506 -1.0911  1.0081  0.2562
 4461SOL     OW25015   2.176   1.079   6.898 -0.1612 -0.3131 -0.1452
 4461SOL    HW125016   2.112   1.065   6.827 -0.7529  0.4688  0.2382
 4461SOL    HW225017   2.251   1.072   6.840  0.9499 -0.3028  1.3081
 4462SOL     OW25018   0.264   0.583   1.479 -0.3227  0.5342  0.1426
 4462SOL    HW125019   0.246   0.609   1.389 -1.0163 -0.1198  0.0951
 4462SOL    HW225020   0.241   0.662   1.529  2.9120  0.7597  1.2813
 4463SOL     OW25021   0.435   1.784   8.622 -0.2853  0.5625  0.3321
 4463SOL    HW125022   0.470   1.715   8.566 -2.4039  0.7139 -1.2023
 4463SOL    HW225023   0.374   1.820   8.557 -0.5715 -0.8567 -0.1889
 4464SOL     OW25024   0.575   1.882   0.077  0.3079 -0.2550  0.0695
 4464SOL    HW125025   0.670   1.879   0.067  0.1519  0.8282 -1.6931
 4464SOL    HW225026   0.548   1.926  17.750 -1.2580 -2.1788 -0.4671
 4465SOL     OW25027   4.348   1.457   9.662  0.0125  0.1342 -0.5676
 4465SOL    HW125028   4.415   1.458   9.595 -0.5529  1.3215 -1.1201
 4465SOL    HW225029   4.404   1.445   9.739 -2.6016 -1.0599  1.1430
 4466SOL     OW25030   3.919   3.464   6.720 -0.1048 -0.3527  0.0678
 4466SOL    HW125031   3.965   3.406   6.781  0.2717  0.4864  0.5819
 4466SOL    HW225032   3.989   3.521   6.689 -0.7690  0.7248  0.5641
 4467SOL     OW25033   1.918   4.499   1.172 -0.3498 -0.1718  0.4152
 4467SOL    HW125034   1.960   4.448   1.103  1.1769 -0.7564  1.7766
 4467SOL    HW225035   1.971   4.578   1.163  1.2717 -1.3322 -0.2019
 4468SOL     OW25036   0.339   3.339   6.133  0.2076  0.2833  0.2881
 4468SOL    HW125037   0.303   3.334   6.222  1.5198 -0.7070  0.7730
 4468SOL    HW225038   0.422   3.295   6.147  0.2076 -0.0324 -0.6979
 4469SOL     OW25039   4.444   3.826  11.934 -0.3607  0.0569  0.2622
 4469SOL    HW125040   4.389   3.902  11.919 -0.0622  0.0899 -0.6814
 4469SOL    HW225041   4.535   3.850  11.913 -0.4119  0.6133  0.6751
 4470SOL     OW25042   0.683   2.329  14.754  0.3776  0.7010 -0.0295
 4470SOL    HW125043   0.705   2.418  14.784  1.0669  0.3389  0.5401
 4470SOL    HW225044   0.663   2.344  14.662 -2.2131 -0.7861  0.2947
 4471SOL     OW25045   2.803   0.072  14.179 -0.4530 -0.1357 -0.3289
 4471SOL    HW125046   2.805   0.166  14.160 -3.0828 -0.6234 -2.9285
 4471SOL    HW225047   2.792   0.043  14.089  3.4300 -1.1565 -0.4783
 4472SOL     OW25048   0.646   4.115   5.618 -0.4148  0.1137 -0.5851
 4472SOL    HW125049   0.640   4.193   5.562 -0.7575 -0.0726 -0.8102
 4472SOL    HW225050   0.604   4.134   5.702 -0.4852 -0.5028 -0.4823
 4473SOL     OW25051   2.589   1.151   8.118  0.2640  0.1086 -0.7617
 4473SOL    HW125052   2.655   1.215   8.092 -0.0074  1.9294  3.0608
 4473SOL    HW225053   2.531   1.202   8.175 -0.0679  0.0339 -1.0270
 4474SOL     OW25054   0.079   4.208   8.850 -0.3946  0.3168 -0.0127
 4474SOL    HW125055   0.025   4.254   8.915 -1.5357  1.0372 -1.4873
 4474SOL    HW225056   0.031   4.128   8.830  0.4385 -0.7914  2.4436
 4475SOL     OW25057   3.200   0.135   5.355 -0.1844  0.1884 -0.0063
 4475SOL    HW125058   3.214   0.218   5.311 -0.0109 -0.9031 -2.0187
 4475SOL    HW225059   3.287   0.105   5.383  0.4466  1.7771 -0.3028
 4476SOL     OW25060   2.223   0.600  12.921 -0.0346 -0.5981  0.7401
 4476SOL    HW125061   2.236   0.519  12.872  1.1358  0.1693 -0.2081
 4476SOL    HW225062   2.311   0.636  12.908 -0.1109 -0.8816 -0.5883
 4477SOL     OW25063   2.735   1.304  17.438  0.0705 -0.1660 -0.4552
 4477SOL    HW125064   2.722   1.306  17.343 -1.2101 -0.1332 -0.2772
 4477SOL    HW225065   2.785   1.383  17.458 -0.3915 -0.3288  1.3637
 4478SOL     OW25066   1.412   3.403   3.447  0.0755 -0.1833 -0.1875
 4478SOL    HW125067   1.393   3.487   3.490 -2.2226 -1.2002  0.7777
 4478SOL    HW225068   1.350   3.342   3.485  0.4322 -0.1936  0.3704
 4479SOL     OW25069   3.931   0.445   1.051  0.4868 -0.6470  0.9684
 4479SOL    HW125070   3.910   0.352   1.043  0.0504 -0.7991  3.8088
 4479SOL    HW225071   3.988   0.443   1.128  1.2005 -0.9920  0.4328
 4480SOL     OW25072   3.237   1.949  16.490  1.0308 -1.0602  0.1482
 4480SOL    HW125073   3.312   2.001  16.517 -0.3043  0.2508  1.3500
 4480SOL    HW225074   3.249   1.861  16.526  0.1706 -0.6471  1.4509
 4481SOL     OW25075   2.257   0.757   3.560  0.1253  0.1255 -0.6287
 4481SOL    HW125076   2.268   0.841   3.605  2.5046 -0.0131 -0.9544
 4481SOL    HW225077   2.162   0.759   3.564  0.3014 -0.4454  3.8472
 4482SOL     OW25078   0.332   1.759   6.486  0.6305  0.3342  0.6501
 4482SOL    HW125079   0.269   1.830   6.471 -0.7387 -1.0804 -0.1996
 4482SOL    HW225080   0.380   1.787   6.408  1.2122 -3.6140 -0.3660
 4483SOL     OW25081   2.224   4.708  10.198 -0.0137 -0.2766 -0.4328
 4483SOL    HW125082   2.194   4.628  10.242  1.3380 -0.2598  0.5000
 4483SOL    HW225083   2.222   4.681  10.106  2.2298  0.9070 -0.8198
 4484SOL     OW25084   1.996   4.406   2.706 -0.1689  0.0195  0.2827
 4484SOL    HW125085   1.908   4.423   2.672 -0.5391 -2.8358 -0.1906
 4484SOL    HW225086   2.047   4.416   2.625  1.2394  0.0921  1.1746
 4485SOL     OW25087   2.202   3.238   7.464 -0.4111 -0.0024  0.1465
 4485SOL    HW125088   2.186   3.268   7.554 -0.6297 -1.7456  0.6799
 4485SOL    HW225089   2.156   3.154   7.465 -0.8118  0.2175  0.3372
 4486SOL     OW25090   1.461   1.889   1.451  0.2963  0.8948  0.4844
 4486SOL    HW125091   1.453   1.976   1.411 -2.6508 -0.4729 -1.9352
 4486SOL    HW225092   1.441   1.897   1.544  0.8326 -1.2298  0.7720
 4487SOL     OW25093   2.013   4.608   5.126  0.2859  0.3231 -0.2780
 4487SOL    HW125094   2.058   4.667   5.186 -0.1481  2.2130 -1.8374
 4487SOL    HW225095   1.969   4.546   5.185 -1.6089  1.3201 -0.6527
 4488SOL     OW25096   3.513   3.796   3.046 -0.0312 -0.0356  0.1941
 4488SOL    HW125097   3.449   3.811   3.116  0.5348 -1.6611  1.0539
 4488SOL    HW225098   3.596   3.802   3.093  1.0742 -1.3939 -1.5938
 4489SOL     OW25099   2.235   3.535   8.472  0.4824 -0.2496  0.3891
 4489SOL    HW125100   2.228   3.524   8.377 -1.9569  2.0290  0.3131
 4489SOL    HW225101   2.329   3.546   8.479  0.2514  2.0707 -0.2720
 4490SOL     OW25102   4.545   4.558  12.747  0.1699  0.0010  0.3301
 4490SOL    HW125103   4.483   4.529  12.814 -0.0154  2.1090  1.0452
 4490SOL    HW225104   4.549   4.652  12.759 -0.8093  0.2314 -1.1021
 4491SOL     OW25105   3.399   1.524   7.462 -0.7020 -0.2564  0.1369
 4491SOL    HW125106   3.472   1.582   7.483 -0.9270  1.0544 -2.7484
 4491SOL    HW225107   3.332   1.584   7.430  1.6132  1.3835 -1.6629
 4492SOL     OW25108   2.957   0.264   2.469 -0.1560  0.5572 -0.2090
 4492SOL    HW125109   2.930   0.236   2.382  1.7308 -0.9535 -0.3178
 4492SOL    HW225110   2.955   0.181   2.517  1.4585 -0.3102 -1.6330
 4493SOL     OW25111   0.506   2.725   4.421 -0.1661  0.1311 -0.0915
 4493SOL    HW125112   0.476   2.641   4.456  0.0219 -0.7605 -2.0648
 4493SOL    HW225113   0.570   2.694   4.357 -1.3468  0.5146 -1.4399
 4494SOL     OW25114   4.180   1.468  14.761 -0.0747 -0.1820  0.4213
 4494SOL    HW125115   4.137   1.413  14.696  0.8434 -0.1945 -0.1855
 4494SOL    HW225116   4.258   1.494  14.712  0.0084 -0.1447  0.5720
 4495SOL     OW25117   4.596   3.163  14.679 -0.5193 -0.0888  0.2844
 4495SOL    HW125118   4.634   3.157  14.592  0.2748 -0.3866  0.6482
 4495SOL    HW225119   4.575   3.257  14.679  1.2750  0.3220  2.4809
 4496SOL     OW25120   2.461   0.581   6.083 -0.2803 -0.2647  0.2333
 4496SOL    HW125121   2.391   0.552   6.025 -0.5294 -2.1316  1.4653
 4496SOL    HW225122   2.446   0.522   6.157  1.6853 -3.0958 -1.6466
 4497SOL     OW25123   3.394   1.311   4.635  0.0706  0.0899  0.0545
 4497SOL    HW125124   3.392   1.315   4.731  1.7952  1.8603  0.0146
 4497SOL    HW225125   3.303   1.288   4.621 -0.5135  1.6417  1.2885
 4498SOL     OW25126   2.278   2.660  12.832 -0.0029  0.9648 -0.1174
 4498SOL    HW125127   2.321   2.627  12.753  0.0287  1.5833 -0.3549
 4498SOL    HW225128   2.237   2.579  12.862 -0.7906  0.8973 -1.3919
 4499SOL     OW25129   2.653   4.090  10.727 -0.1038 -0.0655  0.3854
 4499SOL    HW125130   2.606   4.094  10.811 -0.3495  0.6905  0.2160
 4499SOL    HW225131   2.596   4.025  10.686 -1.2188  0.4630  1.0841
 4500SOL     OW25132   3.984   2.006   8.022  0.5682  0.0255  0.0292
 4500SOL    HW125133   4.074   1.985   8.045  0.8667  0.6845 -0.5165
 4500SOL    HW225134   3.949   2.015   8.110  0.5936 -0.1273  0.0536
 4501SOL     OW25135   0.819   1.206   1.818  0.1448 -0.1544  0.0018
 4501SOL    HW125136   0.778   1.278   1.770 -0.7084 -0.5781  0.1005
 4501SOL    HW225137   0.750   1.139   1.816 -0.3246  0.4006 -1.7425
 4502SOL     OW25138   3.215   1.945   8.773  0.2496 -0.7215  0.2653
 4502SOL    HW125139   3.241   1.887   8.702 -2.0016 -2.7407  1.0804
 4502SOL    HW225140   3.135   1.901   8.803 -1.4421  1.4167 -1.1428
 4503SOL     OW25141   3.743   3.784   8.180  0.2020  0.9099 -0.0907
 4503SOL    HW125142   3.682   3.813   8.112 -1.7356  1.2468  1.7711
 4503SOL    HW225143   3.818   3.841   8.163 -3.0668  5.7619  1.7521
 4504SOL     OW25144   2.339   0.149   1.800 -0.7459 -0.4581 -0.4452
 4504SOL    HW125145   2.366   0.103   1.879  1.0877 -0.4380 -1.0760
 4504SOL    HW225146   2.418   0.128   1.750  1.5657  1.7762  2.3114
 4505SOL     OW25147   0.874   2.144  14.805 -0.4074 -0.1016  0.1285
 4505SOL    HW125148   0.862   2.116  14.714  2.8061  0.2291 -0.3779
 4505SOL    HW225149   0.807   2.212  14.795  0.1526  0.2657 -1.1717
 4506SOL     OW25150   3.369   4.209   4.477 -0.6171  0.5780  0.0568
 4506SOL    HW125151   3.320   4.210   4.559 -0.6118 -1.1238  0.0803
 4506SOL    HW225152   3.460   4.194   4.504 -0.8748 -0.9399  0.0729
 4507SOL     OW25153   4.726   2.500   0.040  0.5150  0.1061 -0.3014
 4507SOL    HW125154   4.718   2.566   0.109  0.1010  0.2075 -0.4463
 4507SOL    HW225155   4.648   2.524  17.744  0.5551 -0.7621 -0.7815
 4508SOL     OW25156   4.341   0.925   5.906 -0.0089  0.0530 -0.1834
 4508SOL    HW125157   4.368   0.942   5.815 -2.1043  2.1374 -0.4080
 4508SOL    HW225158   4.256   0.886   5.886 -0.4164  0.4485  0.8265
 4509SOL     OW25159   4.464   4.335   5.492  0.3394  0.1328 -0.1208
 4509SOL    HW125160   4.507   4.402   5.438 -3.4531  2.2041 -0.5805
 4509SOL    HW225161   4.419   4.385   5.561  0.1837  1.1394 -0.9448
 4510SOL     OW25162   3.271   3.346   2.335  0.0596  0.0172 -0.5592
 4510SOL    HW125163   3.319   3.380   2.410 -0.1642 -2.1332  0.5682
 4510SOL    HW225164   3.208   3.416   2.315  0.3930  0.1133 -1.2981
 4511SOL     OW25165   4.417   0.224   3.927  0.1172  0.6835 -0.0619
 4511SOL    HW125166   4.351   0.157   3.909  0.1046 -0.0238  2.5388
 4511SOL    HW225167   4.490   0.162   3.925  1.7959  2.6443 -0.0194
 4512SOL     OW25168   4.731   1.512   5.525 -0.5866 -0.1285  0.2386
 4512SOL    HW125169   4.706   1.509   5.433  0.0681  0.8275  0.0287
 4512SOL    HW225170   0.045   1.591   5.522 -0.4069 -0.0980  3.9515
 4513SOL     OW25171   1.900   0.108   6.018  0.2706 -0.2185  0.3284
 4513SOL    HW125172   1.933   0.060   6.094 -0.2251 -0.0078  0.6725
 4513SOL    HW225173   1.968   0.075   5.959 -0.7822 -1.8619 -0.0010
 4514SOL     OW25174   2.885   0.089   3.260 -0.4629  0.3665  0.3234
 4514SOL    HW125175   2.967   0.135   3.242  0.3665 -1.9426 -1.7699
 4514SOL    HW225176   2.852   0.063   3.174 -0.7839 -1.6297  1.0427
 4515SOL     OW25177   0.434   2.048   4.679 -0.3520  0.1679 -0.2771
 4515SOL    HW125178   0.471   2.114   4.737  1.0660 -0.2879 -0.6479
 4515SOL    HW225179   0.475   1.970   4.717  0.2223  0.3593 -0.5057
 4516SOL     OW25180   3.846   3.144  17.419  0.0017 -0.5237  0.2300
 4516SOL    HW125181   3.867   3.148  17.512  0.8565  1.3036 -0.0257
 4516SOL    HW225182   3.767   3.092  17.409 -0.3309 -0.3910  2.1581
 4517SOL     OW25183   4.199   4.540   2.065 -0.5419 -0.4486 -0.8238
 4517SOL    HW125184   4.289   4.558   2.038 -0.4431 -0.6558 -0.6290
 4517SOL    HW225185   4.163   4.628   2.075 -0.6715 -0.3792 -1.8778
 4518SOL     OW25186   3.269   1.333   6.438  0.3156 -0.3191 -0.0890
 4518SOL    HW125187   3.231   1.254   6.478  0.5506 -0.0724  0.6096
 4518SOL    HW225188   3.219   1.344   6.357  1.3914  1.3026 -0.5265
 4519SOL     OW25189   1.746   1.192   8.677  0.3038 -0.2482 -0.0765
 4519SOL    HW125190   1.813   1.156   8.736 -0.0363 -0.6520  0.0639
 4519SOL    HW225191   1.738   1.279   8.718 -0.0722  0.1484 -0.9927
 4520SOL     OW25192   2.567   3.798   7.357  0.0914  0.0628  0.1748
 4520SOL    HW125193   2.550   3.760   7.443  1.8126 -0.3934  0.3171
 4520SOL    HW225194   2.588   3.885   7.390 -3.9353  0.9242  0.4896
 4521SOL     OW25195   4.211   4.081   7.678 -0.2919  0.3826 -0.1887
 4521SOL    HW125196   4.136   4.023   7.671  0.2622 -0.3745  0.1662
 4521SOL    HW225197   4.258   4.058   7.598  0.7267 -1.3548  0.9119
 4522SOL     OW25198   2.703   1.022   9.298  0.2210 -0.1261 -0.6339
 4522SOL    HW125199   2.647   0.973   9.239 -1.2719 -1.8325  2.1923
 4522SOL    HW225200   2.663   0.994   9.381  1.4332 -2.4773 -0.8423
 4523SOL     OW25201   1.343   0.863   6.206  0.0038 -0.2989 -0.6401
 4523SOL    HW125202   1.308   0.793   6.260 -1.0637 -0.3555 -1.4145
 4523SOL    HW225203   1.438   0.858   6.218 -0.6216  0.9524  4.9343
 4524SOL     OW25204   1.655   2.720   8.139 -0.3268 -0.1571  0.2099
 4524SOL    HW125205   1.722   2.778   8.175  0.1392 -0.0390 -0.8448
 4524SOL    HW225206   1.703   2.640   8.117 -3.1015 -1.6291 -0.4817
 4525SOL     OW25207   2.314   3.994  12.032 -0.1457  1.1026  1.1407
 4525SOL    HW125208   2.394   3.992  12.083 -0.0376 -1.1307  0.8574
 4525SOL    HW225209   2.288   3.902  12.032 -0.1849  1.1114  0.5606
 4526SOL     OW25210   1.949   4.152   7.906 -0.1498 -0.4725  0.7816
 4526SOL    HW125211   1.921   4.167   7.816  0.3173  1.5333  0.9704
 4526SOL    HW225212   2.043   4.166   7.907 -0.0355 -1.2347 -0.2004
 4527SOL     OW25213   4.334   2.688   4.625  0.3646 -0.1853 -0.8938
 4527SOL    HW125214   4.271   2.627   4.665 -0.3017 -0.3135 -2.1418
 4527SOL    HW225215   4.281   2.767   4.616 -1.7138 -1.4448  0.1867
 4528SOL     OW25216   4.166   3.641   6.110 -0.1902 -0.0632  0.1901
 4528SOL    HW125217   4.100   3.603   6.167  0.8956  0.2846  1.6596
 4528SOL    HW225218   4.239   3.585   6.137 -0.0458 -0.9961 -2.1456
 4529SOL     OW25219   2.201   2.540   4.803 -0.6333 -0.6766 -0.0256
 4529SOL    HW125220   2.240   2.452   4.799 -2.2820 -1.3581 -1.0383
 4529SOL    HW225221   2.259   2.584   4.865  0.7390 -2.5463  0.0342
 4530SOL     OW25222   0.790   4.229  13.073  0.4098  0.2231  0.0833
 4530SOL    HW125223   0.808   4.280  12.993  0.5263 -0.3859 -0.2749
 4530SOL    HW225224   0.754   4.149  13.035  1.7908 -0.8817  1.0904
 4531SOL     OW25225   3.817   0.805  10.629  0.4348 -0.0543 -0.0003
 4531SOL    HW125226   3.837   0.887  10.673 -1.0262 -0.3927  1.2770
 4531SOL    HW225227   3.766   0.756  10.693  0.4679 -0.3109 -0.1670
 4532SOL     OW25228   2.412   4.190   6.726  0.2023 -0.4745 -0.4263
 4532SOL    HW125229   2.340   4.140   6.687 -0.4076  0.3496 -0.3473
 4532SOL    HW225230   2.441   4.246   6.654  0.3917 -0.1551 -0.1003
 4533SOL     OW25231   3.614   4.182   2.084  0.0961 -0.1462 -0.0456
 4533SOL    HW125232   3.601   4.088   2.099 -1.1296  0.1401  0.7123
 4533SOL    HW225233   3.630   4.201   2.176  1.0525  0.8120 -0.4145
 4534SOL     OW25234   2.873   2.707   8.850 -0.4335  0.2318 -0.1790
 4534SOL    HW125235   2.880   2.656   8.930  0.4025 -1.0576 -1.0807
 4534SOL    HW225236   2.957   2.707   8.804 -1.2997 -0.6972 -1.7596
 4535SOL     OW25237   0.583   0.580   8.687  0.2782 -0.1628  0.3419
 4535SOL    HW125238   0.644   0.511   8.666 -0.3979 -1.1436  1.5680
 4535SOL    HW225239   0.567   0.569   8.781 -0.3394 -2.2480 -0.0174
 4536SOL     OW25240   2.854   0.081  14.848  0.0437 -0.0696  0.2998
 4536SOL    HW125241   2.781   0.024  14.823  0.8515 -0.1725 -1.8520
 4536SOL    HW225242   2.856   0.131  14.766 -1.3898 -0.0087  0.2976
 4537SOL     OW25243   3.617   3.179  12.298  0.4822  0.1579 -0.1337
 4537SOL    HW125244   3.650   3.093  12.324  0.5081 -0.0099 -0.7247
 4537SOL    HW225245   3.613   3.177  12.202  0.2659  3.0807 -0.2048
 4538SOL     OW25246   1.563   4.323  10.826 -0.0786 -0.6496 -0.3856
 4538SOL    HW125247   1.586   4.350  10.915  2.3778  1.1086 -1.5582
 4538SOL    HW225248   1.642   4.278  10.793  0.8493  0.2713  0.5844
 4539SOL     OW25249   0.985   0.904  13.172  0.0236 -0.2101 -0.3320
 4539SOL    HW125250   1.063   0.885  13.224 -1.4307  0.2990  2.0287
 4539SOL    HW225251   1.022   0.934  13.089 -0.4209  3.4035  0.7765
 4540SOL     OW25252   3.657   1.125   7.787  1.4742  0.6423  0.1186
 4540SOL    HW125253   3.726   1.187   7.762  0.2397  1.6752 -0.6881
 4540SOL    HW225254   3.670   1.115   7.881 -3.2923 -1.1482  0.5774
 4541SOL     OW25255   0.518   1.668  12.074 -0.5316 -0.3856  0.0445
 4541SOL    HW125256   0.485   1.686  12.162  0.3654 -1.8618  0.6734
 4541SOL    HW225257   0.521   1.573  12.084 -0.3154 -0.2481  1.3642
 4542SOL     OW25258   3.718   3.393   3.118 -0.0790 -0.0445  0.1073
 4542SOL    HW125259   3.740   3.346   3.038 -0.1689 -1.4432  0.9144
 4542SOL    HW225260   3.657   3.328   3.154  0.8645 -0.9767  0.0009
 4543SOL     OW25261   2.731   2.607   8.513  0.4529  0.4481 -0.0747
 4543SOL    HW125262   2.684   2.661   8.577 -1.8824  0.1210 -1.4899
 4543SOL    HW225263   2.659   2.548   8.488  0.0859  0.6753  0.4397
 4544SOL     OW25264   1.657   0.643   7.377  0.0284 -0.3602 -0.5336
 4544SOL    HW125265   1.672   0.595   7.459 -1.6527  0.2077  0.0924
 4544SOL    HW225266   1.747   0.665   7.350  0.2294 -1.7874 -1.0270
 4545SOL     OW25267   1.456   4.669  14.249 -0.0622  0.3385 -0.5417
 4545SOL    HW125268   1.368   4.682  14.214 -0.9726 -2.4507  0.6935
 4545SOL    HW225269   1.501   4.645  14.167 -2.1242 -0.1885 -1.5247
 4546SOL     OW25270   4.067   1.762  15.873  0.3365  0.5383 -0.7818
 4546SOL    HW125271   4.152   1.807  15.869  0.7895 -0.4468 -2.1686
 4546SOL    HW225272   4.091   1.671  15.890  1.4489  0.6568 -1.6764
 4547SOL     OW25273   1.672   2.417   8.944 -0.0133  0.1370 -0.0127
 4547SOL    HW125274   1.675   2.509   8.917 -0.5259  0.4490  0.9825
 4547SOL    HW225275   1.757   2.395   8.982 -0.7055 -0.6028  1.0980
 4548SOL     OW25276   3.415   4.230   1.514  0.3630  0.6160 -0.3585
 4548SOL    HW125277   3.327   4.247   1.482  1.5009  2.9559 -2.2598
 4548SOL    HW225278   3.411   4.295   1.585 -2.3221  0.9608 -0.8308
 4549SOL     OW25279   2.689   4.063  17.284 -0.0058  0.4284  0.5761
 4549SOL    HW125280   2.757   4.099  17.228 -1.0308  1.5022  0.0096
 4549SOL    HW225281   2.689   3.969  17.268 -1.4092  0.5809 -0.4161
 4550SOL     OW25282   0.090   3.857   0.129  0.0436 -0.4184  0.1601
 4550SOL    HW125283   0.017   3.915   0.149 -0.2039 -1.0569  1.0529
 4550SOL    HW225284   0.050   3.780   0.169 -0.4357  0.2603  0.9892
 4551SOL     OW25285   4.588   1.320   6.804  0.3994 -0.3716  0.1889
 4551SOL    HW125286   4.501   1.351   6.830  0.5887  0.7405 -0.4688
 4551SOL    HW225287   4.560   1.311   6.713 -0.5155 -0.4294  0.4755
 4552SOL     OW25288   2.455   3.894  10.664 -0.1241  0.1464 -0.3246
 4552SOL    HW125289   2.428   3.813  10.621 -0.2282 -0.4880  0.9074
 4552SOL    HW225290   2.453   3.856  10.752 -0.8626  1.5721  0.2760
 4553SOL     OW25291   0.806   1.596   4.771 -0.1375  0.1663 -0.4047
 4553SOL    HW125292   0.746   1.522   4.778  0.9290 -0.8161 -1.6185
 4553SOL    HW225293   0.811   1.624   4.862  0.2323  0.5068 -0.5299
 4554SOL     OW25294   4.360   1.651   9.207  0.5539 -0.1915  0.3361
 4554SOL    HW125295   4.447   1.672   9.241  0.3803  0.4596  0.3774
 4554SOL    HW225296   4.297   1.697   9.263  2.1602  0.4690  1.5913
 4555SOL     OW25297   1.594   4.604   5.497  0.3898  0.5075 -0.0977
 4555SOL    HW125298   1.556   4.564   5.418 -1.5566  1.1497  0.5031
 4555SOL    HW225299   1.657   4.545   5.538 -0.0309  0.4723  0.4833
 4556SOL     OW25300   1.567   0.723   3.906  0.3215  0.1458  1.1186
 4556SOL    HW125301   1.495   0.730   3.969  1.3837  4.0765  1.8743
 4556SOL    HW225302   1.503   0.727   3.835 -1.8878  3.1375  3.2915
 4557SOL     OW25303   1.242   0.557   7.430 -0.2721 -0.3771  0.6337
 4557SOL    HW125304   1.238   0.638   7.379 -1.5282 -0.6257  0.3413
 4557SOL    HW225305   1.280   0.593   7.511 -1.1736  1.8980  0.0475
 4558SOL     OW25306   1.308   3.972  16.826  0.1736  0.1320  0.0391
 4558SOL    HW125307   1.316   3.903  16.759 -1.7975  1.4763 -1.5902
 4558SOL    HW225308   1.223   3.958  16.867  1.7803 -1.7002  2.6891
 4559SOL     OW25309   0.401   3.901   6.051  0.0051  0.1502 -0.1986
 4559SOL    HW125310   0.371   3.813   6.074 -2.0002  1.4844  2.3461
 4559SOL    HW225311   0.475   3.867   6.000 -0.9964 -0.4110 -1.2539
 4560SOL     OW25312   4.595   1.468  14.685  0.2249 -0.3944  0.3535
 4560SOL    HW125313   4.628   1.410  14.754  2.1609 -3.0723 -2.7943
 4560SOL    HW225314   4.677   1.501  14.648  0.0692  0.8512  1.1108
 4561SOL     OW25315   4.033   1.516   5.378 -0.3971 -0.1066 -0.1471
 4561SOL    HW125316   3.967   1.507   5.447 -2.4449  0.9401 -1.9995
 4561SOL    HW225317   4.079   1.432   5.377 -0.8897 -0.3772  0.2207
 4562SOL     OW25318   1.453   0.126  17.366 -0.3385  0.2196  0.4709
 4562SOL    HW125319   1.409   0.096  17.446 -2.0658  1.6356  0.0495
 4562SOL    HW225320   1.416   0.214  17.367 -0.3952  0.2047 -0.8072
 4563SOL     OW25321   0.897   3.301   8.410 -0.1399  0.3000  0.2409
 4563SOL    HW125322   0.842   3.268   8.338  0.1328  0.4053 -0.0128
 4563SOL    HW225323   0.882   3.237   8.480 -0.8040  1.0524  0.7912
 4564SOL     OW25324   3.030   4.575   6.256  0.4552  0.2791  0.0582
 4564SOL    HW125325   2.976   4.651   6.234  2.1854  1.8739  1.2723
 4564SOL    HW225326   2.962   4.508   6.256 -0.6447  1.3581  3.7274
 4565SOL     OW25327   1.304   0.748   9.132  0.3058  0.5710  0.0486
 4565SOL    HW125328   1.256   0.723   9.211 -0.8253  1.2027 -0.4245
 4565SOL    HW225329   1.392   0.738   9.168 -0.0591  1.8753  1.2946
 4566SOL     OW25330   0.210   4.052  10.523  0.7620  0.1723 -0.8791
 4566SOL    HW125331   0.200   4.122  10.458  3.0389  0.3268 -1.0676
 4566SOL    HW225332   0.188   3.972  10.474  1.7922 -0.7849  0.2453
 4567SOL     OW25333   2.410   0.905   1.566 -0.4238  0.5447  0.1331
 4567SOL    HW125334   2.420   0.828   1.622  0.2276 -0.9316 -2.0208
 4567SOL    HW225335   2.423   0.975   1.630 -1.2945  0.3567  0.5245
 4568SOL     OW25336   4.049   0.527   1.708 -0.4889 -0.1402  0.8474
 4568SOL    HW125337   4.077   0.509   1.798  0.0686 -1.7437  0.3566
 4568SOL    HW225338   4.014   0.614   1.726 -0.9123 -0.7971  3.2896
 4569SOL     OW25339   2.390   3.905   8.720  0.0036 -0.1491  0.0710
 4569SOL    HW125340   2.297   3.928   8.715  0.3944  1.1988 -0.9913
 4569SOL    HW225341   2.424   3.955   8.794 -0.2897 -0.1132  0.1796
 4570SOL     OW25342   1.699   2.787   2.415  0.2612 -0.2941 -0.5027
 4570SOL    HW125343   1.748   2.858   2.374  1.2810 -0.4132  0.5259
 4570SOL    HW225344   1.689   2.820   2.504 -1.3135 -0.8740 -0.4581
 4571SOL     OW25345   2.645   0.042   2.457 -0.6330  0.0599 -0.2999
 4571SOL    HW125346   2.640   0.137   2.446  0.9965  0.3010  1.0619
 4571SOL    HW225347   2.556   0.015   2.483 -0.2356 -1.2191 -0.2653
 4572SOL     OW25348   3.322   1.237   5.424 -0.3002 -0.1102  0.5646
 4572SOL    HW125349   3.393   1.175   5.441 -0.9290 -0.8695  0.4438
 4572SOL    HW225350   3.288   1.246   5.513  1.7913  1.7682  1.1589
 4573SOL     OW25351   1.795   1.541   2.330  0.0666 -0.1667 -0.4646
 4573SOL    HW125352   1.747   1.506   2.405  1.0964  0.3769  0.4425
 4573SOL    HW225353   1.736   1.615   2.316  0.1849  0.1156  0.5546
 4574SOL     OW25354   3.962   3.824   3.740  0.4143 -0.1154 -0.0694
 4574SOL    HW125355   4.021   3.860   3.806 -2.2172 -0.5226  2.5017
 4574SOL    HW225356   3.995   3.877   3.667 -0.8706 -1.0992 -1.3739
 4575SOL     OW25357   0.191   4.392  17.492  0.4985  0.2207 -0.2882
 4575SOL    HW125358   0.192   4.484  17.464 -4.0524  0.4921  0.3625
 4575SOL    HW225359   0.220   4.346  17.413 -1.5686  0.4060 -1.1795
 4576SOL     OW25360   4.435   2.291   2.430 -0.3772 -0.2580  0.6141
 4576SOL    HW125361   4.484   2.211   2.408 -1.7201 -0.8429 -0.2292
 4576SOL    HW225362   4.347   2.258   2.445  0.0977 -1.1244  1.5283
 4577SOL     OW25363   4.624   4.254   3.099  0.4847 -0.3752  0.0591
 4577SOL    HW125364   4.696   4.241   3.036  0.7002 -0.3205  0.2951
 4577SOL    HW225365   4.595   4.343   3.077 -0.0616 -0.6389 -0.2784
 4578SOL     OW25366   0.158   4.067   6.050 -0.5899 -0.3764 -0.8307
 4578SOL    HW125367   0.209   4.103   5.978  0.7690 -2.9751 -1.1558
 4578SOL    HW225368   0.200   3.981   6.054  0.1438  0.0054 -0.3793
 4579SOL     OW25369   2.360   0.886   1.261 -0.2845  0.4009  0.6699
 4579SOL    HW125370   2.272   0.853   1.278 -0.3977  0.8736  0.9914
 4579SOL    HW225371   2.385   0.921   1.347 -2.2334  2.0668  0.5696
 4580SOL     OW25372   1.724   1.050   4.045  0.2271 -0.1722 -0.5870
 4580SOL    HW125373   1.799   1.026   4.100  0.7034  0.1966 -1.0708
 4580SOL    HW225374   1.762   1.117   3.988  3.2416 -1.8334 -0.5455
 4581SOL     OW25375   3.470   1.168   3.394  0.1677  0.6656  0.0563
 4581SOL    HW125376   3.504   1.255   3.417  0.6439  0.3125  0.6836
 4581SOL    HW225377   3.536   1.116   3.440 -0.5837 -0.8934 -0.6261
 4582SOL     OW25378   3.797   0.985   3.309 -0.1818 -0.8699  0.0141
 4582SOL    HW125379   3.728   0.979   3.244  0.4890 -1.6162 -0.6233
 4582SOL    HW225380   3.752   1.004   3.392 -0.3738 -1.0575 -0.0484
 4583SOL     OW25381   4.245   0.388   8.538  0.2492 -0.4034 -0.2057
 4583SOL    HW125382   4.164   0.345   8.511  0.0894 -0.1862 -0.0698
 4583SOL    HW225383   4.315   0.325   8.520  0.4677 -0.0902 -0.4471
 4584SOL     OW25384   4.637   0.102   6.034 -0.2009 -0.4932  0.2282
 4584SOL    HW125385   4.709   0.121   5.974 -0.2982 -0.9198 -0.0255
 4584SOL    HW225386   4.662   0.160   6.106 -0.9513 -0.3785  0.3898
 4585SOL     OW25387   3.621   3.904   6.374  0.3000 -0.2228 -0.0820
 4585SOL    HW125388   3.617   3.997   6.353  0.0783 -0.7383 -2.2850
 4585SOL    HW225389   3.574   3.900   6.458 -1.2659  2.5024 -0.8285
 4586SOL     OW25390   3.644   2.532   9.687 -0.3822  0.3449  0.2557
 4586SOL    HW125391   3.591   2.472   9.635 -1.9720  1.9459  0.0269
 4586SOL    HW225392   3.598   2.535   9.771  0.2513  0.1543  0.6099
 4587SOL     OW25393   2.508   3.235   5.190 -0.0014 -0.3764  0.5278
 4587SOL    HW125394   2.441   3.303   5.190  0.0209 -0.3602 -0.7149
 4587SOL    HW225395   2.512   3.223   5.285  1.5878 -0.1560  0.5006
 4588SOL     OW25396   1.178   3.973   7.679  0.3028 -0.1777  0.0565
 4588SOL    HW125397   1.215   4.057   7.653 -0.7219  0.2003 -0.1930
 4588SOL    HW225398   1.237   3.912   7.635  0.4281  0.9491 -1.3252
 4589SOL     OW25399   0.597   3.616   9.308  0.5718  0.3322 -0.8216
 4589SOL    HW125400   0.557   3.661   9.383  1.2491 -0.4231 -0.0179
 4589SOL    HW225401   0.623   3.530   9.340  0.5430  0.5481 -0.2106
 4590SOL     OW25402   3.634   0.156  14.472  0.0738 -0.2689  0.3911
 4590SOL    HW125403   3.579   0.206  14.532  2.0135  1.4859  0.7013
 4590SOL    HW225404   3.713   0.211  14.472  1.6599 -2.5439  1.2243
 4591SOL     OW25405   1.560   0.818   0.487 -0.1300 -0.0342 -0.3431
 4591SOL    HW125406   1.628   0.883   0.468 -0.6793  1.2057  1.8256
 4591SOL    HW225407   1.586   0.736   0.446 -2.0695 -1.3507  1.0318
 4592SOL     OW25408   3.089   2.578   5.462  0.2981  0.6627  0.2039
 4592SOL    HW125409   3.140   2.611   5.536  2.2690  0.2420 -0.9733
 4592SOL    HW225410   3.058   2.659   5.422  1.4317  1.4470  0.9102
 4593SOL     OW25411   1.005   2.523   6.009 -0.1938  0.4271  0.1509
 4593SOL    HW125412   0.937   2.464   5.974  0.2188  1.0706 -1.7286
 4593SOL    HW225413   1.052   2.541   5.927  1.1125 -1.1681  0.5482
 4594SOL     OW25414   1.917   2.677   9.229  0.2552  0.2282 -0.3142
 4594SOL    HW125415   1.827   2.668   9.262  0.9411  0.7938  1.6951
 4594SOL    HW225416   1.938   2.767   9.255 -1.1450 -0.1229  2.0970
 4595SOL     OW25417   0.864   1.217   2.455  0.2638 -0.2014  0.5694
 4595SOL    HW125418   0.891   1.297   2.410 -2.5184  0.3122 -0.2371
 4595SOL    HW225419   0.770   1.237   2.463 -0.1475 -0.7391 -2.8288
 4596SOL     OW25420   0.108   3.796   2.072  0.0589 -0.0950  0.1580
 4596SOL    HW125421   0.055   3.796   1.992  1.1280  0.6210 -0.5468
 4596SOL    HW225422   0.144   3.885   2.068 -1.1404  0.3596 -0.8023
 4597SOL     OW25423   0.285   4.721  12.682  0.8559 -0.0794  0.4270
 4597SOL    HW125424   0.234   4.695  12.758 -0.9973  0.0408 -0.7766
 4597SOL    HW225425   0.365   4.674  12.704  0.1867 -1.4928 -0.1859
 4598SOL     OW25426   4.106   2.279   4.507 -0.1047 -0.0710  0.1100
 4598SOL    HW125427   4.029   2.227   4.483 -0.0597  0.3194 -0.8961
 4598SOL    HW225428   4.157   2.217   4.558  0.0174  2.1030  2.6624
 4599SOL     OW25429   3.089   1.467  10.178  0.4535 -0.4764 -0.3145
 4599SOL    HW125430   3.045   1.498  10.099  1.1868 -0.5466 -0.7496
 4599SOL    HW225431   3.162   1.528  10.178  1.3210 -1.5124 -0.7077
 4600SOL     OW25432   3.156   2.165  16.950  0.6675  0.2475 -0.0799
 4600SOL    HW125433   3.066   2.197  16.944 -0.1827 -2.1897 -0.5023
 4600SOL    HW225434   3.175   2.133  16.861  0.6477 -0.7672  0.2730
 4601SOL     OW25435   0.303   1.654  16.276 -0.4359  0.5092  0.1347
 4601SOL    HW125436   0.251   1.602  16.338 -0.0542  0.8057  0.6984
 4601SOL    HW225437   0.373   1.685  16.333  0.3199  0.6557 -0.8782
 4602SOL     OW25438   2.891   3.236   1.707 -0.1629  0.9728 -0.2918
 4602SOL    HW125439   2.870   3.159   1.653 -0.5485  0.7592  0.1600
 4602SOL    HW225440   2.809   3.238   1.756  1.3024  0.0002  2.2387
 4603SOL     OW25441   4.034   4.446   8.504 -0.0504  0.4044  0.5043
 4603SOL    HW125442   3.986   4.428   8.423  0.8788 -1.4117  0.3713
 4603SOL    HW225443   4.013   4.368   8.555  0.8731 -1.5309 -2.0628
 4604SOL     OW25444   4.367   3.509   6.598  0.1873 -0.9361 -0.3127
 4604SOL    HW125445   4.461   3.498   6.609  0.1756 -1.0020 -0.2779
 4604SOL    HW225446   4.320   3.426   6.587 -1.3403 -0.5964  3.5371
 4605SOL     OW25447   2.303   3.168   6.898 -0.1043 -0.3977 -0.1125
 4605SOL    HW125448   2.360   3.093   6.913 -0.2649 -0.4361  0.3054
 4605SOL    HW225449   2.302   3.178   6.802 -0.2187  0.3510 -0.0335
 4606SOL     OW25450   1.554   2.360   4.459  0.6425  0.4268 -0.6738
 4606SOL    HW125451   1.582   2.328   4.373  1.2386  1.1291 -0.7399
 4606SOL    HW225452   1.618   2.428   4.480 -0.2862  1.8829 -2.5485
 4607SOL     OW25453   1.173   0.595   8.523  0.7480 -0.4868  0.2181
 4607SOL    HW125454   1.109   0.584   8.594 -1.8799 -1.0399 -2.2363
 4607SOL    HW225455   1.194   0.687   8.539 -1.4457  0.1025 -0.2515
 4608SOL     OW25456   3.360   4.284   9.140 -0.0972 -0.6090  0.4179
 4608SOL    HW125457   3.345   4.369   9.181  0.2535 -0.5386  0.4039
 4608SOL    HW225458   3.389   4.315   9.054  0.2876  0.0901  0.7977
 4609SOL     OW25459   4.617   4.152  12.000 -0.3579 -0.4149  0.3288
 4609SOL    HW125460   4.691   4.210  12.018 -1.8769  1.7818 -0.5620
 4609SOL    HW225461   4.649   4.064  12.018  0.0116 -0.2267  0.6052
 4610SOL     OW25462   4.555   1.806  14.622  0.1746 -0.3195 -0.2258
 4610SOL    HW125463   4.563   1.893  14.584  0.2243  0.0196  0.5616
 4610SOL    HW225464   4.601   1.742  14.569 -3.1782 -0.8737 -2.4829
 4611SOL     OW25465   4.585   2.094  14.086  0.4145 -0.5995 -0.0018
 4611SOL    HW125466   4.501   2.129  14.059 -0.3471 -1.1847  1.6176
 4611SOL    HW225467   4.648   2.131  14.024  1.9002 -1.5928  0.9088
 4612SOL     OW25468   4.484   2.747  10.154 -0.6223  0.1789  0.1796
 4612SOL    HW125469   4.528   2.720  10.073 -0.4258  2.1783 -0.3730
 4612SOL    HW225470   4.402   2.701  10.137 -0.5167  0.1088 -0.1566
 4613SOL     OW25471   2.840   4.536   6.600 -0.3268  0.0760  0.3525
 4613SOL    HW125472   2.907   4.468   6.607 -2.1003 -1.8489 -1.3341
 4613SOL    HW225473   2.899   4.611   6.602  0.8302 -0.8002 -0.5407
 4614SOL     OW25474   1.319   2.590   6.081 -0.0029 -0.2855 -0.2829
 4614SOL    HW125475   1.285   2.668   6.125 -1.4226 -1.1815  0.1897
 4614SOL    HW225476   1.407   2.587   6.120 -0.1020 -1.2578 -0.1408
 4615SOL     OW25477   0.770   3.592  15.016 -0.7386  0.1138  0.1657
 4615SOL    HW125478   0.774   3.527  15.086  1.1869  2.4669  2.2164
 4615SOL    HW225479   0.677   3.598  14.994 -0.2919 -0.4286 -1.8283
 4616SOL     OW25480   3.532   4.727   5.910  0.2262  0.0438 -0.1756
 4616SOL    HW125481   3.460   0.042   5.943 -1.0780 -1.8282  0.0264
 4616SOL    HW225482   3.507   4.637   5.932  1.7496 -0.3009  0.1216
 4617SOL     OW25483   1.018   4.253   9.932 -0.1525  0.6576 -0.3012
 4617SOL    HW125484   0.929   4.289   9.932 -0.2554  0.4053 -1.4433
 4617SOL    HW225485   0.998   4.167   9.970  0.8151  0.2188 -0.7921
 4618SOL     OW25486   0.051   0.867  10.667 -0.6090 -0.3444  0.5155
 4618SOL    HW125487   0.075   0.776  10.650  1.1519 -0.3051  2.7652
 4618SOL    HW225488   0.103   0.890  10.744  0.1447  1.4869 -0.5523
 4619SOL     OW25489   1.510   3.697   7.813  0.3589  0.0693 -0.3352
 4619SOL    HW125490   1.487   3.728   7.900 -0.4239 -1.0644 -0.1301
 4619SOL    HW225491   1.605   3.687   7.824  0.4281  1.8075  0.5949
 4620SOL     OW25492   2.281   4.054   8.978  0.0719 -0.5109 -0.7902
 4620SOL    HW125493   2.264   3.971   9.022  0.5493 -0.9540 -1.4539
 4620SOL    HW225494   2.204   4.102   9.009  2.3161  2.0413  0.7908
 4621SOL     OW25495   0.578   0.478   5.218  0.0154  0.5336  0.0594
 4621SOL    HW125496   0.519   0.536   5.170  0.9702  0.7866 -0.8129
 4621SOL    HW225497   0.653   0.536   5.230  2.9598 -2.9594 -1.2290
 4622SOL     OW25498   3.792   4.696   2.726  0.0205  0.0924 -0.0083
 4622SOL    HW125499   3.781   0.003   2.643  0.0062  1.0264  0.5126
 4622SOL    HW225500   3.710   4.648   2.730  0.0833 -0.0016  0.1964
 4623SOL     OW25501   1.527   3.162   7.777  0.6999  0.9217 -0.1246
 4623SOL    HW125502   1.469   3.125   7.710  2.6294 -0.1855 -1.2108
 4623SOL    HW225503   1.517   3.097   7.846 -1.5338 -0.0999 -1.3983
 4624SOL     OW25504   0.748   1.077   3.810 -0.4588  0.2700  0.2125
 4624SOL    HW125505   0.824   1.121   3.771  1.2004 -1.4265  1.4744
 4624SOL    HW225506   0.723   1.139   3.878 -1.9606 -3.1454  2.7268
 4625SOL     OW25507   3.082   0.894  14.011  0.6137 -0.3014  0.3248
 4625SOL    HW125508   2.994   0.930  14.006 -0.3584 -2.6401  0.4118
 4625SOL    HW225509   3.103   0.913  14.103 -0.7137 -0.5377  0.6793
 4626SOL     OW25510   2.181   1.804   9.012  0.5876 -0.4348 -0.4087
 4626SOL    HW125511   2.255   1.838   8.962 -0.3403  0.9082 -0.8768
 4626SOL    HW225512   2.197   1.710   9.022 -0.1306 -0.6569 -1.3096
 4627SOL     OW25513   0.861   4.390  12.857 -0.3581 -0.6635  0.1673
 4627SOL    HW125514   0.787   4.432  12.813 -0.4694 -2.2850 -1.1908
 4627SOL    HW225515   0.897   4.347  12.779  0.4814 -2.9194  1.8050
 4628SOL     OW25516   2.412   1.659   3.005 -0.5217 -0.2998  0.1372
 4628SOL    HW125517   2.502   1.644   2.977  0.3281  0.2423  2.5518
 4628SOL    HW225518   2.365   1.601   2.945  2.1633 -1.6174 -0.6515
 4629SOL     OW25519   4.268   0.421   9.206 -0.2081 -0.3475 -0.7691
 4629SOL    HW125520   4.222   0.355   9.155 -1.5062  1.5120 -2.0264
 4629SOL    HW225521   4.203   0.430   9.276  1.8074  0.7334  0.9607
 4630SOL     OW25522   0.203   2.919  16.520  0.4525 -0.5098  0.5179
 4630SOL    HW125523   0.199   2.824  16.533 -2.0147 -0.2229  1.8366
 4630SOL    HW225524   0.267   2.945  16.586  0.4017 -0.1006  0.4078
 4631SOL     OW25525   4.050   1.288  15.263  0.4579  0.0436  0.4922
 4631SOL    HW125526   4.067   1.219  15.199 -1.2795 -0.1343  0.2128
 4631SOL    HW225527   4.104   1.355  15.222  0.8551  0.4109  1.6285
 4632SOL     OW25528   1.074   1.706   3.542 -0.4416  0.1717 -0.0807
 4632SOL    HW125529   1.074   1.620   3.501  1.8139  0.5474 -0.8204
 4632SOL    HW225530   1.030   1.751   3.470 -1.0376  1.5422  1.1221
 4633SOL     OW25531   4.039   4.660   7.961 -0.4292  0.0754  0.0191
 4633SOL    HW125532   4.068   4.729   8.021 -1.6929  1.1099 -0.5682
 4633SOL    HW225533   4.116   4.619   7.921 -1.1674 -0.5734 -0.7214
 4634SOL     OW25534   1.128   1.463   4.294 -0.1728  0.5821  0.1056
 4634SOL    HW125535   1.089   1.522   4.359  1.8629  1.9280  0.1161
 4634SOL    HW225536   1.216   1.495   4.276 -0.0811 -0.0952 -0.6536
 4635SOL     OW25537   2.060   2.399   5.785  0.1640 -0.2647 -0.2894
 4635SOL    HW125538   2.071   2.331   5.718  0.4118  0.2680 -0.7852
 4635SOL    HW225539   2.143   2.383   5.830  2.6183  1.3356 -4.2303
 4636SOL     OW25540   2.386   2.062   4.262  0.0003 -0.1060 -0.3965
 4636SOL    HW125541   2.308   2.091   4.309  1.6754  1.2996  1.4994
 4636SOL    HW225542   2.463   2.079   4.316 -0.7438  3.5831 -0.5646
 4637SOL     OW25543   1.566   4.477  12.941 -0.3808  0.4760  0.3940
 4637SOL    HW125544   1.498   4.467  12.874 -0.3404 -4.2662  1.0286
 4637SOL    HW225545   1.548   4.568  12.962  0.5172  1.2307 -2.2007
 4638SOL     OW25546   0.610   1.416   3.401 -0.0386 -0.7852  0.1072
 4638SOL    HW125547   0.694   1.405   3.356  1.3028 -0.3735  2.4859
 4638SOL    HW225548   0.649   1.470   3.470 -1.4333  1.9636 -1.2609
 4639SOL     OW25549   1.148   2.006   1.683 -0.0792 -0.1809 -0.2071
 4639SOL    HW125550   1.180   2.097   1.678  3.1846 -1.3848 -1.0609
 4639SOL    HW225551   1.060   2.019   1.647 -0.7237  0.5464  1.6462
 4640SOL     OW25552   1.426   3.359   3.182 -0.3727  0.5979  0.0348
 4640SOL    HW125553   1.412   3.341   3.275 -1.2734  1.1598  0.0103
 4640SOL    HW225554   1.473   3.441   3.196  0.5471 -0.1890  1.5601
 4641SOL     OW25555   4.577   0.472   2.627 -1.0487  0.5123  0.0089
 4641SOL    HW125556   4.631   0.393   2.631 -0.1817  0.8804 -5.0055
 4641SOL    HW225557   4.631   0.522   2.566 -1.4534 -1.1495 -1.7327
 4642SOL     OW25558   3.874   3.531   1.666  0.0377 -0.2108 -0.1928
 4642SOL    HW125559   3.798   3.569   1.709  0.0593  0.8654 -1.0804
 4642SOL    HW225560   3.872   3.592   1.591  1.0597 -0.8051 -0.7109
 4643SOL     OW25561   2.162   3.549   8.875  1.4009 -0.0901  0.1481
 4643SOL    HW125562   2.119   3.500   8.946 -0.2875 -1.4628 -1.8268
 4643SOL    HW225563   2.203   3.620   8.924  2.3992 -0.6170  0.0903
 4644SOL     OW25564   1.297   2.580   8.723  0.0704 -0.0022  0.2706
 4644SOL    HW125565   1.316   2.616   8.636  2.0664  2.1363  1.6082
 4644SOL    HW225566   1.245   2.505   8.693  1.2848 -1.0368  0.7897
 4645SOL     OW25567   4.522   0.110   1.552 -0.1820  0.2878 -0.2455
 4645SOL    HW125568   4.546   0.075   1.467  1.1651  1.6160 -0.3913
 4645SOL    HW225569   4.569   0.193   1.559  0.6287 -0.2142  0.2610
 4646SOL     OW25570   4.603   2.670  15.289 -0.4019  0.2245  0.5879
 4646SOL    HW125571   4.696   2.674  15.310  0.0899 -1.3492 -1.3704
 4646SOL    HW225572   4.562   2.729  15.353  0.8664  0.5925  1.0667
 4647SOL     OW25573   2.381   0.343  13.016 -0.4200 -0.1028 -0.2485
 4647SOL    HW125574   2.357   0.261  12.973 -2.5926 -0.2035  1.1136
 4647SOL    HW225575   2.446   0.382  12.957  0.0183  0.9184  0.9019
 4648SOL     OW25576   2.934   0.630   5.544 -0.4215 -0.5468  0.5076
 4648SOL    HW125577   2.922   0.547   5.498  0.7214  0.7165 -2.0962
 4648SOL    HW225578   3.023   0.618   5.577  0.6239  1.9280 -1.4097
 4649SOL     OW25579   3.503   4.561   2.817 -0.4450  0.5594 -0.2282
 4649SOL    HW125580   3.499   4.654   2.796  1.9404  0.1862 -2.2738
 4649SOL    HW225581   3.452   4.529   2.743  0.4981 -0.1191 -0.5868
 4650SOL     OW25582   2.152   3.447  11.051  0.3283 -0.1635  0.3359
 4650SOL    HW125583   2.143   3.470  10.958  0.4734  0.1537  0.4019
 4650SOL    HW225584   2.237   3.405  11.033  0.8572  0.3273  1.6977
 4651SOL     OW25585   4.438   0.104   3.434 -0.2672 -0.0794  0.0501
 4651SOL    HW125586   4.360   0.103   3.489 -0.0701 -0.6766  0.3143
 4651SOL    HW225587   4.399   0.083   3.349  0.8563  0.2793 -0.5583
 4652SOL     OW25588   1.445   2.918   8.797  0.0540  0.2889 -0.3972
 4652SOL    HW125589   1.505   2.894   8.868  0.1065 -0.0669 -0.5618
 4652SOL    HW225590   1.437   3.010   8.821 -1.2332  0.0726 -0.0091
 4653SOL     OW25591   2.231   1.272   5.791  0.4035 -0.4819 -0.3029
 4653SOL    HW125592   2.317   1.300   5.823 -0.2079  2.3238 -1.1152
 4653SOL    HW225593   2.210   1.329   5.717  1.1030 -0.4409 -0.4731
 4654SOL     OW25594   2.469   2.695   0.676  0.0596  0.2254 -0.3853
 4654SOL    HW125595   2.429   2.609   0.666 -0.2063  0.3236 -0.1662
 4654SOL    HW225596   2.390   2.742   0.701  0.3519  0.1306  0.7175
 4655SOL     OW25597   4.475   2.648  11.597  0.0526 -0.1545 -0.1038
 4655SOL    HW125598   4.402   2.659  11.537 -0.7530  0.4109  0.9762
 4655SOL    HW225599   4.545   2.645  11.531 -0.9082  1.0451 -1.1796
 4656SOL     OW25600   2.031   3.155   4.816 -0.1907  0.0993 -0.6966
 4656SOL    HW125601   2.124   3.168   4.838  0.1663 -0.8599 -1.6371
 4656SOL    HW225602   2.019   3.210   4.738 -0.0147  2.1008  0.7010
 4657SOL     OW25603   1.471   0.996   2.593  0.2440  0.2269 -0.6395
 4657SOL    HW125604   1.443   1.038   2.512 -0.6983 -0.0902 -0.4718
 4657SOL    HW225605   1.398   0.937   2.609 -1.1702  1.7982 -1.3806
 4658SOL     OW25606   2.206   0.528   5.948 -0.1021  0.0218  0.5919
 4658SOL    HW125607   2.190   0.458   5.885  1.5601 -1.0519  1.3504
 4658SOL    HW225608   2.227   0.594   5.882 -1.3648  1.4369  1.6092
 4659SOL     OW25609   2.843   2.961   0.955 -0.2622  0.4714  0.5212
 4659SOL    HW125610   2.912   2.961   1.022 -0.0720 -1.2822  0.3354
 4659SOL    HW225611   2.898   2.973   0.877  0.3129 -0.0819  0.8362
 4660SOL     OW25612   3.208   0.539   6.399  0.0090  0.7052 -1.1533
 4660SOL    HW125613   3.270   0.546   6.326 -0.2734  1.9913 -1.2681
 4660SOL    HW225614   3.134   0.487   6.365  0.4782  0.4919 -1.8622
 4661SOL     OW25615   2.229   0.674  10.025  0.1185 -0.5046  0.2663
 4661SOL    HW125616   2.159   0.624  10.067 -0.6553 -0.4814 -1.0128
 4661SOL    HW225617   2.190   0.760  10.042  1.7837  0.2517  0.2273
 4662SOL     OW25618   1.814   1.633   7.636 -0.3575 -0.1471 -0.1914
 4662SOL    HW125619   1.831   1.597   7.722  1.7391  0.2092 -0.4425
 4662SOL    HW225620   1.723   1.607   7.618 -0.2291 -0.9543  0.3568
 4663SOL     OW25621   3.624   4.177   3.384 -0.2347  0.6116  0.0859
 4663SOL    HW125622   3.625   4.088   3.421  2.2980  0.2760 -0.7549
 4663SOL    HW225623   3.609   4.234   3.459 -3.1491  1.4718 -1.1431
 4664SOL     OW25624   3.636   0.198   9.186 -0.1001  0.2255  0.2282
 4664SOL    HW125625   3.614   0.253   9.261 -0.1153 -0.2249  0.5486
 4664SOL    HW225626   3.644   0.262   9.115 -1.0289 -0.3797 -0.4177
 4665SOL     OW25627   3.332   2.837   0.065  0.1571 -0.7155 -0.0369
 4665SOL    HW125628   3.316   2.750   0.102 -1.6625 -0.0781  0.6510
 4665SOL    HW225629   3.306   2.821  17.728 -0.8625  1.6787 -0.1812
 4666SOL     OW25630   1.516   3.511   8.298  0.0940 -0.1194  0.3958
 4666SOL    HW125631   1.436   3.480   8.256 -0.6766  0.9696  1.0484
 4666SOL    HW225632   1.542   3.438   8.355  0.1653 -1.6301 -1.5803
 4667SOL     OW25633   1.624   3.906  10.809 -0.1479 -1.0653  0.4099
 4667SOL    HW125634   1.549   3.943  10.855 -1.6276 -2.3853 -0.9547
 4667SOL    HW225635   1.663   3.981  10.764 -2.0009 -0.8931 -0.8909
 4668SOL     OW25636   1.910   3.589   3.324  0.5216  0.4456  0.1135
 4668SOL    HW125637   1.819   3.603   3.348 -0.0636 -1.3517 -1.0537
 4668SOL    HW225638   1.958   3.630   3.396  1.4634  1.1558 -0.9112
 4669SOL     OW25639   2.622   0.851   1.410 -0.8074  0.5543 -0.1142
 4669SOL    HW125640   2.552   0.872   1.473 -1.8516 -0.7575 -0.8405
 4669SOL    HW225641   2.615   0.908   1.333  3.0225 -0.5283 -1.2408
 4670SOL     OW25642   0.795   4.262   9.644  0.1564  0.4195  0.0005
 4670SOL    HW125643   0.855   4.245   9.570 -0.7820  3.0233 -1.3495
 4670SOL    HW225644   0.784   4.174   9.680 -1.3200  0.3325 -0.6869
 4671SOL     OW25645   3.350   3.278   2.806 -0.6441  0.0578 -0.1915
 4671SOL    HW125646   3.333   3.327   2.886  0.1489  0.1658 -0.0856
 4671SOL    HW225647   3.350   3.188   2.840  1.6780  0.4676  0.8752
 4672SOL     OW25648   2.079   3.858   5.659  0.2057 -0.2110  0.1918
 4672SOL    HW125649   2.162   3.893   5.626  0.8848  0.2045  2.3469
 4672SOL    HW225650   2.108   3.766   5.658  2.2126  0.4167 -0.1644
 4673SOL     OW25651   3.733   3.793   2.428  0.1088 -0.2334 -0.0498
 4673SOL    HW125652   3.751   3.770   2.519  0.3249  1.2155  0.2800
 4673SOL    HW225653   3.640   3.812   2.431 -0.0327 -0.5935 -1.9402
 4674SOL     OW25654   3.228   3.834   4.403 -0.4648  0.3371  0.0979
 4674SOL    HW125655   3.249   3.764   4.342 -0.6848 -0.8979  1.4506
 4674SOL    HW225656   3.135   3.809   4.403 -0.3255 -0.1855 -0.2802
 4675SOL     OW25657   4.412   3.675   5.809 -0.5998 -0.1297  0.2222
 4675SOL    HW125658   4.464   3.711   5.881  0.0868 -0.4565 -0.1239
 4675SOL    HW225659   4.462   3.595   5.794  0.8666  0.5718  1.3821
 4676SOL     OW25660   2.237   2.682  15.640 -0.2079 -0.2037  0.7020
 4676SOL    HW125661   2.237   2.751  15.573 -1.2334  0.8856  1.8207
 4676SOL    HW225662   2.329   2.658  15.636  0.2706  2.0276 -1.5570
 4677SOL     OW25663   1.584   1.839   7.308  0.3043  0.2116 -0.0724
 4677SOL    HW125664   1.556   1.763   7.359 -1.6599 -0.1273 -1.6469
 4677SOL    HW225665   1.554   1.822   7.218  1.1268  1.0055 -0.4938
 4678SOL     OW25666   2.497   3.558   5.239 -0.4382  0.4112  0.3688
 4678SOL    HW125667   2.513   3.561   5.333 -0.8565 -0.4024  0.4662
 4678SOL    HW225668   2.583   3.532   5.207 -0.5816  2.3299 -1.6076
 4679SOL     OW25669   3.229   3.886  15.898  0.7597  0.2427 -0.1474
 4679SOL    HW125670   3.232   3.829  15.821  0.9511 -1.1942  0.9328
 4679SOL    HW225671   3.296   3.859  15.961  0.1156  0.6407  0.7078
 4680SOL     OW25672   0.775   3.198   9.113  0.3221 -0.1492 -0.0656
 4680SOL    HW125673   0.704   3.243   9.067  1.3169  0.5211 -0.9582
 4680SOL    HW225674   0.748   3.106   9.117 -0.9081  0.2349  0.4651
 4681SOL     OW25675   2.512   1.369   9.756 -0.3251 -0.2490  0.4169
 4681SOL    HW125676   2.418   1.385   9.766 -0.2996  0.5193 -0.7180
 4681SOL    HW225677   2.507   1.276   9.733  0.8158 -0.4295  0.8935
 4682SOL     OW25678   4.295   3.239  14.497  0.0267 -0.0032  0.5269
 4682SOL    HW125679   4.236   3.311  14.519  0.0597 -0.1413  1.0794
 4682SOL    HW225680   4.361   3.239  14.566 -0.1485 -2.2134  0.7053
 4683SOL     OW25681   4.061   1.598   0.942 -0.1675  0.0733  0.0117
 4683SOL    HW125682   4.101   1.631   0.861  0.8246 -1.4693 -0.1305
 4683SOL    HW225683   3.993   1.545   0.902  0.3050  0.0921 -0.8146
 4684SOL     OW25684   0.517   4.688   8.308 -0.1515  0.0395  0.6382
 4684SOL    HW125685   0.592   0.007   8.312  0.5266 -0.7753 -0.2509
 4684SOL    HW225686   0.542   4.609   8.259  0.7512  0.6501  0.1225
 4685SOL     OW25687   3.530   3.912   9.870  0.5052 -0.2566  0.1311
 4685SOL    HW125688   3.449   3.927   9.918  0.3003 -1.2791  0.1040
 4685SOL    HW225689   3.539   3.992   9.818  1.1037 -1.4353 -1.6057
 4686SOL     OW25690   4.656   1.952   7.064  0.3384  0.3705  0.4141
 4686SOL    HW125691   4.714   1.882   7.037 -0.9714 -0.8936  0.8859
 4686SOL    HW225692   4.672   1.954   7.159  1.4064 -1.3240  0.2627
 4687SOL     OW25693   1.544   2.696   3.337  0.2352  0.7024 -0.5465
 4687SOL    HW125694   1.561   2.786   3.309  1.7059  0.6110  0.0604
 4687SOL    HW225695   1.470   2.680   3.278  2.8173  0.5886 -3.8081
 4688SOL     OW25696   3.594   0.969  13.956 -0.7018  0.1636  0.8601
 4688SOL    HW125697   3.550   1.043  13.914 -1.0459 -0.7246 -0.3553
 4688SOL    HW225698   3.686   0.992  13.971  0.4055 -2.4120 -1.9560
 4689SOL     OW25699   1.001   2.523   7.457 -0.3657 -0.0440 -0.0210
 4689SOL    HW125700   1.025   2.611   7.484  1.8606 -0.3739 -0.8953
 4689SOL    HW225701   1.069   2.521   7.389 -0.3303 -0.3802  0.0234
 4690SOL     OW25702   4.285   3.677   7.798  0.1308  0.3900 -0.0880
 4690SOL    HW125703   4.217   3.734   7.835 -1.1892 -0.4879 -1.1692
 4690SOL    HW225704   4.234   3.631   7.732  1.5075  1.2638 -1.7367
 4691SOL     OW25705   1.355   3.834   5.144  0.4133  0.7261 -0.1563
 4691SOL    HW125706   1.388   3.924   5.151  0.6436  0.6139  0.2186
 4691SOL    HW225707   1.437   3.786   5.152 -0.3432 -0.2354  1.7363
 4692SOL     OW25708   1.486   4.221   5.655 -0.8850  0.2859 -0.5143
 4692SOL    HW125709   1.400   4.204   5.692 -0.8982 -0.4371 -0.8662
 4692SOL    HW225710   1.532   4.140   5.678 -2.0728 -0.1689  0.2154
 4693SOL     OW25711   4.411   0.356   1.992 -0.4695  0.0126  0.2105
 4693SOL    HW125712   4.459   0.418   2.048 -1.9466 -0.2914  1.8223
 4693SOL    HW225713   4.335   0.406   1.963 -1.5332 -1.1175  1.0757
 4694SOL     OW25714   3.228   3.593   2.003 -0.1170  0.0267  0.0101
 4694SOL    HW125715   3.253   3.679   1.968 -2.2365  0.7359  0.2196
 4694SOL    HW225716   3.216   3.554   1.917  0.5402  0.3920 -0.2435
 4695SOL     OW25717   1.095   3.371   9.567 -0.0705 -0.4309 -0.1743
 4695SOL    HW125718   1.106   3.431   9.641  0.6297 -0.1020 -0.5454
 4695SOL    HW225719   1.015   3.409   9.529 -0.8213 -0.9217  0.9191
 4696SOL     OW25720   3.808   1.168  11.401 -0.4450 -0.2000  0.1842
 4696SOL    HW125721   3.817   1.100  11.468 -1.1157 -0.6031 -0.1405
 4696SOL    HW225722   3.756   1.228  11.454  0.2319  0.7652 -0.2473
 4697SOL     OW25723   1.672   1.885   3.762  0.1719 -0.3952 -0.0655
 4697SOL    HW125724   1.740   1.937   3.805 -0.0359 -0.6867  0.6201
 4697SOL    HW225725   1.594   1.938   3.780 -1.6685 -2.6646 -1.1708
 4698SOL     OW25726   3.277   4.395   7.557 -0.5038 -0.3107 -0.0796
 4698SOL    HW125727   3.334   4.321   7.578 -1.8335 -1.5764 -0.9155
 4698SOL    HW225728   3.312   4.410   7.469 -0.7385  0.3783 -0.0577
 4699SOL     OW25729   0.900   4.583   9.357 -0.1204  0.0510 -0.0480
 4699SOL    HW125730   0.961   4.515   9.328  1.5369  1.9976 -1.1422
 4699SOL    HW225731   0.838   4.532   9.410 -1.3841  0.0932 -1.4998
 4700SOL     OW25732   2.313   3.950   5.581 -0.0619 -0.4753 -0.5731
 4700SOL    HW125733   2.325   3.965   5.487  2.3236  0.1064 -0.2043
 4700SOL    HW225734   2.398   3.915   5.609  0.0647  0.2733  0.0040
 4701SOL     OW25735   3.097   0.750   9.074  0.2566 -0.0314 -0.8251
 4701SOL    HW125736   3.018   0.711   9.110 -1.1690  2.2264 -1.5047
 4701SOL    HW225737   3.067   0.836   9.044 -0.7669  1.2995  3.9618
 4702SOL     OW25738   3.577   0.823   4.867  0.3968 -0.3434  0.5864
 4702SOL    HW125739   3.529   0.741   4.856  1.4010 -1.0808  1.8456
 4702SOL    HW225740   3.525   0.886   4.817 -0.0526 -1.1495  0.0297
 4703SOL     OW25741   2.329   1.419   7.088  0.1112  0.1378 -0.2477
 4703SOL    HW125742   2.299   1.504   7.119 -1.7048  0.0763 -1.8538
 4703SOL    HW225743   2.257   1.375   7.043  0.8464 -0.5127 -0.7855
 4704SOL     OW25744   1.638   2.814  13.856 -0.2653 -0.4702  0.9072
 4704SOL    HW125745   1.677   2.745  13.909  1.0999  0.0794  0.6466
 4704SOL    HW225746   1.570   2.848  13.914 -0.7798 -2.6887  1.6064
 4705SOL     OW25747   1.173   3.729   4.935  0.1863 -0.3862  0.1336
 4705SOL    HW125748   1.241   3.753   4.999 -0.7947 -0.9138  1.3663
 4705SOL    HW225749   1.111   3.794   4.967 -1.3605 -2.5551  1.4997
 4706SOL     OW25750   2.721   1.911   3.168 -0.0849 -0.0361 -0.3295
 4706SOL    HW125751   2.770   1.964   3.104  0.1130 -1.8818 -1.7017
 4706SOL    HW225752   2.648   1.970   3.190  1.1891  1.2544  0.4323
 4707SOL     OW25753   1.422   0.358  15.862 -0.1793 -0.2726  0.6865
 4707SOL    HW125754   1.374   0.377  15.943 -0.0009 -1.8776  1.1645
 4707SOL    HW225755   1.471   0.436  15.836  0.6751 -0.6586  1.1382
 4708SOL     OW25756   2.208   2.417  15.571  0.0436 -0.3383 -0.2866
 4708SOL    HW125757   2.274   2.407  15.639 -0.8590  1.3089  0.8429
 4708SOL    HW225758   2.195   2.510  15.592 -1.5383 -0.9683  1.5383
 4709SOL     OW25759   3.103   4.149   6.744 -0.0919 -0.4495  0.0121
 4709SOL    HW125760   3.110   4.061   6.708 -0.8984 -0.4914 -0.0626
 4709SOL    HW225761   3.083   4.202   6.667 -0.8070  0.7086  0.9902
 4710SOL     OW25762   0.108   1.151   0.222 -0.0916 -0.4475 -0.4869
 4710SOL    HW125763   0.178   1.100   0.263 -1.1980 -0.2416  1.6072
 4710SOL    HW225764   0.117   1.117   0.132 -0.6320 -1.5362 -0.1264
 4711SOL     OW25765   0.004   1.533   1.458 -0.3978 -0.1316  0.8121
 4711SOL    HW125766   0.094   1.561   1.476 -0.3887 -0.8142  1.8277
 4711SOL    HW225767   0.011   1.499   1.368  1.3515  0.1732  0.8327
 4712SOL     OW25768   1.602   0.601   1.763  0.1280  0.0927  0.0432
 4712SOL    HW125769   1.617   0.509   1.787  0.9647 -0.0476 -1.0276
 4712SOL    HW225770   1.606   0.588   1.668 -0.4005  0.7408 -0.0698
 4713SOL     OW25771   0.140   4.631  10.260  0.2209  0.1321 -0.3301
 4713SOL    HW125772   0.117   4.663  10.172 -2.1288 -0.4487  0.0589
 4713SOL    HW225773   0.216   4.682  10.288 -0.2106 -0.6208  2.2043
 4714SOL     OW25774   3.622   1.270   6.090  0.4452  0.5890 -0.8364
 4714SOL    HW125775   3.689   1.210   6.057  1.3130  0.3046  1.4659
 4714SOL    HW225776   3.658   1.357   6.073  0.5471  1.1260  2.2951
 4715SOL     OW25777   3.509   4.529  10.637  0.2201 -0.1891  0.0070
 4715SOL    HW125778   3.450   4.518  10.562  1.4855 -0.1223 -1.0016
 4715SOL    HW225779   3.506   4.440  10.672  0.8229 -0.0691  0.3519
 4716SOL     OW25780   4.397   2.432   3.242  0.6059 -0.2650  0.1331
 4716SOL    HW125781   4.379   2.373   3.169  0.8099  1.1965 -1.0991
 4716SOL    HW225782   4.491   2.417   3.255  0.7141 -0.5260 -0.9464
 4717SOL     OW25783   0.573   3.599   6.195 -0.0312 -0.1216  0.2513
 4717SOL    HW125784   0.565   3.522   6.251 -4.2976 -0.8409 -1.3842
 4717SOL    HW225785   0.557   3.669   6.259 -2.1590  0.0117 -0.4163
 4718SOL     OW25786   4.471   0.441   6.256 -0.1661  0.0632  0.2057
 4718SOL    HW125787   4.549   0.388   6.240 -0.6496 -0.4633 -0.4210
 4718SOL    HW225788   4.489   0.464   6.347  0.5167 -1.5458  0.4709
 4719SOL     OW25789   4.364   3.445   9.703  0.1478 -0.1492  0.2432
 4719SOL    HW125790   4.297   3.425   9.768 -0.2848  0.7362  0.0626
 4719SOL    HW225791   4.383   3.356   9.671  0.4532  0.8534 -2.3988
 4720SOL     OW25792   3.954   3.420   7.049 -0.0766  0.6695 -0.0364
 4720SOL    HW125793   3.883   3.469   7.090  1.5023  2.3510  0.6689
 4720SOL    HW225794   3.897   3.361   6.999 -0.6338  3.3134 -2.5033
 4721SOL     OW25795   3.751   1.164   8.245  0.2705 -0.2198 -0.4885
 4721SOL    HW125796   3.679   1.103   8.257 -0.1046  0.4723  0.7932
 4721SOL    HW225797   3.795   1.133   8.166 -0.4503 -2.3847 -0.0218
 4722SOL     OW25798   4.340   2.285  16.275  0.2666  0.0512 -0.4808
 4722SOL    HW125799   4.316   2.257  16.187 -0.1843 -0.3104 -0.2403
 4722SOL    HW225800   4.269   2.347  16.293 -1.1330 -1.7088  0.0088
 4723SOL     OW25801   0.258   3.264   9.326 -0.6999 -0.0496 -0.3715
 4723SOL    HW125802   0.341   3.286   9.283 -1.2136  0.6625 -1.0071
 4723SOL    HW225803   0.226   3.190   9.275 -0.2855  0.6011 -1.5900
 4724SOL     OW25804   2.767   3.660   7.205  0.4387  0.1353  0.5765
 4724SOL    HW125805   2.732   3.650   7.117 -1.5974 -0.1205  1.4073
 4724SOL    HW225806   2.709   3.729   7.237  1.1021  1.2724 -0.6959
 4725SOL     OW25807   0.554   0.516  15.190  0.0500  0.1741  0.0725
 4725SOL    HW125808   0.525   0.602  15.220  1.0822  0.2108  0.9952
 4725SOL    HW225809   0.546   0.523  15.095  1.4218 -0.3193 -0.0753
 4726SOL     OW25810   0.807   3.538   6.579  0.0920 -0.1541 -0.0170
 4726SOL    HW125811   0.849   3.601   6.521 -0.6459  0.9930  0.6991
 4726SOL    HW225812   0.727   3.583   6.605  0.0438  0.6474 -1.5806
 4727SOL     OW25813   2.078   3.807  15.154 -0.4282  0.0206 -0.0456
 4727SOL    HW125814   1.986   3.822  15.175  0.1066 -2.0271  3.8574
 4727SOL    HW225815   2.099   3.897  15.179 -0.2982 -0.1703  0.5390
 4728SOL     OW25816   2.398   0.549   4.304  0.4273 -0.3542  0.5408
 4728SOL    HW125817   2.351   0.524   4.225 -0.5003 -0.1039  1.0128
 4728SOL    HW225818   2.331   0.578   4.366  0.9234 -2.1085  1.9104
 4729SOL     OW25819   0.080   3.029   6.598 -0.5308  0.3095  0.4944
 4729SOL    HW125820   0.103   2.988   6.681  2.5424  0.5447 -0.2300
 4729SOL    HW225821   0.107   2.955   6.543  0.5544  1.1192 -0.0723
 4730SOL     OW25822   1.141   2.492   2.846  0.1311 -0.4606  0.0146
 4730SOL    HW125823   1.196   2.422   2.809  1.3206  1.4422 -1.8461
 4730SOL    HW225824   1.118   2.533   2.763 -1.2600 -0.8609  0.2089
 4731SOL     OW25825   2.730   0.494   1.818  0.5590  0.5204  0.3220
 4731SOL    HW125826   2.750   0.443   1.740 -2.5759 -0.7833  0.3884
 4731SOL    HW225827   2.645   0.460   1.846  0.9416  1.8290  3.0996
 4732SOL     OW25828   0.281   3.570   4.270 -0.0673 -0.1918  0.4649
 4732SOL    HW125829   0.214   3.510   4.236  0.3528 -0.7778  0.6545
 4732SOL    HW225830   0.279   3.651   4.220  1.0127  0.5190  1.5994
 4733SOL     OW25831   0.430   3.452   8.806 -0.2096 -0.7796  0.0517
 4733SOL    HW125832   0.377   3.528   8.783 -1.0573 -0.4282  3.1982
 4733SOL    HW225833   0.358   3.391   8.818  2.1712 -3.2912  1.5101
 4734SOL     OW25834   3.681   0.800   4.054 -0.3999 -0.4704  0.0085
 4734SOL    HW125835   3.706   0.732   4.117  1.6560  0.8104  0.5622
 4734SOL    HW225836   3.761   0.804   4.002 -0.4300 -0.7950 -0.0687
 4735SOL     OW25837   3.196   4.214   3.953  0.2039 -0.0705  0.1867
 4735SOL    HW125838   3.270   4.158   3.978  0.4813  0.7530  1.1840
 4735SOL    HW225839   3.138   4.140   3.933  0.4042 -0.1676 -0.0363
 4736SOL     OW25840   4.369   4.594   4.390  0.0683 -0.3950  0.1039
 4736SOL    HW125841   4.328   4.678   4.370 -1.6648 -0.7218  2.3274
 4736SOL    HW225842   4.457   4.632   4.387  0.9311 -2.4924 -1.0876
 4737SOL     OW25843   2.404   2.990   0.086 -0.0917 -0.4413  0.2237
 4737SOL    HW125844   2.430   2.899   0.075 -0.3752 -0.4859 -0.0650
 4737SOL    HW225845   2.473   3.013   0.149  1.8809 -0.6710 -1.8723
 4738SOL     OW25846   4.435   0.286   8.943 -0.3211 -0.2144 -0.5262
 4738SOL    HW125847   4.405   0.360   8.889 -0.5141  0.5557  0.6325
 4738SOL    HW225848   4.350   0.261   8.978 -0.1411 -1.5615 -1.0889
 4739SOL     OW25849   4.351   0.324   4.177  0.5416  0.7361  0.5075
 4739SOL    HW125850   4.386   0.290   4.095 -2.7585  0.9141 -0.9572
 4739SOL    HW225851   4.322   0.411   4.149 -2.0516  0.0646  1.1087
 4740SOL     OW25852   3.730   2.191   7.055 -0.5026 -0.1360 -0.4414
 4740SOL    HW125853   3.750   2.128   6.985  1.2130 -0.2907  0.2028
 4740SOL    HW225854   3.816   2.228   7.073 -0.9840  1.3683 -1.2310
 4741SOL     OW25855   4.187   0.166  15.362 -0.5756 -0.1992  0.0899
 4741SOL    HW125856   4.131   0.109  15.309 -1.6365  0.9438 -0.0366
 4741SOL    HW225857   4.240   0.216  15.299 -1.3063 -0.8817 -1.0678
 4742SOL     OW25858   1.408   0.674  13.212  0.1841  1.0361 -0.1777
 4742SOL    HW125859   1.324   0.721  13.209 -0.7288 -0.7980 -3.3216
 4742SOL    HW225860   1.443   0.727  13.283 -0.9753 -0.9536  1.8585
 4743SOL     OW25861   1.953   0.684   4.968  0.2606 -0.0488  0.2057
 4743SOL    HW125862   2.009   0.750   5.009 -0.1014  0.0741  0.5019
 4743SOL    HW225863   2.012   0.639   4.907 -0.8074 -0.5959 -0.4416
 4744SOL     OW25864   0.196   0.617   6.397  0.1611 -0.1095  0.0044
 4744SOL    HW125865   0.229   0.528   6.388 -1.2887 -0.8893  2.4924
 4744SOL    HW225866   0.272   0.658   6.356 -1.4972  2.5442 -0.3803
 4745SOL     OW25867   2.629   0.517   6.645  0.5537  0.0784  0.1510
 4745SOL    HW125868   2.648   0.559   6.729  0.0993  0.7940 -0.1127
 4745SOL    HW225869   2.541   0.553   6.638  0.3815 -0.8199 -2.3603
 4746SOL     OW25870   0.852   3.455   4.118 -0.1250  0.0059  0.3126
 4746SOL    HW125871   0.789   3.462   4.190 -0.1545  2.7844  0.0239
 4746SOL    HW225872   0.866   3.542   4.082  0.3002 -0.3695 -0.4274
 4747SOL     OW25873   2.214   3.078   0.400 -0.3231 -0.1464  0.3545
 4747SOL    HW125874   2.287   3.105   0.344 -1.7540 -1.1138 -1.9453
 4747SOL    HW225875   2.147   3.138   0.369 -0.5549 -0.6156 -0.0440
 4748SOL     OW25876   0.405   4.311   0.253 -0.1336  0.0317  0.2462
 4748SOL    HW125877   0.406   4.232   0.200 -1.3018 -1.3748  2.3105
 4748SOL    HW225878   0.315   4.334   0.277 -0.4382  0.2734 -1.1222
 4749SOL     OW25879   0.501   2.870  10.602 -0.6727 -0.3725 -0.1449
 4749SOL    HW125880   0.464   2.950  10.640  0.5519 -0.2865  0.8548
 4749SOL    HW225881   0.503   2.903  10.512 -2.0930  2.0929  0.7275
 4750SOL     OW25882   3.932   3.229  14.793 -0.0944  0.2607  0.6851
 4750SOL    HW125883   3.852   3.222  14.846 -1.2276  0.4760 -1.0055
 4750SOL    HW225884   3.924   3.170  14.718  0.2110  0.7048  0.3040
 4751SOL     OW25885   1.715   4.101   1.781 -0.5294  0.2929  0.0896
 4751SOL    HW125886   1.660   4.179   1.782 -0.7456  0.1473 -0.8228
 4751SOL    HW225887   1.651   4.030   1.791  0.3123 -0.7463 -1.7954
 4752SOL     OW25888   2.672   3.985  12.754 -0.2139 -0.0486  0.4225
 4752SOL    HW125889   2.620   3.954  12.828  1.3074 -1.9268  0.7138
 4752SOL    HW225890   2.736   4.026  12.812  0.0670  0.2866 -0.1354
 4753SOL     OW25891   2.317   3.764   0.335 -0.8267 -0.5260 -0.3471
 4753SOL    HW125892   2.351   3.792   0.250  1.4512  3.4625  1.8514
 4753SOL    HW225893   2.225   3.767   0.312 -1.0371 -0.9909  0.4502
 4754SOL     OW25894   4.669   1.758   2.739 -0.1009  0.5610  0.5895
 4754SOL    HW125895   4.724   1.829   2.706  0.2045 -1.4230 -3.1601
 4754SOL    HW225896   4.631   1.793   2.820 -0.8384  0.0560  0.4617
 4755SOL     OW25897   4.495   3.462   6.083  0.7392 -0.2352 -0.3269
 4755SOL    HW125898   4.427   3.422   6.029  0.2208  0.0583  0.1033
 4755SOL    HW225899   4.453   3.463   6.169 -0.3616  1.8967 -0.8998
 4756SOL     OW25900   1.713   4.347   3.064 -0.1978  0.0865 -0.2796
 4756SOL    HW125901   1.622   4.338   3.034  0.1746 -3.3984 -0.3992
 4756SOL    HW225902   1.743   4.416   3.005 -0.6286 -0.0192 -0.6244
 4757SOL     OW25903   3.633   2.465   2.320 -0.3070  0.2526  0.4461
 4757SOL    HW125904   3.555   2.519   2.330 -0.8638 -0.1380 -1.8184
 4757SOL    HW225905   3.642   2.454   2.226 -0.8489  1.4069  0.2645
 4758SOL     OW25906   0.252   2.931   4.661  0.1801 -0.0486  0.4434
 4758SOL    HW125907   0.229   3.005   4.717 -0.8487  0.8143 -1.1463
 4758SOL    HW225908   0.345   2.932   4.640  0.3632  0.7577  1.2925
 4759SOL     OW25909   4.277   4.030   4.484 -0.3276 -0.0508  0.0817
 4759SOL    HW125910   4.257   3.936   4.476 -0.6527 -0.2376  3.1282
 4759SOL    HW225911   4.197   4.069   4.451 -0.1761  0.7542  0.6788
 4760SOL     OW25912   2.065   1.179   7.678 -0.2049 -0.8337 -0.5518
 4760SOL    HW125913   2.124   1.237   7.629  1.4777 -1.1855  1.0579
 4760SOL    HW225914   2.016   1.245   7.727  1.1750 -0.1274 -0.1095
 4761SOL     OW25915   1.117   2.546   6.702  0.1270  0.1166  0.3654
 4761SOL    HW125916   1.162   2.551   6.618  1.4124  1.6496  1.1239
 4761SOL    HW225917   1.030   2.558   6.666  1.0851  2.6943 -1.0947
 4762SOL     OW25918   0.873   1.667   5.943 -0.2215 -0.2362  0.2043
 4762SOL    HW125919   0.780   1.667   5.969 -0.8142  1.4186 -1.9375
 4762SOL    HW225920   0.876   1.720   5.863  0.3795 -2.3408 -1.1514
 4763SOL     OW25921   0.554   0.288  15.514  0.1110  0.4170 -0.2257
 4763SOL    HW125922   0.567   0.380  15.540 -1.3547  0.9283 -1.3350
 4763SOL    HW225923   0.643   0.255  15.530 -0.0576  0.8479  1.6587
 4764SOL     OW25924   1.860   2.129   8.619  0.1352  0.6556 -0.0296
 4764SOL    HW125925   1.870   2.217   8.656  0.2755  1.1586 -1.2836
 4764SOL    HW225926   1.783   2.135   8.564 -0.5972 -1.8630  0.7422
 4765SOL     OW25927   3.337   4.112   9.775  0.5250  0.3224  0.1151
 4765SOL    HW125928   3.327   4.199   9.814  1.6712  0.7755 -0.6123
 4765SOL    HW225929   3.406   4.131   9.712 -1.7428  1.1955 -2.0709
 4766SOL     OW25930   3.894   0.664   0.869 -0.4157 -0.0343  0.4448
 4766SOL    HW125931   3.946   0.739   0.897  0.7056 -1.5341  2.4106
 4766SOL    HW225932   3.922   0.594   0.929 -0.5662  0.1376  0.7177
 4767SOL     OW25933   2.400   0.840   8.260  0.0651  0.2807 -0.1705
 4767SOL    HW125934   2.486   0.882   8.250 -0.3342  1.0573 -0.3737
 4767SOL    HW225935   2.422   0.747   8.255  0.3548  0.2455  1.7164
 4768SOL     OW25936   4.549   3.654   7.705 -0.5116 -0.2354 -0.4538
 4768SOL    HW125937   4.468   3.676   7.751 -0.9782 -0.9499 -0.9409
 4768SOL    HW225938   4.595   3.642   7.789 -0.0190 -0.6112 -0.7759
 4769SOL     OW25939   3.298   1.770   6.707  0.3282  0.4060 -0.3707
 4769SOL    HW125940   3.202   1.769   6.711  0.3274 -1.7121 -1.0166
 4769SOL    HW225941   3.311   1.726   6.623 -2.9233 -2.5446  0.6646
 4770SOL     OW25942   4.304   3.279   3.861  0.0074  0.1720  0.1893
 4770SOL    HW125943   4.281   3.280   3.768 -1.4877 -0.7575  0.5591
 4770SOL    HW225944   4.219   3.252   3.894  0.3332  0.3283  1.1556
 4771SOL     OW25945   0.757   4.327   4.716 -0.2976 -0.2858 -0.1164
 4771SOL    HW125946   0.812   4.302   4.791  1.4844  3.6158 -0.0902
 4771SOL    HW225947   0.785   4.413   4.685  3.3663 -1.7155 -0.8109
 4772SOL     OW25948   4.073   1.716   3.702  0.1906 -0.0203  0.2769
 4772SOL    HW125949   4.005   1.650   3.717 -1.1058  1.2570  0.0415
 4772SOL    HW225950   4.139   1.659   3.662  1.6878  2.6785 -1.0414
 4773SOL     OW25951   1.505   0.255   9.980 -0.4769  0.1672 -0.1474
 4773SOL    HW125952   1.511   0.304  10.062 -0.9531 -2.7700  1.6586
 4773SOL    HW225953   1.515   0.169  10.022  0.1992 -0.3160 -1.2894
 4774SOL     OW25954   0.174   1.108   8.086  0.1699  0.0715 -0.2983
 4774SOL    HW125955   0.247   1.085   8.143  0.1919  1.9456  0.4357
 4774SOL    HW225956   0.155   1.201   8.098 -1.1740 -0.4086  1.5023
 4775SOL     OW25957   4.216   4.023   6.416 -0.1794 -0.4281 -0.3252
 4775SOL    HW125958   4.165   3.949   6.385  1.5025 -0.8974 -1.9600
 4775SOL    HW225959   4.150   4.059   6.475  1.5603  1.4223  0.5215
 4776SOL     OW25960   2.532   3.883   8.456  0.1580 -0.1373  0.3233
 4776SOL    HW125961   2.447   3.860   8.418  0.8940 -3.7832  0.9351
 4776SOL    HW225962   2.492   3.905   8.540 -1.2074 -0.0158 -0.3634
 4777SOL     OW25963   3.836   1.288   3.015 -0.2378 -0.0151  0.5705
 4777SOL    HW125964   3.751   1.244   3.014 -0.4332  0.3785 -0.0547
 4777SOL    HW225965   3.842   1.316   3.106 -2.4708  0.3807  0.6023
 4778SOL     OW25966   1.687   3.049  17.199 -0.2107  0.0111 -0.2357
 4778SOL    HW125967   1.699   2.955  17.213 -0.4156 -0.0268 -0.3163
 4778SOL    HW225968   1.722   3.060  17.110  1.2021  3.2929  0.7208
 4779SOL     OW25969   2.751   1.395   4.221 -0.1798 -0.7157 -0.1036
 4779SOL    HW125970   2.693   1.400   4.297 -0.7760 -2.3747 -0.4624
 4779SOL    HW225971   2.724   1.472   4.171 -0.1047 -1.4185 -1.2171
 4780SOL     OW25972   1.579   2.994   4.153  0.2153 -0.0215  0.5219
 4780SOL    HW125973   1.654   2.985   4.212  0.4630 -2.3111 -0.1211
 4780SOL    HW225974   1.514   3.042   4.203 -2.0431 -1.0787 -1.3744
 4781SOL     OW25975   3.347   1.720  16.603 -0.3148 -0.2045  0.0836
 4781SOL    HW125976   3.345   1.641  16.548 -0.0593 -0.5651  0.6007
 4781SOL    HW225977   3.442   1.727  16.606 -0.3882  0.5379  0.6324
 4782SOL     OW25978   3.913   2.372  16.091  0.3303  0.2285 -0.5951
 4782SOL    HW125979   3.942   2.453  16.051 -0.7217  0.8421 -0.1257
 4782SOL    HW225980   3.846   2.350  16.026 -0.1141 -1.5514  0.4656
 4783SOL     OW25981   4.175   4.495  12.255 -0.3908 -0.0662  0.6718
 4783SOL    HW125982   4.102   4.439  12.282 -0.3401  0.2757  1.5363
 4783SOL    HW225983   4.215   4.515  12.340  0.9379  2.6560 -0.6004
 4784SOL     OW25984   2.162   4.563  15.699  0.2507  0.1969 -0.2757
 4784SOL    HW125985   2.253   4.556  15.724  0.8343  0.7022 -2.2197
 4784SOL    HW225986   2.125   4.639  15.745 -1.0810 -1.4658  1.3775
 4785SOL     OW25987   0.420   4.106  12.906 -0.2899  0.8086  1.2624
 4785SOL    HW125988   0.353   4.059  12.955  0.1392 -0.5905  0.5224
 4785SOL    HW225989   0.406   4.194  12.940 -0.2199  0.8642  1.1491
 4786SOL     OW25990   1.982   1.114   8.876  0.2140 -0.0623 -0.5670
 4786SOL    HW125991   2.021   1.081   8.795  1.9912  1.5767 -0.3711
 4786SOL    HW225992   1.913   1.050   8.894 -0.2776  0.2082 -1.5043
 4787SOL     OW25993   1.857   0.297   7.307 -1.1591 -0.1403  0.2620
 4787SOL    HW125994   1.829   0.205   7.312  2.4039 -1.2859 -0.9282
 4787SOL    HW225995   1.799   0.331   7.375 -2.3049 -1.7102  0.0673
 4788SOL     OW25996   2.462   1.299   8.305  0.4016  1.0046 -0.2278
 4788SOL    HW125997   2.383   1.248   8.284  0.3753  0.3968  1.3755
 4788SOL    HW225998   2.431   1.388   8.320 -1.3516  0.5218 -0.9338
 4789SOL     OW25999   0.652   4.077   4.220  0.4811  0.2386 -0.3499
 4789SOL    HW126000   0.742   4.085   4.188  0.2581 -0.7805 -1.2359
 4789SOL    HW226001   0.677   4.044   4.306  1.2204  1.1645 -0.2149
 4790SOL     OW26002   1.534   2.547   6.940  0.0898 -0.5651  0.2646
 4790SOL    HW126003   1.501   2.486   6.874 -1.3426  0.0863  0.3755
 4790SOL    HW226004   1.464   2.613   6.938 -1.1227 -1.8328  1.2146
 4791SOL     OW26005   1.337   4.529   3.303  0.1448 -0.3275 -0.2750
 4791SOL    HW126006   1.400   4.509   3.372  0.8348  0.8062 -0.5868
 4791SOL    HW226007   1.287   4.447   3.305  1.0636 -0.8622  0.3253
 4792SOL     OW26008   1.309   2.170  14.019 -0.0718  0.4956  0.1774
 4792SOL    HW126009   1.360   2.191  14.097 -0.7984 -0.6596  0.9770
 4792SOL    HW226010   1.231   2.119  14.043  0.3956  0.1006  0.8504
 4793SOL     OW26011   3.165   1.530   2.628 -0.4486  0.3384  0.0032
 4793SOL    HW126012   3.202   1.457   2.578 -0.9336  1.3482 -1.8121
 4793SOL    HW226013   3.071   1.515   2.623 -0.7468  1.7224  1.5054
 4794SOL     OW26014   4.345   2.233   3.054  0.0587 -0.4814  0.2069
 4794SOL    HW126015   4.388   2.212   2.971  0.3026 -0.8380  0.4181
 4794SOL    HW226016   4.331   2.142   3.081 -1.3194 -0.7166 -1.3710
 4795SOL     OW26017   0.201   1.297   2.449  0.0580 -0.9283  0.1034
 4795SOL    HW126018   0.132   1.275   2.511 -0.5381 -0.0457 -0.2479
 4795SOL    HW226019   0.215   1.213   2.407 -4.9600 -2.3299  1.2760
 4796SOL     OW26020   2.926   2.878   0.598  0.4461 -0.3774 -0.2975
 4796SOL    HW126021   2.956   2.938   0.666  0.6916 -1.8177  0.8770
 4796SOL    HW226022   2.869   2.816   0.643 -0.1413  0.6323  0.3439
 4797SOL     OW26023   0.552   0.350  16.271  0.5541  0.1151 -0.4401
 4797SOL    HW126024   0.517   0.439  16.271  1.7168  0.5858  1.6263
 4797SOL    HW226025   0.645   0.363  16.250  0.0375  2.4221 -1.2346
 4798SOL     OW26026   0.445   2.827   7.327  0.0113 -0.0764 -0.6827
 4798SOL    HW126027   0.373   2.807   7.387  0.1505 -1.9041 -1.1220
 4798SOL    HW226028   0.471   2.909   7.369 -1.2094 -0.3528  0.6223
 4799SOL     OW26029   2.756   4.397   3.653 -0.1000  0.7253  0.4924
 4799SOL    HW126030   2.841   4.353   3.658  0.4835  1.7411 -0.3921
 4799SOL    HW226031   2.708   4.330   3.605 -0.2007  0.7286  0.5891
 4800SOL     OW26032   0.511   1.990   9.553  0.2102  0.3926 -0.0510
 4800SOL    HW126033   0.417   2.005   9.564 -0.1771 -1.3948 -1.0847
 4800SOL    HW226034   0.518   1.895   9.552 -0.0607  0.3796 -0.5189
 4801SOL     OW26035   0.699   2.713   7.278  0.2081  0.1751  0.2649
 4801SOL    HW126036   0.606   2.735   7.284  0.1578  0.0414 -0.0783
 4801SOL    HW226037   0.711   2.718   7.373  0.4628 -0.1949  0.2508
 4802SOL     OW26038   2.441   3.989  14.661  0.4747  0.5982  0.1025
 4802SOL    HW126039   2.441   3.900  14.626 -1.3221 -0.9141  3.9628
 4802SOL    HW226040   2.370   3.981  14.724 -0.9401  1.6303 -1.3536
 4803SOL     OW26041   0.658   0.401   8.063 -0.5664 -0.1767  0.0140
 4803SOL    HW126042   0.564   0.420   8.071 -0.3267  0.3105  1.7994
 4803SOL    HW226043   0.677   0.449   7.982 -1.8189 -1.6805 -1.1769
 4804SOL     OW26044   4.067   2.982  11.794  0.1464  0.5907  0.2639
 4804SOL    HW126045   4.060   3.004  11.701 -0.1390  0.5760  0.2824
 4804SOL    HW226046   4.141   2.921  11.794 -1.9034 -1.8981  1.0791
 4805SOL     OW26047   0.512   4.401  11.751  0.0756 -0.5003 -0.1748
 4805SOL    HW126048   0.504   4.388  11.845 -0.4881  1.9536  0.1103
 4805SOL    HW226049   0.428   4.367  11.721 -0.0563 -1.8376  1.6729
 4806SOL     OW26050   0.063   1.035   6.372  0.6793  0.4196  0.8657
 4806SOL    HW126051   4.708   1.031   6.393  1.5825 -0.3903  4.6751
 4806SOL    HW226052   0.103   1.032   6.459 -0.8131  0.7508  1.5600
 4807SOL     OW26053   1.795   4.347  13.609  0.0749 -0.3912  0.1153
 4807SOL    HW126054   1.751   4.421  13.651 -1.1430 -0.9818 -0.1111
 4807SOL    HW226055   1.885   4.356  13.640  0.1053  1.9915 -0.6963
 4808SOL     OW26056   3.025   1.082   2.944  0.0493 -0.1242  0.1665
 4808SOL    HW126057   3.053   1.174   2.951  0.4956 -0.2899  0.5687
 4808SOL    HW226058   3.075   1.050   3.019 -3.5676  1.2015  3.1349
 4809SOL     OW26059   0.424   0.765   9.188  0.0074 -0.6608 -0.4710
 4809SOL    HW126060   0.369   0.720   9.253  0.4625 -1.3719 -0.5809
 4809SOL    HW226061   0.360   0.802   9.127  0.5102  1.7697  0.4919
 4810SOL     OW26062   2.328   1.860   5.560  0.0469  0.2871 -0.2125
 4810SOL    HW126063   2.353   1.781   5.610  1.7579 -0.1118 -1.6849
 4810SOL    HW226064   2.233   1.868   5.568  0.0846 -0.1698  0.7521
 4811SOL     OW26065   3.702   0.609   2.180 -0.0073  0.1547 -0.9902
 4811SOL    HW126066   3.745   0.687   2.144 -1.9836  0.9194 -1.6613
 4811SOL    HW226067   3.766   0.566   2.237  0.2768 -0.1412 -1.5293
 4812SOL     OW26068   2.060   2.186   6.152 -0.0445 -0.3028 -0.2316
 4812SOL    HW126069   2.131   2.126   6.132  0.5878  0.3974 -0.0882
 4812SOL    HW226070   2.006   2.177   6.073  2.9584  2.2154 -2.5591
 4813SOL     OW26071   3.686   4.663   8.506 -0.7547  0.0205 -0.4063
 4813SOL    HW126072   3.719   4.603   8.572  1.5451  2.1655  0.3726
 4813SOL    HW226073   3.653   4.729   8.567 -0.2147 -0.6239  0.5750
 4814SOL     OW26074   0.366   2.822   8.038 -0.1313  0.1354  0.5086
 4814SOL    HW126075   0.298   2.800   8.101 -1.0190  1.0640 -0.1324
 4814SOL    HW226076   0.388   2.910   8.069 -2.6223  0.9159  0.0342
 4815SOL     OW26077   0.458   2.459   4.449 -0.1690  0.2248 -0.1080
 4815SOL    HW126078   0.530   2.422   4.397 -0.7464  0.9294 -1.4156
 4815SOL    HW226079   0.398   2.388   4.425  0.0505 -0.1574  0.4691
 4816SOL     OW26080   3.324   0.173   0.998  0.2136  0.1595  0.2415
 4816SOL    HW126081   3.246   0.187   0.944 -0.0426 -1.2715  0.2520
 4816SOL    HW226082   3.335   0.079   0.984 -4.2619 -0.4478  0.8013
 4817SOL     OW26083   2.875   3.185   5.782 -0.1815  0.1992 -0.2011
 4817SOL    HW126084   2.908   3.100   5.754  0.9359  0.1460  1.2595
 4817SOL    HW226085   2.886   3.183   5.877 -1.4969  0.3318 -0.0511
 4818SOL     OW26086   3.284   2.640   8.045 -0.6129 -0.6261  0.1277
 4818SOL    HW126087   3.356   2.598   8.092 -0.9007 -2.6809 -1.2589
 4818SOL    HW226088   3.330   2.710   7.999 -2.8567  0.3418 -0.6360
 4819SOL     OW26089   3.446   0.905   1.279  0.0904  0.4611 -0.8382
 4819SOL    HW126090   3.523   0.870   1.324  1.3354  3.5436 -0.5295
 4819SOL    HW226091   3.404   0.949   1.353  2.1907 -1.0456  1.2387
 4820SOL     OW26092   0.301   0.409   1.679 -0.1685  0.4171  0.9411
 4820SOL    HW126093   0.309   0.473   1.608  0.6708  0.1512  0.7913
 4820SOL    HW226094   0.394   0.406   1.702  0.4543  0.7326 -1.4894
 4821SOL     OW26095   4.706   2.216   6.053  0.3496 -0.3659  0.0442
 4821SOL    HW126096   0.043   2.184   6.004 -1.0306 -2.7979 -0.5073
 4821SOL    HW226097   4.628   2.213   5.998  0.5965 -2.1607 -0.2315
 4822SOL     OW26098   3.488   0.760   3.519 -0.5498  0.0696  0.0854
 4822SOL    HW126099   3.458   0.835   3.569  1.1912  0.5591  0.3745
 4822SOL    HW226100   3.438   0.688   3.558 -0.4734 -0.5596 -0.9601
 4823SOL     OW26101   2.450   1.194   5.156  0.2929  0.3288 -0.2133
 4823SOL    HW126102   2.430   1.143   5.078  0.2972 -1.3744  0.9099
 4823SOL    HW226103   2.385   1.151   5.212 -0.8747  2.7526  0.3006
 4824SOL     OW26104   2.500   3.741   2.490  0.2575  0.0422  0.1962
 4824SOL    HW126105   2.583   3.696   2.501  0.2604 -0.2195 -0.8939
 4824SOL    HW226106   2.520   3.834   2.483 -0.9892  0.2638 -0.4933
 4825SOL     OW26107   2.428   0.289   3.208 -0.5226  0.4875 -0.4275
 4825SOL    HW126108   2.506   0.287   3.153 -0.3891 -1.2121 -0.1708
 4825SOL    HW226109   2.462   0.338   3.282 -0.4999 -0.3105  0.1008
 4826SOL     OW26110   2.408   3.252   1.586 -0.5790  0.3691 -0.4087
 4826SOL    HW126111   2.402   3.211   1.500 -0.9295 -0.8220  0.1717
 4826SOL    HW226112   2.440   3.339   1.562 -0.0108  0.5147  0.8758
 4827SOL     OW26113   4.372   1.537  14.565  0.5307  0.8077  0.0990
 4827SOL    HW126114   4.451   1.502  14.606  0.8848 -0.4214 -1.6213
 4827SOL    HW226115   4.389   1.628  14.543  0.8136  0.2090 -2.1239
 4828SOL     OW26116   2.787   3.004   8.411 -0.0780  0.1488 -0.1508
 4828SOL    HW126117   2.812   3.039   8.497  0.6059 -1.5378  0.3351
 4828SOL    HW226118   2.782   3.085   8.361  1.6870 -0.0347 -0.6248
 4829SOL     OW26119   2.136   0.122   1.639  0.3723  0.0174  0.9541
 4829SOL    HW126120   2.200   0.121   1.710  0.8913  2.0924  0.5113
 4829SOL    HW226121   2.092   0.206   1.652  2.7965  1.4919 -0.3615
 4830SOL     OW26122   3.795   2.384   3.275 -0.8027 -0.4032  0.1373
 4830SOL    HW126123   3.730   2.361   3.208  1.4651 -0.7469 -1.9587
 4830SOL    HW226124   3.777   2.476   3.294 -0.9355 -0.6721  1.3214
 4831SOL     OW26125   3.159   1.409   6.168 -0.1834  0.3990  0.8786
 4831SOL    HW126126   3.069   1.436   6.184 -0.9851 -2.5470  1.4906
 4831SOL    HW226127   3.194   1.492   6.136  0.2609  0.2099  0.8767
 4832SOL     OW26128   1.375   0.760   3.718 -0.2004 -0.3720 -0.7962
 4832SOL    HW126129   1.300   0.778   3.774 -0.2799 -1.4262 -0.5688
 4832SOL    HW226130   1.332   0.745   3.634 -2.8980 -0.6096  0.6246
 4833SOL     OW26131   1.095   4.730   7.889  0.1966  0.1776 -0.0233
 4833SOL    HW126132   1.123   0.055   7.954 -0.9237 -0.4215  1.0449
 4833SOL    HW226133   1.038   4.671   7.938  0.8588 -1.4410 -1.2230
 4834SOL     OW26134   4.050   0.426  10.256 -0.7676 -0.0713  0.1834
 4834SOL    HW126135   4.077   0.365  10.325  1.8832  1.5153  0.5499
 4834SOL    HW226136   4.096   0.392  10.179 -1.9263 -1.0565 -0.0842
 4835SOL     OW26137   4.540   2.814   2.034  0.1401  0.4065  0.3500
 4835SOL    HW126138   4.598   2.865   1.979  2.7250 -3.0994 -0.2158
 4835SOL    HW226139   4.458   2.844   1.995 -0.3776 -1.6672 -0.1750
 4836SOL     OW26140   4.449   2.719  15.641 -0.5513  0.1567 -0.9768
 4836SOL    HW126141   4.421   2.647  15.698 -1.1876  1.2142  0.0460
 4836SOL    HW226142   4.502   2.665  15.581  0.3197 -0.3566  0.2406
 4837SOL     OW26143   0.798   2.917   8.553 -0.0303 -0.0615  0.4204
 4837SOL    HW126144   0.857   2.896   8.625  1.4121  0.4130 -0.6367
 4837SOL    HW226145   0.774   3.009   8.566 -2.4326 -0.8799  1.7524
 4838SOL     OW26146   4.189   2.084  12.859  0.0059 -0.1942 -0.4071
 4838SOL    HW126147   4.233   2.140  12.795  0.7544  0.2536  0.5143
 4838SOL    HW226148   4.118   2.058  12.800 -1.2968 -0.5918  1.3163
 4839SOL     OW26149   1.036   2.264   3.271  0.0842  1.3192 -0.0211
 4839SOL    HW126150   1.094   2.203   3.226 -2.4846 -1.4989  0.5034
 4839SOL    HW226151   1.039   2.325   3.198  1.1238  0.5033 -0.6678
 4840SOL     OW26152   3.672   4.133   0.993 -0.2449 -0.1436 -0.1358
 4840SOL    HW126153   3.664   4.228   1.000 -0.5385 -0.2373  0.8272
 4840SOL    HW226154   3.591   4.106   1.036  0.6455 -1.1224  0.9282
 4841SOL     OW26155   4.566   2.416   6.998  0.2355 -0.4614 -0.1251
 4841SOL    HW126156   4.475   2.428   6.973 -0.3671 -2.2561  1.2296
 4841SOL    HW226157   4.612   2.432   6.916  0.0034 -1.0195 -0.3658
 4842SOL     OW26158   2.562   1.430   6.886  0.1427  0.6300 -0.3359
 4842SOL    HW126159   2.647   1.458   6.921  0.6224 -1.8386  0.4410
 4842SOL    HW226160   2.531   1.518   6.863 -1.4837  0.2078  0.1971
 4843SOL     OW26161   2.767   0.968   2.310 -0.1105 -0.4994 -0.1812
 4843SOL    HW126162   2.680   1.006   2.301 -0.0949 -0.5131 -0.3881
 4843SOL    HW226163   2.763   0.882   2.268 -1.0344  0.2120 -1.5305
 4844SOL     OW26164   3.764   0.168   6.106 -0.4112  0.7737  0.0579
 4844SOL    HW126165   3.715   0.221   6.169  1.3316  1.5984  0.7154
 4844SOL    HW226166   3.790   0.243   6.052  0.1985  0.5607  0.0564
 4845SOL     OW26167   0.912   3.647   5.917  0.2879  0.0217 -0.1599
 4845SOL    HW126168   1.001   3.655   5.883  0.5120 -0.3549  0.3260
 4845SOL    HW226169   0.863   3.722   5.885  0.3276  0.3097  0.4628
 4846SOL     OW26170   0.697   1.182   5.056 -0.1240 -0.1278  0.4249
 4846SOL    HW126171   0.751   1.107   5.028 -1.7946 -1.1813 -0.0022
 4846SOL    HW226172   0.663   1.149   5.140 -2.0376  3.3344  1.0061
 4847SOL     OW26173   4.439   4.382   6.029  0.3225  0.3109 -0.1134
 4847SOL    HW126174   4.527   4.418   6.033 -0.1124  1.5545 -1.3811
 4847SOL    HW226175   4.458   4.299   6.071  1.4167 -0.1474 -1.5183
 4848SOL     OW26176   4.543   0.073   7.087 -0.0376 -0.1129 -0.4862
 4848SOL    HW126177   4.463   0.021   7.100  0.5528 -0.5991  1.1928
 4848SOL    HW226178   4.595   0.027   7.153  0.8795  0.8713 -0.5318
 4849SOL     OW26179   1.955   3.469  11.231 -0.1934 -0.1530 -0.0428
 4849SOL    HW126180   2.040   3.449  11.190  0.1088 -1.4963  1.2459
 4849SOL    HW226181   1.986   3.502  11.316  0.3354 -1.0801  0.1249
 4850SOL     OW26182   1.866   1.988   5.790  0.0516 -0.1669 -0.4321
 4850SOL    HW126183   1.886   2.065   5.842  0.8185 -0.5627 -0.1423
 4850SOL    HW226184   1.819   2.021   5.713  0.3642  0.6239 -0.2778
 4851SOL     OW26185   2.024   4.404   8.535 -0.1118 -0.2892 -0.0023
 4851SOL    HW126186   2.051   4.473   8.474 -3.4562 -0.8885 -2.1131
 4851SOL    HW226187   2.020   4.324   8.484 -0.1399  0.0864 -0.5821
 4852SOL     OW26188   3.161   2.294   3.226  0.1337 -0.0877 -0.9385
 4852SOL    HW126189   3.199   2.377   3.255 -0.9300  0.3727 -0.8421
 4852SOL    HW226190   3.078   2.328   3.191  0.2016 -0.2310 -1.2394
 4853SOL     OW26191   2.264   3.217   9.949 -0.2623  0.0376 -0.1114
 4853SOL    HW126192   2.190   3.270   9.919  0.8929  0.4665 -2.2508
 4853SOL    HW226193   2.314   3.273  10.007  0.5719 -2.1044  1.2293
 4854SOL     OW26194   2.040   3.348   3.350  0.0632  0.0693 -0.0205
 4854SOL    HW126195   1.975   3.408   3.313 -0.3097  0.0854  0.6566
 4854SOL    HW226196   2.112   3.348   3.287 -0.4427 -3.1918 -0.5694
 4855SOL     OW26197   4.629   0.895   7.001 -0.5227  0.5905 -0.0658
 4855SOL    HW126198   4.578   0.957   7.054 -0.6943  0.7103 -0.3738
 4855SOL    HW226199   4.569   0.849   6.943 -0.3076 -0.3072  0.4303
 4856SOL     OW26200   3.599   1.889   6.491  0.5032 -0.3863  0.4234
 4856SOL    HW126201   3.538   1.823   6.525  0.1208  0.8956  2.2252
 4856SOL    HW226202   3.671   1.884   6.553  0.5718 -1.0611  0.2864
 4857SOL     OW26203   2.597   3.861   2.157  0.0686 -0.0580 -0.1071
 4857SOL    HW126204   2.593   3.766   2.166  1.5311  0.0102  1.2251
 4857SOL    HW226205   2.526   3.886   2.217  0.8181  0.0914  0.7124
 4858SOL     OW26206   0.809   2.834  12.102 -0.4462  0.4673  0.1041
 4858SOL    HW126207   0.776   2.899  12.040  1.3518  0.1311 -1.2209
 4858SOL    HW226208   0.788   2.754  12.054  1.4860  0.7026 -1.1420
 4859SOL     OW26209   4.426   3.227  11.947  0.4570  0.1944  0.3752
 4859SOL    HW126210   4.341   3.198  11.979  0.0560 -2.5415 -3.1730
 4859SOL    HW226211   4.395   3.293  11.884 -0.4889  0.1746  0.8225
 4860SOL     OW26212   1.501   3.984   2.461  0.1737  0.5488  0.0470
 4860SOL    HW126213   1.455   4.052   2.510 -1.6026 -0.2939 -0.4408
 4860SOL    HW226214   1.448   3.980   2.381 -1.0226 -1.3373  0.9220
 4861SOL     OW26215   2.973   4.483   7.915 -0.1917 -0.2595  0.5279
 4861SOL    HW126216   3.065   4.488   7.888 -0.6199 -0.4263 -0.9382
 4861SOL    HW226217   2.985   4.415   7.981  1.4717  0.1018  0.6123
 4862SOL     OW26218   3.329   0.943   6.470 -0.2043  0.1648  0.1034
 4862SOL    HW126219   3.293   0.984   6.549 -0.8169 -1.7497  0.8327
 4862SOL    HW226220   3.375   0.871   6.514 -0.1177 -0.3438 -0.8332
 4863SOL     OW26221   1.972   0.758   3.571 -0.7672  0.2313  0.2122
 4863SOL    HW126222   1.919   0.827   3.530 -0.0806  1.1801  0.9155
 4863SOL    HW226223   1.976   0.788   3.662 -1.7009 -2.1157  1.0114
 4864SOL     OW26224   3.561   4.612   7.623  0.6016  0.1656 -0.1596
 4864SOL    HW126225   3.472   4.629   7.590 -0.0977 -0.8049  1.2421
 4864SOL    HW226226   3.576   4.697   7.664 -1.7681  0.9737 -0.9617
 4865SOL     OW26227   2.629   0.796   1.827  0.2419 -0.1736  0.2888
 4865SOL    HW126228   2.549   0.763   1.869 -0.8477 -0.3447 -1.9156
 4865SOL    HW226229   2.660   0.724   1.771 -0.2014 -1.4201  1.6375
 4866SOL     OW26230   3.555   4.190   6.795  0.0471  1.0324  0.3507
 4866SOL    HW126231   3.583   4.128   6.862 -1.3507  0.6980  0.6156
 4866SOL    HW226232   3.643   4.227   6.785  0.9046 -1.4330 -1.1890
 4867SOL     OW26233   3.978   4.231  15.612  0.6461 -0.5046  0.2075
 4867SOL    HW126234   3.985   4.136  15.618  1.8426 -0.4688 -0.7038
 4867SOL    HW226235   4.054   4.257  15.560  2.0070  0.2860  2.6155
 4868SOL     OW26236   0.784   1.296   8.900 -0.2566 -0.4031 -0.5668
 4868SOL    HW126237   0.697   1.272   8.868 -0.2351  1.2303 -1.8143
 4868SOL    HW226238   0.779   1.390   8.888 -0.6154 -0.1178  1.9304
 4869SOL     OW26239   1.767   4.551   4.970 -0.2280 -0.0880 -0.0700
 4869SOL    HW126240   1.798   4.642   4.973 -0.6784  0.0822 -0.5739
 4869SOL    HW226241   1.812   4.513   5.046 -1.8151 -0.2568  0.7698
 4870SOL     OW26242   1.098   0.869   7.391  0.5106 -0.3616 -0.0125
 4870SOL    HW126243   1.144   0.935   7.339 -1.7215  0.7745 -0.5795
 4870SOL    HW226244   1.126   0.794   7.339 -0.5021  0.1124 -1.2294
 4871SOL     OW26245   0.873   3.025  16.973 -0.0856 -0.5510 -0.1450
 4871SOL    HW126246   0.790   2.979  16.987 -0.3445  0.0612  0.3532
 4871SOL    HW226247   0.911   3.041  17.060  0.9364 -0.2687 -0.6469
 4872SOL     OW26248   1.288   0.048   3.863 -0.0396 -0.0226 -0.2500
 4872SOL    HW126249   1.343   4.714   3.892 -0.5516 -0.4998 -0.4867
 4872SOL    HW226250   1.202   0.005   3.871 -0.5068  0.9090 -0.2021
 4873SOL     OW26251   4.532   0.536   7.760 -0.4279  0.0750  0.0903
 4873SOL    HW126252   4.460   0.473   7.764  0.7489 -1.3268 -0.5105
 4873SOL    HW226253   4.597   0.489   7.813 -1.9619 -0.9653  1.0379
 4874SOL     OW26254   2.057   2.168   4.014 -0.1556 -0.1002 -0.0055
 4874SOL    HW126255   2.115   2.118   4.071  0.3205  0.5408  0.0768
 4874SOL    HW226256   2.060   2.254   4.056  0.4133  0.4289 -1.1403
 4875SOL     OW26257   0.199   4.085  13.236 -0.0864  0.6128  0.0615
 4875SOL    HW126258   0.223   4.176  13.252  1.9393  0.2500 -0.8668
 4875SOL    HW226259   0.286   4.047  13.254 -0.5748  0.5006  2.1771
 4876SOL     OW26260   1.445   0.213   3.700  0.1979  0.1374  0.3883
 4876SOL    HW126261   1.439   0.168   3.616  1.1932 -0.2467  0.5160
 4876SOL    HW226262   1.391   0.158   3.757  0.5340  0.1841  0.7578
 4877SOL     OW26263   1.012   2.035  15.624  0.0713  0.1254 -0.4523
 4877SOL    HW126264   1.067   2.102  15.664 -0.5163  0.3679 -0.0398
 4877SOL    HW226265   0.995   1.983  15.703  0.8062  0.7000  0.0796
 4878SOL     OW26266   2.724   3.694  12.699 -0.9992 -0.4891 -0.4071
 4878SOL    HW126267   2.668   3.672  12.624  0.5071  0.2453 -1.7383
 4878SOL    HW226268   2.725   3.790  12.710 -3.3365 -0.6169  0.9189
 4879SOL     OW26269   3.229   3.033   8.484  0.2663 -0.3131 -0.2490
 4879SOL    HW126270   3.252   3.039   8.391  1.1166  1.0800  0.0471
 4879SOL    HW226271   3.287   3.097   8.524 -0.9688  0.1189  0.8506
 4880SOL     OW26272   4.690   0.978  13.293 -0.2296 -0.3401  0.1015
 4880SOL    HW126273   0.015   0.910  13.316 -0.9389 -0.4817  1.6490
 4880SOL    HW226274   4.710   0.994  13.201  1.7761  1.0050  0.7795
 4881SOL     OW26275   4.176   3.887  17.290  0.3144 -0.4845  0.5933
 4881SOL    HW126276   4.234   3.828  17.242  1.2469  0.2702  0.8110
 4881SOL    HW226277   4.102   3.830  17.269 -1.1054  1.0616  1.4639
 4882SOL     OW26278   0.801   2.306   5.999 -0.7095 -0.1864 -0.0575
 4882SOL    HW126279   0.860   2.230   6.000  1.5990  1.6579  1.9833
 4882SOL    HW226280   0.716   2.281   6.035 -0.9331  0.8269  0.1230
 4883SOL     OW26281   1.838   0.600  16.851  0.4323  0.1969 -0.2447
 4883SOL    HW126282   1.844   0.575  16.943 -0.0982 -1.2723 -0.6038
 4883SOL    HW226283   1.915   0.557  16.813 -3.0084 -4.5399 -1.9132
 4884SOL     OW26284   3.945   1.067   0.734 -0.0566  0.7195  0.5953
 4884SOL    HW126285   3.894   1.051   0.655  1.2623 -0.3727 -0.0201
 4884SOL    HW226286   3.883   1.042   0.803 -0.1037  1.4369  0.8188
 4885SOL     OW26287   0.395   1.052  14.225  0.6049 -0.2183 -0.8644
 4885SOL    HW126288   0.421   0.960  14.224  0.5177 -0.2601  0.5647
 4885SOL    HW226289   0.421   1.076  14.136  1.0911 -1.0750 -0.9491
 4886SOL     OW26290   3.719   4.051   9.147 -0.0285 -0.2415 -0.3216
 4886SOL    HW126291   3.758   3.965   9.163 -1.3239 -0.9195 -0.8591
 4886SOL    HW226292   3.654   4.025   9.082  1.8390  0.1630 -2.3344
 4887SOL     OW26293   1.172   0.925   6.612  0.4505  0.1073  0.0029
 4887SOL    HW126294   1.137   0.839   6.636  2.1752 -0.2421  1.1736
 4887SOL    HW226295   1.096   0.959   6.564 -0.1816 -0.2732  0.7235
 4888SOL     OW26296   0.409   4.308  11.982 -0.1381 -0.2197 -0.4465
 4888SOL    HW126297   0.396   4.213  11.980  0.7505 -0.3688  0.8747
 4888SOL    HW226298   0.317   4.331  11.992 -0.2470  0.6292 -3.2982
 4889SOL     OW26299   0.384   0.221   4.223 -0.1345  0.2815  0.2013
 4889SOL    HW126300   0.303   0.240   4.271  0.8373 -0.5727  2.1957
 4889SOL    HW226301   0.423   0.308   4.212  0.1947 -0.1151 -1.7320
 4890SOL     OW26302   0.389   4.177   8.211 -0.0557  0.1430  0.0890
 4890SOL    HW126303   0.467   4.125   8.194 -0.8024 -1.0937  0.4422
 4890SOL    HW226304   0.318   4.114   8.195  1.3331 -1.2811 -0.4853
 4891SOL     OW26305   3.725   0.661  11.405  0.0313 -0.3826  0.5917
 4891SOL    HW126306   3.731   0.665  11.500 -2.0581  0.4762  0.6909
 4891SOL    HW226307   3.694   0.747  11.378  0.2844 -0.3166  0.5110
 4892SOL     OW26308   3.604   4.711   4.152  0.2920  0.5252 -0.3596
 4892SOL    HW126309   3.590   4.618   4.138 -0.2977  0.0533  3.4073
 4892SOL    HW226310   3.516   0.009   4.148  0.1864  0.3651  0.5674
 4893SOL     OW26311   1.898   2.492   5.489  0.1787 -0.4005 -0.8229
 4893SOL    HW126312   1.976   2.545   5.506  0.2699 -0.1377 -2.0519
 4893SOL    HW226313   1.845   2.506   5.568  0.7441 -1.2962 -0.2906
 4894SOL     OW26314   1.966   2.522   8.607 -0.1540  0.5125  0.3383
 4894SOL    HW126315   1.917   2.467   8.668 -0.2532  1.4101  1.0619
 4894SOL    HW226316   1.958   2.461   8.533  0.4270  2.3697 -1.2540
 4895SOL     OW26317   0.242   2.660   5.715 -0.3782 -0.1191 -0.2129
 4895SOL    HW126318   0.160   2.673   5.762 -1.0473 -0.7547 -1.2128
 4895SOL    HW226319   0.210   2.589   5.659  0.3368 -0.1027 -0.6471
 4896SOL     OW26320   0.335   1.019  14.508  0.6521  0.3593 -0.2960
 4896SOL    HW126321   0.359   0.995  14.419 -0.6861  1.7178 -1.0379
 4896SOL    HW226322   0.408   0.985  14.559  0.3392 -1.0693 -0.8046
 4897SOL     OW26323   2.528   4.529   1.801 -0.0608  0.0902 -0.1213
 4897SOL    HW126324   2.568   4.443   1.811  0.6132  0.3270 -0.7818
 4897SOL    HW226325   2.586   4.576   1.862  0.1140 -0.3589  0.0577
 4898SOL     OW26326   1.443   2.206   4.031  0.3542 -0.0189 -0.5016
 4898SOL    HW126327   1.379   2.242   4.092  0.1928  0.7150 -1.0961
 4898SOL    HW226328   1.516   2.189   4.090  1.1087  0.7302 -1.2270
 4899SOL     OW26329   1.298   1.814   7.678  0.2626  0.3197 -0.1204
 4899SOL    HW126330   1.233   1.863   7.627  0.8973  1.3222  0.0513
 4899SOL    HW226331   1.289   1.848   7.766 -0.8073 -0.1511 -0.0439
 4900SOL     OW26332   0.225   1.998   6.134 -0.6057  0.0480  0.1052
 4900SOL    HW126333   0.219   2.032   6.045 -1.0643 -2.7643 -0.9481
 4900SOL    HW226334   0.143   1.949   6.137 -0.6997  0.3202  2.0412
 4901SOL     OW26335   3.537   3.525   4.300 -0.9661  0.5091 -0.3423
 4901SOL    HW126336   3.604   3.586   4.331 -0.7935  0.9151 -1.5377
 4901SOL    HW226337   3.551   3.459   4.368  1.0154 -0.0900 -1.3325
 4902SOL     OW26338   4.049   2.029  15.111  0.1212 -0.9824 -0.0267
 4902SOL    HW126339   4.129   1.977  15.111  0.6389 -0.1848  0.1126
 4902SOL    HW226340   4.045   2.042  15.016  1.6412  0.6353  0.1368
 4903SOL     OW26341   0.239   3.701   2.395 -0.0476 -0.2645  0.0289
 4903SOL    HW126342   0.151   3.664   2.402  0.0775 -0.5992 -0.1622
 4903SOL    HW226343   0.227   3.789   2.430  2.9567 -0.2617  1.0290
 4904SOL     OW26344   2.093   3.668   8.065 -0.4031  0.3982 -0.4648
 4904SOL    HW126345   2.070   3.739   8.004  0.9972  0.1415 -1.2800
 4904SOL    HW226346   2.065   3.706   8.149 -2.0088 -0.0573 -0.7956
 4905SOL     OW26347   2.130   2.446  14.672 -0.4616  0.0301  0.1237
 4905SOL    HW126348   2.211   2.395  14.672 -0.4727  0.0024 -0.9152
 4905SOL    HW226349   2.099   2.432  14.761 -0.3670 -0.3938  0.0882
 4906SOL     OW26350   0.795   0.813   7.131 -0.7868 -0.2781 -0.0750
 4906SOL    HW126351   0.744   0.754   7.188 -0.9408  1.4549  1.5890
 4906SOL    HW226352   0.755   0.894   7.163 -1.2040 -0.9388  1.0874
 4907SOL     OW26353   2.461   2.741   2.888 -0.2417  0.1688  0.1273
 4907SOL    HW126354   2.514   2.810   2.928 -1.0433 -1.3843  3.8574
 4907SOL    HW226355   2.522   2.717   2.818  1.6277  0.3379  1.6890
 4908SOL     OW26356   0.244   1.957  11.671 -0.7430  0.2995  0.1533
 4908SOL    HW126357   0.234   1.916  11.757  0.8890  1.8321  1.0803
 4908SOL    HW226358   0.171   2.018  11.665 -1.6673 -1.0194 -1.6899
 4909SOL     OW26359   1.324   2.069   2.251 -0.2500  0.0284 -0.2708
 4909SOL    HW126360   1.420   2.062   2.258 -0.1526  1.5898 -0.1795
 4909SOL    HW226361   1.297   2.119   2.328  0.2877 -1.0134  0.5977
 4910SOL     OW26362   2.518   2.883   6.325 -0.0427  0.0333 -0.0024
 4910SOL    HW126363   2.485   2.894   6.414 -0.2489  0.0177 -0.0766
 4910SOL    HW226364   2.437   2.877   6.275  0.4106  1.0293 -0.8517
 4911SOL     OW26365   2.687   2.126   7.938  0.4230 -0.5110  0.2729
 4911SOL    HW126366   2.670   2.107   8.030 -1.3860  1.2543  0.2895
 4911SOL    HW226367   2.772   2.082   7.939  0.6970  0.0540  1.9719
 4912SOL     OW26368   0.962   4.103   0.448 -0.0849 -0.4065  0.2552
 4912SOL    HW126369   0.929   4.192   0.442 -0.9511 -0.7750 -0.4720
 4912SOL    HW226370   0.948   4.070   0.359  1.0939 -0.9722  0.2749
 4913SOL     OW26371   1.487   4.177   9.748  0.0562 -0.2409  0.1833
 4913SOL    HW126372   1.482   4.208   9.839  0.6232 -1.3921  0.6083
 4913SOL    HW226373   1.454   4.088   9.756 -0.2736  0.0988  2.6001
 4914SOL     OW26374   0.892   4.524   4.000  0.3038 -0.2187 -0.1110
 4914SOL    HW126375   0.871   4.435   3.971  0.6779 -0.3548  0.0373
 4914SOL    HW226376   0.841   4.524   4.081 -1.6479 -0.3213 -1.3324
 4915SOL     OW26377   0.734   2.786   6.382  0.3118 -0.6565 -0.3873
 4915SOL    HW126378   0.743   2.816   6.472  1.1439 -3.5848  0.5232
 4915SOL    HW226379   0.639   2.791   6.370  0.2447  0.2788  0.5775
 4916SOL     OW26380   2.991   2.908   8.623  0.4238  0.1240  0.0868
 4916SOL    HW126381   3.049   2.921   8.548  0.8400 -0.9517  0.2215
 4916SOL    HW226382   3.025   2.828   8.664 -2.0252 -1.0060 -0.1286
 4917SOL     OW26383   0.856   2.542  17.734 -0.3120  0.3827 -0.1251
 4917SOL    HW126384   0.762   2.549  17.747 -0.4392 -1.7349  0.0815
 4917SOL    HW226385   0.873   2.453   0.012 -3.7726 -0.2297  0.0006
 4918SOL     OW26386   2.503   3.439   5.882  0.3243  0.0173  0.3979
 4918SOL    HW126387   2.474   3.349   5.869  0.0747 -0.0218  1.2362
 4918SOL    HW226388   2.586   3.428   5.835  0.1784  0.7992 -0.0439
 4919SOL     OW26389   4.606   0.569   3.825  0.4031 -0.3822  0.3499
 4919SOL    HW126390   4.694   0.608   3.819 -0.5405  1.8345  0.9778
 4919SOL    HW226391   4.586   0.569   3.731 -1.8993 -1.7976  0.8291
 4920SOL     OW26392   1.571   0.020   6.133 -0.1360  0.1034  0.4255
 4920SOL    HW126393   1.639   4.697   6.159  0.7708  0.3040 -1.4878
 4920SOL    HW226394   1.524   0.025   6.217 -0.3259 -1.7063  0.4326
 4921SOL     OW26395   3.608   2.311  13.311  0.1924 -0.2471  0.0619
 4921SOL    HW126396   3.658   2.271  13.240 -0.4378  1.0120 -1.0882
 4921SOL    HW226397   3.533   2.253  13.318 -0.7596  0.8915 -0.6884
 4922SOL     OW26398   0.125   1.876   2.999 -0.5460 -0.0736 -0.7326
 4922SOL    HW126399   0.192   1.833   2.945  1.4188  1.0846  0.7681
 4922SOL    HW226400   0.136   1.833   3.084  1.1060 -1.3406 -1.5823
 4923SOL     OW26401   1.421   3.220   4.301 -0.1999  0.1349  0.3653
 4923SOL    HW126402   1.417   3.315   4.286  0.6026  0.0505 -0.4055
 4923SOL    HW226403   1.326   3.207   4.307 -0.3245  1.0218  0.3016
 4924SOL     OW26404   0.803   0.095   7.057  0.3786 -0.6989  0.0824
 4924SOL    HW126405   0.749   0.144   7.119  0.3974  0.6526 -0.9806
 4924SOL    HW226406   0.829   0.016   7.104  0.8339  1.0561  2.7752
 4925SOL     OW26407   2.791   1.404   8.099  0.4993 -0.1046  0.1642
 4925SOL    HW126408   2.762   1.496   8.098  0.2694 -0.1721  0.7207
 4925SOL    HW226409   2.843   1.418   8.178  0.1694  0.3506  0.2992
 4926SOL     OW26410   2.650   4.200   7.386 -0.7116  0.3098  0.0089
 4926SOL    HW126411   2.627   4.136   7.453  0.2266 -0.7626 -0.7026
 4926SOL    HW226412   2.603   4.276   7.421 -1.2312 -0.1589  0.3137
 4927SOL     OW26413   1.493   4.575   4.987 -0.1483 -0.2973 -0.1266
 4927SOL    HW126414   1.444   4.603   4.910  2.9465  2.1993 -1.2067
 4927SOL    HW226415   1.587   4.580   4.970  0.0070 -3.1640 -0.1213
 4928SOL     OW26416   3.730   3.188   5.615  0.2584 -0.0695 -0.6111
 4928SOL    HW126417   3.815   3.208   5.574 -1.1083 -2.2985 -4.4992
 4928SOL    HW226418   3.678   3.265   5.594  0.2170  0.1420  0.2825
 4929SOL     OW26419   3.184   1.005  13.769 -0.5888  0.0108  0.2237
 4929SOL    HW126420   3.124   0.958  13.828 -0.7987 -0.3713 -0.2995
 4929SOL    HW226421   3.230   0.938  13.719  1.4644  1.1907  0.5003
 4930SOL     OW26422   0.425   0.622  10.298  0.5273  0.6474  0.5702
 4930SOL    HW126423   0.387   0.579  10.221  0.0201 -1.9537  2.2540
 4930SOL    HW226424   0.404   0.564  10.371  1.2565 -0.2754  0.0540
 4931SOL     OW26425   3.976   2.804  12.005 -0.6830 -0.1945  0.6466
 4931SOL    HW126426   3.984   2.851  11.922  2.0197 -2.8153 -0.5522
 4931SOL    HW226427   4.064   2.774  12.025 -0.2355  0.3857 -0.4089
 4932SOL     OW26428   0.270   4.363   7.392  0.1596 -0.5468  0.0044
 4932SOL    HW126429   0.295   4.380   7.483 -0.2766 -1.0966  0.2246
 4932SOL    HW226430   0.284   4.448   7.352  1.5869 -1.7591 -2.0593
 4933SOL     OW26431   1.700   0.661   8.921  0.4961 -0.5670 -0.3166
 4933SOL    HW126432   1.645   0.586   8.895  0.0408 -0.5397  0.5531
 4933SOL    HW226433   1.739   0.622   8.999  2.1180  2.1180  0.1960
 4934SOL     OW26434   0.592   1.863  11.906  0.6409 -0.6131 -0.3253
 4934SOL    HW126435   0.570   1.778  11.942  1.3641 -1.3547 -1.6313
 4934SOL    HW226436   0.531   1.914  11.959 -1.8428 -1.5196 -2.2682
 4935SOL     OW26437   1.592   1.207   3.721 -0.6523 -0.2136  0.2900
 4935SOL    HW126438   1.504   1.197   3.684 -0.6757  1.0038  0.0266
 4935SOL    HW226439   1.611   1.115   3.741 -0.0429 -0.2857 -0.6586
 4936SOL     OW26440   2.772   1.060   8.612  0.2959 -0.0492 -0.1709
 4936SOL    HW126441   2.702   1.116   8.643 -0.6414 -2.3830  1.9252
 4936SOL    HW226442   2.796   1.093   8.525  0.8518 -0.5490 -0.2067
 4937SOL     OW26443   4.214   2.663  12.073 -0.0480  0.1801  0.2835
 4937SOL    HW126444   4.250   2.663  11.984  0.6930  4.4824  0.5795
 4937SOL    HW226445   4.269   2.598  12.116 -0.3308 -0.3355 -0.1189
 4938SOL     OW26446   1.936   1.481   8.721 -0.6219  0.0314 -0.4297
 4938SOL    HW126447   1.863   1.452   8.775 -1.2704  2.1996 -0.1322
 4938SOL    HW226448   1.949   1.570   8.754 -0.4163  0.2930 -1.2025
 4939SOL     OW26449   2.507   2.747   4.668 -0.3044  0.1853  0.3401
 4939SOL    HW126450   2.508   2.662   4.712  2.7034  0.8052  1.4782
 4939SOL    HW226451   2.549   2.724   4.585  1.1231 -1.5184  1.5152
 4940SOL     OW26452   1.635   1.605   3.801 -0.0027 -0.1207  0.1551
 4940SOL    HW126453   1.668   1.690   3.773  0.1120 -0.6965 -1.4569
 4940SOL    HW226454   1.557   1.597   3.747  2.6946  0.8248 -3.9217
 4941SOL     OW26455   0.013   3.563  10.534 -0.0808 -0.0006  0.9271
 4941SOL    HW126456   0.026   3.527  10.622 -0.6655  0.4484  1.1970
 4941SOL    HW226457   4.657   3.576  10.528  0.1599  0.9841 -0.6931
 4942SOL     OW26458   3.272   3.799   1.184  0.4687 -0.5712  0.7451
 4942SOL    HW126459   3.237   3.787   1.095  1.8154 -0.0396  0.1536
 4942SOL    HW226460   3.366   3.809   1.174  0.2442  1.4136  0.6371
 4943SOL     OW26461   0.938   1.752   4.993 -0.3675 -0.5483  0.1284
 4943SOL    HW126462   0.987   1.675   4.963 -1.4595 -1.4177  0.5755
 4943SOL    HW226463   1.000   1.825   4.986 -0.8239 -0.4510 -2.7572
 4944SOL     OW26464   3.397   2.644  12.672  0.2780 -0.1201  0.4188
 4944SOL    HW126465   3.454   2.621  12.599 -0.2647  0.9051 -0.3182
 4944SOL    HW226466   3.470   2.673  12.727  0.4298  1.1766 -0.4789
 4945SOL     OW26467   2.733   1.175   9.027  0.1965 -0.2777 -0.5922
 4945SOL    HW126468   2.692   1.109   8.971  0.8281 -1.4794  0.3895
 4945SOL    HW226469   2.676   1.184   9.103  0.9115  0.5503 -0.1482
 4946SOL     OW26470   1.649   4.131   8.688  0.0213 -0.2341  0.0460
 4946SOL    HW126471   1.562   4.094   8.697 -0.1402 -0.1689 -1.3592
 4946SOL    HW226472   1.629   4.213   8.644 -2.1839  0.5549  2.5005
 4947SOL     OW26473   1.589   3.862   1.722  0.3074 -0.1756 -0.4378
 4947SOL    HW126474   1.596   3.806   1.799  0.0614  0.5952  0.1376
 4947SOL    HW226475   1.663   3.822   1.677 -0.1873  0.7031 -2.0178
 4948SOL     OW26476   0.525   0.791  14.319 -0.0843 -0.3676 -0.2230
 4948SOL    HW126477   0.552   0.705  14.351  1.0155  0.1134  0.1758
 4948SOL    HW226478   0.431   0.780  14.332  0.3441 -1.7369  1.8391
 4949SOL     OW26479   3.013   2.039   3.296  0.4877 -0.2095 -0.2459
 4949SOL    HW126480   2.971   2.015   3.213 -2.6621 -1.4342  1.6820
 4949SOL    HW226481   3.084   2.095   3.265  2.6003 -2.9124 -0.2887
 4950SOL     OW26482   3.980   3.373   4.769  0.1246  0.5441 -0.4618
 4950SOL    HW126483   4.035   3.451   4.756  0.7156  0.1625 -0.2307
 4950SOL    HW226484   4.043   3.307   4.798  0.4308  0.8687 -0.3682
 4951SOL     OW26485   4.085   3.096   4.717 -0.0540  0.5233  0.0049
 4951SOL    HW126486   4.055   3.128   4.802  2.4690  1.7377  0.4498
 4951SOL    HW226487   4.071   3.002   4.729 -1.8362  0.5975 -1.4256
 4952SOL     OW26488   0.334   4.138   7.898 -0.0982  0.0604 -0.1545
 4952SOL    HW126489   0.270   4.078   7.937  0.7044 -0.4537  0.3986
 4952SOL    HW226490   0.384   4.162   7.976 -2.4208 -0.6426  1.5400
 4953SOL     OW26491   2.345   0.961   5.305  0.0384  0.4247 -0.6487
 4953SOL    HW126492   2.273   1.019   5.282  0.8827  1.3897 -0.8608
 4953SOL    HW226493   2.317   0.876   5.271  1.8746 -0.5173  0.1594
 4954SOL     OW26494   3.216   2.254  17.600 -0.2815  0.1091 -0.4918
 4954SOL    HW126495   3.209   2.350  17.597  1.1367  0.2371  0.5476
 4954SOL    HW226496   3.212   2.238  17.695 -0.9156 -1.6613 -0.8264
 4955SOL     OW26497   4.330   1.242  10.124 -0.4014  0.4646  0.1040
 4955SOL    HW126498   4.257   1.301  10.109 -0.3777  0.4628 -0.0247
 4955SOL    HW226499   4.327   1.247  10.219  2.1054 -0.0482  0.2272
 4956SOL     OW26500   2.090   0.343   2.174 -0.3177  0.4561 -0.0602
 4956SOL    HW126501   2.076   0.386   2.257 -0.0970  0.0994  0.1636
 4956SOL    HW226502   2.178   0.308   2.190 -0.5389  0.0380  0.2307
 4957SOL     OW26503   2.787   2.436   8.763  0.4519 -0.4346 -0.1186
 4957SOL    HW126504   2.764   2.519   8.805  1.3829 -1.1839  1.8324
 4957SOL    HW226505   2.760   2.478   8.681 -1.3228  0.7638  1.0684
 4958SOL     OW26506   2.604   3.513   5.529  0.0664  0.0238 -0.2128
 4958SOL    HW126507   2.659   3.585   5.500 -1.0433  0.3552 -1.4871
 4958SOL    HW226508   2.645   3.477   5.608 -0.1606  0.6607  0.1990
 4959SOL     OW26509   4.484   3.079   1.334 -0.2324  0.0604 -0.0385
 4959SOL    HW126510   4.437   3.121   1.406  0.2911 -1.7627  1.3471
 4959SOL    HW226511   4.571   3.078   1.375  0.4755  1.1449 -1.4946
 4960SOL     OW26512   2.668   2.248   3.626  0.4439  0.3117  0.3999
 4960SOL    HW126513   2.663   2.212   3.537 -1.1699  2.0393 -0.2130
 4960SOL    HW226514   2.708   2.334   3.610  0.4231 -0.0506 -1.6905
 4961SOL     OW26515   3.250   0.873   5.957  0.3506  0.4174  0.0685
 4961SOL    HW126516   3.263   0.938   6.027  1.0121 -0.3403  0.6406
 4961SOL    HW226517   3.339   0.862   5.925 -0.2450  0.2922 -1.5355
 4962SOL     OW26518   4.438   3.595   0.907 -0.4821  0.1247  0.0180
 4962SOL    HW126519   4.409   3.506   0.886  1.3229 -0.9032  1.9176
 4962SOL    HW226520   4.530   3.572   0.919  0.3264  2.8667 -0.8057
 4963SOL     OW26521   0.039   0.750   2.613  0.1673 -0.1333 -0.0679
 4963SOL    HW126522   0.035   0.834   2.658  2.4078 -0.2817  0.4111
 4963SOL    HW226523   0.125   0.714   2.635 -0.3511  0.1846  2.4685
 4964SOL     OW26524   2.892   1.334  12.830 -0.0745  0.3521  0.2777
 4964SOL    HW126525   2.967   1.391  12.810 -0.2377 -0.0336 -1.4593
 4964SOL    HW226526   2.823   1.391  12.796  0.2547  0.2864 -0.5116
 4965SOL     OW26527   3.662   0.559  11.732 -0.2391 -1.4911  0.0701
 4965SOL    HW126528   3.613   0.477  11.731 -2.7314 -0.0474  0.8114
 4965SOL    HW226529   3.737   0.539  11.788  1.6761 -0.1557 -2.0154
 4966SOL     OW26530   3.426   4.300  15.454 -0.0045 -0.5512  0.8160
 4966SOL    HW126531   3.517   4.289  15.427 -0.6485 -2.1075 -0.7076
 4966SOL    HW226532   3.435   4.385  15.496  3.0629  0.8093 -2.6993
 4967SOL     OW26533   2.454   2.433   5.463  0.4309  0.4969  0.4942
 4967SOL    HW126534   2.434   2.497   5.394  0.3987 -0.9660 -0.8439
 4967SOL    HW226535   2.385   2.368   5.449  1.1560 -0.4980  1.5924
 4968SOL     OW26536   1.976   1.497   8.433 -0.0501  0.2106  0.1267
 4968SOL    HW126537   1.881   1.500   8.425 -0.0516 -0.7686 -0.3156
 4968SOL    HW226538   1.992   1.516   8.525 -1.3376 -0.5814  0.5101
 4969SOL     OW26539   4.001   2.818   6.737 -0.3999  0.0974 -0.0188
 4969SOL    HW126540   4.016   2.847   6.647 -2.4960  1.9424  0.2135
 4969SOL    HW226541   3.921   2.864   6.762 -0.9764 -1.0669  0.2783
 4970SOL     OW26542   0.267   3.481   1.836 -0.5477  0.3113  0.0118
 4970SOL    HW126543   0.275   3.463   1.930  1.4084  1.6991  0.1198
 4970SOL    HW226544   0.171   3.474   1.832 -0.7423  2.2941  1.1322
 4971SOL     OW26545   4.633   0.910   4.786 -0.0386  0.2438  0.3681
 4971SOL    HW126546   4.592   0.996   4.770 -0.2126 -0.0922 -1.0061
 4971SOL    HW226547   4.673   0.904   4.873  0.1748  2.3201  0.4178
 4972SOL     OW26548   0.185   4.173  14.584  0.4775  0.0688  0.0353
 4972SOL    HW126549   0.267   4.126  14.600 -0.2720 -0.3456  2.6316
 4972SOL    HW226550   0.188   4.212  14.496 -1.6894 -1.1350 -0.5747
 4973SOL     OW26551   3.564   0.193   6.934 -0.1789 -0.1460  0.2422
 4973SOL    HW126552   3.481   0.172   6.892 -0.6041 -1.5120  1.7696
 4973SOL    HW226553   3.573   0.285   6.908 -0.0815  0.4103  2.2520
 4974SOL     OW26554   4.431   1.487   3.396 -0.4549 -0.0187  0.2497
 4974SOL    HW126555   4.370   1.560   3.393 -0.4646 -0.0146  0.6156
 4974SOL    HW226556   4.379   1.420   3.351  1.3246 -1.0956 -0.2156
 4975SOL     OW26557   2.686   2.083  11.401  0.1761 -0.2541 -0.1691
 4975SOL    HW126558   2.712   2.040  11.320  0.0951 -0.5197 -0.0544
 4975SOL    HW226559   2.709   2.176  11.392 -0.9999  0.1683  1.0982
 4976SOL     OW26560   1.971   2.395   2.002  0.2673 -0.4325  0.3792
 4976SOL    HW126561   1.982   2.445   1.921  1.7483 -1.0928  0.1699
 4976SOL    HW226562   2.005   2.308   1.984  2.4724 -0.4384  4.5321
 4977SOL     OW26563   3.376   1.659   5.230 -0.0720  0.0031  0.0805
 4977SOL    HW126564   3.447   1.718   5.203  0.8364 -1.0378  0.1655
 4977SOL    HW226565   3.410   1.570   5.215  1.4219  1.0171 -2.6583
 4978SOL     OW26566   4.606   2.500  12.091  0.0650 -0.0373  0.1054
 4978SOL    HW126567   4.692   2.490  12.050  0.3567  0.1011  0.6813
 4978SOL    HW226568   4.556   2.536  12.017  0.8214 -0.8666 -0.8101
 4979SOL     OW26569   2.615   1.748   5.515 -0.9112 -0.0843  0.0788
 4979SOL    HW126570   2.661   1.718   5.593 -0.9781 -0.6115 -0.0897
 4979SOL    HW226571   2.647   1.836   5.497  0.0796 -0.3413  0.5968
 4980SOL     OW26572   4.007   0.484   4.004 -0.3501 -0.6375  0.3180
 4980SOL    HW126573   3.994   0.497   3.910 -0.8633  0.3621  0.5298
 4980SOL    HW226574   4.102   0.499   4.008 -0.2110 -1.3539 -0.4260
 4981SOL     OW26575   2.519   1.736   6.844 -0.4830 -0.3790 -0.2861
 4981SOL    HW126576   2.529   1.769   6.933 -3.0374 -0.7324  0.1486
 4981SOL    HW226577   2.591   1.782   6.801 -0.2681 -0.7105 -0.2827
 4982SOL     OW26578   0.989   4.103  16.152 -0.0376  0.8421 -0.9661
 4982SOL    HW126579   0.976   4.182  16.099 -3.6198 -0.0159 -1.3689
 4982SOL    HW226580   1.048   4.131  16.222 -1.2495 -1.7199  1.0594
 4983SOL     OW26581   4.332   0.912   3.720 -0.3769 -0.3759  0.2533
 4983SOL    HW126582   4.407   0.956   3.679  0.4036 -2.0267 -0.0983
 4983SOL    HW226583   4.362   0.824   3.741 -1.0797 -0.3587  1.2956
 4984SOL     OW26584   0.910   1.797   2.967  0.5778  0.1087  0.2295
 4984SOL    HW126585   0.886   1.710   2.937 -1.1469 -0.0221  1.9234
 4984SOL    HW226586   0.861   1.852   2.906 -1.7044 -0.1279  1.8378
 4985SOL     OW26587   4.048   3.382   6.327 -0.0711  0.0850  0.3861
 4985SOL    HW126588   3.975   3.326   6.355  0.0766 -0.0006  0.6018
 4985SOL    HW226589   4.120   3.355   6.384 -0.1454 -0.1805  0.3543
 4986SOL     OW26590   1.935   4.667   7.879  0.4665  0.3076 -0.3598
 4986SOL    HW126591   1.974   0.013   7.900 -0.9697  1.3213 -1.8165
 4986SOL    HW226592   1.849   4.687   7.843  0.5997  2.7741  0.7226
 4987SOL     OW26593   2.379   1.846   6.377  0.1437  0.5516 -0.0138
 4987SOL    HW126594   2.372   1.857   6.472  0.6728 -0.1038  0.0987
 4987SOL    HW226595   2.429   1.924   6.352  1.7430 -0.4428  0.0707
 4988SOL     OW26596   2.333   3.733   1.747  0.1518 -0.2610 -1.0997
 4988SOL    HW126597   2.294   3.663   1.695  0.8831 -2.1369  0.8204
 4988SOL    HW226598   2.283   3.727   1.829  0.2745 -0.4532 -1.0375
 4989SOL     OW26599   0.628   0.172   4.897  0.6432  0.0924 -0.1691
 4989SOL    HW126600   0.592   0.144   4.981  0.2418  1.3965  0.0918
 4989SOL    HW226601   0.687   0.104   4.863  2.5336  1.4566  0.4252
 4990SOL     OW26602   4.184   1.749   4.201 -0.3894  0.2261  0.0731
 4990SOL    HW126603   4.206   1.669   4.248 -0.5974  1.6185  2.5690
 4990SOL    HW226604   4.274   1.778   4.187 -0.6000  0.8026 -0.0712
 4991SOL     OW26605   1.815   1.491  12.843  1.2004 -0.5837  0.4644
 4991SOL    HW126606   1.784   1.567  12.793 -0.6946 -1.8238 -0.2318
 4991SOL    HW226607   1.910   1.498  12.833  0.9502  0.3397 -1.3354
 4992SOL     OW26608   0.753   1.950  16.467  0.1782 -0.3988  0.1959
 4992SOL    HW126609   0.704   1.879  16.424 -0.1417  0.4664 -0.8759
 4992SOL    HW226610   0.841   1.940  16.431  0.2975 -0.3844  0.4863
 4993SOL     OW26611   4.248   2.618   2.835  0.2270 -0.4359 -0.2471
 4993SOL    HW126612   4.336   2.580   2.830  0.1693 -0.8289  1.9204
 4993SOL    HW226613   4.258   2.655   2.923 -0.3324 -0.9512  0.0292
 4994SOL     OW26614   2.896   3.054   5.221  0.0330  0.1685 -0.2656
 4994SOL    HW126615   2.932   3.142   5.214 -0.9706  0.3083 -3.4859
 4994SOL    HW226616   2.820   3.056   5.163 -0.7958  1.4595  0.8879
 4995SOL     OW26617   1.351   3.051   5.424  0.1554  0.6083  0.0967
 4995SOL    HW126618   1.328   3.143   5.437 -1.2492  0.3351 -0.4534
 4995SOL    HW226619   1.272   3.016   5.466  1.9326 -1.3130  1.8481
 4996SOL     OW26620   4.157   4.658  13.132 -0.0061  0.3313 -0.6565
 4996SOL    HW126621   4.122   4.710  13.205  1.7427  0.9267 -0.2280
 4996SOL    HW226622   4.097   4.583  13.132 -0.3070  0.5600  0.2779
 4997SOL     OW26623   0.893   1.794   1.806  0.2881  0.1218  0.1309
 4997SOL    HW126624   0.902   1.714   1.754  1.3523  0.0110  0.4812
 4997SOL    HW226625   0.799   1.807   1.814 -0.0841 -2.5982  0.3438
 4998SOL     OW26626   4.061   1.452   9.397 -0.0322 -0.2927 -0.4081
 4998SOL    HW126627   4.060   1.489   9.486 -3.0360  0.2352 -0.6626
 4998SOL    HW226628   4.021   1.367   9.416  2.2593 -1.4259 -0.5701
 4999SOL     OW26629   3.651   3.220   4.233 -0.0398 -0.3621 -0.5651
 4999SOL    HW126630   3.595   3.226   4.156 -3.2464  3.7883  2.0797
 4999SOL    HW226631   3.664   3.313   4.250  0.5973 -0.7652  1.1276
 5000SOL     OW26632   3.855   2.347   1.876  0.5363 -0.1285 -0.1659
 5000SOL    HW126633   3.880   2.273   1.820  0.4143 -0.7720  0.6227
 5000SOL    HW226634   3.802   2.402   1.819  0.0812 -0.0177  0.3711
 5001SOL     OW26635   2.333   3.978  12.335  0.0012  0.1007  0.5395
 5001SOL    HW126636   2.379   3.894  12.337  1.0882  0.7331  1.6737
 5001SOL    HW226637   2.362   4.026  12.412 -0.1533 -1.2289  1.4390
 5002SOL     OW26638   4.082   4.699   6.818  0.4684  0.5450 -0.2873
 5002SOL    HW126639   4.066   4.642   6.742  1.9003 -3.0741  2.1494
 5002SOL    HW226640   3.990   4.714   6.841  0.5673  0.9190 -0.1278
 5003SOL     OW26641   3.889   3.019   2.896 -0.2691  0.2539 -0.6284
 5003SOL    HW126642   3.965   2.986   2.943 -0.4194  0.0138 -0.5521
 5003SOL    HW226643   3.929   3.075   2.830 -0.4909 -0.8156 -1.6789
 5004SOL     OW26644   0.963   1.185  12.939  0.9152  0.0007 -0.6572
 5004SOL    HW126645   1.053   1.171  12.970  1.5492  0.2941 -2.3493
 5004SOL    HW226646   0.924   1.192  13.026 -1.2538  1.0589 -1.7074
 5005SOL     OW26647   1.816   4.142   9.966 -0.0447 -0.5347 -0.1738
 5005SOL    HW126648   1.830   4.086   9.889 -0.3965 -0.4793 -0.2789
 5005SOL    HW226649   1.744   4.097  10.010  0.1850 -0.3987  0.3379
 5006SOL     OW26650   4.246   4.340   6.573  0.1989  0.7337 -0.5794
 5006SOL    HW126651   4.298   4.350   6.654  0.3114 -0.4766 -0.4984
 5006SOL    HW226652   4.179   4.406   6.590  0.8463  0.9805  1.0669
 5007SOL     OW26653   0.835   1.011   7.374 -0.4324 -0.0974 -0.5243
 5007SOL    HW126654   0.924   0.983   7.393 -0.4640 -1.0861 -1.8006
 5007SOL    HW226655   0.846   1.106   7.371 -0.4761 -0.1432 -2.7505
 5008SOL     OW26656   2.255   4.234   6.953 -0.1238  0.2263  0.1753
 5008SOL    HW126657   2.336   4.217   6.905  0.1987  2.3287 -0.0241
 5008SOL    HW226658   2.195   4.195   6.890  1.9378  1.9679 -2.8895
 5009SOL     OW26659   4.042   2.534   5.425 -0.5914  0.4574  0.1249
 5009SOL    HW126660   3.970   2.526   5.487 -1.7944 -0.5634 -1.4012
 5009SOL    HW226661   4.016   2.477   5.352  0.9259  1.9565 -1.6193
 5010SOL     OW26662   0.753   1.798   7.985  0.0794 -0.4716  0.2309
 5010SOL    HW126663   0.733   1.710   8.016 -1.0927 -0.1810  0.3022
 5010SOL    HW226664   0.680   1.851   8.018  1.6827 -0.8068  4.2084
 5011SOL     OW26665   2.263   2.239   5.304 -0.4051  0.0012 -0.2159
 5011SOL    HW126666   2.258   2.269   5.213 -1.8321 -0.0492 -0.1511
 5011SOL    HW226667   2.170   2.235   5.322 -0.0588 -0.8712  1.4129
 5012SOL     OW26668   3.516   3.122  17.336 -0.1552 -0.4366  0.1799
 5012SOL    HW126669   3.483   3.211  17.328 -2.7797 -1.5881 -1.7053
 5012SOL    HW226670   3.582   3.109  17.268 -1.0457  0.3108 -0.8105
 5013SOL     OW26671   0.016   4.250   6.418  0.2314  0.2572  0.0626
 5013SOL    HW126672   4.726   4.159   6.403 -1.2710  0.7066  0.2216
 5013SOL    HW226673   4.706   4.279   6.495  2.8399 -0.6792  2.0504
 5014SOL     OW26674   4.715   0.270   6.246  0.0203  0.5028 -0.1425
 5014SOL    HW126675   0.061   0.307   6.268  0.2309 -0.7883  1.2189
 5014SOL    HW226676   4.700   0.218   6.325 -3.2258  2.9685  0.8977
 5015SOL     OW26677   2.378   0.453   4.764  0.3248 -0.3248 -0.7196
 5015SOL    HW126678   2.433   0.442   4.687  1.1028 -0.8883 -0.0736
 5015SOL    HW226679   2.432   0.500   4.827  2.1927 -3.1328 -0.2580
 5016SOL     OW26680   4.726   0.257   5.192  0.4021  0.6040  0.6626
 5016SOL    HW126681   4.719   0.326   5.125  1.7230 -1.7242 -1.8998
 5016SOL    HW226682   4.692   0.183   5.142  1.8181  1.3264 -1.3925
 5017SOL     OW26683   4.066   4.250   0.927  0.1500  0.1030 -0.1137
 5017SOL    HW126684   4.101   4.232   0.840  2.2521 -0.2942  0.8165
 5017SOL    HW226685   4.028   4.166   0.949 -2.2281  0.9042 -1.2034
 5018SOL     OW26686   3.460   3.261   1.336 -0.2686  0.2271 -0.2034
 5018SOL    HW126687   3.435   3.236   1.425  0.2692  0.6605  0.0651
 5018SOL    HW226688   3.552   3.237   1.327 -0.4733 -0.1849 -1.1498
 5019SOL     OW26689   1.669   4.710   7.806 -0.4673  0.0470 -0.0118
 5019SOL    HW126690   1.631   0.040   7.859  0.5442 -0.2241  1.0711
 5019SOL    HW226691   1.601   4.648   7.831  2.4122 -3.7414 -1.4998
 5020SOL     OW26692   1.119   0.195  13.809 -0.0315  0.1953  0.1005
 5020SOL    HW126693   1.039   0.156  13.846 -0.0507 -0.6818 -0.8768
 5020SOL    HW226694   1.089   0.238  13.729  0.4636 -2.7940 -1.6872
 5021SOL     OW26695   0.034   4.172   7.053  0.5970 -0.3017 -0.3399
 5021SOL    HW126696   0.057   4.161   7.145 -2.6936 -1.3459  0.3615
 5021SOL    HW226697   0.015   4.080   7.037 -0.2416 -0.4268  1.3974
 5022SOL     OW26698   4.137   0.926   1.661  0.1331 -0.2582  0.2034
 5022SOL    HW126699   4.201   0.872   1.706  2.2734  0.2761 -2.1936
 5022SOL    HW226700   4.053   0.900   1.698 -0.5852  1.6575 -0.1115
 5023SOL     OW26701   1.774   4.318   7.308 -0.3684  0.3538  0.0911
 5023SOL    HW126702   1.786   4.328   7.213  1.8325  1.3480  0.4858
 5023SOL    HW226703   1.856   4.353   7.341  0.0291  0.2926 -0.8264
 5024SOL     OW26704   4.081   3.311   4.476 -0.2483  0.4648  0.7999
 5024SOL    HW126705   4.030   3.375   4.427 -2.0469 -1.0933  0.6067
 5024SOL    HW226706   4.014   3.246   4.499  0.0089 -0.5815 -1.3122
 5025SOL     OW26707   3.038   2.444   0.542 -0.3010 -1.2232  0.7598
 5025SOL    HW126708   2.945   2.424   0.530 -0.6434 -0.1588  1.5491
 5025SOL    HW226709   3.023   2.492   0.624  0.9437  2.9546 -1.4931
 5026SOL     OW26710   3.174   4.533  15.796  0.0583 -0.4249  0.4392
 5026SOL    HW126711   3.266   4.542  15.818  0.1063 -1.0138  0.4808
 5026SOL    HW226712   3.130   4.562  15.876  0.4134  1.2885  0.0117
 5027SOL     OW26713   2.468   3.628   8.661 -0.2671 -0.1640  0.7039
 5027SOL    HW126714   2.426   3.713   8.674  0.8141  0.6304 -1.0314
 5027SOL    HW226715   2.554   3.664   8.639 -0.5843 -1.0463 -1.8634
 5028SOL     OW26716   4.105   1.230   1.759 -0.0094  0.1929  0.4799
 5028SOL    HW126717   4.195   1.221   1.790  0.9860  1.6510 -2.0024
 5028SOL    HW226718   4.090   1.139   1.734 -0.5334  0.2771  0.4770
 5029SOL     OW26719   1.785   4.165   9.189 -0.4039 -0.3853 -0.2197
 5029SOL    HW126720   1.734   4.190   9.267 -0.7578 -1.3401 -0.1488
 5029SOL    HW226721   1.711   4.150   9.131 -0.4185  0.9071 -0.5267
 5030SOL     OW26722   2.484   1.482   2.015  0.0666  0.4523 -0.6813
 5030SOL    HW126723   2.414   1.455   2.074 -0.1170  1.4511 -0.4440
 5030SOL    HW226724   2.443   1.497   1.930 -1.5796 -0.2634 -0.0064
 5031SOL     OW26725   1.354   3.243   3.915  0.1640  0.2937 -0.4807
 5031SOL    HW126726   1.262   3.268   3.907 -0.1201 -0.7213 -0.4086
 5031SOL    HW226727   1.379   3.310   3.979 -0.3959  0.9788 -0.9819
 5032SOL     OW26728   3.451   1.404   5.209  0.5091 -0.0043 -0.2159
 5032SOL    HW126729   3.360   1.383   5.228  0.7061  0.8698  1.6934
 5032SOL    HW226730   3.498   1.344   5.267  0.9264  1.2300  0.7204
 5033SOL     OW26731   1.099   0.951  10.413 -0.4235 -0.2062 -0.5434
 5033SOL    HW126732   1.113   1.042  10.386  2.0077 -0.4527 -0.1077
 5033SOL    HW226733   1.104   0.905  10.329 -1.5083 -0.0649 -0.6883
 5034SOL     OW26734   1.571   4.399   5.836 -0.2875 -0.0456 -0.1006
 5034SOL    HW126735   1.641   4.444   5.789 -0.0145 -0.8827 -0.4942
 5034SOL    HW226736   1.524   4.352   5.768  0.7325 -0.3880 -0.5694
 5035SOL     OW26737   1.983   1.085   9.771 -0.4569  0.0587  0.0882
 5035SOL    HW126738   2.025   1.090   9.686 -0.2194  0.9658  0.2607
 5035SOL    HW226739   2.006   1.169   9.810  0.1521 -0.3315  0.5825
 5036SOL     OW26740   0.038   2.402   0.472  0.2116  0.4379 -0.3290
 5036SOL    HW126741   0.124   2.364   0.459  0.0747 -0.4166  1.3418
 5036SOL    HW226742   4.718   2.349   0.418 -0.2682  0.4802  0.1486
 5037SOL     OW26743   3.617   1.493   2.183 -0.0620  0.0071 -0.0028
 5037SOL    HW126744   3.613   1.578   2.226  2.8727  0.6416 -0.9638
 5037SOL    HW226745   3.543   1.514   2.126  1.3084  1.1377 -1.3831
 5038SOL     OW26746   4.086   4.107   6.630 -0.9038 -0.2826 -0.7393
 5038SOL    HW126747   4.098   4.064   6.714 -0.4717  0.8914 -0.1994
 5038SOL    HW226748   4.131   4.192   6.634 -2.0639  0.3355 -0.9194
 5039SOL     OW26749   4.043   3.419   5.762  0.4159  0.3310  0.1941
 5039SOL    HW126750   4.122   3.372   5.737 -0.3709 -1.0209  0.2882
 5039SOL    HW226751   4.071   3.511   5.763 -1.9407  1.0549  0.2891
 5040SOL     OW26752   1.795   4.135   1.481 -0.3602 -0.5898 -0.4504
 5040SOL    HW126753   1.734   4.185   1.535  1.8048  1.3097  0.2066
 5040SOL    HW226754   1.752   4.051   1.467  1.1621 -1.2980 -0.8994
 5041SOL     OW26755   3.431   3.064   7.021 -0.1125  0.1108  0.1587
 5041SOL    HW126756   3.380   3.125   7.074  0.3938 -1.1787  2.1460
 5041SOL    HW226757   3.366   3.029   6.960 -0.5635 -1.8263  1.7560
 5042SOL     OW26758   0.945   3.808   7.677 -0.2258 -0.3987  0.3508
 5042SOL    HW126759   0.979   3.740   7.734  1.4985  1.1069  1.1042
 5042SOL    HW226760   1.023   3.864   7.678 -0.8899  0.4265  3.5489
 5043SOL     OW26761   1.333   2.067  17.506  0.2697  0.7728 -0.5090
 5043SOL    HW126762   1.297   2.104  17.587  1.1912 -0.7710  0.6229
 5043SOL    HW226763   1.278   1.989  17.497  0.0488  0.8713 -0.0372
 5044SOL     OW26764   4.040   2.456   2.795 -0.9733  0.1613  0.2547
 5044SOL    HW126765   4.117   2.497   2.834  0.9416 -2.0610 -1.2074
 5044SOL    HW226766   4.034   2.384   2.857  1.7337  1.2487  1.7576
 5045SOL     OW26767   4.370   1.655  12.158  0.0917 -0.1168 -0.4488
 5045SOL    HW126768   4.277   1.669  12.180 -0.4176 -1.3440 -1.8514
 5045SOL    HW226769   4.372   1.719  12.087  3.0606 -1.0911 -1.2407
 5046SOL     OW26770   4.377   4.436  15.955 -0.6948  0.5902 -0.5091
 5046SOL    HW126771   4.302   4.453  16.012 -0.3193 -1.0150  0.4539
 5046SOL    HW226772   4.442   4.501  15.979  0.7974 -1.1525  0.2118
 5047SOL     OW26773   0.395   3.128   3.662  0.0451 -0.8045  0.3828
 5047SOL    HW126774   0.349   3.198   3.708  1.5031 -0.0099  0.6574
 5047SOL    HW226775   0.470   3.115   3.720  2.1525 -1.6047 -2.5151
 5048SOL     OW26776   3.361   0.419   1.637  0.9240 -0.1176  0.0789
 5048SOL    HW126777   3.451   0.424   1.667  0.8580 -3.0862  0.7251
 5048SOL    HW226778   3.352   0.507   1.599 -0.9365 -0.0874  0.5951
 5049SOL     OW26779   1.436   2.905   2.096  0.2166 -0.0215 -0.6686
 5049SOL    HW126780   1.421   2.939   2.185 -1.6871 -0.1209 -0.9597
 5049SOL    HW226781   1.402   2.971   2.036  1.5257  1.1924 -0.0762
 5050SOL     OW26782   4.689   2.089  10.000  0.4777  0.4795  0.2686
 5050SOL    HW126783   4.709   2.004  10.039  0.8509  0.1625 -0.6188
 5050SOL    HW226784   4.718   2.136  10.078 -1.3886 -0.0338  1.2675
 5051SOL     OW26785   2.990   4.248   4.858  0.2741  0.6686 -0.3980
 5051SOL    HW126786   2.970   4.258   4.951  0.6345  0.1185 -0.2680
 5051SOL    HW226787   2.949   4.326   4.820 -0.0006 -0.4124 -2.3315
 5052SOL     OW26788   1.352   3.681   2.896 -0.0990 -0.6395 -0.4390
 5052SOL    HW126789   1.297   3.688   2.817 -1.5667 -0.4870  0.5912
 5052SOL    HW226790   1.400   3.763   2.885  1.7106 -1.4052  1.8398
 5053SOL     OW26791   0.450   4.234   3.841 -0.0319 -0.3029  0.0583
 5053SOL    HW126792   0.429   4.322   3.808  0.2592  0.1991  1.2386
 5053SOL    HW226793   0.461   4.245   3.935 -1.8236 -1.0231  0.3437
 5054SOL     OW26794   0.775   4.345  10.890  0.3604 -0.3804 -0.3788
 5054SOL    HW126795   0.784   4.432  10.927  0.5245 -0.5603  0.0091
 5054SOL    HW226796   0.680   4.346  10.887  0.3933  0.1744 -1.2142
 5055SOL     OW26797   2.494   2.332   3.802  0.1465  0.4904 -0.2267
 5055SOL    HW126798   2.402   2.320   3.778 -0.5505  2.8100  1.3293
 5055SOL    HW226799   2.544   2.280   3.739  1.3100  0.6243  0.5827
 5056SOL     OW26800   1.485   2.820  15.975 -0.6763  0.1905  0.5929
 5056SOL    HW126801   1.468   2.763  16.051 -3.7045 -0.2386 -0.3829
 5056SOL    HW226802   1.475   2.760  15.901 -0.3387  0.1191  0.6065
 5057SOL     OW26803   1.647   3.543   0.374  0.0866 -0.3588 -0.1438
 5057SOL    HW126804   1.647   3.493   0.456 -2.8598 -0.8085 -0.4399
 5057SOL    HW226805   1.562   3.519   0.339  0.3895 -1.3310 -0.2053
 5058SOL     OW26806   2.848   4.229  16.575  0.6321 -0.0765  0.2811
 5058SOL    HW126807   2.786   4.197  16.640  0.0396  1.3466  0.4166
 5058SOL    HW226808   2.927   4.191  16.614  0.0755  0.1564  1.6157
 5059SOL     OW26809   1.521   4.405   9.206 -0.4069  0.0023  0.0459
 5059SOL    HW126810   1.538   4.337   9.270  3.3093  0.1834 -0.7663
 5059SOL    HW226811   1.522   4.480   9.266 -1.6945  0.5366 -0.5859
 5060SOL     OW26812   3.413   2.726   6.177  0.6229  0.1198  0.1063
 5060SOL    HW126813   3.464   2.697   6.253  0.7713 -2.5550 -1.0040
 5060SOL    HW226814   3.338   2.750   6.230  1.5348 -0.0961  1.4895
 5061SOL     OW26815   4.513   2.090  16.300 -0.3027 -0.2886 -0.0555
 5061SOL    HW126816   4.445   2.157  16.291 -0.0598  0.2254  1.8553
 5061SOL    HW226817   4.578   2.150  16.335 -1.9331  1.0457  0.6833
 5062SOL     OW26818   0.128   4.153   4.201 -0.4211 -0.2715 -0.6009
 5062SOL    HW126819   0.193   4.094   4.238  0.1217  1.1232  0.6909
 5062SOL    HW226820   0.159   4.238   4.232  1.3621 -0.8748 -0.7373
 5063SOL     OW26821   3.216   2.762   4.463  0.3171 -0.1286 -0.4907
 5063SOL    HW126822   3.169   2.819   4.401  0.6796 -1.3944 -1.9323
 5063SOL    HW226823   3.166   2.778   4.543  0.0272 -2.3797 -0.2452
 5064SOL     OW26824   4.534   0.990   4.194  0.3689  0.1793 -0.2801
 5064SOL    HW126825   4.617   0.998   4.149 -0.0229  0.3478 -0.9698
 5064SOL    HW226826   4.497   1.072   4.159 -0.5965 -0.7940 -1.5144
 5065SOL     OW26827   0.049   3.406  12.049  0.0034  0.6578  0.3070
 5065SOL    HW126828   0.113   3.359  11.995 -0.4560  0.3867 -0.0063
 5065SOL    HW226829   0.060   3.375  12.139 -0.3301  0.7497  0.3783
 5066SOL     OW26830   0.010   2.872   1.788 -0.5287 -0.2264  0.3730
 5066SOL    HW126831   4.732   2.919   1.706  1.8847 -0.4678 -0.2711
 5066SOL    HW226832   4.734   2.783   1.755 -0.8565 -0.5558  1.4154
 5067SOL     OW26833   4.649   1.815  17.139  0.5683 -0.3047 -0.0087
 5067SOL    HW126834   4.704   1.891  17.159  1.1037 -1.4532  2.8678
 5067SOL    HW226835   4.584   1.816  17.209  2.6170 -0.3129  1.9159
 5068SOL     OW26836   1.376   1.858   1.729  0.2676  0.2597 -0.1754
 5068SOL    HW126837   1.419   1.925   1.781  1.3729  0.8061 -1.7722
 5068SOL    HW226838   1.287   1.889   1.713 -0.3451 -1.1887  0.4510
 5069SOL     OW26839   0.012   2.899   8.329  0.0697 -0.3295  0.5153
 5069SOL    HW126840   4.730   2.807   8.316  0.0577 -0.5699  2.1551
 5069SOL    HW226841   0.018   2.898   8.425  1.1025 -0.6059  0.4446
 5070SOL     OW26842   4.559   2.161   5.461  0.2011  0.0751  0.4005
 5070SOL    HW126843   4.642   2.208   5.455  0.0115  0.0499 -2.3329
 5070SOL    HW226844   4.514   2.182   5.379  1.5351  0.1516 -0.3089
 5071SOL     OW26845   1.341   0.379   6.168 -0.3570  0.5288 -0.1441
 5071SOL    HW126846   1.431   0.359   6.144 -0.7382 -2.2649  0.7454
 5071SOL    HW226847   1.291   0.307   6.129  0.8945  0.3807 -1.4733
 5072SOL     OW26848   3.302   3.822  15.060 -0.5097  0.2159 -0.3086
 5072SOL    HW126849   3.289   3.916  15.048  2.6051  0.6756 -0.2703
 5072SOL    HW226850   3.367   3.808  14.991 -0.7429  2.0128 -0.9047
 5073SOL     OW26851   3.818   2.172   3.891  0.3758 -0.4105 -0.6237
 5073SOL    HW126852   3.761   2.230   3.839 -1.8708  0.3347  2.6590
 5073SOL    HW226853   3.887   2.158   3.827 -1.1506 -2.2026 -1.8691
 5074SOL     OW26854   0.242   3.833   3.690  0.5492  0.6710 -0.3294
 5074SOL    HW126855   0.213   3.776   3.762  0.3131  0.7391 -0.3703
 5074SOL    HW226856   0.215   3.917   3.725  0.7293  1.0018 -0.9948
 5075SOL     OW26857   1.315   0.425  16.326  0.5800 -0.4843 -0.1592
 5075SOL    HW126858   1.323   0.383  16.240  1.5026 -0.7887  0.0745
 5075SOL    HW226859   1.322   0.350  16.385  0.9138  0.5831  1.1505
 5076SOL     OW26860   2.333   4.055   0.092 -0.4290  0.3852 -0.0928
 5076SOL    HW126861   2.278   4.111   0.037 -1.0439 -0.6425 -0.5261
 5076SOL    HW226862   2.273   4.046   0.166 -0.5126 -0.1310 -0.2205
 5077SOL     OW26863   4.035   3.094   4.249  0.2323 -0.4036  0.0352
 5077SOL    HW126864   3.966   3.120   4.311  0.9252 -2.8055  1.8154
 5077SOL    HW226865   4.030   2.998   4.243 -1.3870 -0.2662 -0.9997
 5078SOL     OW26866   1.615   2.254   3.391 -0.3745  0.2061  0.1737
 5078SOL    HW126867   1.663   2.327   3.353  2.0283 -1.7363 -0.5554
 5078SOL    HW226868   1.550   2.293   3.449 -0.2610  2.2411 -1.0729
 5079SOL     OW26869   0.529   2.462   7.558  0.3443 -0.7260  0.1957
 5079SOL    HW126870   0.435   2.481   7.559  0.1177 -1.8071 -1.2038
 5079SOL    HW226871   0.532   2.381   7.507 -1.3850  0.4057 -1.6947
 5080SOL     OW26872   4.500   1.822  15.628  0.0172 -0.1888 -0.6639
 5080SOL    HW126873   4.593   1.804  15.633  0.0075 -0.0235  0.0552
 5080SOL    HW226874   4.473   1.828  15.719  0.8540 -0.7831 -0.3783
 5081SOL     OW26875   1.360   1.196   7.129 -0.2094  0.0238  0.0576
 5081SOL    HW126876   1.378   1.130   7.062  1.0697  1.0374 -0.5851
 5081SOL    HW226877   1.410   1.274   7.104 -0.3745  0.2452  0.4147
 5082SOL     OW26878   4.384   2.084   7.695  0.4780  0.2944 -0.2889
 5082SOL    HW126879   4.363   1.991   7.687 -0.1857  0.6449 -2.4116
 5082SOL    HW226880   4.394   2.094   7.601  1.0967 -0.2860 -0.2844
 5083SOL     OW26881   1.254   1.474  11.080  0.1543 -0.3695 -0.2029
 5083SOL    HW126882   1.236   1.568  11.079 -0.6477 -0.5098  0.7179
 5083SOL    HW226883   1.184   1.442  11.023  0.2278  0.7041 -0.8914
 5084SOL     OW26884   0.322   1.682   6.043 -0.1688  0.3592  0.0262
 5084SOL    HW126885   0.343   1.598   6.003 -1.5698  0.3285 -0.6314
 5084SOL    HW226886   0.231   1.699   6.020 -0.3524  1.7461  1.7262
 5085SOL     OW26887   2.250   3.078   2.150 -0.2207 -0.0383  0.5788
 5085SOL    HW126888   2.206   3.011   2.202  0.1678 -0.0222  0.9301
 5085SOL    HW226889   2.183   3.125   2.101  0.3658  0.3057  0.0984
 5086SOL     OW26890   2.382   0.321   8.856  0.2415 -0.1550 -0.0929
 5086SOL    HW126891   2.473   0.295   8.841  0.8559  0.8906  1.9509
 5086SOL    HW226892   2.399   0.401   8.906  0.5881 -1.1712  1.4024
 5087SOL     OW26893   2.987   2.027  11.529  0.2148 -0.3265 -0.2173
 5087SOL    HW126894   3.020   2.092  11.468  1.1447 -1.5040 -0.9755
 5087SOL    HW226895   2.898   2.019  11.497 -0.9083  0.8313  2.6047
 5088SOL     OW26896   1.794   0.221   2.480 -0.1560 -0.4270  0.2099
 5088SOL    HW126897   1.761   0.172   2.555  0.0849 -0.1346  0.5045
 5088SOL    HW226898   1.842   0.165   2.418  1.5703  1.2348  0.0439
 5089SOL     OW26899   0.155   2.309   0.154 -0.1306 -0.8700 -0.0130
 5089SOL    HW126900   0.082   2.363   0.122  0.6263  1.0967  1.5780
 5089SOL    HW226901   0.158   2.234   0.096  1.9944 -0.9366  0.2028
 5090SOL     OW26902   3.662   0.896   3.050  0.4487  0.1182 -0.1920
 5090SOL    HW126903   3.748   0.882   3.010  1.6164 -0.5502  2.5183
 5090SOL    HW226904   3.620   0.814   3.027  1.1173 -0.6577  1.3362
 5091SOL     OW26905   0.855   2.537   8.720  0.5834 -0.6792 -1.0020
 5091SOL    HW126906   0.886   2.515   8.807  0.7151  1.4985 -0.4960
 5091SOL    HW226907   0.891   2.476   8.656  1.8559 -0.4970 -0.4512
 5092SOL     OW26908   4.385   4.394   3.292 -0.4308 -0.0352  1.0469
 5092SOL    HW126909   4.388   4.480   3.251  0.0875 -1.5012 -2.0021
 5092SOL    HW226910   4.400   4.344   3.211 -1.5109 -2.8722  2.6088
 5093SOL     OW26911   2.424   0.731   9.629 -0.3727 -0.0422 -0.1573
 5093SOL    HW126912   2.421   0.647   9.675  0.0259 -1.1835 -2.2357
 5093SOL    HW226913   2.349   0.776   9.669 -0.2289  1.8362 -2.0299
 5094SOL     OW26914   2.382   4.623   6.543 -0.2060  0.1622  0.4777
 5094SOL    HW126915   2.307   4.677   6.519  0.4772  0.3686 -1.1591
 5094SOL    HW226916   2.461   4.677   6.549  1.3178 -1.6343 -3.4434
 5095SOL     OW26917   2.517   2.676  11.611 -0.2269 -0.8267  0.3594
 5095SOL    HW126918   2.448   2.702  11.671 -0.7982 -1.0512 -0.2007
 5095SOL    HW226919   2.593   2.735  11.615 -1.5068  0.7217  1.7513
 5096SOL     OW26920   2.235   3.466   4.706 -0.2297  0.8073 -0.6880
 5096SOL    HW126921   2.262   3.388   4.659  0.0120  1.0500 -0.9456
 5096SOL    HW226922   2.142   3.446   4.718 -0.3547  2.1033  0.5245
 5097SOL     OW26923   1.132   4.323   6.146  0.0346 -0.1988  0.0780
 5097SOL    HW126924   1.062   4.281   6.196 -2.0631  2.0831 -0.9761
 5097SOL    HW226925   1.088   4.337   6.062 -0.3540 -0.2177  0.2768
 5098SOL     OW26926   2.703   3.562   2.510 -0.4420 -0.3421  0.4123
 5098SOL    HW126927   2.767   3.561   2.582  0.4448 -1.6804 -0.4154
 5098SOL    HW226928   2.633   3.508   2.546 -0.7273 -0.9765 -1.1247
 5099SOL     OW26929   2.534   4.554   0.757  0.2001 -0.4751  0.2508
 5099SOL    HW126930   2.543   4.510   0.673 -1.0867 -0.8924  0.3263
 5099SOL    HW226931   2.461   4.505   0.794  0.1788 -0.4168  0.2867
 5100SOL     OW26932   0.786   1.807   7.365  0.5101  1.1034  0.3929
 5100SOL    HW126933   0.854   1.743   7.387  1.2573  1.0887 -1.9053
 5100SOL    HW226934   0.842   1.865   7.314  0.4577  0.7257 -0.0998
 5101SOL     OW26935   1.243   2.842  11.316 -0.0902 -0.2258 -0.6452
 5101SOL    HW126936   1.261   2.772  11.252 -3.2989 -1.2877 -0.3661
 5101SOL    HW226937   1.273   2.913  11.260  0.8426  1.7964  2.4407
 5102SOL     OW26938   1.935   3.022   7.275 -0.3103  0.5904 -0.3080
 5102SOL    HW126939   1.902   3.101   7.230 -0.1869 -0.9204 -3.0796
 5102SOL    HW226940   1.918   3.051   7.364  2.3272 -1.2321  0.7802
 5103SOL     OW26941   4.162   2.911   6.019  0.5789  0.0861  0.4444
 5103SOL    HW126942   4.199   2.879   5.936 -1.5025 -1.0373 -0.0386
 5103SOL    HW226943   4.070   2.889   6.004  0.6853  0.3563 -0.5985
 5104SOL     OW26944   0.401   3.890   8.426  0.5154 -0.2508  0.5077
 5104SOL    HW126945   0.458   3.907   8.501  1.8707  0.7877 -0.7323
 5104SOL    HW226946   0.466   3.865   8.360 -1.6990 -1.0891 -1.3259
 5105SOL     OW26947   3.555   4.092   4.710 -0.3544  0.1688  0.3769
 5105SOL    HW126948   3.626   4.038   4.746  0.5412  1.1181  0.0649
 5105SOL    HW226949   3.611   4.169   4.697 -0.9688  0.7310  1.1285
 5106SOL     OW26950   3.384   1.439   3.711 -0.4551 -0.2594  0.2948
 5106SOL    HW126951   3.472   1.478   3.711 -0.3949 -0.3948  0.9231
 5106SOL    HW226952   3.379   1.408   3.802  0.7305 -0.5963  0.2403
 5107SOL     OW26953   2.156   1.644   5.068  0.6423  0.0272  0.3036
 5107SOL    HW126954   2.155   1.729   5.111  0.7140 -0.7791  1.8778
 5107SOL    HW226955   2.111   1.656   4.984  1.0053 -0.8238 -0.0183
 5108SOL     OW26956   0.970   2.129   4.781 -0.0985  0.0029 -0.4108
 5108SOL    HW126957   1.060   2.156   4.762 -0.6290  1.6511 -0.5482
 5108SOL    HW226958   0.938   2.109   4.693  0.5553 -2.0528 -0.1811
 5109SOL     OW26959   4.333   2.682  14.813 -0.7460  0.1957 -0.3856
 5109SOL    HW126960   4.239   2.664  14.818 -0.7204  0.7766  2.1893
 5109SOL    HW226961   4.358   2.654  14.901 -0.2710 -0.7416 -0.8210
 5110SOL     OW26962   2.257   2.517  16.676  0.3982 -0.0946 -0.2790
 5110SOL    HW126963   2.320   2.533  16.606  1.5420 -0.8532  0.5618
 5110SOL    HW226964   2.180   2.555  16.633 -1.1530 -2.2961  0.5315
 5111SOL     OW26965   0.568   2.722   2.897 -0.1001 -0.6814 -0.3632
 5111SOL    HW126966   0.568   2.774   2.977 -1.8502  1.3141 -1.6486
 5111SOL    HW226967   0.587   2.636   2.935  2.6009 -0.6641 -1.6685
 5112SOL     OW26968   4.710   1.657   8.115 -0.2553  0.3380 -0.6005
 5112SOL    HW126969   4.719   1.638   8.022 -0.4562 -1.2269 -0.3030
 5112SOL    HW226970   4.699   1.565   8.141 -1.4604  0.2406 -1.4372
 5113SOL     OW26971   1.173   0.654   1.994  0.1776 -0.0311 -0.8000
 5113SOL    HW126972   1.164   0.725   1.930 -0.2629  1.2073  0.6458
 5113SOL    HW226973   1.091   0.655   2.042  1.6143 -1.7101  1.6960
 5114SOL     OW26974   4.612   1.169   2.107  0.4091  0.2695 -0.3083
 5114SOL    HW126975   4.686   1.165   2.167  1.1059 -0.2790 -1.2173
 5114SOL    HW226976   4.629   1.091   2.055 -1.8753 -0.7501  0.4558
 5115SOL     OW26977   4.152   1.333   7.437  0.6762 -0.1838 -0.0097
 5115SOL    HW126978   4.190   1.371   7.357 -0.9229  2.2685  0.3913
 5115SOL    HW226979   4.070   1.382   7.443  0.1872 -1.0230  0.0769
 5116SOL     OW26980   0.922   1.186   5.422 -0.1079 -0.2641  0.2421
 5116SOL    HW126981   0.999   1.205   5.475 -0.2696  2.1144 -0.3906
 5116SOL    HW226982   0.887   1.109   5.469 -0.3287 -0.0775  0.3833
 5117SOL     OW26983   4.454   2.174   7.142  0.5279  0.0936  0.0798
 5117SOL    HW126984   4.513   2.213   7.077  1.1218 -2.5106 -0.9407
 5117SOL    HW226985   4.385   2.240   7.139  0.1571 -0.2747  0.5998
 5118SOL     OW26986   2.812   0.325   9.946 -0.2545  0.3403  0.0574
 5118SOL    HW126987   2.765   0.383   9.886 -2.1885  0.1008  1.3642
 5118SOL    HW226988   2.788   0.236   9.921  2.3349 -0.7204  1.3461
 5119SOL     OW26989   4.671   0.627   3.554  0.2686 -0.0020  0.4707
 5119SOL    HW126990   4.580   0.617   3.526 -0.2080 -0.0237  2.0306
 5119SOL    HW226991   4.716   0.610   3.471 -2.3068  0.1500 -0.9672
 5120SOL     OW26992   3.671   0.453  15.866 -0.0787  0.2947  0.0067
 5120SOL    HW126993   3.741   0.435  15.803  1.2760 -1.0170  1.9131
 5120SOL    HW226994   3.624   0.370  15.868 -0.3272  0.3706 -2.4613
 5121SOL     OW26995   4.121   3.150   0.526 -0.0916 -0.1163 -0.2955
 5121SOL    HW126996   4.172   3.171   0.604  0.8593 -2.1451 -0.3639
 5121SOL    HW226997   4.041   3.128   0.573  0.1188 -1.4340 -0.5361
 5122SOL     OW26998   4.192   0.755   2.606  0.1569 -0.2592  0.4147
 5122SOL    HW126999   4.251   0.686   2.574  0.3493 -1.2990  3.0261
 5122SOL    HW227000   4.242   0.776   2.685 -0.4791 -0.2955  0.8249
 5123SOL     OW27001   1.407   0.829   5.775 -0.1997 -0.3415 -0.2499
 5123SOL    HW127002   1.409   0.739   5.744  3.3425 -0.7574  1.2332
 5123SOL    HW227003   1.499   0.845   5.797 -0.6901  3.2120 -0.7895
 5124SOL     OW27004   0.103   1.087   5.461  0.4807 -0.2501  0.0015
 5124SOL    HW127005   0.101   1.134   5.378  0.7221  0.8950  0.6453
 5124SOL    HW227006   0.095   1.154   5.529 -2.1257  0.8086 -1.3653
 5125SOL     OW27007   0.636   2.214  15.011 -0.0031 -0.3108 -0.0828
 5125SOL    HW127008   0.633   2.270  14.933  1.9504  1.8760  1.4229
 5125SOL    HW227009   0.577   2.143  14.984  2.0548 -1.5385 -1.3393
 5126SOL     OW27010   2.144   0.161   2.712 -0.7045  0.4162 -0.2107
 5126SOL    HW127011   2.069   0.120   2.757 -1.0810  2.2003  0.8088
 5126SOL    HW227012   2.126   0.252   2.733 -1.4594 -0.1104  1.4576
 5127SOL     OW27013   2.934   1.789  16.985 -0.5483 -0.1143 -0.1603
 5127SOL    HW127014   2.992   1.791  16.910 -0.0630  1.6626  0.2684
 5127SOL    HW227015   2.980   1.852  17.041 -0.4956 -0.0412 -0.2872
 5128SOL     OW27016   0.813   3.884   2.606 -0.3404 -0.0139 -0.6062
 5128SOL    HW127017   0.869   3.808   2.589  3.0698  1.1331  5.6010
 5128SOL    HW227018   0.778   3.910   2.521  1.9831  1.0598 -1.2268
 5129SOL     OW27019   1.589   4.041   6.556 -0.1683 -0.1726  0.0857
 5129SOL    HW127020   1.582   4.062   6.463  0.4328  1.8554  0.4988
 5129SOL    HW227021   1.502   4.055   6.593 -0.4847  0.1141 -0.7748
 5130SOL     OW27022   2.452   1.911   3.410  0.4072  0.0356 -0.5510
 5130SOL    HW127023   2.432   1.956   3.493 -0.4400 -0.4665 -0.4728
 5130SOL    HW227024   2.543   1.883   3.413  0.5417  0.4902 -0.3912
 5131SOL     OW27025   1.221   0.094   9.443  0.1649 -1.1062  0.1766
 5131SOL    HW127026   1.234   0.046   9.362  0.8102 -0.2110 -0.2511
 5131SOL    HW227027   1.127   0.109   9.433 -0.0592 -2.3876  0.3499
 5132SOL     OW27028   3.139   1.766  16.796  0.2346 -0.1236  0.5331
 5132SOL    HW127029   3.110   1.723  16.715 -1.5546  1.1094  0.5013
 5132SOL    HW227030   3.232   1.782  16.785 -0.4721  3.0675 -0.6158
 5133SOL     OW27031   4.386   2.734   3.379 -0.1366  0.2931  0.1838
 5133SOL    HW127032   4.475   2.733   3.346 -0.9861  1.2110 -2.1231
 5133SOL    HW227033   4.401   2.798   3.449  1.9679  2.6325 -2.4180
 5134SOL     OW27034   2.911   3.630   4.921 -0.1170  0.2732 -0.2978
 5134SOL    HW127035   2.954   3.622   4.836  2.2103  0.3573  0.8812
 5134SOL    HW227036   2.982   3.678   4.964 -0.9611  0.7103  0.6221
 5135SOL     OW27037   3.838   4.435   9.261  0.0516 -0.2868 -0.4440
 5135SOL    HW127038   3.894   4.447   9.338 -0.4955  6.0630 -1.0953
 5135SOL    HW227039   3.758   4.482   9.284  0.2733  0.2561 -0.7835
 5136SOL     OW27040   2.802   4.135   1.539  0.2715 -0.8554 -0.5470
 5136SOL    HW127041   2.846   4.055   1.512 -1.5278 -1.1665 -2.5795
 5136SOL    HW227042   2.825   4.130   1.632 -0.2640 -0.6552 -0.4046
 5137SOL     OW27043   0.391   0.829   0.611  0.4442 -0.3853  0.0869
 5137SOL    HW127044   0.463   0.780   0.570  1.4009  0.4818  0.7168
 5137SOL    HW227045   0.359   0.880   0.537  0.5258 -1.2272 -0.5159
 5138SOL     OW27046   2.475   2.735  17.750 -0.7311  0.3556  0.1605
 5138SOL    HW127047   2.495   2.700   0.083  0.8990  1.1583  0.0977
 5138SOL    HW227048   2.548   2.701  17.699 -0.1797  0.1104  1.1155
 5139SOL     OW27049   1.988   0.403   2.685  0.5198 -0.4284 -0.3384
 5139SOL    HW127050   1.963   0.331   2.743  0.8867 -0.6235 -0.4198
 5139SOL    HW227051   1.938   0.472   2.728  1.6778 -1.1565  2.1971
 5140SOL     OW27052   4.509   3.023   6.625 -0.0297  0.2464  0.0251
 5140SOL    HW127053   4.451   3.053   6.554  0.9297  0.2353 -0.7689
 5140SOL    HW227054   4.590   3.064   6.594 -0.5920  1.3547 -0.0016
 5141SOL     OW27055   0.378   1.685   8.128  0.4824 -0.1170  0.0720
 5141SOL    HW127056   0.362   1.685   8.034 -2.0511  0.8723  0.5212
 5141SOL    HW227057   0.297   1.722   8.163  0.2891  0.8569 -1.3909
 5142SOL     OW27058   3.665   2.870   6.090  0.8017  0.3162  0.0777
 5142SOL    HW127059   3.593   2.933   6.080  0.0945 -0.6314 -0.6973
 5142SOL    HW227060   3.622   2.818   6.157  1.5480 -2.2850 -1.4940
 5143SOL     OW27061   2.123   0.348   7.348  0.1082  0.3744  0.0754
 5143SOL    HW127062   2.128   0.261   7.386 -0.1698  0.4107  0.1925
 5143SOL    HW227063   2.030   0.363   7.336  0.4807  1.5374 -1.3512
 5144SOL     OW27064   4.131   0.177   1.872  0.1325  0.3324 -0.0058
 5144SOL    HW127065   4.154   0.180   1.779 -0.5288  1.2279 -0.1411
 5144SOL    HW227066   4.070   0.250   1.886  2.5564  2.3594  0.1038
 5145SOL     OW27067   1.809   3.010   6.727  0.3564 -0.0058  0.0910
 5145SOL    HW127068   1.790   2.961   6.648 -0.2899 -1.1211  0.9479
 5145SOL    HW227069   1.899   2.978   6.738  0.2942  0.1908  1.2391
 5146SOL     OW27070   4.666   2.030   1.953 -0.3847  0.0566 -0.0208
 5146SOL    HW127071   0.019   2.027   1.928 -0.7539 -1.6196 -1.2033
 5146SOL    HW227072   4.645   2.124   1.956  2.4599  0.6692  0.5037
 5147SOL     OW27073   2.897   3.393   3.498  0.2024  0.7831 -0.2353
 5147SOL    HW127074   2.898   3.420   3.590 -0.9674 -1.0764  0.3255
 5147SOL    HW227075   2.977   3.430   3.462  2.5171 -0.2495  3.8213
 5148SOL     OW27076   1.367   3.978  10.852 -0.8982  0.1264 -0.4268
 5148SOL    HW127077   1.329   3.911  10.795 -0.4363 -0.0342 -0.5491
 5148SOL    HW227078   1.306   3.992  10.924  0.2002 -1.2565  0.7731
 5149SOL     OW27079   0.657   1.167   5.727 -0.4233  0.0673 -0.3601
 5149SOL    HW127080   0.667   1.177   5.632  1.4398  3.3339  0.1755
 5149SOL    HW227081   0.680   1.256   5.753  1.0501 -0.0046 -1.4047
 5150SOL     OW27082   3.684   0.897   0.861 -0.5560  0.1595 -0.3563
 5150SOL    HW127083   3.743   0.838   0.813 -3.3045 -3.2691  0.4606
 5150SOL    HW227084   3.676   0.852   0.945 -0.6074 -0.0143 -0.4535
 5151SOL     OW27085   2.405   0.987   6.729 -0.4147 -0.2592  0.8125
 5151SOL    HW127086   2.448   0.936   6.660  1.8288  3.1904 -0.3632
 5151SOL    HW227087   2.419   0.941   6.812  3.6198  1.5238  1.1027
 5152SOL     OW27088   4.400   3.306   8.669  0.2381 -0.5085  0.8811
 5152SOL    HW127089   4.439   3.390   8.692 -1.3805 -0.3809  3.2195
 5152SOL    HW227090   4.336   3.291   8.739  0.9112 -2.0071  1.1568
 5153SOL     OW27091   1.999   0.195   3.343  0.5259  0.3186 -0.2956
 5153SOL    HW127092   1.928   0.217   3.283  1.6589  2.3064 -0.8865
 5153SOL    HW227093   2.076   0.207   3.288  0.0607  3.5222 -0.2480
 5154SOL     OW27094   0.240   0.933   3.168  0.0913 -0.4688  0.4558
 5154SOL    HW127095   0.188   0.897   3.240 -0.2953  0.3760  0.5988
 5154SOL    HW227096   0.194   1.014   3.146  0.0516 -1.3961 -2.8173
 5155SOL     OW27097   1.060   2.672   4.670  0.7515  0.1667  0.6268
 5155SOL    HW127098   1.017   2.600   4.715  1.3625 -2.1429 -2.4426
 5155SOL    HW227099   1.051   2.647   4.578  3.3187 -0.6154  0.5706
 5156SOL     OW27100   4.244   4.193  16.622  0.3474 -0.4681 -0.7298
 5156SOL    HW127101   4.272   4.122  16.563 -0.1831  0.9107 -2.6425
 5156SOL    HW227102   4.266   4.270  16.570 -0.7835 -0.2553 -0.8946
 5157SOL     OW27103   4.117   0.280   5.590  0.1071 -0.1552  0.5758
 5157SOL    HW127104   4.210   0.259   5.584  0.2109  0.1054  1.2182
 5157SOL    HW227105   4.099   0.229   5.669 -0.5650 -1.5857 -0.5194
 5158SOL     OW27106   2.446   2.633   6.808  0.0487 -0.1534 -1.3444
 5158SOL    HW127107   2.479   2.579   6.737 -1.3612 -0.6598 -1.6286
 5158SOL    HW227108   2.515   2.635   6.873 -0.8458 -0.1136 -0.3880
 5159SOL     OW27109   2.742   4.414   6.170  0.2478 -0.2968  0.2199
 5159SOL    HW127110   2.730   4.368   6.253 -1.2009  0.5531  0.4851
 5159SOL    HW227111   2.789   4.352   6.115 -1.5908 -0.8446 -0.7181
 5160SOL     OW27112   0.069   3.000  14.221 -0.1907 -0.2883 -0.0726
 5160SOL    HW127113   0.008   2.948  14.272 -1.2362  0.7002 -0.3067
 5160SOL    HW227114   0.102   2.939  14.155  0.0090  0.5906 -0.7973
 5161SOL     OW27115   4.467   0.795   7.662 -0.0301  0.2511  0.3025
 5161SOL    HW127116   4.488   0.722   7.720  0.7742  0.1858 -0.0775
 5161SOL    HW227117   4.393   0.757   7.615  0.0317 -0.0192  0.4266
 5162SOL     OW27118   2.458   0.102   9.183  0.1775 -0.0425 -0.3682
 5162SOL    HW127119   2.420   0.027   9.137  0.7394 -1.6537  1.7754
 5162SOL    HW227120   2.485   0.058   9.264 -0.1854  0.7585  0.1834
 5163SOL     OW27121   0.112   3.287   4.563  0.2832 -0.3709  0.5515
 5163SOL    HW127122   0.113   3.236   4.482 -0.2213 -0.7383  0.7747
 5163SOL    HW227123   0.134   3.218   4.626 -0.8416 -1.4932 -0.2925
 5164SOL     OW27124   3.675   0.807   6.682 -0.1533  0.1185  0.1893
 5164SOL    HW127125   3.651   0.888   6.637  2.6423  0.1849 -1.1585
 5164SOL    HW227126   3.758   0.784   6.642 -0.3101 -1.0738  0.5421
 5165SOL     OW27127   1.369   0.959   3.331 -0.6520  0.4821  0.0733
 5165SOL    HW127128   1.459   0.941   3.356 -0.8839  2.4978  2.3057
 5165SOL    HW227129   1.360   0.897   3.258  1.6084 -0.1124  0.2956
 5166SOL     OW27130   0.498   1.498   9.772  0.1659  0.0995  0.3322
 5166SOL    HW127131   0.487   1.416   9.821  0.2490  1.1926  2.1801
 5166SOL    HW227132   0.491   1.558   9.847 -1.9656  1.0683 -0.6537
 5167SOL     OW27133   1.289   1.753   2.810 -0.0492  0.4547  0.1969
 5167SOL    HW127134   1.225   1.708   2.864 -0.1263 -0.3306 -0.5485
 5167SOL    HW227135   1.351   1.680   2.807 -1.9440 -1.1638  1.1123
 5168SOL     OW27136   3.192   0.479   7.944 -0.5638 -0.3629  0.6407
 5168SOL    HW127137   3.242   0.433   8.012  0.5169  1.8663  1.3430
 5168SOL    HW227138   3.264   0.483   7.881  0.6845 -0.0788  2.0826
 5169SOL     OW27139   1.500   1.224   3.109 -0.3927  0.1612 -0.0816
 5169SOL    HW127140   1.572   1.169   3.141  0.4003  2.0318  1.3678
 5169SOL    HW227141   1.498   1.304   3.162 -1.1114 -0.8347  1.4019
 5170SOL     OW27142   3.395   0.001   9.904  0.4671  0.0152  0.2748
 5170SOL    HW127143   3.416   4.708   9.991  1.5015 -0.2404 -0.0702
 5170SOL    HW227144   3.337   4.675   9.865  0.0581  0.3688  0.2796
 5171SOL     OW27145   4.123   3.909   6.105  0.4756  0.3074  0.6139
 5171SOL    HW127146   4.122   3.814   6.097  0.2651  0.4221 -0.6872
 5171SOL    HW227147   4.076   3.928   6.186  1.6741 -0.6320  1.5376
 5172SOL     OW27148   0.321   1.434   5.702 -0.3021  0.0288 -0.3048
 5172SOL    HW127149   0.348   1.412   5.791  0.8218 -2.1364 -1.1787
 5172SOL    HW227150   0.384   1.503   5.682  1.4782 -0.8573  2.2833
 5173SOL     OW27151   0.882   4.154   2.096 -0.2509 -0.1004 -0.1125
 5173SOL    HW127152   0.908   4.170   2.186 -0.7082  0.4825 -0.0850
 5173SOL    HW227153   0.932   4.076   2.073 -1.1237 -1.2573  1.9199
 5174SOL     OW27154   0.426   2.937  11.372  0.2270 -0.6071 -0.4371
 5174SOL    HW127155   0.475   2.910  11.450  0.6691  1.7512  0.1146
 5174SOL    HW227156   0.488   2.984  11.316  0.6702  0.0838  0.6457
 5175SOL     OW27157   3.083   2.118   9.265  0.2736  0.2664  0.0889
 5175SOL    HW127158   3.016   2.094   9.202  0.4179  0.8039 -0.2675
 5175SOL    HW227159   3.090   2.035   9.313  0.8713  0.8266  0.9748
 5176SOL     OW27160   1.124   3.335   3.550 -0.0681 -0.4015  0.2412
 5176SOL    HW127161   1.030   3.329   3.566 -0.5364  0.4685 -2.1960
 5176SOL    HW227162   1.154   3.381   3.628 -0.4075  0.5386 -0.1913
 5177SOL     OW27163   3.579   2.813   4.642  0.3106  0.2818  0.1491
 5177SOL    HW127164   3.516   2.756   4.685 -1.7001  1.1454 -1.6465
 5177SOL    HW227165   3.643   2.746   4.621 -0.3318  0.2970 -1.9279
 5178SOL     OW27166   0.127   2.978  11.349  0.2476 -0.5298 -0.2135
 5178SOL    HW127167   0.107   3.035  11.423 -0.7881  0.4392 -1.2245
 5178SOL    HW227168   0.219   2.967  11.373 -0.1144  2.2677  2.4584
 5179SOL     OW27169   0.327   4.210   2.835  0.0352 -0.1592  0.4633
 5179SOL    HW127170   0.413   4.213   2.877  0.1245  1.3629  0.1760
 5179SOL    HW227171   0.278   4.175   2.909  1.0426 -0.9112  0.7841
 5180SOL     OW27172   1.366   1.958   8.344 -0.4597 -0.6643 -0.6732
 5180SOL    HW127173   1.461   1.956   8.336 -0.1580 -1.5983  3.2748
 5180SOL    HW227174   1.354   1.929   8.434  1.2992  0.7023 -0.0109
 5181SOL     OW27175   4.716   3.118   3.752  0.2257 -0.8063 -0.1162
 5181SOL    HW127176   0.069   3.111   3.727 -0.3068 -1.2138 -1.9983
 5181SOL    HW227177   4.694   3.026   3.768  1.7273 -1.2733 -0.7913
 5182SOL     OW27178   1.230   1.107   8.198  0.0067  0.3514 -0.0064
 5182SOL    HW127179   1.185   1.167   8.257  1.4840  1.5149 -0.0848
 5182SOL    HW227180   1.318   1.108   8.234  0.5512  0.5642 -1.3502
 5183SOL     OW27181   2.056   2.690   5.284  0.5868 -0.7022 -0.0578
 5183SOL    HW127182   2.009   2.754   5.229  0.7202  0.5380  1.2755
 5183SOL    HW227183   1.988   2.665   5.346 -0.3700 -0.7022 -1.1038
 5184SOL     OW27184   4.553   0.444  12.606  0.0847 -0.4074 -0.4706
 5184SOL    HW127185   4.498   0.376  12.646 -0.7949  0.9099  0.5911
 5184SOL    HW227186   4.479   0.494  12.570 -0.2910 -0.3840  0.3308
 5185SOL     OW27187   1.876   4.157   2.745 -0.0903  0.0011  0.0729
 5185SOL    HW127188   1.912   4.246   2.741  0.7144 -0.2550  1.4053
 5185SOL    HW227189   1.935   4.119   2.680  1.4149 -1.4367  2.2665
 5186SOL     OW27190   3.565   4.282  16.573 -0.6709  0.4021 -0.0020
 5186SOL    HW127191   3.635   4.348  16.570 -1.3772  1.0797 -1.4646
 5186SOL    HW227192   3.592   4.202  16.529  1.2561  1.2726 -0.4275
 5187SOL     OW27193   2.760   2.217   5.527 -0.4979  0.1496 -0.0069
 5187SOL    HW127194   2.714   2.172   5.599  0.7757  1.7704  1.8140
 5187SOL    HW227195   2.711   2.193   5.448  0.3319 -1.7495  0.0401
 5188SOL     OW27196   2.222   4.137  15.740  0.0860  0.5590  0.4403
 5188SOL    HW127197   2.239   4.173  15.653 -2.5305  0.8826  0.0842
 5188SOL    HW227198   2.219   4.213  15.798  2.0700 -1.1201  2.7921
 5189SOL     OW27199   1.746   2.904   4.957 -0.4454 -0.0404  0.2053
 5189SOL    HW127200   1.718   2.858   4.879  0.1273 -4.4509  2.6097
 5189SOL    HW227201   1.810   2.963   4.915  0.7705 -3.0887 -2.2029
 5190SOL     OW27202   0.434   1.306   4.697  0.3160 -0.5898 -0.1119
 5190SOL    HW127203   0.436   1.323   4.791 -2.5433  2.1613 -0.5274
 5190SOL    HW227204   0.500   1.237   4.689 -0.1030 -1.3159  2.9397
 5191SOL     OW27205   3.332   2.850   5.438  0.0071 -0.1442  0.4917
 5191SOL    HW127206   3.335   2.903   5.358  0.4472 -1.4848 -0.3836
 5191SOL    HW227207   3.238   2.860   5.455 -0.0674  0.2092 -0.1243
 5192SOL     OW27208   2.002   1.689   6.019  0.2038 -0.4323  0.5098
 5192SOL    HW127209   2.082   1.726   6.057  0.7263 -0.8708 -0.1724
 5192SOL    HW227210   2.022   1.596   6.013  1.6487 -0.0121 -1.2647
 5193SOL     OW27211   0.304   3.625   2.129  0.3569  0.1701  0.0330
 5193SOL    HW127212   0.279   3.651   2.218 -1.6831 -2.0841  0.1378
 5193SOL    HW227213   0.231   3.675   2.092  0.3871  1.9962  2.4387
 5194SOL     OW27214   1.807   2.038   8.135 -0.3689  0.6686 -0.3615
 5194SOL    HW127215   1.875   2.104   8.148 -0.1404  0.3274  0.1555
 5194SOL    HW227216   1.806   2.024   8.040 -0.8141  2.1116 -0.5634
 5195SOL     OW27217   3.361   4.424  16.106 -0.3704 -0.0063 -0.1194
 5195SOL    HW127218   3.349   4.392  16.196  2.0925  1.1918  0.6306
 5195SOL    HW227219   3.333   4.342  16.065 -1.1315 -0.6455  1.6472
 5196SOL     OW27220   4.659   1.926   2.255 -0.0799  0.3791  0.1635
 5196SOL    HW127221   4.711   1.846   2.260 -1.2744 -0.4408 -0.4687
 5196SOL    HW227222   4.659   1.933   2.159  1.6991 -0.1029  0.1266
 5197SOL     OW27223   3.649   2.171   4.337  0.1637  0.1918  0.1285
 5197SOL    HW127224   3.696   2.106   4.388  0.3870 -0.9621 -1.5544
 5197SOL    HW227225   3.680   2.146   4.250 -2.3906 -1.1547 -0.3905
 5198SOL     OW27226   3.477   4.510   9.549 -0.5510  0.4516  0.2183
 5198SOL    HW127227   3.539   4.571   9.510  1.8224 -2.3449 -0.4287
 5198SOL    HW227228   3.492   4.547   9.636  0.9896 -0.7221  0.4659
 5199SOL     OW27229   0.478   3.713  11.707 -0.1793 -0.2323  0.1938
 5199SOL    HW127230   0.392   3.695  11.745 -0.0064 -1.0800  0.1641
 5199SOL    HW227231   0.521   3.640  11.750  2.1081  2.2830  2.1995
 5200SOL     OW27232   3.208   2.244  16.664 -0.0207 -0.0806  0.6984
 5200SOL    HW127233   3.168   2.323  16.699 -1.4912 -1.6421  2.5305
 5200SOL    HW227234   3.143   2.218  16.599 -0.5178  0.0322  1.1620
 5201SOL     OW27235   2.618   0.421   4.626 -0.0819  0.0486 -0.3365
 5201SOL    HW127236   2.632   0.327   4.638 -1.4149 -0.2467 -1.1513
 5201SOL    HW227237   2.657   0.427   4.539 -0.3728  0.9186 -0.4001
 5202SOL     OW27238   2.060   0.706   9.532 -0.4051  0.0548 -0.0176
 5202SOL    HW127239   2.076   0.622   9.573 -0.3274 -0.2868 -0.7440
 5202SOL    HW227240   2.091   0.764   9.602 -0.8458  1.6314 -1.1133
 5203SOL     OW27241   4.546   4.203   8.219  0.1236  0.1071 -0.0782
 5203SOL    HW127242   4.547   4.297   8.198 -0.3737 -0.2796 -1.8547
 5203SOL    HW227243   4.454   4.190   8.241  0.1958 -1.4461 -0.7092
 5204SOL     OW27244   1.666   1.211   6.741 -0.1009 -0.5340 -0.1771
 5204SOL    HW127245   1.719   1.190   6.664  0.9409  1.0197  0.1309
 5204SOL    HW227246   1.587   1.159   6.724 -1.1630  0.6887  1.0274
 5205SOL     OW27247   4.279   2.044  15.610 -0.1553  0.0017  0.3191
 5205SOL    HW127248   4.348   2.014  15.550 -1.1175 -2.8136  0.6069
 5205SOL    HW227249   4.207   1.984  15.592 -2.9834  3.1608  1.1780
 5206SOL     OW27250   4.281   2.759   3.893  0.0658  0.0147  0.3458
 5206SOL    HW127251   4.340   2.713   3.833  0.6431  1.8897 -0.5252
 5206SOL    HW227252   4.258   2.834   3.838  3.5559  1.0459  0.3090
 5207SOL     OW27253   0.321   0.434   9.106 -0.3574 -0.0210 -0.5578
 5207SOL    HW127254   0.235   0.393   9.098 -0.6059  0.1393  1.2808
 5207SOL    HW227255   0.301   0.507   9.047 -0.4739  0.8865  0.6008
 5208SOL     OW27256   0.644   2.682   4.171 -0.2002 -0.4011  0.3673
 5208SOL    HW127257   0.719   2.632   4.203 -0.6546 -0.0525  1.9745
 5208SOL    HW227258   0.686   2.766   4.152 -1.8803 -0.2103 -2.5470
 5209SOL     OW27259   1.807   1.758  11.368 -0.3828 -0.3692 -0.3310
 5209SOL    HW127260   1.891   1.730  11.332  0.4858  1.5990  0.1961
 5209SOL    HW227261   1.759   1.675  11.368 -3.4791  1.4342  0.2787
 5210SOL     OW27262   0.532   0.558   3.231  0.0883 -0.2074  0.1810
 5210SOL    HW127263   0.562   0.475   3.269  0.7158 -0.6248 -1.2020
 5210SOL    HW227264   0.441   0.555   3.260  0.4969 -0.9954  1.3733
 5211SOL     OW27265   3.351   0.947   4.177  0.4736  0.1222  0.0437
 5211SOL    HW127266   3.323   0.856   4.186  1.7626 -0.4141 -1.3363
 5211SOL    HW227267   3.319   0.989   4.257  0.3398 -1.8145  1.0026
 5212SOL     OW27268   2.992   1.028  13.088 -0.2833 -0.0968 -0.1604
 5212SOL    HW127269   3.033   0.949  13.055  1.4813  0.7723 -0.0450
 5212SOL    HW227270   2.980   1.021  13.183  3.1944 -0.3112  0.2521
 5213SOL     OW27271   1.824   4.604   3.000  0.5310  0.5813  0.2736
 5213SOL    HW127272   1.758   4.622   3.067 -0.4694 -0.5843 -0.3995
 5213SOL    HW227273   1.763   4.589   2.929  1.0600 -0.2209 -0.0137
 5214SOL     OW27274   4.328   0.561   1.179  0.6236 -0.5604 -0.4372
 5214SOL    HW127275   4.254   0.504   1.201  1.4644 -2.1616 -1.7559
 5214SOL    HW227276   4.406   0.520   1.216  0.3668 -1.5356 -0.9817
 5215SOL     OW27277   3.496   0.084   2.671  0.1097  0.3499  0.1673
 5215SOL    HW127278   3.457   0.151   2.614 -1.8419  1.9087  3.3146
 5215SOL    HW227279   3.551   0.149   2.716  0.2794 -0.1474  0.6740
 5216SOL     OW27280   3.090   1.777  17.520 -0.6813  0.2496  0.0397
 5216SOL    HW127281   3.163   1.829  17.554  0.7184 -1.3950 -0.4521
 5216SOL    HW227282   3.131   1.704  17.474  0.5870 -0.3333  2.0891
 5217SOL     OW27283   0.760   1.251  12.753 -0.0420  0.3634  0.3112
 5217SOL    HW127284   0.742   1.158  12.739  1.0497  0.2752 -0.5011
 5217SOL    HW227285   0.837   1.236  12.809  0.2061  3.6485  0.8411
 5218SOL     OW27286   0.372   4.354   8.624  0.1756  0.1564  0.0797
 5218SOL    HW127287   0.363   4.428   8.564  0.1157  2.0239  2.3742
 5218SOL    HW227288   0.336   4.282   8.572  0.9006  1.1246 -1.7699
 5219SOL     OW27289   3.946   0.825  11.586 -0.5649  0.1739 -0.3135
 5219SOL    HW127290   4.000   0.900  11.560 -1.1030  0.8354  0.4809
 5219SOL    HW227291   3.959   0.780  11.502  0.3372 -0.1357 -0.0104
 5220SOL     OW27292   0.459   3.452   3.545  0.2283  0.4599 -0.1738
 5220SOL    HW127293   0.483   3.420   3.632  2.4352  1.1766 -0.5322
 5220SOL    HW227294   0.487   3.544   3.538  0.7835  0.3630  0.7363
 5221SOL     OW27295   3.884   0.274   2.055  0.0635 -0.1150  0.0144
 5221SOL    HW127296   3.844   0.189   2.073  1.6646 -0.4873  1.7724
 5221SOL    HW227297   3.838   0.297   1.974 -1.5025 -0.0506  0.9285
 5222SOL     OW27298   1.896   3.242  13.021  1.0176  0.1720  0.4512
 5222SOL    HW127299   1.909   3.152  12.990 -0.1405 -0.0117  0.4958
 5222SOL    HW227300   1.975   3.266  13.069  0.1990 -0.3499  2.0253
 5223SOL     OW27301   3.001   3.359   9.298 -0.3445 -0.1745 -0.2943
 5223SOL    HW127302   2.941   3.384   9.228  0.3851  0.2659 -0.7578
 5223SOL    HW227303   3.070   3.322   9.243 -1.2643  0.4488 -1.8929
 5224SOL     OW27304   1.956   1.954   1.689 -0.0990  0.6041 -0.3300
 5224SOL    HW127305   2.020   1.923   1.625  0.9858  1.3285  0.4199
 5224SOL    HW227306   1.902   2.002   1.626  0.3372 -1.4159 -2.2272
 5225SOL     OW27307   3.734   1.933  16.554 -0.2554 -0.1148 -0.2680
 5225SOL    HW127308   3.720   2.000  16.486 -0.4956  0.3868  0.2779
 5225SOL    HW227309   3.690   1.860  16.510 -1.1927  0.1988  0.1405
 5226SOL     OW27310   4.120   0.840   5.774 -0.0338 -0.0567 -0.1215
 5226SOL    HW127311   4.037   0.860   5.730 -0.0771  0.9196  0.3980
 5226SOL    HW227312   4.134   0.757   5.728  2.8887  0.5544 -0.3169
 5227SOL     OW27313   1.832   1.905   7.711 -0.1876  0.2044  0.2661
 5227SOL    HW127314   1.816   1.840   7.779  1.6406 -0.3817  0.1345
 5227SOL    HW227315   1.923   1.892   7.687  0.3388  1.8037  1.3926
 5228SOL     OW27316   0.968   0.556   0.472 -0.3091  0.5163  0.6293
 5228SOL    HW127317   0.876   0.579   0.483  0.1791  2.5955  0.3623
 5228SOL    HW227318   1.020   0.620   0.520  0.6531  1.4504 -1.6452
 5229SOL     OW27319   1.993   0.637   5.332 -0.4152 -0.0128 -0.5699
 5229SOL    HW127320   1.983   0.547   5.299  1.2273 -0.4211  0.0327
 5229SOL    HW227321   1.906   0.670   5.311 -0.3277  2.2341  2.7175
 5230SOL     OW27322   2.416   1.223   8.906  0.4599  0.8804 -0.2786
 5230SOL    HW127323   2.347   1.245   8.968 -1.2352 -0.5511 -1.6650
 5230SOL    HW227324   2.414   1.299   8.847  0.2577  0.1107 -1.2611
 5231SOL     OW27325   3.552   4.476   8.180 -0.4121  0.1577  0.0841
 5231SOL    HW127326   3.529   4.473   8.273  2.3428 -0.8323  0.7147
 5231SOL    HW227327   3.619   4.544   8.188  0.2880 -0.9109  3.2702
 5232SOL     OW27328   3.272   1.101  17.258 -0.3728 -0.1988  0.1505
 5232SOL    HW127329   3.351   1.139  17.219  0.2253 -0.0489  1.5361
 5232SOL    HW227330   3.265   1.169  17.325 -2.0316 -0.5861  0.3847
 5233SOL     OW27331   0.010   3.743   3.144 -0.0920  0.5944 -0.4140
 5233SOL    HW127332   4.704   3.790   3.074 -0.4542 -0.5510 -0.9516
 5233SOL    HW227333   4.718   3.656   3.119 -1.7452  1.0357  0.1230
 5234SOL     OW27334   3.596   4.083   1.369  0.1113 -0.1350  0.0746
 5234SOL    HW127335   3.672   4.100   1.425  0.8267  0.5267 -1.1055
 5234SOL    HW227336   3.530   4.142   1.408 -0.6249 -1.3245  0.6240
 5235SOL     OW27337   0.272   3.308   5.024 -0.2316  0.4479 -0.1238
 5235SOL    HW127338   0.343   3.367   5.048 -0.0818 -0.2437  1.1396
 5235SOL    HW227339   0.324   3.230   5.004 -1.5761  0.0251 -1.9691
 5236SOL     OW27340   4.382   1.702  17.067 -0.1415 -0.6262 -0.1367
 5236SOL    HW127341   4.408   1.690  16.976 -3.0940 -0.2240 -1.0421
 5236SOL    HW227342   4.437   1.774  17.099  0.1259 -0.5676 -0.7257
 5237SOL     OW27343   0.951   0.525   7.218  0.1404 -0.0712 -0.1202
 5237SOL    HW127344   0.999   0.442   7.226  0.4806  0.0997 -0.3675
 5237SOL    HW227345   1.014   0.590   7.184 -0.2056  0.5543  0.4249
 5238SOL     OW27346   2.571   0.295   4.088 -0.0239 -0.3195 -0.4080
 5238SOL    HW127347   2.525   0.217   4.120  0.8673 -0.4443  0.5724
 5238SOL    HW227348   2.520   0.314   4.010 -1.5150 -2.1927  0.0992
 5239SOL     OW27349   2.176   4.504   9.727  0.4655  0.4593 -0.2190
 5239SOL    HW127350   2.221   4.538   9.650  0.8948  0.6737  0.1268
 5239SOL    HW227351   2.213   4.416   9.732 -0.0123  0.1430 -2.0915
 5240SOL     OW27352   1.881   0.643   1.941 -0.0189 -0.4526 -0.8059
 5240SOL    HW127353   1.817   0.576   1.965 -0.6040  0.3800 -0.0391
 5240SOL    HW227354   1.928   0.593   1.873 -0.5900 -0.9332 -0.8478
 5241SOL     OW27355   3.353   2.366  16.402 -0.0598  0.6019 -0.1821
 5241SOL    HW127356   3.415   2.378  16.331  0.4124  1.0208  0.2953
 5241SOL    HW227357   3.394   2.301  16.459 -1.5318  0.4914  0.7677
 5242SOL     OW27358   4.539   4.603   6.640  0.1341 -0.2112  0.0739
 5242SOL    HW127359   4.565   4.511   6.625  2.0458  0.6612 -2.0358
 5242SOL    HW227360   4.630   4.631   6.655 -0.0027 -1.1204  2.5757
 5243SOL     OW27361   0.138   4.359   7.957 -0.9060  0.0885  0.0066
 5243SOL    HW127362   0.090   4.280   7.931 -1.4849  0.1614  0.8666
 5243SOL    HW227363   0.215   4.348   7.900  0.3684 -0.8695  1.9059
 5244SOL     OW27364   4.250   4.239  17.029  0.6603  0.0333  0.7129
 5244SOL    HW127365   4.186   4.224  16.960  0.1058 -1.1551  1.4931
 5244SOL    HW227366   4.315   4.172  17.008  0.6486 -0.6351  2.9074
 5245SOL     OW27367   2.374   3.974   5.321  1.0230  0.0806 -0.3728
 5245SOL    HW127368   2.425   3.916   5.265  0.8407  0.0968 -0.5570
 5245SOL    HW227369   2.399   4.063   5.298 -0.5793 -0.4836 -4.2707
 5246SOL     OW27370   2.011   1.064   2.122 -0.2094  0.4728  0.3825
 5246SOL    HW127371   1.937   1.104   2.075 -0.2288 -0.5544 -0.4476
 5246SOL    HW227372   1.966   1.009   2.186  1.0221 -0.7956  0.1509
 5247SOL     OW27373   3.993   2.085   5.082  0.1991 -0.2162 -0.1627
 5247SOL    HW127374   3.932   2.013   5.095  0.4230  0.0473  2.4805
 5247SOL    HW227375   4.010   2.109   5.173 -1.7103 -0.7571  0.3417
 5248SOL     OW27376   2.555   2.945   3.039  0.5113  0.2013 -0.0272
 5248SOL    HW127377   2.476   2.915   3.085  1.7846 -1.1460  1.2966
 5248SOL    HW227378   2.543   3.038   3.022  4.3146  0.6092 -0.4796
 5249SOL     OW27379   1.896   0.980   7.592 -0.3219  0.3250 -0.0816
 5249SOL    HW127380   1.953   1.032   7.649 -0.0856 -0.2624  0.2152
 5249SOL    HW227381   1.895   0.894   7.634 -0.8417  0.5365  0.3444
 5250SOL     OW27382   2.722   3.337   0.051  0.7069  0.5395  0.1814
 5250SOL    HW127383   2.680   3.251   0.041 -1.0568  1.3970  0.2339
 5250SOL    HW227384   2.683   3.368   0.133 -2.2614 -2.7059  0.0214
 5251SOL     OW27385   1.603   2.249  14.076  0.5144 -0.4636 -0.1774
 5251SOL    HW127386   1.564   2.176  14.124 -3.3344  2.1285  0.6415
 5251SOL    HW227387   1.645   2.193  14.011 -0.0775  0.2062 -1.1370
 5252SOL     OW27388   3.417   3.011  14.232 -0.1221  0.1422  0.6850
 5252SOL    HW127389   3.417   3.099  14.193  0.9192 -0.1874 -0.0509
 5252SOL    HW227390   3.443   2.950  14.163  0.1421 -0.9386  1.7551
 5253SOL     OW27391   2.019   2.579  13.774  0.1761 -0.7248 -0.2720
 5253SOL    HW127392   1.973   2.662  13.762  3.0563  1.2000  1.8680
 5253SOL    HW227393   1.956   2.523  13.730  1.3056 -2.8668  0.8123
 5254SOL     OW27394   1.587   1.982   4.417 -0.0330 -0.9908 -0.1092
 5254SOL    HW127395   1.632   1.912   4.463 -0.7655 -1.1010  0.4396
 5254SOL    HW227396   1.498   1.947   4.420 -1.2941  2.1454 -0.6354
 5255SOL     OW27397   3.902   3.070   7.571  0.2205 -0.0896 -0.3945
 5255SOL    HW127398   3.870   3.014   7.642  0.7899  0.4647  0.3049
 5255SOL    HW227399   3.995   3.048   7.581  0.2228 -0.2992 -0.8676
 5256SOL     OW27400   3.900   4.316   8.273 -0.2237  0.0050 -0.4272
 5256SOL    HW127401   3.934   4.361   8.196 -2.6681  1.4217 -0.6522
 5256SOL    HW227402   3.823   4.266   8.245 -0.8725  0.9931 -0.3780
 5257SOL     OW27403   4.680   0.203   8.851 -0.4993  0.4437  0.1972
 5257SOL    HW127404   4.687   0.108   8.848  1.5950  0.7422 -3.3939
 5257SOL    HW227405   4.589   0.216   8.880 -0.5699 -1.4335  0.8073
 5258SOL     OW27406   3.202   2.355   2.309  0.4802 -0.0181 -0.0002
 5258SOL    HW127407   3.277   2.366   2.250  2.4633 -0.8142  2.3765
 5258SOL    HW227408   3.193   2.261   2.294 -2.1109  0.3157 -0.5272
 5259SOL     OW27409   1.967   4.433   4.196  0.4433  0.6269  0.0987
 5259SOL    HW127410   1.920   4.515   4.177  1.1408  0.7243 -1.2299
 5259SOL    HW227411   2.058   4.455   4.216  0.2067  0.7753  1.0160
 5260SOL     OW27412   3.222   0.144  16.448 -0.1146  0.6848 -0.3642
 5260SOL    HW127413   3.247   0.231  16.417  1.5227  1.0348  1.9938
 5260SOL    HW227414   3.127   0.150  16.436 -0.0311  2.0854 -0.3318
 5261SOL     OW27415   2.916   4.249   6.017  0.2038 -0.1600  0.3319
 5261SOL    HW127416   2.851   4.212   5.957 -1.5175  2.4124  0.6376
 5261SOL    HW227417   2.983   4.276   5.953 -0.5967  0.7990 -0.0879
 5262SOL     OW27418   0.330   2.839   9.589 -0.6482 -0.4081 -0.1355
 5262SOL    HW127419   0.298   2.773   9.528 -0.9951 -1.4317  1.1606
 5262SOL    HW227420   0.362   2.908   9.531  0.5814 -2.2113 -1.5837
 5263SOL     OW27421   0.968   1.680  14.658 -0.2945  0.4356 -0.1630
 5263SOL    HW127422   0.878   1.659  14.684  0.8509 -2.2569  1.5841
 5263SOL    HW227423   0.980   1.755  14.716 -0.7304  0.2576  0.1543
 5264SOL     OW27424   0.013   3.745  13.781  0.4056  0.0723 -0.3034
 5264SOL    HW127425   0.015   3.738  13.686 -2.1611  0.5921 -0.3974
 5264SOL    HW227426   4.677   3.687  13.796  0.9541 -1.1839 -2.3933
 5265SOL     OW27427   2.753   1.616  12.147  1.1617  0.0176  0.1505
 5265SOL    HW127428   2.697   1.572  12.210  2.8709 -1.8256  0.3524
 5265SOL    HW227429   2.830   1.637  12.199  0.1744 -0.1147  1.6577
 5266SOL     OW27430   3.541   0.727   2.622  0.0473  0.0811 -0.6800
 5266SOL    HW127431   3.579   0.643   2.651 -1.1672 -0.5586 -0.9470
 5266SOL    HW227432   3.448   0.729   2.643  0.0702  3.4971 -0.9142
 5267SOL     OW27433   4.188   4.342   7.444  0.2566  0.0791 -0.4427
 5267SOL    HW127434   4.190   4.437   7.428  1.7244  0.0399 -0.5291
 5267SOL    HW227435   4.272   4.324   7.486  0.3262 -1.5705 -1.2733
 5268SOL     OW27436   3.087   3.221   4.748  0.2212  0.0968 -0.2571
 5268SOL    HW127437   3.116   3.274   4.822 -2.8198  0.5813  0.5969
 5268SOL    HW227438   3.164   3.165   4.750 -0.2189 -0.5184 -0.4490
 5269SOL     OW27439   4.593   0.163   1.876  0.8630 -0.4748  0.2827
 5269SOL    HW127440   4.530   0.229   1.901  0.2695 -1.1317  0.5115
 5269SOL    HW227441   4.616   0.190   1.787 -0.3765 -0.5915 -0.0663
 5270SOL     OW27442   0.543   0.602   2.944 -0.6333  0.7084  0.3447
 5270SOL    HW127443   0.500   0.604   3.030  0.8915 -0.2011  1.1308
 5270SOL    HW227444   0.631   0.637   2.961 -0.1831  0.0817 -0.7102
 5271SOL     OW27445   4.031   0.777   8.723  0.1774  0.2836 -0.5082
 5271SOL    HW127446   4.049   0.726   8.644 -1.1008  0.1621 -0.7232
 5271SOL    HW227447   3.941   0.746   8.738  0.3982 -0.9177 -1.6226
 5272SOL     OW27448   4.160   2.749   1.111 -0.1847 -0.1467 -0.2129
 5272SOL    HW127449   4.195   2.668   1.147  0.7429  0.6530  0.6963
 5272SOL    HW227450   4.204   2.817   1.163  1.6634 -1.3981 -0.1484
 5273SOL     OW27451   3.515   3.166   2.587  0.3015  0.1831 -0.1972
 5273SOL    HW127452   3.571   3.104   2.634  1.3022  0.9345 -0.4010
 5273SOL    HW227453   3.438   3.171   2.644  0.1592  0.1480 -0.3876
 5274SOL     OW27454   0.616   3.692   5.058  0.0205  0.0237 -0.2429
 5274SOL    HW127455   0.695   3.737   5.087  0.4762  0.2929 -1.9089
 5274SOL    HW227456   0.581   3.660   5.141  2.6706 -1.3212  0.3469
 5275SOL     OW27457   3.137   3.278   0.662 -0.7916  0.3951  0.0937
 5275SOL    HW127458   3.221   3.323   0.651 -1.2852  0.7975 -2.0988
 5275SOL    HW227459   3.095   3.347   0.714 -1.0794 -0.8682  1.5633
 5276SOL     OW27460   1.905   1.161   2.464  0.1653 -0.0361 -0.5436
 5276SOL    HW127461   1.842   1.188   2.397 -0.1562 -0.9312 -0.6073
 5276SOL    HW227462   1.853   1.137   2.540 -0.4924 -0.3282 -1.0827
 5277SOL     OW27463   4.348   0.043  11.257 -0.0737  0.1322  0.1225
 5277SOL    HW127464   4.432   0.032  11.300  0.4283  2.2371 -0.3353
 5277SOL    HW227465   4.360   0.007  11.169 -1.9092 -2.3262  0.8393
 5278SOL     OW27466   0.020   1.485   9.481 -0.3637  0.4476  0.0576
 5278SOL    HW127467   0.080   1.427   9.525  0.8297  1.2949 -0.4527
 5278SOL    HW227468   0.050   1.472   9.391 -2.0343 -0.0967 -0.4337
 5279SOL     OW27469   2.420   4.377   6.225  0.1489 -0.0108 -0.4232
 5279SOL    HW127470   2.462   4.308   6.174 -1.3108 -0.0642 -1.5653
 5279SOL    HW227471   2.333   4.354   6.194  1.2960  0.0047 -3.7115
 5280SOL     OW27472   0.645   4.195  16.796 -0.2820  0.2691 -0.0872
 5280SOL    HW127473   0.593   4.200  16.716  1.0606 -2.2929 -1.1318
 5280SOL    HW227474   0.704   4.267  16.774  0.1237 -0.0390 -0.0058
 5281SOL     OW27475   4.400   0.447   8.177 -0.1061 -0.6580  0.0559
 5281SOL    HW127476   4.307   0.469   8.169 -0.3923 -1.6461  0.7232
 5281SOL    HW227477   4.426   0.493   8.257 -3.8942  0.7854  0.4543
 5282SOL     OW27478   2.085   1.641   0.502  0.1594  0.1289 -0.2995
 5282SOL    HW127479   2.103   1.732   0.527  3.8335 -0.9678  1.1812
 5282SOL    HW227480   2.172   1.618   0.468 -0.0582  0.5953 -1.1575
 5283SOL     OW27481   3.956   0.710   6.250 -0.7339  0.1512 -0.3407
 5283SOL    HW127482   3.935   0.803   6.247 -1.4132 -0.0879 -2.9429
 5283SOL    HW227483   3.947   0.690   6.157  1.9771 -1.5156 -0.2383
 5284SOL     OW27484   0.794   2.841  16.289  0.7501  0.5246  0.0374
 5284SOL    HW127485   0.803   2.934  16.271  3.4810  0.4864  1.1721
 5284SOL    HW227486   0.830   2.834  16.377 -0.3208  1.1874  0.5156
 5285SOL     OW27487   0.364   0.231  10.179  0.8060  0.2590 -0.0803
 5285SOL    HW127488   0.454   0.205  10.156  2.8149  3.5896  3.9046
 5285SOL    HW227489   0.334   0.163  10.239  1.2204 -0.2921 -0.4972
 5286SOL     OW27490   1.312   2.959  10.186  0.1393 -0.6287  0.0377
 5286SOL    HW127491   1.295   3.036  10.131  2.0308 -1.3855 -1.6051
 5286SOL    HW227492   1.316   3.010  10.267 -1.8426 -1.0848  0.3984
 5287SOL     OW27493   0.798   4.244   2.912  0.6298  0.1006 -0.3243
 5287SOL    HW127494   0.713   4.213   2.945  0.9923  1.7519  2.1686
 5287SOL    HW227495   0.853   4.198   2.976  0.5884 -0.7612 -0.9033
 5288SOL     OW27496   0.785   3.884   7.461 -0.1511 -0.1054 -0.3466
 5288SOL    HW127497   0.851   3.933   7.412  0.2270 -1.1162 -0.8316
 5288SOL    HW227498   0.839   3.876   7.540  0.1878 -0.7722 -0.6522
 5289SOL     OW27499   3.939   1.512   7.526 -0.2946 -0.0856 -0.6446
 5289SOL    HW127500   3.971   1.582   7.583 -0.5068 -0.4401 -0.0911
 5289SOL    HW227501   3.944   1.556   7.442  0.9844  1.8250  0.4425
 5290SOL     OW27502   4.402   2.834   8.251 -0.1335 -0.6466 -0.4917
 5290SOL    HW127503   4.316   2.876   8.251  1.6651  3.1220 -0.6360
 5290SOL    HW227504   4.403   2.780   8.330  0.2181 -0.8763 -0.6520
 5291SOL     OW27505   1.054   2.235   7.733 -0.4812  0.2154 -0.1499
 5291SOL    HW127506   0.961   2.215   7.749 -0.3764 -1.6506 -1.7669
 5291SOL    HW227507   1.066   2.329   7.722 -2.0571  0.5319  0.7790
 5292SOL     OW27508   0.535   2.524   6.131  0.6977 -0.5103 -0.3236
 5292SOL    HW127509   0.531   2.587   6.203 -0.9923 -2.7827  1.5496
 5292SOL    HW227510   0.469   2.557   6.070  0.4950 -2.8388 -1.3238
 5293SOL     OW27511   2.819   3.849  17.445  0.4150 -0.0351  0.2042
 5293SOL    HW127512   2.825   3.844  17.540 -0.6728 -1.9749  0.1655
 5293SOL    HW227513   2.833   3.943  17.434  0.0901 -0.0763 -0.5719
 5294SOL     OW27514   1.661   0.439   1.215 -0.0531  0.7611 -0.7217
 5294SOL    HW127515   1.571   0.437   1.183  0.3045  0.6642 -1.7219
 5294SOL    HW227516   1.717   0.490   1.156  0.5752  0.2757 -0.5364
 5295SOL     OW27517   3.663   2.060   4.094 -0.0228  0.0217 -0.2408
 5295SOL    HW127518   3.598   2.123   4.063 -1.9511 -2.3651 -1.1186
 5295SOL    HW227519   3.722   2.060   4.018  0.7113  1.3633  0.3460
 5296SOL     OW27520   1.150   1.849  17.460 -0.6695  0.4538  0.1049
 5296SOL    HW127521   1.075   1.903  17.433 -2.4487 -0.8592  2.4120
 5296SOL    HW227522   1.171   1.811  17.375  0.7443  0.6931  0.3567
 5297SOL     OW27523   4.105   2.859   0.747  0.1937 -0.2623  0.3788
 5297SOL    HW127524   4.195   2.890   0.740  0.1967 -0.8408 -2.0142
 5297SOL    HW227525   4.048   2.908   0.687  1.1601 -0.3624 -0.6154
 5298SOL     OW27526   1.380   1.278   4.704 -0.3193  0.2594  0.2255
 5298SOL    HW127527   1.383   1.257   4.611 -2.2998 -0.5752  0.3593
 5298SOL    HW227528   1.455   1.227   4.735 -0.4194 -0.2694 -0.4138
 5299SOL     OW27529   1.268   1.625   1.804 -0.0581  0.1859 -0.4034
 5299SOL    HW127530   1.336   1.686   1.775 -0.8507  0.2193 -2.1871
 5299SOL    HW227531   1.208   1.693   1.834 -1.9487 -0.0250 -3.6637
 5300SOL     OW27532   3.495   0.322   0.221 -0.2264  0.0461  0.3838
 5300SOL    HW127533   3.535   0.373   0.150  1.1291  1.0344  1.8679
 5300SOL    HW227534   3.493   0.393   0.285 -4.1998 -0.0946  0.4026
 5301SOL     OW27535   2.993   0.916  15.328  0.1085 -0.1820  0.1657
 5301SOL    HW127536   3.046   0.926  15.249 -1.5255 -1.9401 -1.1636
 5301SOL    HW227537   2.989   0.821  15.321  0.7019 -0.2280  0.4852
 5302SOL     OW27538   2.792   0.724   9.447 -0.0020  0.1896 -0.2185
 5302SOL    HW127539   2.700   0.711   9.425  0.5419 -1.8716 -1.1973
 5302SOL    HW227540   2.800   0.818   9.467 -0.6455 -0.3555  2.5909
 5303SOL     OW27541   2.032   0.424  11.488 -0.3662  0.1074 -0.0421
 5303SOL    HW127542   2.127   0.411  11.488 -0.5072 -1.0291 -1.4934
 5303SOL    HW227543   2.031   0.519  11.474 -0.4749 -0.0719 -1.2483
 5304SOL     OW27544   1.936   2.767   8.755 -0.0370 -0.2388  0.3191
 5304SOL    HW127545   1.939   2.705   8.682  1.5201  1.9751 -1.4721
 5304SOL    HW227546   1.971   2.719   8.830  2.7486 -1.6781 -1.9502
 5305SOL     OW27547   0.073   4.400   4.739 -0.0943  0.1039  0.6835
 5305SOL    HW127548   0.021   4.320   4.747 -2.4122  1.3436 -2.1292
 5305SOL    HW227549   0.064   4.410   4.644  1.1838  0.4267  0.5851
 5306SOL     OW27550   4.667   3.814   5.003 -0.2345 -0.2540  0.4949
 5306SOL    HW127551   4.693   3.755   5.074  2.0090  0.2944  0.1285
 5306SOL    HW227552   0.007   3.828   4.950 -0.3517 -2.5722 -0.3159
 5307SOL     OW27553   3.738   2.900   6.865  0.2314 -0.0916 -0.1442
 5307SOL    HW127554   3.696   2.818   6.838 -0.1069 -0.3797  1.2572
 5307SOL    HW227555   3.738   2.900   6.960  1.2191  1.9749 -0.1513
 5308SOL     OW27556   1.870   0.987   8.049  0.0800 -0.1392  0.0645
 5308SOL    HW127557   1.813   0.917   8.015  0.3083 -1.1950  1.8532
 5308SOL    HW227558   1.835   1.008   8.135  0.2011 -2.0187  0.5874
 5309SOL     OW27559   2.430   2.922   1.480 -0.2985  0.0289 -0.2984
 5309SOL    HW127560   2.522   2.898   1.467 -0.7008 -0.8844 -1.4461
 5309SOL    HW227561   2.393   2.837   1.502 -1.0507  0.1757 -1.0149
 5310SOL     OW27562   4.693   3.386   9.097 -0.1015 -0.0640 -0.1351
 5310SOL    HW127563   4.655   3.340   9.172  2.0318 -2.4262 -0.4747
 5310SOL    HW227564   4.689   3.313   9.035  1.4649 -1.0604  0.9529
 5311SOL     OW27565   2.265   3.712   4.888 -0.3650 -0.0635  0.1254
 5311SOL    HW127566   2.340   3.737   4.835  0.2060  0.0225  0.9788
 5311SOL    HW227567   2.270   3.619   4.867 -0.3052  0.1601 -0.8445
 5312SOL     OW27568   0.000   1.007   2.678  0.2195 -0.6933  0.3318
 5312SOL    HW127569   4.706   1.023   2.767 -0.4647  1.0984 -0.2439
 5312SOL    HW227570   4.735   1.091   2.632 -1.5963 -0.7328  0.4501
 5313SOL     OW27571   1.760   4.467  16.546  0.0401 -0.2550 -0.4238
 5313SOL    HW127572   1.789   4.500  16.631  2.2874 -0.1930 -1.2361
 5313SOL    HW227573   1.828   4.402  16.531 -0.1084 -0.8963  1.6851
 5314SOL     OW27574   0.010   4.193   5.321  0.0199 -0.6096  0.0579
 5314SOL    HW127575   4.728   4.151   5.404  0.3715 -0.0522  0.4316
 5314SOL    HW227576   0.093   4.150   5.305  0.4439  0.2301 -0.0111
 5315SOL     OW27577   3.879   0.136   8.632 -0.6181 -0.0445  0.2226
 5315SOL    HW127578   3.898   0.085   8.554  1.6710 -1.8707  1.9697
 5315SOL    HW227579   3.903   0.081   8.706  0.3946 -2.5062 -1.9679
 5316SOL     OW27580   0.492   3.191   5.801  1.1232  0.6336  0.6930
 5316SOL    HW127581   0.467   3.167   5.712  1.1877  0.4053  0.7346
 5316SOL    HW227582   0.411   3.169   5.848  1.4583 -0.9405  0.5636
 5317SOL     OW27583   3.010   1.253   5.528  0.4336  0.2357  0.7968
 5317SOL    HW127584   2.929   1.214   5.559  0.6825  1.0018  2.4344
 5317SOL    HW227585   3.072   1.236   5.599  0.0015  1.0326  1.3718
 5318SOL     OW27586   1.452   4.351   3.046 -0.4565 -0.4755 -0.1285
 5318SOL    HW127587   1.417   4.431   3.006  0.0965 -0.2617 -0.1787
 5318SOL    HW227588   1.373   4.312   3.084  0.1090  0.6206  2.1467
 5319SOL     OW27589   2.281   2.640   3.775 -0.2478 -0.4539  0.3489
 5319SOL    HW127590   2.291   2.680   3.862 -1.7718 -1.7978  1.1432
 5319SOL    HW227591   2.217   2.570   3.791  0.3004 -0.9564  0.3641
 5320SOL     OW27592   2.666   2.284   1.774  0.1586 -0.3496 -0.3165
 5320SOL    HW127593   2.722   2.266   1.698  1.4167  0.4334  0.4255
 5320SOL    HW227594   2.643   2.377   1.769  0.2434 -0.5163 -4.0739
 5321SOL     OW27595   4.347   1.089  16.770  0.2418 -0.0258 -0.0028
 5321SOL    HW127596   4.406   1.157  16.738 -2.3987  2.1042 -0.4697
 5321SOL    HW227597   4.321   1.035  16.696 -0.2529  0.0313  0.1223
 5322SOL     OW27598   2.512   2.333   6.149  0.5907  0.1516 -0.1574
 5322SOL    HW127599   2.419   2.342   6.170 -0.1242 -2.0069 -2.3900
 5322SOL    HW227600   2.532   2.418   6.111 -0.5907  0.5294  0.0688
 5323SOL     OW27601   3.759   0.002  10.583 -0.2423  0.4252 -0.0566
 5323SOL    HW127602   3.703   4.663  10.589  3.1453 -1.9205  1.3561
 5323SOL    HW227603   3.826   4.716  10.520 -1.7096 -0.1355 -1.4028
 5324SOL     OW27604   4.085   3.955   6.855 -0.3030  0.7098  0.7587
 5324SOL    HW127605   4.152   3.887   6.857 -2.5131 -1.5685 -1.6761
 5324SOL    HW227606   4.036   3.931   6.934  0.0981 -0.0421  0.7830
 5325SOL     OW27607   2.737   3.284   3.807 -0.2284  0.1772  0.8842
 5325SOL    HW127608   2.800   3.214   3.789  1.0582  1.7514 -0.8170
 5325SOL    HW227609   2.694   3.247   3.884  0.8648 -0.6656  1.0889
 5326SOL     OW27610   3.452   4.583   3.091  0.0423 -0.1690  0.1898
 5326SOL    HW127611   3.433   4.587   2.997  0.7222  0.1846  0.0666
 5326SOL    HW227612   3.368   4.553   3.126  0.1978  1.5092  2.0056
 5327SOL     OW27613   0.732   4.492   1.307 -0.5407  0.1620 -0.4326
 5327SOL    HW127614   0.645   4.487   1.347  0.0024 -0.8695  0.6162
 5327SOL    HW227615   0.743   4.403   1.275  0.5984 -0.0984  0.6776
 5328SOL     OW27616   1.337   0.352   8.565 -0.2789  0.0504  0.5800
 5328SOL    HW127617   1.401   0.363   8.635 -1.3692  2.4903  1.1718
 5328SOL    HW227618   1.302   0.440   8.551  0.6525  0.0075 -2.0679
 5329SOL     OW27619   0.686   3.940   6.702 -0.0325  0.8274 -0.1848
 5329SOL    HW127620   0.755   4.006   6.704  0.4678  0.3005  0.1005
 5329SOL    HW227621   0.629   3.978   6.770  1.6286 -0.3141  1.8617
 5330SOL     OW27622   3.062   3.708  13.029 -0.2757  0.2363  0.3912
 5330SOL    HW127623   3.053   3.646  13.101  2.0161 -0.5461  0.0211
 5330SOL    HW227624   3.017   3.659  12.960  0.9145 -0.2061 -0.0836
 5331SOL     OW27625   4.648   4.049   1.441 -0.3982 -0.1419  0.5940
 5331SOL    HW127626   4.679   4.051   1.351  0.1284  1.4925  0.8139
 5331SOL    HW227627   4.647   4.143   1.459  0.6206 -0.2464  1.1684
 5332SOL     OW27628   3.265   1.045  12.851  0.0465  0.0526  0.0863
 5332SOL    HW127629   3.193   0.985  12.872  0.1183 -0.3914 -0.9440
 5332SOL    HW227630   3.283   1.002  12.768 -0.8377  1.2939 -0.7443
 5333SOL     OW27631   1.528   1.107  15.767  0.0060 -0.3752 -0.1394
 5333SOL    HW127632   1.526   1.082  15.675 -1.4092  2.4929 -0.8932
 5333SOL    HW227633   1.590   1.040  15.796 -1.7955 -1.7362  0.5739
 5334SOL     OW27634   1.202   0.546  16.865  0.3353 -0.0121 -0.6012
 5334SOL    HW127635   1.119   0.591  16.853  1.9812  3.2408  0.3735
 5334SOL    HW227636   1.265   0.614  16.841  1.8702 -0.5575  1.8186
 5335SOL     OW27637   3.203   3.859   9.402  0.4712  0.5900  0.0463
 5335SOL    HW127638   3.189   3.946   9.366 -0.0860 -0.8830 -3.2701
 5335SOL    HW227639   3.202   3.804   9.324 -0.9159 -1.3516  1.4159
 5336SOL     OW27640   2.616   0.553  15.453 -0.6033  0.4965  0.7085
 5336SOL    HW127641   2.704   0.565  15.417 -1.2298  3.3288  0.1746
 5336SOL    HW227642   2.593   0.471  15.409  1.4491 -0.5646  1.5874
 5337SOL     OW27643   0.668   0.549  14.376  0.1056 -0.2054 -0.5265
 5337SOL    HW127644   0.751   0.580  14.340  0.5815 -1.4163 -0.4890
 5337SOL    HW227645   0.701   0.466  14.411  2.5844  1.2584  0.5870
 5338SOL     OW27646   1.229   1.980   5.962  0.2130 -0.0221  0.1854
 5338SOL    HW127647   1.301   2.003   5.904  0.2561  0.9739  0.6268
 5338SOL    HW227648   1.276   1.976   6.045 -0.4020 -1.4700  0.4621
 5339SOL     OW27649   3.323   1.048   4.425 -0.0482  0.4145  0.2061
 5339SOL    HW127650   3.265   1.098   4.482 -1.0947 -0.4551 -0.0909
 5339SOL    HW227651   3.391   1.112   4.403  0.4498  0.5319  2.1330
 5340SOL     OW27652   3.780   3.583   8.369  0.4624 -0.2177  0.2017
 5340SOL    HW127653   3.767   3.665   8.320  0.2534 -0.6481 -0.4628
 5340SOL    HW227654   3.801   3.528   8.293 -0.4842  1.7093 -1.4719
 5341SOL     OW27655   0.463   1.770   6.254  0.9219 -0.3290 -0.1157
 5341SOL    HW127656   0.415   1.725   6.184 -0.0742  0.1140  0.2915
 5341SOL    HW227657   0.552   1.764   6.219  0.9092 -0.5345 -0.1177
 5342SOL     OW27658   4.488   1.173   3.839  0.1919  0.0416  0.4935
 5342SOL    HW127659   4.437   1.225   3.777  2.1002  0.8169 -0.4386
 5342SOL    HW227660   4.533   1.111   3.781 -0.1752 -0.9471  1.2797
 5343SOL     OW27661   4.291   3.159   2.275 -0.3140 -0.2227 -0.1414
 5343SOL    HW127662   4.236   3.084   2.300  0.4131  0.0719  2.3294
 5343SOL    HW227663   4.356   3.163   2.345 -0.3680 -2.6321  0.0424
 5344SOL     OW27664   2.492   3.108   7.580  0.3709 -0.4376 -0.7871
 5344SOL    HW127665   2.534   3.141   7.501 -0.2964  0.3167 -0.8259
 5344SOL    HW227666   2.488   3.181   7.642  0.4894 -0.9917 -0.1141
 5345SOL     OW27667   3.048   1.803   6.149 -0.1679 -0.0054  0.3094
 5345SOL    HW127668   3.092   1.853   6.217  0.7426 -0.2703 -0.0843
 5345SOL    HW227669   2.989   1.751   6.203  0.3092 -1.1996 -0.3186
 5346SOL     OW27670   4.481   4.368   9.301  0.3672 -0.0354  0.1850
 5346SOL    HW127671   4.489   4.443   9.360  1.0460 -0.0669  0.1395
 5346SOL    HW227672   4.443   4.299   9.355  0.8228 -0.1555  0.3595
 5347SOL     OW27673   3.385   2.079   0.533 -0.0944 -0.4034  0.3576
 5347SOL    HW127674   3.447   2.127   0.479  0.1877  0.4751  1.4556
 5347SOL    HW227675   3.379   2.142   0.605  0.5714  0.6451 -0.5016
 5348SOL     OW27676   1.482   4.531   7.904 -0.0672 -0.3731  0.3080
 5348SOL    HW127677   1.495   4.440   7.931 -0.9784 -0.2406  1.2085
 5348SOL    HW227678   1.392   4.523   7.873  0.1831 -0.0043 -0.5190
 5349SOL     OW27679   1.407   1.084   6.640  0.1617 -0.1035 -0.1946
 5349SOL    HW127680   1.457   1.052   6.566  0.3341 -1.7421  0.6232
 5349SOL    HW227681   1.331   1.027   6.635 -0.5618  0.8949 -0.6118
 5350SOL     OW27682   1.186   1.497  11.628 -0.2747 -0.5359  0.4018
 5350SOL    HW127683   1.163   1.586  11.654  0.2737 -1.2376  3.3054
 5350SOL    HW227684   1.231   1.486  11.712 -0.5609 -1.0833  0.4905
 5351SOL     OW27685   0.778   4.529   5.205  0.0293 -0.3386 -0.2924
 5351SOL    HW127686   0.775   4.613   5.250 -0.9960  0.2947 -1.5465
 5351SOL    HW227687   0.840   4.546   5.134  0.6503 -1.0684  0.0809
 5352SOL     OW27688   3.665   0.293   8.815  0.0078 -0.1499 -0.2740
 5352SOL    HW127689   3.616   0.348   8.876  0.4226 -0.7684  0.6201
 5352SOL    HW227690   3.750   0.303   8.858  0.5379 -1.7405 -0.9351
 5353SOL     OW27691   0.150   0.072   5.797 -0.3845 -0.0184  1.1384
 5353SOL    HW127692   0.120   0.135   5.862 -0.9185  0.4312  0.4567
 5353SOL    HW227693   0.240   0.061   5.828 -0.8485 -2.1163  1.7760
 5354SOL     OW27694   3.871   3.424   8.596  0.0966  0.3617 -0.0452
 5354SOL    HW127695   3.889   3.378   8.514  2.3687  0.4893  0.3778
 5354SOL    HW227696   3.866   3.515   8.568  2.6090  0.0123 -1.6824
 5355SOL     OW27697   0.008   2.475   4.414  0.0293  0.3539 -0.2115
 5355SOL    HW127698   0.074   2.544   4.411  0.0451  0.3613  0.3400
 5355SOL    HW227699   0.056   2.402   4.375 -1.2612 -0.1815 -0.8163
 5356SOL     OW27700   3.326   0.043   8.162 -0.7521  0.2694 -0.1291
 5356SOL    HW127701   3.319   0.129   8.204 -1.3576 -0.1874  0.7378
 5356SOL    HW227702   3.420   0.032   8.149 -0.3556  1.3326  1.7834
 5357SOL     OW27703   2.954   1.165   1.983  0.7692  0.1456  0.1137
 5357SOL    HW127704   2.974   1.198   1.895  0.3336 -0.3385 -0.1676
 5357SOL    HW227705   2.935   1.072   1.972  0.8500  0.2888 -1.2248
 5358SOL     OW27706   2.933   1.213   0.787  0.5758  0.1918 -0.2221
 5358SOL    HW127707   2.870   1.285   0.780  1.9010  1.3214 -0.5689
 5358SOL    HW227708   2.992   1.252   0.852  1.2674 -1.7151  0.3027
 5359SOL     OW27709   1.588   0.587   5.754 -0.3116 -0.1513 -0.2836
 5359SOL    HW127710   1.538   0.519   5.800 -1.1271  0.5807 -0.0801
 5359SOL    HW227711   1.578   0.568   5.661 -1.2320 -2.0196  0.1971
 5360SOL     OW27712   1.641   2.448  11.174  0.1264 -0.8435 -0.2180
 5360SOL    HW127713   1.711   2.384  11.182 -0.4795 -1.5630 -0.6859
 5360SOL    HW227714   1.682   2.521  11.129 -1.8480  0.7350  0.5252
 5361SOL     OW27715   1.132   4.443   1.563  0.0447 -0.3684  0.0261
 5361SOL    HW127716   1.079   4.370   1.531  2.5393 -0.5490 -3.6358
 5361SOL    HW227717   1.198   4.447   1.494  0.6725 -1.6409  0.5492
 5362SOL     OW27718   3.815   3.313   6.470 -0.2044 -0.1225 -0.5321
 5362SOL    HW127719   3.785   3.310   6.560 -0.2931 -0.7301 -0.5796
 5362SOL    HW227720   3.753   3.256   6.425 -2.2267 -0.2296  2.4007
 5363SOL     OW27721   3.546   1.179   9.791 -0.2763  0.1162  0.6617
 5363SOL    HW127722   3.472   1.236   9.812  2.4409  3.3085  1.5300
 5363SOL    HW227723   3.580   1.152   9.876  0.4146 -1.8989 -0.2528
 5364SOL     OW27724   1.652   4.611   1.987  0.5844 -0.2223 -0.3757
 5364SOL    HW127725   1.647   4.534   2.044  1.6665  0.3450  0.4768
 5364SOL    HW227726   1.580   4.594   1.926  0.4914  0.8771 -0.5803
 5365SOL     OW27727   1.479   0.337   5.835 -0.6563  0.2734  0.2018
 5365SOL    HW127728   1.457   0.332   5.928  1.5609 -1.2456  0.6360
 5365SOL    HW227729   1.564   0.295   5.848 -1.4138 -1.6076 -0.9205
 5366SOL     OW27730   3.789   2.649   4.349  0.1157  0.4217 -0.5632
 5366SOL    HW127731   3.869   2.700   4.351  0.5693 -0.1482 -4.1042
 5366SOL    HW227732   3.775   2.633   4.442  0.8903 -0.3413 -0.5764
 5367SOL     OW27733   4.676   3.418   3.354 -0.1550  0.1513 -0.0013
 5367SOL    HW127734   4.712   3.470   3.426 -0.2763 -0.1887  0.3117
 5367SOL    HW227735   4.732   3.341   3.364  0.2673  0.3142 -1.2665
 5368SOL     OW27736   1.706   2.946   8.968  0.2496  0.7874 -0.2061
 5368SOL    HW127737   1.799   2.969   8.967  0.4024  0.2096  1.6626
 5368SOL    HW227738   1.700   2.912   9.057 -1.0043  0.7036 -0.3282
 5369SOL     OW27739   4.654   2.275   7.742  0.3206  0.0605 -0.1821
 5369SOL    HW127740   4.562   2.247   7.739  0.3224 -0.0848  1.1405
 5369SOL    HW227741   4.657   2.314   7.655  1.5846 -4.0311 -1.9536
 5370SOL     OW27742   4.000   0.993  14.370  0.8665 -0.8635  0.3794
 5370SOL    HW127743   3.977   0.991  14.277  2.1034 -0.5732  0.0683
 5370SOL    HW227744   3.919   0.988  14.419  0.9416 -1.1868  0.4684
 5371SOL     OW27745   2.735   1.602   5.164  0.2740  0.0026 -0.5984
 5371SOL    HW127746   2.738   1.591   5.259  2.3855 -1.3354 -0.8344
 5371SOL    HW227747   2.657   1.553   5.137  1.1988 -0.6882 -2.0013
 5372SOL     OW27748   4.508   1.424   5.637 -0.2782 -0.3859 -0.4321
 5372SOL    HW127749   4.466   1.493   5.586 -0.3171 -0.7486 -0.8937
 5372SOL    HW227750   4.589   1.428   5.588 -0.4012 -1.9377 -0.7698
 5373SOL     OW27751   0.385   3.763   3.204 -0.2551 -0.2791  0.4618
 5373SOL    HW127752   0.454   3.810   3.158 -0.1722 -1.0647 -0.2225
 5373SOL    HW227753   0.313   3.824   3.219 -0.3424 -0.8555  2.4096
 5374SOL     OW27754   1.781   0.408  11.014  0.2992  0.1026  0.3324
 5374SOL    HW127755   1.805   0.483  10.960  3.4544 -0.5285  0.8665
 5374SOL    HW227756   1.685   0.406  11.007  0.2654 -0.7933  1.0462
 5375SOL     OW27757   1.148   1.589   5.689 -0.2849 -0.3039 -0.9101
 5375SOL    HW127758   1.102   1.512   5.723 -1.3733  0.6205 -0.2866
 5375SOL    HW227759   1.173   1.624   5.775  0.3448 -3.9426  0.3938
 5376SOL     OW27760   0.445   3.202  10.501  0.0323 -0.2813 -0.1968
 5376SOL    HW127761   0.532   3.168  10.481  0.8670  1.6549  0.0812
 5376SOL    HW227762   0.386   3.185  10.428 -0.6803  2.4370 -0.2504
 5377SOL     OW27763   0.877   0.995   5.036  0.5366  0.1051 -0.1784
 5377SOL    HW127764   0.947   1.001   4.972  2.2937  0.8889  1.8204
 5377SOL    HW227765   0.869   0.899   5.040 -1.1394  0.2624  0.1068
 5378SOL     OW27766   2.196   1.486  12.263 -0.1172  0.2552  0.1566
 5378SOL    HW127767   2.101   1.483  12.279 -0.1363 -0.7977 -0.1423
 5378SOL    HW227768   2.230   1.554  12.321  2.3191 -1.2420  0.4970
 5379SOL     OW27769   1.338   3.596   3.621 -0.6931 -0.1237 -0.3631
 5379SOL    HW127770   1.284   3.559   3.691 -0.7485 -1.4111 -1.0921
 5379SOL    HW227771   1.381   3.668   3.667 -1.6115 -0.8516  1.6281
 5380SOL     OW27772   4.086   2.795  16.199  0.0597 -0.1139  0.2796
 5380SOL    HW127773   4.072   2.883  16.164 -0.4182  0.7166  2.5027
 5380SOL    HW227774   4.180   2.787  16.185 -0.2275 -0.2954 -1.4553
 5381SOL     OW27775   3.060   1.626   6.397  0.2354 -0.4465 -0.4515
 5381SOL    HW127776   3.038   1.668   6.480  0.6666  1.4375 -1.2879
 5381SOL    HW227777   3.123   1.560   6.427 -0.6858 -0.5682  1.2153
 5382SOL     OW27778   3.306   1.879   3.941 -0.0664 -0.2761  0.2695
 5382SOL    HW127779   3.287   1.841   3.855  1.1061  0.0527 -0.1266
 5382SOL    HW227780   3.385   1.931   3.928  0.6751 -1.2329  0.9755
 5383SOL     OW27781   1.770   3.592   7.881 -0.0604 -0.2402  0.2314
 5383SOL    HW127782   1.763   3.571   7.974  1.1262 -3.2786 -0.4024
 5383SOL    HW227783   1.794   3.509   7.840  2.2666  0.6028 -0.1317
 5384SOL     OW27784   1.841   0.005   7.590 -0.4061  0.4181 -0.2495
 5384SOL    HW127785   1.776   4.736   7.660 -0.8720  2.4621 -0.4491
 5384SOL    HW227786   1.795   0.030   7.510  0.5328  2.0593 -0.2783
 5385SOL     OW27787   1.327   1.588   5.315 -0.1295 -0.0201 -0.8061
 5385SOL    HW127788   1.367   1.573   5.401 -1.5985 -1.0939 -0.3134
 5385SOL    HW227789   1.249   1.636   5.344  1.3600  1.2446  1.0973
 5386SOL     OW27790   0.071   2.065   8.056  0.1078  0.2216 -0.8718
 5386SOL    HW127791   0.128   2.139   8.038  2.7740 -1.4966  0.4025
 5386SOL    HW227792   0.018   2.098   8.129 -0.6025  0.8191 -1.6601
 5387SOL     OW27793   1.424   1.246  17.616  0.1681  0.5385  0.2077
 5387SOL    HW127794   1.336   1.277  17.636  0.8538  0.0452  3.9510
 5387SOL    HW227795   1.464   1.216  17.698 -2.9846  0.9286  1.8550
 5388SOL     OW27796   0.181   4.662   7.034 -0.0212  0.5325  0.2953
 5388SOL    HW127797   0.116   4.645   7.102  1.3242  0.6813  1.6130
 5388SOL    HW227798   0.189   0.018   7.031 -2.7918  0.7361 -0.1807
 5389SOL     OW27799   4.473   2.491   2.841 -0.2777 -0.4131  0.5422
 5389SOL    HW127800   4.543   2.481   2.905 -0.0215 -0.0730  0.3190
 5389SOL    HW227801   4.495   2.415   2.787  1.6036 -0.7671  1.8209
 5390SOL     OW27802   3.320   3.785   6.637 -0.3625  0.7464 -0.0662
 5390SOL    HW127803   3.228   3.814   6.634 -0.3525  0.9743  2.2770
 5390SOL    HW227804   3.363   3.864   6.605  1.5327  0.2507  1.3201
 5391SOL     OW27805   4.522   2.114   8.183  0.4647  0.1524 -0.3793
 5391SOL    HW127806   4.501   2.202   8.150  1.5663 -0.7434 -3.5415
 5391SOL    HW227807   4.480   2.122   8.268  0.5235 -1.2623 -0.2184
 5392SOL     OW27808   0.264   3.056   9.018  0.3236  0.1874  0.2628
 5392SOL    HW127809   0.246   3.001   8.941 -0.9857  1.4787 -0.3459
 5392SOL    HW227810   0.263   2.994   9.091 -1.1981  1.1227  1.0306
 5393SOL     OW27811   3.592   2.818  16.949  0.4101 -0.4262 -0.2530
 5393SOL    HW127812   3.630   2.825  16.861 -2.5037  0.6540 -1.4334
 5393SOL    HW227813   3.537   2.742  16.934 -1.1131  0.2949  1.6976
 5394SOL     OW27814   1.738   2.813   7.500 -0.0502 -0.5983  0.1478
 5394SOL    HW127815   1.668   2.837   7.561 -1.7788 -1.6458 -1.4061
 5394SOL    HW227816   1.789   2.893   7.491  1.1775 -1.2381  1.3623
 5395SOL     OW27817   1.704   1.920   8.366 -0.0516 -0.2381  0.2104
 5395SOL    HW127818   1.731   1.960   8.283  0.8669  0.2098  0.7260
 5395SOL    HW227819   1.664   1.993   8.415 -0.3460 -0.4755  0.3228
 5396SOL     OW27820   4.212   4.174   1.570 -0.5509  0.4944 -0.5298
 5396SOL    HW127821   4.229   4.265   1.592 -1.1973  0.4023  0.3468
 5396SOL    HW227822   4.193   4.173   1.476  0.8737 -0.5239 -0.7949
 5397SOL     OW27823   3.116   2.700   5.725 -0.0341 -0.3358  0.4784
 5397SOL    HW127824   3.196   2.690   5.775  0.7385  3.4059 -0.0383
 5397SOL    HW227825   3.042   2.699   5.785 -0.2479  3.0971  0.2666
 5398SOL     OW27826   0.271   1.446  12.288  0.4647  0.1471 -0.1249
 5398SOL    HW127827   0.261   1.520  12.228 -0.8782  0.2467  0.2141
 5398SOL    HW227828   0.331   1.384  12.247 -0.7512 -0.3339 -1.1996
 5399SOL     OW27829   1.823   3.525  17.641  0.2409 -0.2823  0.1880
 5399SOL    HW127830   1.808   3.555  17.730 -0.1152  1.1289 -0.3498
 5399SOL    HW227831   1.846   3.610  17.604  0.3845 -0.7782 -0.8675
 5400SOL     OW27832   4.301   3.515   1.960  0.0496  0.2186  0.0559
 5400SOL    HW127833   4.325   3.606   1.982 -0.9336  0.6546 -0.6834
 5400SOL    HW227834   4.220   3.541   1.917 -1.1771 -1.8345  1.1323
 5401SOL     OW27835   0.787   3.056   2.608  0.0127 -0.1430  0.6790
 5401SOL    HW127836   0.787   3.139   2.561  2.2562 -0.3065  0.3944
 5401SOL    HW227837   0.881   3.052   2.626 -0.3205 -1.7750  2.0269
 5402SOL     OW27838   4.226   4.274  13.608 -0.5163 -0.8310  0.5831
 5402SOL    HW127839   4.195   4.228  13.685  0.7274 -0.1637  1.4784
 5402SOL    HW227840   4.312   4.309  13.629 -0.3626 -0.8546  0.0105
 5403SOL     OW27841   3.834   0.574   9.037 -0.2582  0.1746  0.0812
 5403SOL    HW127842   3.919   0.540   9.008 -1.6280 -1.2607 -2.2252
 5403SOL    HW227843   3.855   0.635   9.108  0.9684  2.1966 -1.9956
 5404SOL     OW27844   2.863   1.908   2.246 -0.2016  0.1977 -0.4037
 5404SOL    HW127845   2.911   1.891   2.165  0.5989 -0.9681  0.2935
 5404SOL    HW227846   2.786   1.856   2.224  0.5270 -1.1813  0.2274
 5405SOL     OW27847   2.272   2.913   6.216  0.0158 -0.4884 -1.0141
 5405SOL    HW127848   2.275   2.974   6.142  1.7461  1.7233  0.8903
 5405SOL    HW227849   2.181   2.926   6.242  0.8737  0.9948  1.2141
 5406SOL     OW27850   0.864   1.280   4.423  0.2381 -0.2663 -0.2553
 5406SOL    HW127851   0.959   1.280   4.422  0.2127 -1.8622 -2.2550
 5406SOL    HW227852   0.862   1.223   4.499 -0.8745  1.9856  1.4195
 5407SOL     OW27853   1.754   1.244   2.133  0.3131 -0.4259  0.3856
 5407SOL    HW127854   1.676   1.266   2.185 -0.0339 -2.1896  0.6121
 5407SOL    HW227855   1.702   1.230   2.054  1.5596  0.9144 -0.6786
 5408SOL     OW27856   1.798   0.124   5.559  0.0826 -0.2749 -0.5125
 5408SOL    HW127857   1.731   0.057   5.562  0.0912 -0.1968  1.3948
 5408SOL    HW227858   1.842   0.132   5.644 -0.4279 -1.3587 -0.1512
 5409SOL     OW27859   4.329   2.963   3.595  0.0764  0.0163 -0.4809
 5409SOL    HW127860   4.421   2.945   3.573 -0.0019  0.9503 -1.5515
 5409SOL    HW227861   4.337   2.982   3.689 -1.8473 -0.1529 -0.2794
 5410SOL     OW27862   1.337   3.692   1.908  0.2219  0.1740  0.3142
 5410SOL    HW127863   1.289   3.625   1.956  0.5896 -0.5935 -0.3866
 5410SOL    HW227864   1.283   3.729   1.838  0.3074 -1.9181 -0.8858
 5411SOL     OW27865   0.411   3.132  16.435 -0.2730 -0.0081  0.2465
 5411SOL    HW127866   0.412   3.041  16.465  4.7642  0.0547  0.2775
 5411SOL    HW227867   0.490   3.143  16.383  0.2994 -0.5479  0.9836
 5412SOL     OW27868   3.315   1.673   2.383 -0.4486  0.3519  0.4322
 5412SOL    HW127869   3.312   1.579   2.401 -2.3143  0.3923  0.3492
 5412SOL    HW227870   3.310   1.680   2.288  0.0048  0.1140  0.3896
 5413SOL     OW27871   3.166   3.822  10.822 -0.7208  0.3033 -0.4782
 5413SOL    HW127872   3.165   3.811  10.727  0.2625  2.6494 -0.7485
 5413SOL    HW227873   3.234   3.761  10.849 -2.4646 -1.3312  0.2410
 5414SOL     OW27874   4.461   1.157  13.569  0.6209  0.4555 -0.4435
 5414SOL    HW127875   4.407   1.091  13.526  0.5312 -0.3665  0.9341
 5414SOL    HW227876   4.402   1.225  13.601 -1.3349 -1.3337 -0.2370
 5415SOL     OW27877   4.733   0.990   8.980  0.0932  0.1597 -0.0074
 5415SOL    HW127878   4.680   0.912   8.995 -0.9670  1.0672  0.9715
 5415SOL    HW227879   4.664   1.050   8.951  0.2967 -0.0337 -0.8940
 5416SOL     OW27880   1.666   4.319  11.083  0.5229  0.3388 -0.5662
 5416SOL    HW127881   1.699   4.229  11.092 -2.6038 -0.8423 -0.9167
 5416SOL    HW227882   1.724   4.367  11.142  1.9817  0.2673 -1.9219
 5417SOL     OW27883   2.253   1.696   7.260 -0.4801 -0.5545 -0.2496
 5417SOL    HW127884   2.240   1.784   7.295  0.4337 -0.9727  1.1407
 5417SOL    HW227885   2.174   1.683   7.208 -1.6518 -2.6851  2.0811
 5418SOL     OW27886   0.378   3.333   2.969 -0.0393 -0.1486  0.0731
 5418SOL    HW127887   0.309   3.385   3.011  0.2680  1.1646 -1.0268
 5418SOL    HW227888   0.432   3.409   2.946  0.5689 -0.9361 -1.1555
 5419SOL     OW27889   2.109   2.403   8.316 -0.1261 -1.2080  0.2723
 5419SOL    HW127890   2.171   2.475   8.308 -0.3385 -0.9938  0.5207
 5419SOL    HW227891   2.161   2.340   8.366 -1.8607 -1.9473  1.1636
 5420SOL     OW27892   1.968   2.028   4.693 -0.0396  0.2955  0.0281
 5420SOL    HW127893   1.936   2.064   4.775  1.2439  1.6383 -0.0724
 5420SOL    HW227894   1.909   2.079   4.638 -1.5167 -0.4485  0.9125
 5421SOL     OW27895   0.714   2.760  10.732 -0.4638  0.4363 -0.2348
 5421SOL    HW127896   0.654   2.692  10.763 -0.5329  0.5171 -0.1900
 5421SOL    HW227897   0.650   2.809  10.681 -0.1689 -1.4114 -2.4004
 5422SOL     OW27898   2.332   1.027   7.695  0.6194 -0.3071 -0.4500
 5422SOL    HW127899   2.365   1.089   7.630  0.8163  1.3789  1.2584
 5422SOL    HW227900   2.276   1.085   7.746  0.7730  0.5912 -1.3177
 5423SOL     OW27901   4.000   1.202   9.513 -0.1267  1.0739 -0.6969
 5423SOL    HW127902   3.936   1.151   9.464  0.1037 -0.3920  0.5143
 5423SOL    HW227903   4.043   1.136   9.567 -1.2244  0.9828  0.0792
 5424SOL     OW27904   2.988   3.519   2.633 -0.1840 -0.7804  0.7959
 5424SOL    HW127905   3.063   3.574   2.610 -0.9648 -0.1287 -0.2420
 5424SOL    HW227906   3.017   3.429   2.622  0.0465 -0.6094 -0.0081
 5425SOL     OW27907   4.253   1.729  14.912  0.1877  0.5177  0.7713
 5425SOL    HW127908   4.178   1.748  14.855  1.2841  1.0706 -0.4739
 5425SOL    HW227909   4.240   1.641  14.946 -0.8476  0.1255 -0.5988
 5426SOL     OW27910   2.145   2.436  11.127  0.1362 -0.4129  0.7024
 5426SOL    HW127911   2.120   2.494  11.199  0.9089 -0.9623  1.4228
 5426SOL    HW227912   2.204   2.370  11.164  2.1240  0.9257 -0.0586
 5427SOL     OW27913   2.459   2.668  16.990  0.4163 -0.1863 -0.1649
 5427SOL    HW127914   2.512   2.747  16.996 -1.1314  0.6766  2.3137
 5427SOL    HW227915   2.521   2.598  17.010  0.5525 -0.6419 -2.2189
 5428SOL     OW27916   4.427   1.273   3.028  0.2333  0.4913 -0.2993
 5428SOL    HW127917   4.426   1.364   2.997 -0.5874  1.2134  1.8840
 5428SOL    HW227918   4.435   1.286   3.122 -1.2200 -0.6825 -0.0127
 5429SOL     OW27919   4.313   2.360  10.409  1.0801  0.2104  0.5057
 5429SOL    HW127920   4.228   2.361  10.364  1.1866 -2.6044  0.2367
 5429SOL    HW227921   4.294   2.422  10.479  3.0853 -0.8781  2.0118
 5430SOL     OW27922   3.423   1.893   3.273  0.5301  0.2169  0.0488
 5430SOL    HW127923   3.358   1.931   3.214  0.0311 -0.1968  0.3303
 5430SOL    HW227924   3.500   1.902   3.216  0.5672  1.0259  0.2156
 5431SOL     OW27925   1.690   3.891   4.816  0.1513 -0.0263 -0.0035
 5431SOL    HW127926   1.726   3.953   4.879  0.4711  1.5719 -1.7628
 5431SOL    HW227927   1.756   3.822   4.810 -0.1759 -0.1423 -2.3045
 5432SOL     OW27928   3.707   3.594   6.590 -0.7380 -0.3630  0.4258
 5432SOL    HW127929   3.702   3.667   6.651  1.1495  1.2387 -1.3272
 5432SOL    HW227930   3.799   3.567   6.599 -0.9309 -2.0269 -2.5773
 5433SOL     OW27931   4.448   2.608   9.263  0.2713 -0.3863  0.5787
 5433SOL    HW127932   4.419   2.555   9.338 -0.0149 -3.1852 -1.5165
 5433SOL    HW227933   4.363   2.608   9.219  0.1258  1.0916  0.8569
 5434SOL     OW27934   4.058   3.687   6.658  0.4946 -0.8021 -0.2126
 5434SOL    HW127935   4.147   3.712   6.635 -0.4431  1.4441 -1.4419
 5434SOL    HW227936   4.014   3.773   6.658  1.0597 -0.5113 -0.0723
 5435SOL     OW27937   0.093   2.715   4.633  0.4166 -0.4034  0.2467
 5435SOL    HW127938   4.737   2.731   4.633  0.7872  1.7337  0.6546
 5435SOL    HW227939   0.131   2.800   4.651  0.3446 -0.3238  0.0328
 5436SOL     OW27940   1.839   0.457  13.846  0.0907 -0.1825  0.3744
 5436SOL    HW127941   1.924   0.418  13.869  1.3814  1.9421 -0.8154
 5436SOL    HW227942   1.789   0.408  13.912  0.8823 -0.2653  0.9212
 5437SOL     OW27943   1.043   4.181   8.825  0.0461 -0.0785 -0.0142
 5437SOL    HW127944   0.980   4.118   8.862 -0.6537 -0.1982 -1.4217
 5437SOL    HW227945   1.075   4.133   8.749  1.8135  1.7525 -0.4368
 5438SOL     OW27946   3.200   4.097  15.393  0.0460 -0.2629 -0.0501
 5438SOL    HW127947   3.271   4.041  15.362  0.3628  0.6181 -0.9375
 5438SOL    HW227948   3.246   4.176  15.423  1.6675 -1.0414 -0.4892
 5439SOL     OW27949   2.375   4.656   6.185  0.3436  0.1817 -0.4383
 5439SOL    HW127950   2.373   4.561   6.189  1.0465  0.1901  0.1000
 5439SOL    HW227951   2.306   4.671   6.250  0.3990  2.4208 -0.8882
 5440SOL     OW27952   1.581   3.298   7.167  0.1012 -0.7651 -0.0203
 5440SOL    HW127953   1.566   3.219   7.115  1.2304 -1.6763  1.0436
 5440SOL    HW227954   1.523   3.295   7.243  0.7113  0.1133  0.4810
 5441SOL     OW27955   3.061   0.128   9.507 -0.1759  0.4131  0.0955
 5441SOL    HW127956   3.112   0.047   9.500 -0.5048  0.1385  0.8561
 5441SOL    HW227957   3.034   0.137   9.416 -0.1408  2.0241  0.2401
 5442SOL     OW27958   3.686   0.074   1.271  0.0635 -0.0591  0.0199
 5442SOL    HW127959   3.729   4.737   1.231 -0.2918  0.4995 -1.4222
 5442SOL    HW227960   3.650   0.127   1.200  0.6372  1.4143  0.8220
 5443SOL     OW27961   4.100   2.293   1.426  0.1535 -0.3921  0.3037
 5443SOL    HW127962   4.150   2.358   1.475 -1.2562  1.2160 -0.3904
 5443SOL    HW227963   4.152   2.222   1.465 -0.0797 -0.5599  0.3147
 5444SOL     OW27964   4.598   3.420  12.510  0.1866  0.2595  0.0580
 5444SOL    HW127965   4.591   3.483  12.438 -1.4560  0.8712  0.7412
 5444SOL    HW227966   4.685   3.384  12.497 -1.0064 -2.3015 -0.8652
 5445SOL     OW27967   3.876   0.405   8.563  0.2146 -0.4237 -0.6641
 5445SOL    HW127968   3.881   0.312   8.586 -2.3839 -0.6815 -1.1206
 5445SOL    HW227969   3.787   0.399   8.528 -0.6653 -0.9760  1.6332
 5446SOL     OW27970   1.728   0.443   7.112 -0.0219 -0.3120  0.1194
 5446SOL    HW127971   1.777   0.420   7.191 -1.8711  2.1343  1.9623
 5446SOL    HW227972   1.645   0.398   7.126  1.3648 -2.9051  0.1386
 5447SOL     OW27973   2.630   3.794   5.892 -0.4712 -0.3293  0.4050
 5447SOL    HW127974   2.699   3.735   5.925  1.3362  0.9718 -1.0141
 5447SOL    HW227975   2.597   3.804   5.981  1.7996 -3.0458  1.5440
 5448SOL     OW27976   2.713   0.148   9.550 -0.3674  0.0622  0.0259
 5448SOL    HW127977   2.792   0.135   9.498 -1.8741  0.9402 -2.4753
 5448SOL    HW227978   2.728   0.090   9.625 -0.4210  0.1812  0.1288
 5449SOL     OW27979   4.275   1.770  11.395  0.0860 -0.0103  0.2756
 5449SOL    HW127980   4.225   1.690  11.410  0.9400 -0.3482  1.3418
 5449SOL    HW227981   4.203   1.821  11.358 -0.0718 -0.8508 -0.5763
 5450SOL     OW27982   0.495   1.990   9.079 -0.2231 -0.5235 -0.5222
 5450SOL    HW127983   0.420   1.959   9.028  0.2165 -0.9352 -0.9187
 5450SOL    HW227984   0.522   1.905   9.113  0.2897 -0.1855 -0.0835
 5451SOL     OW27985   3.599   4.169   6.262  0.1757  0.2174  0.3663
 5451SOL    HW127986   3.651   4.211   6.331  2.0507  1.3271 -1.7091
 5451SOL    HW227987   3.536   4.238   6.243 -2.1883 -2.1376 -0.3370
 5452SOL     OW27988   1.757   1.253   3.258 -0.4996 -0.5562  0.8245
 5452SOL    HW127989   1.803   1.188   3.205 -3.3810 -1.2120 -0.8621
 5452SOL    HW227990   1.824   1.281   3.321 -1.4241  2.0836  0.6440
 5453SOL     OW27991   2.673   2.803   8.277 -0.6980 -0.1830 -0.5723
 5453SOL    HW127992   2.717   2.872   8.327 -0.8146  0.9075 -1.9857
 5453SOL    HW227993   2.731   2.729   8.259  0.3303  0.3747  0.4213
 5454SOL     OW27994   1.671   1.424   2.577 -0.1781  0.3601  0.2245
 5454SOL    HW127995   1.585   1.456   2.606  0.6166  1.9415  0.8425
 5454SOL    HW227996   1.683   1.331   2.595 -0.0670  0.2564 -0.3803
 5455SOL     OW27997   0.550   1.082   6.471  0.0013  0.4134 -0.3918
 5455SOL    HW127998   0.487   1.010   6.477 -0.4921  0.9556  0.8250
 5455SOL    HW227999   0.605   1.051   6.399  0.8080 -0.5085  0.6100
 5456SOL     OW28000   0.879   1.735   2.493  0.0270  0.2816 -0.5664
 5456SOL    HW128001   0.831   1.815   2.471 -0.8014 -0.0214  0.1481
 5456SOL    HW228002   0.966   1.769   2.513  0.6377 -0.4992 -1.8817
 5457SOL     OW28003   1.008   0.212   6.922 -0.2474 -0.1880 -0.2274
 5457SOL    HW128004   0.943   0.195   6.990  0.4508  1.0947  0.7576
 5457SOL    HW228005   0.954   0.170   6.854 -1.1661 -0.6200  0.7689
 5458SOL     OW28006   1.565   4.386  16.265  0.5298 -0.4934  0.2570
 5458SOL    HW128007   1.657   4.379  16.290  0.8081 -1.6166 -1.0409
 5458SOL    HW228008   1.526   4.415  16.348 -1.0813 -2.3023  0.1337
 5459SOL     OW28009   0.816   3.902   5.956  0.5082 -0.2235  0.6934
 5459SOL    HW128010   0.844   3.885   6.046 -0.2873  1.8135  1.3215
 5459SOL    HW228011   0.855   3.989   5.947  0.2398 -0.1403  0.3470
 5460SOL     OW28012   3.086   1.720  11.958  0.4214 -0.3957 -0.2425
 5460SOL    HW128013   3.119   1.690  11.874  0.2123  1.2939 -0.9187
 5460SOL    HW228014   3.009   1.770  11.931  0.9606 -0.7795 -2.4629
 5461SOL     OW28015   4.734   3.652   5.569 -0.3393  0.0456  0.0145
 5461SOL    HW128016   4.702   3.664   5.658 -1.2284 -1.5785 -0.0781
 5461SOL    HW228017   4.703   3.564   5.546  1.1986 -1.3945  3.4207
 5462SOL     OW28018   3.444   3.303   5.123  0.0108 -0.2385 -0.3765
 5462SOL    HW128019   3.530   3.326   5.156 -1.3014 -0.8783  3.4704
 5462SOL    HW228020   3.387   3.345   5.188 -0.4884 -0.0627 -0.9229
 5463SOL     OW28021   4.079   4.241  10.775 -0.2464 -0.4157 -0.7739
 5463SOL    HW128022   4.157   4.194  10.744 -0.6199 -0.8249 -1.0996
 5463SOL    HW228023   4.027   4.265  10.698 -0.1698  1.3792 -0.2531
 5464SOL     OW28024   1.622   4.337  13.172  0.3249 -0.0741 -0.4377
 5464SOL    HW128025   1.571   4.310  13.096 -0.3295  0.1568 -0.0832
 5464SOL    HW228026   1.636   4.426  13.140  0.3823  0.6152  1.4981
 5465SOL     OW28027   1.866   3.632   2.398  0.2159  0.1079 -0.0514
 5465SOL    HW128028   1.874   3.554   2.452 -0.3197 -0.0872 -0.2502
 5465SOL    HW228029   1.798   3.679   2.447 -1.0289 -3.0606  1.2364
 5466SOL     OW28030   3.515   0.417   5.601  0.4095 -0.2588 -0.6187
 5466SOL    HW128031   3.563   0.334   5.606  2.7518  1.2912  2.5280
 5466SOL    HW228032   3.503   0.445   5.692 -1.6059 -1.4686 -0.5070
 5467SOL     OW28033   4.373   3.049  14.339 -0.4343  0.6091 -0.1653
 5467SOL    HW128034   4.313   2.977  14.318 -1.4068  1.5041 -0.4217
 5467SOL    HW228035   4.321   3.111  14.389  0.8641  1.3832  0.2240
 5468SOL     OW28036   1.766   2.585   7.776  0.0272  0.2867  0.6652
 5468SOL    HW128037   1.697   2.519   7.785  2.1882 -1.4233  4.4985
 5468SOL    HW228038   1.834   2.539   7.825 -1.1275 -0.1010  1.9020
 5469SOL     OW28039   2.670   2.830   5.668 -0.2000 -0.0937 -0.5364
 5469SOL    HW128040   2.634   2.755   5.619 -1.0440  0.2388 -0.4331
 5469SOL    HW228041   2.608   2.895   5.635  0.6345  0.6524 -0.6259
 5470SOL     OW28042   1.537   4.571   9.442  0.1405 -0.1291  0.3739
 5470SOL    HW128043   1.623   4.539   9.468 -0.6203 -1.0434  1.7662
 5470SOL    HW228044   1.488   4.500   9.484  0.2216 -0.3331  0.1248
 5471SOL     OW28045   3.627   1.825   5.910 -0.3339  0.4617  0.4747
 5471SOL    HW128046   3.564   1.892   5.884  0.2318  1.0653  0.6531
 5471SOL    HW228047   3.574   1.775   5.972  2.8692 -2.6666  0.6592
 5472SOL     OW28048   3.897   1.783   5.997  0.3642 -0.2373  0.4130
 5472SOL    HW128049   3.875   1.699   5.957  1.3518 -1.3539  2.2156
 5472SOL    HW228050   3.813   1.827   5.985  0.2931 -0.3801  0.3890
 5473SOL     OW28051   3.117   1.670   5.300  0.2457 -0.2714  0.1035
 5473SOL    HW128052   3.109   1.762   5.325  1.8220  0.2260 -1.2388
 5473SOL    HW228053   3.200   1.664   5.253  1.6165 -1.0489  2.6003
 5474SOL     OW28054   1.553   2.015  10.128 -0.1218  0.1955 -0.3928
 5474SOL    HW128055   1.599   2.051  10.052 -0.9660 -1.0808 -1.5138
 5474SOL    HW228056   1.586   1.926  10.115  0.7545  0.4241  0.3173
 5475SOL     OW28057   3.209   2.523  17.499  0.3285 -0.2179  0.2829
 5475SOL    HW128058   3.229   2.563  17.414 -1.0683 -1.9962 -0.8632
 5475SOL    HW228059   3.174   2.600  17.546 -1.1729 -1.3490  1.0257
 5476SOL     OW28060   4.274   2.384  15.204  0.4250  0.3712 -0.5041
 5476SOL    HW128061   4.230   2.305  15.236  1.9367  0.1834  1.1494
 5476SOL    HW228062   4.201   2.443  15.221  0.4818  0.3121 -0.0442
 5477SOL     OW28063   0.676   1.450   7.126 -0.8747  0.0823 -0.2197
 5477SOL    HW128064   0.629   1.374   7.093  3.3010 -1.1207 -3.3905
 5477SOL    HW228065   0.751   1.448   7.066  0.7802  1.4860  1.7932
 5478SOL     OW28066   3.579   0.171   1.057  0.2085 -0.3027  0.0600
 5478SOL    HW128067   3.609   0.179   0.966  1.8270  0.5581  0.6751
 5478SOL    HW228068   3.485   0.186   1.043  0.6065  3.4561  1.4617
 5479SOL     OW28069   1.627   4.622   8.261  0.1802 -0.5725 -0.0970
 5479SOL    HW128070   1.560   4.625   8.193 -3.2746  1.6137  3.4168
 5479SOL    HW228071   1.702   4.580   8.218  0.8102 -0.4759  0.9023
 5480SOL     OW28072   0.838   2.334  12.070 -0.1539  0.4806  0.6135
 5480SOL    HW128073   0.792   2.256  12.101 -0.1824  2.0048  4.3911
 5480SOL    HW228074   0.807   2.393  12.138 -1.4951  0.3583  0.0995
 5481SOL     OW28075   1.449   4.712   1.456  0.3899 -0.2972  0.1590
 5481SOL    HW128076   1.543   4.699   1.451  0.7706  2.0059  1.3634
 5481SOL    HW228077   1.438   0.057   1.413 -0.0978  0.7094  2.2759
 5482SOL     OW28078   3.067   4.290   7.134 -0.3437  0.1821 -1.2016
 5482SOL    HW128079   3.018   4.214   7.103 -1.0199  0.6125 -1.1988
 5482SOL    HW228080   3.008   4.331   7.197 -0.7866 -0.8361 -0.9465
 5483SOL     OW28081   3.841   1.779   5.429  0.3288  0.6722 -0.3821
 5483SOL    HW128082   3.849   1.685   5.439 -0.2340  0.3992 -2.4342
 5483SOL    HW228083   3.794   1.793   5.511  0.1333 -0.7665 -0.2516
 5484SOL     OW28084   0.579   2.259   0.136 -0.6087 -0.3233 -0.5902
 5484SOL    HW128085   0.586   2.236   0.043  2.0888  1.1204 -0.7707
 5484SOL    HW228086   0.609   2.177   0.173  0.6407  0.4543  0.1249
 5485SOL     OW28087   3.513   2.191   1.881 -0.1043  0.1328 -0.3169
 5485SOL    HW128088   3.554   2.111   1.848  1.7273  0.2044  1.8095
 5485SOL    HW228089   3.529   2.249   1.807  2.3558 -1.3521 -0.9581
 5486SOL     OW28090   4.680   1.246   8.382 -0.9063  0.7748  0.2171
 5486SOL    HW128091   4.592   1.211   8.371 -0.9465  0.4373  1.5815
 5486SOL    HW228092   4.670   1.302   8.459  0.5281 -3.3171  3.4065
 5487SOL     OW28093   3.958   0.596   2.591 -0.0068 -1.0338  0.5657
 5487SOL    HW128094   4.035   0.651   2.584 -2.4480  2.1920 -1.0299
 5487SOL    HW228095   3.947   0.549   2.508  3.5948  1.6698 -1.3987
 5488SOL     OW28096   2.984   4.658   1.387 -0.4049  0.4657  0.5863
 5488SOL    HW128097   3.036   4.700   1.319 -2.3290  3.4154  0.9261
 5488SOL    HW228098   2.926   4.599   1.339  2.0679 -0.2100 -1.6009
 5489SOL     OW28099   3.129   2.714   8.730 -0.0039 -0.6478 -0.6208
 5489SOL    HW128100   3.144   2.748   8.818  0.6268 -1.5924 -0.3613
 5489SOL    HW228101   3.215   2.691   8.693  0.3027 -0.8341  0.2228
 5490SOL     OW28102   0.175   2.072  14.767  0.2432  0.0459 -0.0730
 5490SOL    HW128103   0.103   2.125  14.803  0.0701  0.5211 -1.1023
 5490SOL    HW228104   0.178   2.095  14.674  0.9890 -0.6925 -0.2345
 5491SOL     OW28105   2.552   0.877   7.993 -0.3808 -0.2102 -0.1578
 5491SOL    HW128106   2.645   0.883   8.017 -0.2856 -0.2802 -0.5098
 5491SOL    HW228107   2.518   0.950   8.044  0.3809  0.9636 -1.3260
 5492SOL     OW28108   1.585   1.465   5.471  0.8065 -0.4932  0.1017
 5492SOL    HW128109   1.505   1.453   5.522 -0.0317  3.4993 -0.3054
 5492SOL    HW228110   1.608   1.372   5.477 -1.4210 -0.9285  1.9454
 5493SOL     OW28111   0.365   2.169  14.382 -0.6101  0.5072  0.6001
 5493SOL    HW128112   0.311   2.120  14.444  0.7919 -3.5188 -1.3170
 5493SOL    HW228113   0.455   2.136  14.393 -0.5222 -0.2336 -2.0914
 5494SOL     OW28114   0.566   2.033   2.250  0.4672  0.2123  0.1022
 5494SOL    HW128115   0.537   2.115   2.290 -3.3927 -1.7392  1.3786
 5494SOL    HW228116   0.616   2.065   2.175  1.3099 -4.0709 -1.1350
 5495SOL     OW28117   0.367   1.536   3.584  1.0912  0.0328  0.2649
 5495SOL    HW128118   0.344   1.453   3.542  0.7387  1.2091 -1.8744
 5495SOL    HW228119   0.442   1.565   3.532 -0.0646  2.8638  0.1931
 5496SOL     OW28120   1.600   1.876  12.985  0.5613 -0.0629 -0.5438
 5496SOL    HW128121   1.677   1.898  13.038 -0.4858  2.0938  0.0657
 5496SOL    HW228122   1.589   1.963  12.949  0.8191 -0.1177 -0.7562
 5497SOL     OW28123   1.518   3.213  11.767 -0.0096 -0.1066  0.3970
 5497SOL    HW128124   1.583   3.150  11.736 -0.6386 -0.3735 -0.3979
 5497SOL    HW228125   1.539   3.281  11.704 -0.3942  0.6837  1.1199
 5498SOL     OW28126   0.686   1.376  11.912  0.0433  0.0393  0.8767
 5498SOL    HW128127   0.759   1.433  11.938 -1.2302  1.5070  1.2159
 5498SOL    HW228128   0.714   1.341  11.828  0.5954  1.1435  0.5996
 5499SOL     OW28129   2.616   1.243   9.504  0.2189  0.4960  0.9589
 5499SOL    HW128130   2.591   1.158   9.540  0.1570  0.5427  1.0282
 5499SOL    HW228131   2.711   1.233   9.499  0.3884  2.0519  0.9200
 5500SOL     OW28132   0.192   0.676  10.083 -0.4194  0.3645  0.0550
 5500SOL    HW128133   0.104   0.642  10.100  0.0661 -0.8370  0.1383
 5500SOL    HW228134   0.243   0.607  10.041 -1.9802  0.4523 -2.0008
 5501SOL     OW28135   2.175   2.119   6.479  0.1252 -0.2921 -0.3127
 5501SOL    HW128136   2.209   2.108   6.391  0.8778 -0.6925  0.0283
 5501SOL    HW228137   2.119   2.042   6.482 -0.3377  0.0209 -0.9513
 5502SOL     OW28138   3.324   1.549   3.049 -0.4741  0.5591 -0.9201
 5502SOL    HW128139   3.349   1.457   3.043  3.5529  1.7716 -2.9247
 5502SOL    HW228140   3.250   1.555   3.110 -0.8991 -0.3061 -1.3591
 5503SOL     OW28141   0.165   0.215   7.053  0.2784  0.1090 -0.0675
 5503SOL    HW128142   0.214   0.298   7.052  3.3704 -1.7276  0.1052
 5503SOL    HW228143   0.083   0.254   7.021  0.7936  0.1528 -1.3317
 5504SOL     OW28144   3.592   4.064   5.079  0.3307 -0.4169 -0.3096
 5504SOL    HW128145   3.590   4.072   5.175 -0.3628 -0.4968 -0.3116
 5504SOL    HW228146   3.632   3.977   5.079 -0.8216 -0.9464  1.2926
 5505SOL     OW28147   1.172   3.299  12.827  0.3898  0.6792  0.1320
 5505SOL    HW128148   1.205   3.341  12.907  0.5414 -0.1141  0.4946
 5505SOL    HW228149   1.218   3.359  12.768 -2.2158  0.7321 -1.8207
 5506SOL     OW28150   0.260   0.106   8.587  0.5470  0.4138 -0.7105
 5506SOL    HW128151   0.169   0.131   8.604  0.3599  1.9226 -3.8084
 5506SOL    HW228152   0.285   0.095   8.679  0.9259  5.5071 -0.2042
 5507SOL     OW28153   0.598   3.005   3.491 -0.1324  0.4432 -0.1602
 5507SOL    HW128154   0.515   3.049   3.508 -1.2615 -1.2249 -1.4139
 5507SOL    HW228155   0.604   2.956   3.573 -0.0124  0.7745  0.0283
 5508SOL     OW28156   1.905   0.702   6.256  0.3153  0.0911 -0.1950
 5508SOL    HW128157   1.902   0.629   6.317  2.7996  0.3953  0.2844
 5508SOL    HW228158   1.998   0.707   6.232  1.4098 -1.1103  3.7943
 5509SOL     OW28159   1.060   4.697   1.463  0.8204 -0.0222  0.3008
 5509SOL    HW128160   1.030   4.696   1.372 -1.0558  1.7189  0.8977
 5509SOL    HW228161   1.064   4.602   1.470  2.3331  0.0328  0.3068
 5510SOL     OW28162   2.809   3.571  16.640 -0.3163  0.4012 -0.3954
 5510SOL    HW128163   2.759   3.497  16.607  3.6566 -2.6715  0.4329
 5510SOL    HW228164   2.759   3.587  16.720 -0.1152  1.7544 -0.5400
 5511SOL     OW28165   2.560   3.814   1.641  0.2787 -0.1534 -0.1133
 5511SOL    HW128166   2.615   3.736   1.648  0.7755  0.3050  1.1770
 5511SOL    HW228167   2.475   3.783   1.672 -0.2005 -0.8876 -2.1457
 5512SOL     OW28168   1.073   1.393   5.857 -0.9291  0.2523  0.2259
 5512SOL    HW128169   1.156   1.348   5.839 -1.4965 -0.2534 -1.1638
 5512SOL    HW228170   1.033   1.346   5.931 -0.6970  0.1037  0.2593
 5513SOL     OW28171   3.992   3.720  14.621 -0.3132 -0.2797  0.0790
 5513SOL    HW128172   4.046   3.795  14.597 -2.1927  1.1051  0.2088
 5513SOL    HW228173   3.990   3.683  14.533 -0.5659  0.3732 -0.1895
 5514SOL     OW28174   0.601   1.016   5.271  0.8135  0.0607 -0.5874
 5514SOL    HW128175   0.515   0.973   5.266  1.3803 -1.2207  0.5170
 5514SOL    HW228176   0.650   0.935   5.257  1.4665 -0.0793  2.5590
 5515SOL     OW28177   2.621   0.054   3.399  0.5823 -0.1675 -0.2007
 5515SOL    HW128178   2.611   0.007   3.316 -0.0862 -0.2254 -0.0861
 5515SOL    HW228179   2.706   0.094   3.384 -0.0727  0.9789 -0.7933
 5516SOL     OW28180   4.060   3.566   1.858  0.5003  0.4221  0.0080
 5516SOL    HW128181   4.068   3.660   1.871 -0.8794  0.6503 -0.7421
 5516SOL    HW228182   4.000   3.548   1.786  2.6532 -1.1350 -1.3889
 5517SOL     OW28183   1.481   0.445   2.480  0.3207 -0.7389 -0.9309
 5517SOL    HW128184   1.476   0.374   2.544  0.1852 -0.7555 -0.9583
 5517SOL    HW228185   1.388   0.463   2.465  0.2729  0.7567  1.3582
 5518SOL     OW28186   1.662   3.556   4.313 -0.2294 -0.5913  0.0707
 5518SOL    HW128187   1.569   3.559   4.337 -0.5307 -1.6582 -0.9117
 5518SOL    HW228188   1.653   3.497   4.238 -1.6258  0.7060 -0.7931
 5519SOL     OW28189   3.836   2.446   6.620 -0.1392  0.1363  0.0351
 5519SOL    HW128190   3.897   2.443   6.693  1.1412  0.2494 -1.0351
 5519SOL    HW228191   3.894   2.427   6.546  1.3079  0.8168  1.0043
 5520SOL     OW28192   0.229   1.469   2.016 -0.0282  0.2983  0.3024
 5520SOL    HW128193   0.265   1.488   2.103 -0.6797  0.1931  0.5998
 5520SOL    HW228194   0.135   1.477   2.034  0.0193 -0.2273  0.7916
 5521SOL     OW28195   4.218   3.882  14.587 -0.1977  0.4791  0.2815
 5521SOL    HW128196   4.291   3.944  14.589 -0.0995  0.3974 -0.8653
 5521SOL    HW228197   4.256   3.794  14.580 -0.9002  0.3531 -2.0879
 5522SOL     OW28198   1.980   2.382   7.144 -0.2351  0.0132  0.1263
 5522SOL    HW128199   1.895   2.411   7.111  0.1492  0.6103 -0.3467
 5522SOL    HW228200   1.960   2.294   7.175 -0.2548  0.0329  0.1698
 5523SOL     OW28201   3.032   4.591   1.010  0.4869 -0.7229 -0.3982
 5523SOL    HW128202   2.943   4.601   0.976 -0.6223 -1.0226  2.4293
 5523SOL    HW228203   3.035   4.650   1.085  0.1525  0.0955 -1.0304
 5524SOL     OW28204   0.758   0.514  14.901 -0.1201 -0.0819 -0.0380
 5524SOL    HW128205   0.779   0.511  14.807 -0.3287 -2.0806 -0.0159
 5524SOL    HW228206   0.665   0.536  14.898 -0.3465 -1.0521 -0.1598
 5525SOL     OW28207   2.956   1.624   3.740  0.0667 -0.2027  0.1486
 5525SOL    HW128208   3.024   1.571   3.697 -0.7499  0.9259 -2.5652
 5525SOL    HW228209   2.969   1.703   3.688  1.1907 -0.8109 -0.4867
 5526SOL     OW28210   3.952   1.373   0.776 -0.3873 -0.0466 -0.2096
 5526SOL    HW128211   3.982   1.297   0.825 -1.7622  0.6697  1.6987
 5526SOL    HW228212   3.856   1.372   0.778 -0.4107  1.7819 -0.7187
 5527SOL     OW28213   4.286   4.185   9.544 -0.0913  0.0271 -0.3977
 5527SOL    HW128214   4.293   4.105   9.596 -1.0302  0.3578  0.2370
 5527SOL    HW228215   4.225   4.231   9.601 -1.8705  0.8312 -2.9280
 5528SOL     OW28216   1.617   3.483   5.078 -0.3912  0.1199 -0.9281
 5528SOL    HW128217   1.530   3.452   5.055  0.2664 -1.8057 -0.8235
 5528SOL    HW228218   1.594   3.564   5.123 -1.6822  0.5158 -2.2944
 5529SOL     OW28219   0.531   3.273   4.566  0.7151 -0.2730 -0.1373
 5529SOL    HW128220   0.603   3.333   4.581 -0.6856  1.6111 -0.9223
 5529SOL    HW228221   0.508   3.295   4.475 -0.2652  0.3526  0.2613
 5530SOL     OW28222   2.122   1.057  17.534 -0.3750  0.4078  0.0491
 5530SOL    HW128223   2.066   0.987  17.569  2.8416 -1.9891  0.3889
 5530SOL    HW228224   2.092   1.124  17.596  2.0401  0.4816  1.1066
 5531SOL     OW28225   1.904   3.542  13.224  0.1632  0.2586 -0.0433
 5531SOL    HW128226   1.996   3.522  13.241  0.3543  0.5296 -0.7397
 5531SOL    HW228227   1.906   3.569  13.132  2.1942 -2.9308 -0.9116
 5532SOL     OW28228   3.129   3.199   6.661 -0.4495  0.4078 -0.0525
 5532SOL    HW128229   3.118   3.294   6.665 -1.1686  0.3951 -1.8610
 5532SOL    HW228230   3.215   3.190   6.619 -0.9055 -0.4641 -0.7974
 5533SOL     OW28231   2.519   2.228  17.219 -0.1975  0.0830  0.1240
 5533SOL    HW128232   2.610   2.201  17.232 -0.2273  0.8033  1.9558
 5533SOL    HW228233   2.508   2.307  17.272  0.3415 -0.0583  0.4527
 5534SOL     OW28234   0.548   2.468   0.641  0.2218 -0.1695  0.0327
 5534SOL    HW128235   0.610   2.528   0.600  1.8270 -0.6951  1.7029
 5534SOL    HW228236   0.551   2.399   0.575  1.3301  0.0694 -0.1583
 5535SOL     OW28237   4.042   0.762  11.855 -0.2916 -0.2864 -0.1351
 5535SOL    HW128238   4.111   0.697  11.838 -2.0154 -1.0138 -4.2835
 5535SOL    HW228239   4.015   0.773  11.764 -0.4250 -1.9817 -0.2979
 5536SOL     OW28240   2.371   1.492  16.352 -0.6671  0.4443  0.1921
 5536SOL    HW128241   2.311   1.497  16.426 -0.9227 -1.0774  0.0924
 5536SOL    HW228242   2.310   1.492  16.277  0.0048 -0.3446 -0.3590
 5537SOL     OW28243   3.211   3.708   2.616  0.6069 -0.5487  0.0797
 5537SOL    HW128244   3.223   3.802   2.605 -1.0417 -0.4123 -0.4656
 5537SOL    HW228245   3.268   3.690   2.691  0.5574 -0.2880  0.1798
 5538SOL     OW28246   1.030   3.123   2.184  0.3541 -0.0140 -0.0484
 5538SOL    HW128247   1.014   3.145   2.092 -2.5066  2.5941  1.0629
 5538SOL    HW228248   0.950   3.071   2.192  1.2084 -1.3166 -0.0967
 5539SOL     OW28249   0.849   2.495   4.248 -0.2694 -0.2744 -0.8933
 5539SOL    HW128250   0.902   2.438   4.193 -0.8318 -2.4401  0.7620
 5539SOL    HW228251   0.774   2.435   4.260 -0.2487 -0.0155  0.6147
 5540SOL     OW28252   4.624   1.793   8.333 -0.4239 -0.0934 -0.0694
 5540SOL    HW128253   4.663   1.724   8.278 -0.7524 -0.6723  0.4274
 5540SOL    HW228254   4.662   1.774   8.419 -0.2307  2.1549  0.3429
 5541SOL     OW28255   0.430   2.066  12.064  0.9113  0.2169 -0.0937
 5541SOL    HW128256   0.367   2.107  12.122  2.6610  1.3626  0.9715
 5541SOL    HW228257   0.380   2.063  11.982 -0.8488 -0.2286  1.0053
 5542SOL     OW28258   4.473   0.097   2.312  0.1878  0.2211  0.3060
 5542SOL    HW128259   4.442   0.090   2.222  0.9420 -1.7980  0.2085
 5542SOL    HW228260   4.419   0.168   2.347  3.1219  1.8789  1.4945
 5543SOL     OW28261   1.734   0.492   6.857 -0.3485 -0.3111  0.2324
 5543SOL    HW128262   1.719   0.479   6.950  2.2557  1.5303  0.9159
 5543SOL    HW228263   1.764   0.582   6.866  0.1302 -0.6161  1.7541
 5544SOL     OW28264   4.226   2.663   6.815  0.3268  0.4627  0.0109
 5544SOL    HW128265   4.243   2.687   6.906  0.7714  0.0070  0.0491
 5544SOL    HW228266   4.137   2.695   6.804  0.2521 -0.4388 -2.0420
 5545SOL     OW28267   1.860   0.700  17.296 -0.5453 -0.0839  0.4583
 5545SOL    HW128268   1.944   0.737  17.270  0.1522 -2.1952 -0.2583
 5545SOL    HW228269   1.821   0.776  17.339 -0.4057  0.1530  0.1635
 5546SOL     OW28270   1.676   1.051   2.888 -0.3558 -0.7618 -0.1644
 5546SOL    HW128271   1.759   1.006   2.871  1.4592  2.0758  1.2424
 5546SOL    HW228272   1.677   1.024   2.980  0.7682  0.0892  0.0785
 5547SOL     OW28273   2.849   1.096  15.184  0.1026 -0.4971  0.0775
 5547SOL    HW128274   2.883   1.178  15.149 -0.0225 -0.9970 -1.2306
 5547SOL    HW228275   2.918   1.064  15.241  2.2443  0.6346 -1.8932
 5548SOL     OW28276   3.606   3.495   8.034  0.4097  0.2234 -0.1302
 5548SOL    HW128277   3.587   3.402   8.025  0.6744  0.2437 -0.9085
 5548SOL    HW228278   3.683   3.496   8.091  1.2650 -1.0985 -1.2660
 5549SOL     OW28279   0.387   0.686   2.240 -0.4475 -0.4367 -0.8392
 5549SOL    HW128280   0.360   0.630   2.166  1.0612 -0.4422 -1.4000
 5549SOL    HW228281   0.303   0.716   2.274  0.5091  0.8463  0.3560
 5550SOL     OW28282   0.911   4.299   3.436 -0.0237  0.0459 -0.3952
 5550SOL    HW128283   0.931   4.363   3.368 -0.6464 -2.3143 -2.7972
 5550SOL    HW228284   0.938   4.337   3.519  0.3820  0.3684 -0.6768
 5551SOL     OW28285   4.477   4.674  16.140 -0.2668  0.5634  0.1228
 5551SOL    HW128286   4.563   4.637  16.159 -0.3429 -0.0629 -0.7800
 5551SOL    HW228287   4.498   0.024  16.113  1.8176  0.4693  1.3970
 5552SOL     OW28288   0.942   2.480   3.021 -0.3757 -0.2553 -0.4705
 5552SOL    HW128289   1.017   2.477   2.962  0.6343  0.8378  0.7619
 5552SOL    HW228290   0.909   2.564   2.988 -1.3993 -0.0257  1.1287
 5553SOL     OW28291   3.647   2.933   4.941  0.2410 -0.4191 -0.0047
 5553SOL    HW128292   3.588   2.881   4.995 -0.5305  0.2662 -0.1915
 5553SOL    HW228293   3.667   3.009   4.996  2.1538 -0.7874 -0.1810
 5554SOL     OW28294   1.399   2.386   0.317 -0.1192 -0.4078  0.0436
 5554SOL    HW128295   1.345   2.334   0.377  0.4558 -0.5314  0.4575
 5554SOL    HW228296   1.437   2.315   0.264 -1.0249 -0.3934 -0.6196
 5555SOL     OW28297   3.797   3.507   4.949  0.3776 -0.6812 -0.2741
 5555SOL    HW128298   3.879   3.536   4.989  1.6246 -0.6651 -2.8362
 5555SOL    HW228299   3.837   3.461   4.875 -1.0293 -1.3399 -0.6220
 5556SOL     OW28300   4.156   1.993  13.766  0.3482 -0.1683  0.2310
 5556SOL    HW128301   4.108   1.917  13.734  0.7943 -0.7741  1.0046
 5556SOL    HW228302   4.169   1.966  13.857 -3.7702  1.4172  1.2773
 5557SOL     OW28303   0.017   3.254  12.281  0.1250 -1.3118 -0.8124
 5557SOL    HW128304   0.113   3.256  12.276  0.2153  0.4206  1.1826
 5557SOL    HW228305   0.005   3.201  12.360  1.4278  2.0424  1.6475
 5558SOL     OW28306   0.587   1.637   1.578  0.5500  0.0575  0.0739
 5558SOL    HW128307   0.613   1.702   1.643  0.5382 -0.4330  0.5628
 5558SOL    HW228308   0.599   1.682   1.494  0.3775 -0.6515 -0.3322
 5559SOL     OW28309   3.817   3.202   9.523  0.0061 -0.5024  0.6084
 5559SOL    HW128310   3.777   3.132   9.574  0.2915  0.3453  1.9910
 5559SOL    HW228311   3.745   3.261   9.501  1.0795  0.3000 -0.7418
 5560SOL     OW28312   3.748   1.096  13.704  0.2628  0.6815  0.2146
 5560SOL    HW128313   3.667   1.045  13.701  0.6668  0.1238 -1.5682
 5560SOL    HW228314   3.790   1.059  13.781  2.2150 -1.9349 -2.1351
 5561SOL     OW28315   3.072   0.280   4.254  0.8668 -0.3642  0.0045
 5561SOL    HW128316   2.988   0.254   4.217  0.4496  1.7913 -0.5436
 5561SOL    HW228317   3.119   0.309   4.176 -1.8492  2.3013 -0.6461
 5562SOL     OW28318   3.014   0.405   6.819 -0.0047 -0.1911 -0.1254
 5562SOL    HW128319   2.958   0.457   6.877  0.6082 -1.5121  1.6533
 5562SOL    HW228320   2.994   0.314   6.840  0.7518 -0.0349  1.2761
 5563SOL     OW28321   0.006   2.542   3.447 -0.0698 -0.5655  0.3020
 5563SOL    HW128322   4.726   2.601   3.374 -0.8992 -1.2599 -0.0394
 5563SOL    HW228323   4.710   2.458   3.419  0.0604 -1.0139  1.5294
 5564SOL     OW28324   0.994   1.170  11.552  0.0168 -0.2337  0.0815
 5564SOL    HW128325   1.030   1.145  11.637  2.9639 -0.3147 -1.1651
 5564SOL    HW228326   0.930   1.236  11.575 -0.1550  0.2803 -1.8506
 5565SOL     OW28327   0.885   2.824  16.527 -0.3824  0.2794 -0.1198
 5565SOL    HW128328   0.971   2.784  16.536 -0.9243 -1.0963 -1.1139
 5565SOL    HW228329   0.885   2.894  16.592 -3.2497  0.8676 -0.7319
 5566SOL     OW28330   2.788   3.198   4.187 -0.1100 -0.1524  0.0562
 5566SOL    HW128331   2.792   3.146   4.268  0.3495  1.2554  0.9300
 5566SOL    HW228332   2.872   3.243   4.193 -0.8036  1.2553 -0.8457
 5567SOL     OW28333   0.324   3.481  12.766 -0.7798  0.3603 -0.1262
 5567SOL    HW128334   0.292   3.474  12.676 -2.2884  0.0427  0.4359
 5567SOL    HW228335   0.305   3.572  12.789  1.5204  0.4996  1.2839
 5568SOL     OW28336   1.447   1.979   7.966  0.5369  0.3846 -0.1699
 5568SOL    HW128337   1.364   2.023   7.944  0.7106  0.9869  0.3926
 5568SOL    HW228338   1.514   2.047   7.957  1.0657  0.1396  1.9746
 5569SOL     OW28339   3.918   4.501   7.680  0.3257 -0.4851  0.3892
 5569SOL    HW128340   3.979   4.446   7.730  0.4455  0.2500  1.0553
 5569SOL    HW228341   3.848   4.435   7.681 -0.4694  0.3610  0.6461
 5570SOL     OW28342   1.633   2.498   3.933  0.2667  0.0847  0.7949
 5570SOL    HW128343   1.587   2.563   3.987 -1.8288  1.1246 -2.2658
 5570SOL    HW228344   1.559   2.469   3.879  0.3375  1.0202  0.1963
 5571SOL     OW28345   1.527   0.370   7.917  0.0587  0.1034 -0.0005
 5571SOL    HW128346   1.444   0.410   7.940 -0.2933  0.9154 -2.6039
 5571SOL    HW228347   1.581   0.385   7.994 -1.0068 -0.3452  0.8186
 5572SOL     OW28348   1.485   0.315   7.185 -0.1266 -0.8015 -0.0089
 5572SOL    HW128349   1.473   0.250   7.255 -0.9418 -1.6716 -0.9684
 5572SOL    HW228350   1.403   0.364   7.183  1.7533  2.4291  0.2243
 5573SOL     OW28351   2.891   2.040   9.075 -0.4495  0.0206  0.0181
 5573SOL    HW128352   2.866   2.082   8.993  2.2856 -1.7334 -1.7028
 5573SOL    HW228353   2.810   2.043   9.127 -0.6093  0.8119 -0.2764
 5574SOL     OW28354   3.591   2.497  16.129 -0.9277 -0.3713  0.3425
 5574SOL    HW128355   3.667   2.547  16.100 -0.2145 -0.2498  2.4833
 5574SOL    HW228356   3.579   2.445  16.049 -1.0262 -1.1273  0.8491
 5575SOL     OW28357   3.881   2.359   2.422  0.0253 -0.2276 -0.2298
 5575SOL    HW128358   3.938   2.410   2.363  0.8705  0.7351  1.4151
 5575SOL    HW228359   3.799   2.349   2.374  1.2379  0.7871 -2.5352
 5576SOL     OW28360   1.421   1.371   6.628 -0.3145  0.9421 -0.2724
 5576SOL    HW128361   1.359   1.403   6.693  0.0800  0.1802  0.4870
 5576SOL    HW228362   1.405   1.277   6.634  0.9256  0.7736  0.4675
 5577SOL     OW28363   0.820   3.710   3.098 -0.3734  0.0209  0.1897
 5577SOL    HW128364   0.859   3.644   3.154  1.8590 -0.1039 -1.5082
 5577SOL    HW228365   0.883   3.705   3.026  0.6122 -1.6312  1.1962
 5578SOL     OW28366   2.109   3.233  11.397 -0.1650  0.2289  0.3962
 5578SOL    HW128367   2.134   3.192  11.480 -0.9212 -0.7910  0.1274
 5578SOL    HW228368   2.131   3.164  11.334 -2.5590 -0.6244  0.4883
 5579SOL     OW28369   4.423   1.026   7.926 -0.4648  0.4864  0.1700
 5579SOL    HW128370   4.501   0.971   7.938 -0.3839  0.2366 -1.4225
 5579SOL    HW228371   4.354   0.960   7.924  0.1317 -0.0382 -3.7584
 5580SOL     OW28372   4.635   0.254  17.668 -0.4770 -0.8880 -0.5740
 5580SOL    HW128373   4.629   0.271  17.574  0.0851 -3.1313 -0.9951
 5580SOL    HW228374   4.622   0.159  17.666  1.0596 -1.1012 -0.2608
 5581SOL     OW28375   2.955   0.137   7.788 -0.0002  0.1879 -0.0058
 5581SOL    HW128376   3.044   0.104   7.798  0.0919  0.6054  0.5689
 5581SOL    HW228377   2.897   0.083   7.842  3.3905 -3.5216 -0.1557
 5582SOL     OW28378   3.895   0.718  16.338 -0.0498 -0.1596  0.4933
 5582SOL    HW128379   3.885   0.659  16.264  3.7358 -0.7259  0.4167
 5582SOL    HW228380   3.965   0.667  16.380  0.0698 -0.2671  0.1634
 5583SOL     OW28381   4.199   0.893   0.746 -0.3840  0.0979  0.2628
 5583SOL    HW128382   4.265   0.954   0.779  0.5973 -0.6362 -0.3678
 5583SOL    HW228383   4.120   0.946   0.757  0.0471  0.9541 -0.7346
 5584SOL     OW28384   0.731   0.095   4.417 -0.2969  0.3066  0.3902
 5584SOL    HW128385   0.752   0.159   4.485  1.7696  0.0744 -0.0316
 5584SOL    HW228386   0.648   0.069   4.457 -0.0873  0.7444  1.0915
 5585SOL     OW28387   4.513   1.882   5.877  0.2277 -0.5176 -0.0433
 5585SOL    HW128388   4.587   1.901   5.819 -0.1992  0.8588 -0.1499
 5585SOL    HW228389   4.552   1.920   5.957  2.8025 -1.1699 -0.9955
 5586SOL     OW28390   0.491   3.181   4.837  0.3286 -0.0985 -0.2499
 5586SOL    HW128391   0.513   3.229   4.757  3.4112 -1.2767 -0.1154
 5586SOL    HW228392   0.501   3.090   4.807 -0.0544 -0.0403 -0.5581
 5587SOL     OW28393   0.718   1.782   4.592 -0.4680  0.0605  0.2826
 5587SOL    HW128394   0.663   1.841   4.643 -0.9492  0.3880 -0.6277
 5587SOL    HW228395   0.734   1.713   4.657 -1.9690  0.5413  1.1521
 5588SOL     OW28396   1.351   1.686   4.288  0.6950 -0.1827  1.1079
 5588SOL    HW128397   1.338   1.745   4.362  2.3814  0.0390  1.2095
 5588SOL    HW228398   1.415   1.625   4.325  2.5432  1.0709 -0.0614
 5589SOL     OW28399   2.416   3.242   6.105 -0.3754  0.6225 -0.0323
 5589SOL    HW128400   2.427   3.203   6.018 -0.2127  0.1290  0.2050
 5589SOL    HW228401   2.327   3.277   6.104 -0.2176  1.0419  1.6246
 5590SOL     OW28402   0.004   0.507   9.040 -0.2300  0.2222  0.1820
 5590SOL    HW128403   4.713   0.441   9.103  0.3387  0.7399  0.9995
 5590SOL    HW228404   0.025   0.582   9.096 -0.0117  1.5142 -1.6479
 5591SOL     OW28405   1.829   2.209   2.971  0.0466  0.0717  0.1417
 5591SOL    HW128406   1.758   2.270   2.989 -0.1742  0.0004 -0.4914
 5591SOL    HW228407   1.832   2.227   2.877  0.1734  0.3485  0.2009
 5592SOL     OW28408   1.072   2.882  13.087  0.0537 -0.4900  0.2190
 5592SOL    HW128409   1.054   2.949  13.021  0.8913  0.0752  0.5661
 5592SOL    HW228410   1.013   2.814  13.057  1.5426 -1.9340  0.5738
 5593SOL     OW28411   3.465   3.986   8.195  0.1774  0.1218  0.4707
 5593SOL    HW128412   3.385   4.027   8.228 -0.9357 -1.1897 -0.5701
 5593SOL    HW228413   3.440   3.894   8.207  0.1152 -0.0505 -1.0051
 5594SOL     OW28414   4.183   1.036   0.114 -0.1533  0.3374 -0.5790
 5594SOL    HW128415   4.194   1.131   0.118 -0.5273  0.4089 -1.2526
 5594SOL    HW228416   4.259   0.995   0.156  0.4392  0.7262 -1.2588
 5595SOL     OW28417   2.181   0.834  13.035  0.1568  0.0160 -0.4304
 5595SOL    HW128418   2.254   0.824  13.096 -0.0654 -2.7492 -0.6435
 5595SOL    HW228419   2.152   0.744  13.024 -1.3852  0.4523  0.0160
 5596SOL     OW28420   4.598   0.595   7.072  0.2100 -0.0158  0.1739
 5596SOL    HW128421   4.668   0.633   7.126 -1.1834 -0.8964  2.6094
 5596SOL    HW228422   4.529   0.605   7.137  0.3998  0.8551  0.2368
 5597SOL     OW28423   4.090   2.583   8.321  0.0508  0.2905 -0.1858
 5597SOL    HW128424   3.999   2.556   8.337  0.8559 -1.7170  1.0099
 5597SOL    HW228425   4.115   2.500   8.281 -1.4660 -0.8304  1.1849
 5598SOL     OW28426   4.736   1.876   5.096 -0.2876 -0.3369  0.0503
 5598SOL    HW128427   4.647   1.900   5.068  0.3263  2.4480  0.4861
 5598SOL    HW228428   0.048   1.850   5.020  1.6288 -1.5666  1.7860
 5599SOL     OW28429   4.333   2.029  11.545  0.4966  0.6034  0.1722
 5599SOL    HW128430   4.393   2.061  11.478 -0.8790  1.1995 -0.7812
 5599SOL    HW228431   4.309   1.946  11.505 -0.8747  0.8048  0.5519
 5600SOL     OW28432   1.592   2.129   1.317  0.6056  0.1760 -0.6280
 5600SOL    HW128433   1.514   2.173   1.285 -0.6400  0.1049  2.2683
 5600SOL    HW228434   1.612   2.068   1.246 -4.2089 -2.4860  0.3305
 5601SOL     OW28435   0.249   1.309   7.387 -0.0069 -0.4481 -0.3854
 5601SOL    HW128436   0.183   1.324   7.319 -1.0417  1.6237  1.0629
 5601SOL    HW228437   0.281   1.219   7.378 -2.0938 -1.0529 -1.8186
 5602SOL     OW28438   0.981   0.733  15.200  0.1861  0.5380 -0.8478
 5602SOL    HW128439   0.936   0.662  15.246  0.4673 -0.5022 -2.1893
 5602SOL    HW228440   0.936   0.811  15.234  0.4205 -0.1197  0.9632
 5603SOL     OW28441   3.632   4.400   3.192 -0.2135  0.0307  0.0910
 5603SOL    HW128442   3.598   4.331   3.249  1.7426 -0.0811  1.1146
 5603SOL    HW228443   3.558   4.461   3.191 -0.8338 -0.7465 -1.6245
 5604SOL     OW28444   1.745   1.777   1.445 -0.3289 -0.1010 -0.1019
 5604SOL    HW128445   1.685   1.840   1.484  0.8102  1.5142 -0.9450
 5604SOL    HW228446   1.687   1.701   1.451  2.2116 -2.1174 -1.2991
 5605SOL     OW28447   3.400   0.245   7.915  0.6876 -0.0423  0.2662
 5605SOL    HW128448   3.473   0.191   7.947  1.6254 -0.6003 -2.8320
 5605SOL    HW228449   3.370   0.191   7.842 -1.3638 -1.0154  1.8372
 5606SOL     OW28450   0.209   1.582  12.012  0.5212 -0.1439  0.3856
 5606SOL    HW128451   0.169   1.497  11.991 -1.1117  1.2123 -1.9091
 5606SOL    HW228452   0.301   1.556  11.999  0.8376  1.6493 -0.9838
 5607SOL     OW28453   1.442   3.066   4.629  0.0503 -0.8109  0.1537
 5607SOL    HW128454   1.449   3.075   4.534  2.7996 -0.1358  0.4158
 5607SOL    HW228455   1.535   3.065   4.652  0.1841 -2.9426 -0.5238
 5608SOL     OW28456   2.560   1.400   0.548 -0.3675  0.4875  0.2040
 5608SOL    HW128457   2.631   1.362   0.495 -2.7614 -1.7360 -1.3807
 5608SOL    HW228458   2.602   1.478   0.582  3.4301 -0.8093 -1.4544
 5609SOL     OW28459   3.746   0.806   8.514 -0.5300  0.0947 -0.2716
 5609SOL    HW128460   3.661   0.835   8.546  0.1051  2.2515 -0.6017
 5609SOL    HW228461   3.767   0.737   8.578  0.3468  0.4357 -0.1851
 5610SOL     OW28462   0.431   0.943   6.143 -0.5618  0.4291  0.2804
 5610SOL    HW128463   0.386   0.930   6.060 -0.6874  0.4147  0.3495
 5610SOL    HW228464   0.371   0.997   6.196 -0.6818 -0.6458  1.2479
 5611SOL     OW28465   0.971   3.547  16.410 -0.0093  0.3801 -0.3587
 5611SOL    HW128466   0.891   3.581  16.450  0.0325 -1.6411  1.4298
 5611SOL    HW228467   1.034   3.612  16.439  0.7952  0.0792 -1.4403
 5612SOL     OW28468   4.352   1.569   8.914 -0.0604  0.1251 -0.1940
 5612SOL    HW128469   4.343   1.513   8.992 -1.9932 -0.3179 -0.7424
 5612SOL    HW228470   4.441   1.589   8.944  0.3905 -1.1700 -0.6521
 5613SOL     OW28471   1.549   4.576   3.494 -0.6647  0.2479 -0.1088
 5613SOL    HW128472   1.643   4.593   3.499 -0.7540  0.7665 -0.1888
 5613SOL    HW228473   1.517   4.666   3.484  1.1617  0.8146 -0.9184
 5614SOL     OW28474   0.067   4.696   3.317 -0.3074  0.3159  0.4507
 5614SOL    HW128475   4.718   4.723   3.341 -0.5100 -0.9247  1.0831
 5614SOL    HW228476   0.055   4.715   3.224 -0.2714 -2.9004 -0.2330
 5615SOL     OW28477   0.720   4.095   7.143 -0.5198 -0.0453 -0.2170
 5615SOL    HW128478   0.666   4.127   7.214 -0.8600 -1.8713  0.3472
 5615SOL    HW228479   0.786   4.165   7.137 -0.6876  0.1386  0.0931
 5616SOL     OW28480   0.959   4.534   3.602 -0.9178 -0.2007 -0.0178
 5616SOL    HW128481   0.982   4.541   3.509 -2.9525  0.9353 -0.4467
 5616SOL    HW228482   0.880   4.589   3.600 -1.1901 -0.5384  1.8521
 5617SOL     OW28483   1.145   3.538   2.038 -1.0592 -0.3377 -0.3359
 5617SOL    HW128484   1.127   3.464   1.980 -0.2021 -0.4366 -0.4761
 5617SOL    HW228485   1.099   3.516   2.119  0.2591 -0.1158  0.4864
 5618SOL     OW28486   2.073   2.452   6.688 -0.0379 -0.9900 -0.1752
 5618SOL    HW128487   2.064   2.546   6.673  0.1640 -1.0825 -0.8443
 5618SOL    HW228488   2.134   2.459   6.762 -0.8569  0.5746  0.3528
 5619SOL     OW28489   2.859   0.741   6.458 -0.5277  0.3203 -0.3865
 5619SOL    HW128490   2.912   0.723   6.381  1.6191  0.3630  1.0796
 5619SOL    HW228491   2.879   0.658   6.500 -0.8047  1.0044  1.0967
 5620SOL     OW28492   1.602   0.775   6.274  0.2239 -0.1789  0.2297
 5620SOL    HW128493   1.682   0.741   6.314  0.7086 -0.6840 -1.1727
 5620SOL    HW228494   1.547   0.697   6.281  1.3128 -0.9580  0.0155
 5621SOL     OW28495   4.062   3.698   2.211 -0.4231  0.1897  0.6449
 5621SOL    HW128496   4.066   3.765   2.279 -3.1714 -1.8562  2.8538
 5621SOL    HW228497   4.121   3.724   2.141 -1.5984  1.4927  0.1392
 5622SOL     OW28498   2.325   1.375   6.482  0.4811 -0.4603 -0.1086
 5622SOL    HW128499   2.339   1.314   6.411  1.1386  0.6265 -0.9121
 5622SOL    HW228500   2.347   1.316   6.554 -1.2993 -0.5057  0.3930
 5623SOL     OW28501   4.563   3.899   6.686  0.1677  0.6270  0.1923
 5623SOL    HW128502   4.562   3.831   6.619  1.3109  1.8594 -1.0687
 5623SOL    HW228503   4.568   3.835   6.757 -1.8526  0.4198  0.1300
 5624SOL     OW28504   4.256   1.674   4.656  0.5282  0.0493  0.5860
 5624SOL    HW128505   4.303   1.745   4.613  2.3077 -0.9376  0.9243
 5624SOL    HW228506   4.167   1.701   4.632  0.3627 -0.8787  0.1144
 5625SOL     OW28507   1.508   2.371   1.791 -0.4428  0.4579  1.0703
 5625SOL    HW128508   1.593   2.327   1.796 -0.0786  1.0659  0.3671
 5625SOL    HW228509   1.525   2.445   1.850  2.8805  1.4195 -1.0573
 5626SOL     OW28510   0.401   1.651   5.301  0.1949  0.1890 -0.0144
 5626SOL    HW128511   0.420   1.745   5.308  0.6455  0.1472 -0.6925
 5626SOL    HW228512   0.455   1.611   5.370 -0.8511 -0.6208  0.3328
 5627SOL     OW28513   2.110   0.103   7.539 -0.3064 -0.2580 -0.4412
 5627SOL    HW128514   2.134   0.061   7.456 -1.7159 -0.0542 -0.9467
 5627SOL    HW228515   2.034   0.058   7.575  0.0366 -1.3737 -1.1273
 5628SOL     OW28516   2.129   3.124   5.217 -0.0184 -0.3930 -1.1059
 5628SOL    HW128517   2.185   3.047   5.226 -1.4220 -1.1462  1.0725
 5628SOL    HW228518   2.188   3.193   5.245 -0.7698 -0.3725  0.4701
 5629SOL     OW28519   1.706   1.994  11.474 -0.8808 -0.1368  0.1716
 5629SOL    HW128520   1.717   1.958  11.562 -1.7164 -0.0487  0.3120
 5629SOL    HW228521   1.721   1.918  11.417 -1.2300 -0.1252  0.0690
 5630SOL     OW28522   2.411   1.029   1.028 -0.6130 -0.3620 -0.4173
 5630SOL    HW128523   2.385   0.984   1.108 -0.4741  0.1873 -0.0590
 5630SOL    HW228524   2.432   0.958   0.968 -0.2111  0.0507 -0.7688
 5631SOL     OW28525   2.993   4.273  16.095  0.4211  0.2433  0.5517
 5631SOL    HW128526   3.067   4.219  16.070 -0.2112 -0.9164  1.1856
 5631SOL    HW228527   2.987   4.249  16.188 -2.5693 -0.4362  0.1811
 5632SOL     OW28528   1.615   3.554   2.919  0.1643 -0.7106  0.2104
 5632SOL    HW128529   1.677   3.615   2.958  1.0483 -0.5143 -1.5066
 5632SOL    HW228530   1.531   3.597   2.932  0.4811  0.2805 -1.0410
 5633SOL     OW28531   3.658   1.842   1.270 -0.3519  0.2434  0.2563
 5633SOL    HW128532   3.667   1.757   1.312 -0.6282 -0.6224 -1.4641
 5633SOL    HW228533   3.734   1.895   1.297  0.1489 -0.4861  0.2759
 5634SOL     OW28534   1.333   0.179   9.797 -0.8124  0.2559  0.0972
 5634SOL    HW128535   1.387   0.214   9.868 -1.0692 -0.2586  0.5463
 5634SOL    HW228536   1.392   0.137   9.734 -2.7397 -0.4785 -1.2197
 5635SOL     OW28537   2.637   3.566   6.647 -0.2595  0.1817  0.5439
 5635SOL    HW128538   2.671   3.494   6.593  1.3831  1.8615 -0.6294
 5635SOL    HW228539   2.556   3.579   6.598 -0.2753 -0.0653  0.5032
 5636SOL     OW28540   0.568   3.612   2.116 -0.2329  0.2353  0.0614
 5636SOL    HW128541   0.473   3.629   2.116 -0.1205  0.9492  3.9285
 5636SOL    HW228542   0.570   3.536   2.174 -1.9076 -0.4745 -0.7945
 5637SOL     OW28543   3.345   2.865   4.062 -0.4923  0.2100  0.2977
 5637SOL    HW128544   3.412   2.889   4.126 -1.2314  1.1569  0.7099
 5637SOL    HW228545   3.393   2.895   3.984 -1.1039  0.5616  0.0552
 5638SOL     OW28546   4.074   1.223   8.772 -0.2777 -0.2538  1.0141
 5638SOL    HW128547   4.040   1.148   8.820 -1.1250  0.8875  2.2011
 5638SOL    HW228548   4.162   1.198   8.798 -1.3712 -2.5876  2.5125
 5639SOL     OW28549   1.157   3.491  15.289 -0.0253  0.0851 -0.0978
 5639SOL    HW128550   1.073   3.480  15.334 -0.6364 -0.9040 -1.4764
 5639SOL    HW228551   1.218   3.520  15.356  1.7362  0.8399 -2.0379
 5640SOL     OW28552   0.484   3.448  13.742 -0.8197  0.2248 -0.4970
 5640SOL    HW128553   0.564   3.434  13.792 -0.4977 -0.2149 -1.1385
 5640SOL    HW228554   0.490   3.374  13.681 -0.0612  1.4495 -1.9079
 5641SOL     OW28555   3.637   2.330   0.042 -0.1895 -0.3276 -0.1512
 5641SOL    HW128556   3.667   2.272  17.727  1.0305 -1.3077  1.2040
 5641SOL    HW228557   3.564   2.369  17.748 -0.7652  0.3297  1.2594
 5642SOL     OW28558   1.501   4.211  10.013 -0.3199  0.8178 -0.1277
 5642SOL    HW128559   1.558   4.287  10.023  2.1550 -1.0407 -0.2649
 5642SOL    HW228560   1.426   4.231  10.069 -0.0022  0.2290  0.4994
 5643SOL     OW28561   3.638   2.363   0.939 -0.3920  0.0106 -0.3428
 5643SOL    HW128562   3.719   2.406   0.913 -0.6772  0.2974 -0.7448
 5643SOL    HW228563   3.650   2.354   1.034 -0.1136 -1.8378 -0.5537
 5644SOL     OW28564   2.868   4.458   8.863  0.0705 -0.5899 -0.2907
 5644SOL    HW128565   2.946   4.428   8.911 -1.1679  0.2136  2.2202
 5644SOL    HW228566   2.912   4.503   8.791 -3.3652  3.5303  0.2135
 5645SOL     OW28567   2.474   1.797   2.252  0.5520 -0.6502  0.0588
 5645SOL    HW128568   2.439   1.886   2.249 -1.2669 -1.3293  1.2524
 5645SOL    HW228569   2.437   1.773   2.337  0.4613 -0.4616  0.0715
 5646SOL     OW28570   1.035   4.274  10.841 -0.5234 -0.0696  0.3110
 5646SOL    HW128571   0.952   4.308  10.875 -0.2862 -0.6813  1.5004
 5646SOL    HW228572   1.011   4.203  10.781 -0.4430  1.7057 -1.8114
 5647SOL     OW28573   4.579   0.062  13.712  0.1859  0.2086 -0.3955
 5647SOL    HW128574   4.615   0.145  13.745  0.1717 -0.0189  0.1992
 5647SOL    HW228575   4.637   4.728  13.736  1.4123  0.9890 -0.9896
 5648SOL     OW28576   0.002   3.129   6.272  0.6937 -0.1285 -0.1395
 5648SOL    HW128577   0.011   3.204   6.213 -2.3025 -0.1685 -0.6841
 5648SOL    HW228578   0.034   3.060   6.213  0.9137  0.2819 -0.4961
 5649SOL     OW28579   0.017   2.017  17.533  0.5024  0.0783  0.6996
 5649SOL    HW128580   0.014   1.925  17.561  0.4776 -0.3507 -0.7198
 5649SOL    HW228581   0.108   2.036  17.555  0.9402  0.7032 -1.6570
 5650SOL     OW28582   2.647   0.059  12.668 -0.0652 -0.2312 -0.3381
 5650SOL    HW128583   2.662   0.153  12.677 -0.7485 -0.1889  0.3084
 5650SOL    HW228584   2.722   0.024  12.717 -0.3244  2.0431  1.6586
 5651SOL     OW28585   0.830   2.898  14.930 -0.0261 -0.2212  0.2647
 5651SOL    HW128586   0.763   2.850  14.978 -0.8640 -0.2597 -0.9276
 5651SOL    HW228587   0.913   2.878  14.974  2.2585  2.4006 -2.7991
 5652SOL     OW28588   2.938   2.100   6.980 -0.3300  0.1237  0.2877
 5652SOL    HW128589   2.885   2.177   6.962  0.6780  0.8554  0.4171
 5652SOL    HW228590   3.027   2.132   6.964 -0.4929 -0.3209 -1.4913
 5653SOL     OW28591   1.818   4.295  10.470 -0.3967 -0.2637 -0.4993
 5653SOL    HW128592   1.855   4.383  10.465 -1.3742  0.2823  1.8609
 5653SOL    HW228593   1.745   4.297  10.409 -1.3070  0.7032  0.6394
 5654SOL     OW28594   0.001   1.581   7.865 -0.0493  0.2507 -0.0127
 5654SOL    HW128595   4.657   1.547   7.831  0.3506 -2.9371  2.2382
 5654SOL    HW228596   0.032   1.621   7.784 -0.9242  0.6961 -0.1325
 5655SOL     OW28597   3.592   0.386   7.602 -0.3781 -0.4703  0.7163
 5655SOL    HW128598   3.586   0.458   7.540 -0.0980  0.6316  1.9763
 5655SOL    HW228599   3.670   0.344   7.565 -2.0965 -0.5386 -2.7427
 5656SOL     OW28600   2.328   1.301   7.615  0.6401 -0.0249  0.0761
 5656SOL    HW128601   2.417   1.265   7.617  0.8306  0.4922  1.1786
 5656SOL    HW228602   2.336   1.369   7.548 -0.9127  0.0176 -0.0666
 5657SOL     OW28603   4.395   4.618   8.192  0.5152 -0.0636 -0.1044
 5657SOL    HW128604   4.477   4.636   8.145  1.1917 -0.5489  0.8945
 5657SOL    HW228605   4.429   4.573   8.269  0.8880 -0.1253 -0.3048
 5658SOL     OW28606   3.369   2.836   9.958 -0.1919  0.2976 -0.0002
 5658SOL    HW128607   3.374   2.925   9.922  1.3742 -0.3602 -1.3883
 5658SOL    HW228608   3.341   2.850  10.049  0.1412 -0.0868  0.1623
 5659SOL     OW28609   3.416   3.626   0.172 -0.3347  0.1734  0.0615
 5659SOL    HW128610   3.365   3.708   0.167  0.2480  0.6271  1.6196
 5659SOL    HW228611   3.376   3.571   0.105 -1.5647  0.0767  0.8669
 5660SOL     OW28612   2.867   2.620   3.933 -0.2727  0.4159 -0.1444
 5660SOL    HW128613   2.805   2.548   3.939  2.1936 -1.6328  0.7741
 5660SOL    HW228614   2.812   2.682   3.885 -2.3309 -0.6240  0.8725
 5661SOL     OW28615   1.110   2.306   7.161 -0.3503  0.2584  0.1808
 5661SOL    HW128616   1.017   2.286   7.159  0.5872 -3.8508 -1.4682
 5661SOL    HW228617   1.136   2.284   7.072 -0.6039 -0.8429  0.3754
 5662SOL     OW28618   1.258   0.531   5.118  0.6198 -0.1337 -0.2366
 5662SOL    HW128619   1.325   0.573   5.173 -1.2056  0.5383  1.4653
 5662SOL    HW228620   1.301   0.497   5.039  0.4979 -1.0453  0.0968
 5663SOL     OW28621   3.268   4.074   2.172 -0.9740 -0.7553 -0.2445
 5663SOL    HW128622   3.227   4.031   2.247 -0.5254  1.2056  1.1176
 5663SOL    HW228623   3.318   4.141   2.218 -1.2951 -0.0343 -0.9449
 5664SOL     OW28624   2.497   0.054   9.865 -0.1052  0.3271  0.2187
 5664SOL    HW128625   2.485   0.149   9.857 -3.3301 -0.0441  0.8315
 5664SOL    HW228626   2.417   0.028   9.910  0.3006 -0.4801  0.4751
 5665SOL     OW28627   1.512   4.036   5.220  0.3986  0.3606  0.3709
 5665SOL    HW128628   1.581   4.027   5.285 -0.1794 -0.3813  0.8793
 5665SOL    HW228629   1.572   4.091   5.169 -0.8691 -0.0995 -1.6257
 5666SOL     OW28630   2.123   4.245   3.867 -0.6075 -0.3038  0.3589
 5666SOL    HW128631   2.034   4.254   3.900  0.0388  1.7333  1.5742
 5666SOL    HW228632   2.162   4.178   3.923  0.7766 -0.2337 -0.5227
 5667SOL     OW28633   4.342   3.458  13.639 -0.3407 -0.0217  0.0323
 5667SOL    HW128634   4.253   3.431  13.616 -0.9030  1.5237  0.4483
 5667SOL    HW228635   4.392   3.399  13.582  0.5062  0.5983  0.1435
 5668SOL     OW28636   0.242   1.795  17.598 -0.1341  0.9934  0.3083
 5668SOL    HW128637   0.333   1.768  17.589 -0.5969  0.0500 -1.4504
 5668SOL    HW228638   0.206   1.796  17.510  1.7870 -3.7088 -0.5009
 5669SOL     OW28639   0.162   3.650   3.872  0.6997 -0.1986  0.1296
 5669SOL    HW128640   0.146   3.682   3.961  2.7201  2.6702 -0.5337
 5669SOL    HW228641   0.077   3.663   3.831  0.9795  0.7348 -0.1544
 5670SOL     OW28642   0.122   1.301   1.547  0.1922  0.3913  0.8005
 5670SOL    HW128643   0.041   1.343   1.574 -0.6208  0.8593 -2.3098
 5670SOL    HW228644   0.169   1.384   1.554  0.1012  0.6862 -1.8365
 5671SOL     OW28645   1.038   3.723   7.350 -0.2117  0.3481 -0.0542
 5671SOL    HW128646   1.003   3.654   7.406 -0.0836 -1.0083 -1.6606
 5671SOL    HW228647   1.115   3.691   7.303 -1.3414 -1.1271 -0.9086
 5672SOL     OW28648   3.622   4.385   1.071  0.3606  0.2569  0.4136
 5672SOL    HW128649   3.662   4.469   1.092 -0.3532  0.5175  0.7130
 5672SOL    HW228650   3.583   4.378   1.158 -1.0260 -1.9977 -0.3763
 5673SOL     OW28651   4.555   2.652   5.311  0.0573  0.1010  0.2218
 5673SOL    HW128652   4.580   2.720   5.373 -0.3415 -0.5453  1.1020
 5673SOL    HW228653   4.527   2.714   5.243  1.0882  1.4877  1.0699
 5674SOL     OW28654   3.707   4.444   3.785  0.9061  0.1439  0.3667
 5674SOL    HW128655   3.641   4.512   3.799 -2.1181 -2.9592  1.1909
 5674SOL    HW228656   3.789   4.492   3.802  0.3452  1.5551 -0.9511
 5675SOL     OW28657   3.423   0.167   3.167  0.1347 -0.1147  0.2253
 5675SOL    HW128658   3.417   0.170   3.071 -2.2160 -0.6458  0.3631
 5675SOL    HW228659   3.430   0.262   3.176  1.5884 -0.2727  0.7091
 5676SOL     OW28660   1.918   0.483  17.103 -0.0229  0.3612  0.0134
 5676SOL    HW128661   1.978   0.523  17.165  0.2378  1.0748 -0.6934
 5676SOL    HW228662   1.834   0.506  17.142 -1.0983 -0.0275 -2.0501
 5677SOL     OW28663   3.472   4.522   8.434  0.4832  0.2516  0.1043
 5677SOL    HW128664   3.561   4.546   8.458  0.1087  3.5116 -1.7457
 5677SOL    HW228665   3.427   4.606   8.424  1.1363  0.4617 -1.1622
 5678SOL     OW28666   3.629   1.299   0.967  0.2520  0.3761  0.6371
 5678SOL    HW128667   3.662   1.212   0.987 -0.3363  0.6648  2.8542
 5678SOL    HW228668   3.610   1.324   1.058 -2.4012  2.3218 -0.4627
 5679SOL     OW28669   0.765   4.150   8.245  0.1610 -0.0010 -0.1566
 5679SOL    HW128670   0.720   4.162   8.161  0.3784  2.4065  0.0662
 5679SOL    HW228671   0.737   4.059   8.259  2.0226 -0.3074  1.4909
 5680SOL     OW28672   1.060   1.122  11.813  0.3044 -0.1763 -0.1302
 5680SOL    HW128673   1.134   1.084  11.860  1.7653  0.8408 -1.6414
 5680SOL    HW228674   1.097   1.210  11.804  0.4241 -0.0914  1.1638
 5681SOL     OW28675   3.514   3.745   0.632  0.2252 -0.0084 -0.3233
 5681SOL    HW128676   3.559   3.722   0.713  0.6738  1.3354 -0.1986
 5681SOL    HW228677   3.595   3.754   0.582  1.8615 -0.6654  2.2417
 5682SOL     OW28678   0.807   0.042   4.744 -0.0489 -0.6574  0.0187
 5682SOL    HW128679   0.808   4.696   4.699 -0.1364 -1.3420  1.2969
 5682SOL    HW228680   0.882   0.094   4.718 -0.1629  0.4769  1.9665
 5683SOL     OW28681   2.688   4.532  14.261 -0.1042 -0.2963  0.5566
 5683SOL    HW128682   2.602   4.491  14.271 -0.2973  0.0433  0.2628
 5683SOL    HW228683   2.678   4.605  14.322 -0.9712 -0.3060  0.4290
 5684SOL     OW28684   3.643   4.632   9.323 -0.3023  0.0326 -0.0031
 5684SOL    HW128685   3.636   4.661   9.232  0.0784 -0.3300 -0.1457
 5684SOL    HW228686   3.662   4.715   9.366  0.0337  1.3223 -2.6006
 5685SOL     OW28687   2.605   1.368   3.514  0.6270  0.0574 -0.0498
 5685SOL    HW128688   2.509   1.369   3.513  0.5954 -2.7380 -0.1827
 5685SOL    HW228689   2.622   1.446   3.567  1.4314  0.0806 -0.3506
 5686SOL     OW28690   1.688   0.896  15.292 -0.0162  0.5869 -0.0960
 5686SOL    HW128691   1.624   0.892  15.221  1.0371  2.5900 -1.1418
 5686SOL    HW228692   1.713   0.804  15.289  1.0480  0.8919 -0.2982
 5687SOL     OW28693   2.077   4.416  15.338 -0.1264  0.0699 -1.0638
 5687SOL    HW128694   2.116   4.491  15.294  0.6033  0.0189 -0.4981
 5687SOL    HW228695   2.009   4.399  15.272 -0.9700 -1.3564  0.1625
 5688SOL     OW28696   3.816   4.301   7.291 -0.1164 -0.7029  0.5201
 5688SOL    HW128697   3.871   4.266   7.361 -1.6504 -0.2826  1.9374
 5688SOL    HW228698   3.787   4.382   7.334  1.3372 -1.9266  3.8015
 5689SOL     OW28699   0.012   0.786   5.600 -0.0283 -0.0279 -0.7370
 5689SOL    HW128700   4.672   0.778   5.653 -2.0980  1.6913 -3.4871
 5689SOL    HW228701   4.738   0.713   5.539 -2.5466 -0.3964  0.2413
 5690SOL     OW28702   2.816   0.893   2.588  0.3710  0.2710 -0.1727
 5690SOL    HW128703   2.736   0.905   2.639  0.9100  2.6542  0.1163
 5690SOL    HW228704   2.792   0.898   2.495  0.2318  3.7572  0.0473
 5691SOL     OW28705   1.041   1.104   9.221  0.1424 -0.2749  0.3552
 5691SOL    HW128706   1.048   1.110   9.317 -1.4562  1.0097  0.3972
 5691SOL    HW228707   1.000   1.189   9.204 -0.2816 -1.1126 -2.8091
 5692SOL     OW28708   1.049   1.103   3.707  0.0556  1.0021  0.1055
 5692SOL    HW128709   1.100   1.073   3.632 -0.2686 -2.4900  1.2862
 5692SOL    HW228710   1.096   1.064   3.780 -1.2024  0.6413  0.7264
 5693SOL     OW28711   0.351   4.170   7.240  0.2611  0.1977 -0.5565
 5693SOL    HW128712   0.432   4.168   7.291 -0.7739  1.5384  1.1715
 5693SOL    HW228713   0.306   4.241   7.287  2.1108  2.2648 -1.9357
 5694SOL     OW28714   0.389   0.500   5.776 -0.1400  0.4028 -0.0240
 5694SOL    HW128715   0.311   0.461   5.735 -0.6450  2.8181 -1.3256
 5694SOL    HW228716   0.359   0.566   5.839 -0.2657 -0.1604  0.5128
 5695SOL     OW28717   1.978   1.962   6.344  0.1344  0.1572 -0.6931
 5695SOL    HW128718   1.955   2.054   6.328  1.4802  0.5101 -0.6136
 5695SOL    HW228719   1.907   1.916   6.300 -0.7719  1.2197 -0.3513
 5696SOL     OW28720   3.351   2.634   2.339  0.1087 -0.9054 -0.0344
 5696SOL    HW128721   3.329   2.561   2.397  0.1397 -1.5568 -0.8413
 5696SOL    HW228722   3.276   2.637   2.280  0.0522  2.4090  0.2209
 5697SOL     OW28723   0.797   1.676   4.368  0.1869  0.1717  0.3463
 5697SOL    HW128724   0.752   1.738   4.425  0.1804  1.1640 -0.7328
 5697SOL    HW228725   0.850   1.629   4.432 -1.0338 -0.0499  1.1975
 5698SOL     OW28726   4.596   3.897  16.281 -0.2223 -0.1278  0.0975
 5698SOL    HW128727   4.649   3.958  16.229  0.6567 -2.5957 -1.8931
 5698SOL    HW228728   4.674   3.859  16.322  0.5251 -0.3257 -1.5178
 5699SOL     OW28729   4.735   4.509   8.425  0.0972  0.1090  0.1487
 5699SOL    HW128730   0.037   4.455   8.492  1.3795 -0.2218 -0.8987
 5699SOL    HW228731   0.056   4.485   8.354  0.3419 -0.5054  0.5629
 5700SOL     OW28732   2.413   0.524   2.404 -0.1516 -0.0135 -0.1749
 5700SOL    HW128733   2.328   0.563   2.384  1.1565  1.8801 -2.0252
 5700SOL    HW228734   2.430   0.580   2.480  0.0968  1.7189 -1.4938
 5701SOL     OW28735   3.979   2.247   3.616 -0.1280 -0.0715  0.4603
 5701SOL    HW128736   3.906   2.309   3.616 -0.1666 -0.1205 -2.0353
 5701SOL    HW228737   4.047   2.302   3.655 -0.4770  1.9905 -1.8458
 5702SOL     OW28738   3.937   0.283   9.952  0.6474 -0.3133  0.1517
 5702SOL    HW128739   3.983   0.356   9.995 -0.0366  0.7242 -0.8936
 5702SOL    HW228740   4.012   0.260   9.897  0.5402  0.7667 -0.4471
 5703SOL     OW28741   0.494   0.786   0.303  0.3200 -0.5719 -0.3083
 5703SOL    HW128742   0.572   0.810   0.354 -2.2211  0.5741  2.9629
 5703SOL    HW228743   0.521   0.760   0.214  1.9095  0.0759 -0.0272
 5704SOL     OW28744   0.825   3.018  13.364 -0.1314 -0.3063 -0.2318
 5704SOL    HW128745   0.913   3.012  13.400  0.7972  0.3073 -2.4269
 5704SOL    HW228746   0.784   3.017  13.450 -0.1979 -4.4278 -0.3178
 5705SOL     OW28747   3.239   1.730   2.830 -0.1287 -0.3293  0.2757
 5705SOL    HW128748   3.268   1.669   2.898 -2.4770 -3.2869 -1.3142
 5705SOL    HW228749   3.247   1.676   2.751  0.7547  1.0520 -0.5673
 5706SOL     OW28750   1.363   0.999   6.922 -0.2633  0.4791 -0.2125
 5706SOL    HW128751   1.407   0.913   6.916 -1.8910 -0.4032  0.4866
 5706SOL    HW228752   1.394   1.031   6.838  0.4872  2.2176  0.7353
 5707SOL     OW28753   2.771   3.738  15.988 -0.0502 -0.6733  0.1780
 5707SOL    HW128754   2.830   3.769  16.057  0.1365 -2.1831  0.6989
 5707SOL    HW228755   2.794   3.803  15.923 -1.3503  0.8242  1.2164
 5708SOL     OW28756   4.182   3.452   9.893 -0.1937 -0.0893  0.0674
 5708SOL    HW128757   4.124   3.383   9.926  0.2206 -0.1243  0.7041
 5708SOL    HW228758   4.126   3.513   9.844  0.5927  1.2547  0.8274
 5709SOL     OW28759   4.043   2.248   2.611  0.5306  0.0370  0.3652
 5709SOL    HW128760   4.073   2.312   2.676 -0.8817  2.3413 -1.2476
 5709SOL    HW228761   3.972   2.306   2.584 -1.1822 -0.0250  4.7615
 5710SOL     OW28762   4.528   4.450   3.656 -0.3563  0.4066  0.2695
 5710SOL    HW128763   4.596   4.382   3.655 -0.5712  0.2060 -1.0707
 5710SOL    HW228764   4.461   4.383   3.670  0.4018 -0.1012  1.5125
 5711SOL     OW28765   3.560   0.255   2.034  0.8333  0.0805  0.4691
 5711SOL    HW128766   3.604   0.184   1.987 -0.8699  1.4701 -3.2904
 5711SOL    HW228767   3.471   0.258   1.998 -0.0332 -0.2455  2.6148
 5712SOL     OW28768   2.543   0.035   5.084 -0.0080 -0.0507  0.4989
 5712SOL    HW128769   2.495   0.112   5.053  0.6602 -0.3741 -1.2962
 5712SOL    HW228770   2.518   4.696   5.034  1.3674  1.5057 -2.5565
 5713SOL     OW28771   3.404   4.543  12.803  0.2143 -0.9795  0.5835
 5713SOL    HW128772   3.406   4.587  12.888 -0.6036 -0.4442  0.3237
 5713SOL    HW228773   3.436   4.620  12.756 -1.8095 -0.4169  0.1372
 5714SOL     OW28774   3.454   3.674  11.948 -0.3303  0.7680  0.7786
 5714SOL    HW128775   3.467   3.660  11.854 -0.9714 -1.9147  1.0697
 5714SOL    HW228776   3.521   3.738  11.967  0.8518 -0.2338  0.0025
 5715SOL     OW28777   2.651   0.839   3.561 -0.2060 -0.1119  0.1069
 5715SOL    HW128778   2.626   0.881   3.479  0.3321 -0.1732 -0.0871
 5715SOL    HW228779   2.573   0.786   3.581 -0.5230 -0.0018 -0.8479
 5716SOL     OW28780   1.675   0.077   1.714 -0.7351  0.0566  0.5039
 5716SOL    HW128781   1.752   0.028   1.744  0.2762  1.1617 -0.2908
 5716SOL    HW228782   1.710   0.107   1.630  0.0864 -3.3134 -0.3887
 5717SOL     OW28783   1.798   2.273  17.623  0.1226  0.7356  0.2168
 5717SOL    HW128784   1.846   2.190  17.622  0.4941  0.9669 -0.9783
 5717SOL    HW228785   1.861   2.329  17.669  0.8624 -2.4553  3.0455
 5718SOL     OW28786   1.780   0.109   8.175  0.4381  0.1960  0.2486
 5718SOL    HW128787   1.753   0.194   8.210 -2.9834 -1.0802  0.6998
 5718SOL    HW228788   1.716   0.046   8.209  1.4166  0.0626  1.8489
 5719SOL     OW28789   3.858   1.960  10.885 -0.0971  0.4890  0.2534
 5719SOL    HW128790   3.798   1.990  10.816  0.4115 -1.3689 -1.0064
 5719SOL    HW228791   3.903   1.886  10.843 -1.1034  0.2962 -0.4726
 5720SOL     OW28792   2.570   3.632   4.433  0.0287 -0.0802 -0.1530
 5720SOL    HW128793   2.581   3.543   4.468 -1.5468  0.7417  2.4779
 5720SOL    HW228794   2.557   3.676   4.517  0.3782 -0.2481 -0.0104
 5721SOL     OW28795   3.960   0.275   9.214 -0.1595  0.8032 -0.0791
 5721SOL    HW128796   3.906   0.307   9.286  0.7837  2.2432 -0.0161
 5721SOL    HW228797   4.041   0.254   9.260 -0.4793  1.7998  0.9333
 5722SOL     OW28798   1.706   0.103   7.046  0.4331 -0.3703  0.6306
 5722SOL    HW128799   1.638   0.107   6.979  2.2695  0.7753 -1.1718
 5722SOL    HW228800   1.661   0.154   7.112 -1.3251 -0.1610 -0.7360
 5723SOL     OW28801   1.677   1.858   6.223 -0.0986 -0.9516 -0.1351
 5723SOL    HW128802   1.746   1.887   6.163  0.7505 -1.3601  0.6341
 5723SOL    HW228803   1.714   1.796   6.286 -1.0641 -1.3723  0.0148
 5724SOL     OW28804   3.358   2.637   6.653  0.2226 -1.1764  0.0222
 5724SOL    HW128805   3.395   2.718   6.618 -1.5955 -0.5960 -0.5362
 5724SOL    HW228806   3.307   2.673   6.725  1.4457 -0.5846  0.6105
 5725SOL     OW28807   4.024   3.849   2.840  0.2862 -0.1483  0.4084
 5725SOL    HW128808   3.933   3.878   2.840  0.4185  0.2926 -0.2687
 5725SOL    HW228809   4.013   3.755   2.826 -1.5987  0.1009  0.1945
 5726SOL     OW28810   4.659   3.559   7.985 -0.1649 -0.2132 -0.1885
 5726SOL    HW128811   0.006   3.523   8.007  1.2442  1.4523 -2.9286
 5726SOL    HW228812   4.601   3.490   8.016  0.7689 -0.7401  0.4140
 5727SOL     OW28813   1.564   0.519  11.508 -0.7553 -0.9168  0.3419
 5727SOL    HW128814   1.479   0.506  11.468 -0.2192 -2.7601 -0.1786
 5727SOL    HW228815   1.611   0.515  11.424 -2.1251  1.4206 -0.5382
 5728SOL     OW28816   3.644   0.873  16.452 -0.1135  0.3735 -0.5566
 5728SOL    HW128817   3.735   0.845  16.459 -0.8649 -1.7700  0.5646
 5728SOL    HW228818   3.597   0.790  16.443  2.2050 -0.7572 -2.5570
 5729SOL     OW28819   0.805   4.568   8.326  0.1367  0.7046  0.4191
 5729SOL    HW128820   0.789   4.640   8.387 -1.6203  0.8510 -0.2093
 5729SOL    HW228821   0.861   4.517   8.385  1.3469  0.1631 -1.2030
 5730SOL     OW28822   1.978   1.674   7.420  0.5672  0.1273 -0.2205
 5730SOL    HW128823   1.965   1.768   7.430 -0.1778 -0.2409  2.2313
 5730SOL    HW228824   1.904   1.635   7.468 -0.5055  2.1429 -0.2342
 5731SOL     OW28825   4.732   0.054   0.629  0.8457 -0.3318  0.5214
 5731SOL    HW128826   4.691   4.708   0.638  1.2652 -0.6812 -0.7768
 5731SOL    HW228827   0.014   0.036   0.537  1.2216 -0.2683  0.5934
 5732SOL     OW28828   0.383   4.233  16.980 -0.0148  0.1802 -0.0638
 5732SOL    HW128829   0.336   4.166  17.030  1.2661 -2.4153 -2.3050
 5732SOL    HW228830   0.458   4.184  16.947 -0.6338 -0.4610 -0.5238
 5733SOL     OW28831   2.234   2.632   3.347  0.7312 -0.4522  0.2670
 5733SOL    HW128832   2.157   2.676   3.384  0.6972 -0.3116  0.0266
 5733SOL    HW228833   2.249   2.557   3.405  0.1286  0.2564  1.3471
 5734SOL     OW28834   2.553   0.867   5.124 -0.5611 -0.1805 -0.0524
 5734SOL    HW128835   2.486   0.838   5.063 -0.9882 -1.9185  1.2453
 5734SOL    HW228836   2.509   0.880   5.209  0.2888  0.8529  0.2353
 5735SOL     OW28837   1.712   4.156   1.177  0.4772  0.9153 -0.2780
 5735SOL    HW128838   1.639   4.155   1.239  1.2736 -0.0071  0.6519
 5735SOL    HW228839   1.748   4.242   1.198 -1.7427  1.7575  0.0929
 5736SOL     OW28840   1.299   3.584   6.947 -0.1646  0.1231 -0.1045
 5736SOL    HW128841   1.362   3.519   6.917 -0.2031  0.2202 -0.3949
 5736SOL    HW228842   1.270   3.624   6.865 -0.9342  0.0135  0.1084
 5737SOL     OW28843   2.878   2.197   2.203 -0.1235 -0.4947 -0.2610
 5737SOL    HW128844   2.786   2.175   2.218 -0.2039  2.2577  3.4581
 5737SOL    HW228845   2.895   2.160   2.117 -0.8823  0.5429 -0.8614
 5738SOL     OW28846   2.494   0.970   8.870  0.1098  0.4947 -0.4634
 5738SOL    HW128847   2.463   1.058   8.890 -1.7734 -0.0189 -1.1268
 5738SOL    HW228848   2.499   0.983   8.775 -0.9894  0.7818 -0.4732
 5739SOL     OW28849   4.552   4.222  13.855  0.1517  0.0899  0.3756
 5739SOL    HW128850   4.517   4.261  13.775  1.5859 -0.0719 -0.3235
 5739SOL    HW228851   4.583   4.296  13.906 -0.7815 -0.1790  1.3469
 5740SOL     OW28852   0.512   1.104   9.168 -0.0041 -0.0627 -0.0040
 5740SOL    HW128853   0.541   1.031   9.114 -0.1773  1.5237 -2.2044
 5740SOL    HW228854   0.528   1.071   9.257  3.5305  1.2413 -0.1921
 5741SOL     OW28855   1.684   3.797  14.468 -0.1284  0.0971  0.2273
 5741SOL    HW128856   1.691   3.780  14.562 -1.1816  1.0316  0.4806
 5741SOL    HW228857   1.663   3.708  14.441  0.5665 -0.1138  0.3973
 5742SOL     OW28858   2.829   2.475   9.494 -0.6088  0.4076 -0.4782
 5742SOL    HW128859   2.853   2.435   9.410 -0.1130 -1.0026  0.3392
 5742SOL    HW228860   2.907   2.494   9.547  0.0717  0.7073 -1.5762
 5743SOL     OW28861   3.282   1.127   3.980 -0.0284  0.7150 -0.0622
 5743SOL    HW128862   3.344   1.197   3.996  0.5380  0.3390 -0.6259
 5743SOL    HW228863   3.289   1.065   4.053  0.1967 -1.4794 -1.9342
 5744SOL     OW28864   2.077   4.298   7.292 -0.1843 -0.0579 -0.4242
 5744SOL    HW128865   2.132   4.248   7.352 -2.3504 -0.6769  1.0486
 5744SOL    HW228866   2.116   4.385   7.303  0.0258 -0.1071 -0.7926
 5745SOL     OW28867   2.947   1.625   8.972 -0.0929  0.9839  0.0785
 5745SOL    HW128868   3.005   1.637   8.897  1.9674  0.4251  1.5927
 5745SOL    HW228869   2.957   1.531   8.983  1.9737  1.3527  1.4022
 5746SOL     OW28870   0.208   4.421  16.963  0.2312  0.1437  0.3581
 5746SOL    HW128871   0.274   4.474  16.918  0.2643  0.3847  0.6844
 5746SOL    HW228872   0.270   4.359  17.001 -0.3344 -0.5753  0.1129
 5747SOL     OW28873   2.327   3.421  11.382 -0.8939 -0.1837  0.4012
 5747SOL    HW128874   2.404   3.425  11.440 -0.4898  1.9078 -0.2783
 5747SOL    HW228875   2.338   3.337  11.338 -0.1033 -1.3699  2.8342
 5748SOL     OW28876   4.424   1.159   8.427  0.0654 -0.5467 -0.1802
 5748SOL    HW128877   4.340   1.174   8.471  0.4532  0.2039  0.3080
 5748SOL    HW228878   4.412   1.066   8.410  1.4397 -0.6082 -0.7998
 5749SOL     OW28879   3.698   1.119   7.019  0.8402  0.6503 -0.6826
 5749SOL    HW128880   3.619   1.161   7.055  1.2210 -1.0146  2.1194
 5749SOL    HW228881   3.662   1.065   6.949 -0.0535  2.4698 -1.6269
 5750SOL     OW28882   4.418   2.333   4.482  0.1090  0.4637 -0.2632
 5750SOL    HW128883   4.384   2.394   4.416 -1.1556  0.2581  0.1952
 5750SOL    HW228884   4.354   2.266   4.459  0.8708 -1.1093  2.2385
 5751SOL     OW28885   2.378   1.500   3.336 -0.5763  0.5644 -0.0263
 5751SOL    HW128886   2.444   1.569   3.340 -0.5167  0.5853 -1.2627
 5751SOL    HW228887   2.413   1.451   3.262 -4.8191 -1.8434 -0.4572
 5752SOL     OW28888   2.565   1.718   5.970  0.7553 -0.3897 -0.2588
 5752SOL    HW128889   2.604   1.773   6.037 -0.0502 -2.2019  1.6693
 5752SOL    HW228890   2.640   1.717   5.911  1.9353 -2.2869  1.2801
 5753SOL     OW28891   0.209   2.408   9.226  0.2721  0.8043  0.3072
 5753SOL    HW128892   0.305   2.413   9.222  0.2266  0.4180 -1.4345
 5753SOL    HW228893   0.186   2.381   9.314  2.2830 -0.0443  0.5593
 5754SOL     OW28894   1.073   1.940   7.590 -0.0981 -0.1781 -0.6045
 5754SOL    HW128895   0.982   1.921   7.613 -0.3384  0.5513 -0.9565
 5754SOL    HW228896   1.069   2.035   7.604  1.5554 -0.5607  2.5029
 5755SOL     OW28897   0.047   2.869  17.215  0.1854  0.1868  0.4761
 5755SOL    HW128898   0.012   2.881  17.303  1.4403  0.4333  0.9474
 5755SOL    HW228899   0.142   2.876  17.230  0.4314  0.4713 -1.1763
 5756SOL     OW28900   0.107   0.612  10.575  0.1373 -0.4529  0.1715
 5756SOL    HW128901   0.147   0.584  10.657  0.8133  1.7630  0.6079
 5756SOL    HW228902   0.041   0.543  10.566  0.4788 -0.6459 -0.7931
 5757SOL     OW28903   3.934   3.597   2.846  0.4404  0.2364 -0.3234
 5757SOL    HW128904   3.862   3.537   2.828 -0.0792  0.3758  1.3020
 5757SOL    HW228905   3.964   3.565   2.931 -1.6793  0.0697  0.3552
 5758SOL     OW28906   4.122   3.052   0.990 -0.2126  0.1080 -0.6722
 5758SOL    HW128907   4.184   3.025   1.058 -1.7110 -0.1173  0.6051
 5758SOL    HW228908   4.083   2.969   0.966 -0.8043 -0.5075  2.3847
 5759SOL     OW28909   1.639   0.985   3.166 -0.0685 -0.3087 -0.3173
 5759SOL    HW128910   1.559   0.941   3.137 -0.9811 -0.1409  1.9489
 5759SOL    HW228911   1.650   0.978   3.261  2.4309 -0.1940 -0.6072
 5760SOL     OW28912   2.840   2.433   4.399  0.7175 -0.0910 -0.3591
 5760SOL    HW128913   2.759   2.394   4.367  0.4273 -1.1280  1.6721
 5760SOL    HW228914   2.855   2.506   4.339 -0.9661  0.1516 -0.4796
 5761SOL     OW28915   2.186   0.051  13.798 -0.6111  0.0808  0.2930
 5761SOL    HW128916   2.130   4.713  13.788 -1.9138  0.9808  0.6959
 5761SOL    HW228917   2.194   0.069  13.892 -1.1369  0.9323  0.1769
 5762SOL     OW28918   3.706   0.942   2.514  0.3751 -0.7056 -0.1091
 5762SOL    HW128919   3.665   0.864   2.552  0.3110 -0.5195  0.1990
 5762SOL    HW228920   3.631   0.979   2.469 -0.5741  1.5827  3.3950
 5763SOL     OW28921   0.214   0.940   0.400  0.8775  0.7822 -0.2754
 5763SOL    HW128922   0.126   0.904   0.415  1.5637 -0.6751  0.1898
 5763SOL    HW228923   0.243   0.888   0.326 -0.0120  1.2420 -0.9488
 5764SOL     OW28924   1.000   4.422   8.967  0.0056 -0.6949  0.0843
 5764SOL    HW128925   1.006   4.353   8.901 -1.6416 -2.5737  1.9241
 5764SOL    HW228926   1.017   4.495   8.906 -0.6173 -0.0918  0.6283
 5765SOL     OW28927   2.433   1.007  11.161  0.3867 -0.2504  0.2611
 5765SOL    HW128928   2.406   1.046  11.078  1.2925 -0.6138 -0.2092
 5765SOL    HW228929   2.417   1.084  11.214  2.3829 -1.5901  2.8408
 5766SOL     OW28930   4.502   1.333   6.531  0.4122  0.3285 -0.2417
 5766SOL    HW128931   4.546   1.357   6.449 -2.9299  0.4475 -1.9876
 5766SOL    HW228932   4.417   1.377   6.528  0.8718  1.1177 -1.5424
 5767SOL     OW28933   2.573   3.797  12.329 -0.1476 -0.2756 -0.5893
 5767SOL    HW128934   2.555   3.750  12.411  2.0019 -0.5044 -0.2488
 5767SOL    HW228935   2.603   3.725  12.274 -1.4833  0.1045 -1.8031
 5768SOL     OW28936   4.274   3.364   5.621 -0.2701  0.2606  0.7579
 5768SOL    HW128937   4.314   3.434   5.569 -0.6868 -0.7152 -0.8897
 5768SOL    HW228938   4.337   3.292   5.612 -0.9269 -0.4963  2.3235
 5769SOL     OW28939   3.229   1.947   7.815 -0.1160 -0.2966  0.1239
 5769SOL    HW128940   3.220   2.039   7.789 -1.4920 -1.7061 -4.3034
 5769SOL    HW228941   3.176   1.901   7.751 -1.5591 -2.0618  2.6217
 5770SOL     OW28942   4.374   2.035   9.412  0.6642  0.3321 -0.2852
 5770SOL    HW128943   4.357   1.946   9.442 -2.0538  0.3817 -1.6961
 5770SOL    HW228944   4.373   2.084   9.495 -0.1553 -2.4627  1.3776
 5771SOL     OW28945   2.961   2.271   5.352 -0.0234 -0.3906 -0.0479
 5771SOL    HW128946   3.051   2.293   5.377 -0.8504  0.8663  1.7797
 5771SOL    HW228947   2.914   2.261   5.434  0.1692 -0.5933  0.0372
 5772SOL     OW28948   3.216   4.598  16.881 -0.5442 -0.2092 -0.0214
 5772SOL    HW128949   3.195   4.516  16.837  0.7376 -0.8808  0.5967
 5772SOL    HW228950   3.212   4.653  16.803 -1.9195 -1.2555 -0.6809
 5773SOL     OW28951   0.372   4.557   4.638 -0.2519 -0.3758 -0.3104
 5773SOL    HW128952   0.424   4.483   4.670  2.1843  1.8692  0.9652
 5773SOL    HW228953   0.440   4.624   4.643 -1.5798  1.0835 -1.8404
 5774SOL     OW28954   1.674   1.216   7.682 -0.6459  0.2301 -0.1741
 5774SOL    HW128955   1.722   1.204   7.601  0.9468 -1.5929  1.0457
 5774SOL    HW228956   1.744   1.217   7.748  0.2109  0.4253 -1.0777
 5775SOL     OW28957   4.610   4.682   8.818  0.3472  0.0020 -0.0616
 5775SOL    HW128958   4.544   4.618   8.791  0.7243 -0.2240 -0.4453
 5775SOL    HW228959   4.642   4.641   8.898  0.5518  0.3314  0.0281
 5776SOL     OW28960   3.969   4.630   4.321 -0.3760 -0.1032  0.4292
 5776SOL    HW128961   3.891   4.679   4.350  0.2532  1.5389 -0.6245
 5776SOL    HW228962   4.001   4.614   4.410  0.3744  1.6203  0.4672
 5777SOL     OW28963   0.184   2.594  11.741  0.7481  0.0599 -0.7703
 5777SOL    HW128964   0.266   2.634  11.769  1.5007 -0.9453 -1.5183
 5777SOL    HW228965   0.148   2.679  11.716 -2.0088 -0.6525  0.7913
 5778SOL     OW28966   2.869   2.767   0.363 -0.2470  0.0896  0.3034
 5778SOL    HW128967   2.786   2.731   0.393 -0.1477  0.1649  0.6627
 5778SOL    HW228968   2.883   2.831   0.433  3.9162 -1.2691  0.7266
 5779SOL     OW28969   0.727   4.212   4.473  0.1710 -0.4005  0.0566
 5779SOL    HW128970   0.819   4.207   4.451  0.1702 -0.5170  0.0791
 5779SOL    HW228971   0.731   4.222   4.568 -0.2483 -1.1038  0.1551
 5780SOL     OW28972   3.210   2.234   7.762 -0.3349  0.4384  0.4091
 5780SOL    HW128973   3.223   2.300   7.693  0.9841 -0.9322 -0.6376
 5780SOL    HW228974   3.221   2.291   7.838 -0.0323  1.4919 -0.4172
 5781SOL     OW28975   0.490   2.929  14.734  0.4430  0.6232  0.5394
 5781SOL    HW128976   0.462   2.948  14.644  0.3841  1.7290  0.7945
 5781SOL    HW228977   0.568   2.879  14.709 -1.1350 -0.3811 -2.4139
 5782SOL     OW28978   0.593   0.631   8.962  0.0203 -0.1696 -0.2965
 5782SOL    HW128979   0.558   0.685   9.032  0.4643 -2.0994  1.4173
 5782SOL    HW228980   0.656   0.572   9.002  0.1693  0.7216  0.7766
 5783SOL     OW28981   1.412   3.261   2.744 -0.5125 -0.1956 -0.4402
 5783SOL    HW128982   1.443   3.175   2.717  3.7260  1.0537  0.4986
 5783SOL    HW228983   1.363   3.249   2.825  1.4272 -1.5334  0.5319
 5784SOL     OW28984   4.228   1.664  14.021 -0.0873 -0.4727 -0.1373
 5784SOL    HW128985   4.162   1.732  14.031  0.7935  0.2146  0.9625
 5784SOL    HW228986   4.227   1.648  13.927  2.3844  1.4664 -0.4968
 5785SOL     OW28987   4.719   1.080  13.552 -0.6597 -0.3812 -0.1794
 5785SOL    HW128988   4.714   1.048  13.461 -2.0889 -1.0178  0.1147
 5785SOL    HW228989   4.626   1.089  13.570 -0.7684 -0.1060 -0.8851
 5786SOL     OW28990   1.747   0.522   3.940  0.5847  0.6812 -0.0866
 5786SOL    HW128991   1.667   0.574   3.943 -0.6622 -1.1405 -1.6403
 5786SOL    HW228992   1.762   0.521   3.845 -0.1802 -0.0357 -0.1965
 5787SOL     OW28993   1.152   3.501  13.849 -0.3177  0.3765  0.1716
 5787SOL    HW128994   1.220   3.559  13.884 -1.0316  0.0056  2.1705
 5787SOL    HW228995   1.174   3.422  13.899  0.2703 -0.7006 -1.7846
 5788SOL     OW28996   2.972   2.702   2.543 -0.2981  0.1578 -0.2836
 5788SOL    HW128997   2.916   2.754   2.486 -0.5212 -1.1239 -1.2236
 5788SOL    HW228998   2.991   2.632   2.482 -0.2471 -0.0533 -0.0270
 5789SOL     OW28999   2.655   3.226   6.956  0.3626 -0.1752  0.4554
 5789SOL    HW129000   2.737   3.264   6.989  0.7078  0.6103 -1.3359
 5789SOL    HW229001   2.602   3.283   7.012 -0.9136 -1.1319  0.2261
 5790SOL     OW29002   4.195   2.214  14.279 -0.1012 -0.1724 -0.1190
 5790SOL    HW129003   4.217   2.304  14.254  0.2290 -0.4296 -0.7775
 5790SOL    HW229004   4.224   2.218  14.370  0.3181  1.5736 -0.3269
 5791SOL     OW29005   4.624   1.274   9.021 -0.4551 -0.4279  0.2256
 5791SOL    HW129006   4.633   1.367   9.040 -0.1065 -0.2006 -1.0684
 5791SOL    HW229007   4.618   1.238   9.109  1.1548  0.1544  0.5710
 5792SOL     OW29008   1.117   2.849   7.939  0.0782 -0.5095  0.6703
 5792SOL    HW129009   1.057   2.826   7.868  0.9821 -0.2094 -0.1950
 5792SOL    HW229010   1.060   2.913   7.982 -0.1326 -0.4004  0.2381
 5793SOL     OW29011   3.650   3.040   1.754  0.3052 -0.1400 -0.2948
 5793SOL    HW129012   3.583   3.032   1.822  1.1912 -2.4121  0.3120
 5793SOL    HW229013   3.635   3.128   1.720 -0.5527  0.5557  1.8599
 5794SOL     OW29014   1.818   2.567  12.039  0.2612 -1.1046  0.0851
 5794SOL    HW129015   1.771   2.484  12.028 -2.0132  0.4180 -1.6229
 5794SOL    HW229016   1.774   2.633  11.986  0.0262  0.2704  2.0001
 5795SOL     OW29017   1.007   0.361   7.878 -0.2974 -0.5845 -0.5698
 5795SOL    HW129018   0.959   0.289   7.918 -0.5441 -0.2236 -0.2127
 5795SOL    HW229019   1.023   0.322   7.792 -0.1851 -0.6315 -0.5278
 5796SOL     OW29020   2.287   3.586  10.301  0.2649  0.1557  0.4763
 5796SOL    HW129021   2.316   3.600  10.392 -0.7539  0.3599  0.7691
 5796SOL    HW229022   2.260   3.676  10.287 -0.6857 -0.1562  0.3304
 5797SOL     OW29023   4.720   2.143   8.699  0.0556 -0.1717  0.6375
 5797SOL    HW129024   4.661   2.067   8.693 -1.6455  1.1656  0.2388
 5797SOL    HW229025   4.661   2.219   8.702  2.5948  1.7632  0.7454
 5798SOL     OW29026   0.612   2.422   8.245 -0.0204 -0.0459 -0.1621
 5798SOL    HW129027   0.623   2.327   8.243  0.6015  0.0048  1.1381
 5798SOL    HW229028   0.550   2.425   8.318  0.0289  2.0814 -0.2023
 5799SOL     OW29029   4.597   4.003   3.718  0.0414 -0.2694 -0.0021
 5799SOL    HW129030   4.684   4.040   3.706 -0.5937  1.7166  1.4157
 5799SOL    HW229031   4.545   4.054   3.656 -1.3414 -1.5450  0.0835
 5800SOL     OW29032   3.939   4.361   4.298 -0.2726 -0.2517  0.2887
 5800SOL    HW129033   3.954   4.456   4.296 -0.6817 -0.1606  1.6237
 5800SOL    HW229034   3.843   4.362   4.290 -0.2420 -0.3343 -0.0514
 5801SOL     OW29035   3.027   4.535  16.036 -0.1694 -0.0442 -0.3306
 5801SOL    HW129036   3.019   4.443  16.061 -1.1900 -0.6943 -3.0036
 5801SOL    HW229037   3.049   4.568  16.123 -1.0272  2.2370 -0.9589
 5802SOL     OW29038   1.467   2.198  14.673  0.1179 -0.1100 -0.1379
 5802SOL    HW129039   1.545   2.181  14.620  1.6079  2.7172  1.1361
 5802SOL    HW229040   1.456   2.128  14.737  0.6441 -1.1494 -1.1751
 5803SOL     OW29041   4.083   2.293   3.055  0.2138  0.9733  0.3422
 5803SOL    HW129042   4.085   2.340   3.138 -1.0685  1.4788  0.0906
 5803SOL    HW229043   4.176   2.278   3.040 -0.3290 -1.4134 -0.7246
 5804SOL     OW29044   0.661   2.666   7.856  0.1647  0.0106 -0.3132
 5804SOL    HW129045   0.699   2.585   7.891  0.0198 -0.2003 -0.6433
 5804SOL    HW229046   0.721   2.733   7.889 -1.5230  0.7639  1.1871
 5805SOL     OW29047   2.378   3.612  10.561 -0.1235 -0.4970  0.3197
 5805SOL    HW129048   2.343   3.533  10.601  0.5964 -1.0358 -0.1081
 5805SOL    HW229049   2.468   3.605  10.593 -0.0878  1.0032  0.5571
 5806SOL     OW29050   2.760   4.365  15.484  0.1873 -0.3482 -0.3261
 5806SOL    HW129051   2.844   4.408  15.469 -0.6239  1.6002  0.6032
 5806SOL    HW229052   2.702   4.395  15.414 -1.7415 -0.0335  1.3922
 5807SOL     OW29053   3.431   0.086  15.619 -0.0725 -0.1263 -0.5056
 5807SOL    HW129054   3.471   0.105  15.704 -0.0144 -1.6040 -0.2034
 5807SOL    HW229055   3.341   0.114  15.631  0.4332  0.2885  2.3160
 5808SOL     OW29056   3.980   4.674   5.632 -0.0263 -0.0853  0.2295
 5808SOL    HW129057   3.895   4.671   5.676 -0.9999 -0.5506 -1.6822
 5808SOL    HW229058   4.028   4.712   5.706 -0.0525  0.8211 -0.2148
 5809SOL     OW29059   0.712   0.713   6.707  0.0563  0.1895  0.0742
 5809SOL    HW129060   0.675   0.800   6.725 -2.3639 -1.0727  1.1607
 5809SOL    HW229061   0.735   0.685   6.795 -0.7769 -4.4866 -1.2307
 5810SOL     OW29062   4.367   1.104   7.658 -0.1302  0.1350  0.0743
 5810SOL    HW129063   4.398   1.043   7.725  0.1393 -2.2375 -2.2059
 5810SOL    HW229064   4.444   1.156   7.634  1.4258 -1.4696  1.6165
 5811SOL     OW29065   3.542   0.410   9.625 -0.5298  0.6540  0.5005
 5811SOL    HW129066   3.567   0.458   9.704  2.3987 -1.0708  0.6254
 5811SOL    HW229067   3.448   0.396   9.636 -0.3856 -0.1221  0.6996
 5812SOL     OW29068   2.562   3.510  10.772  0.1050 -0.1694 -0.2672
 5812SOL    HW129069   2.594   3.438  10.717  1.7081  0.2975  0.0276
 5812SOL    HW229070   2.631   3.517  10.838  0.8702 -2.7300 -0.7510
 5813SOL     OW29071   3.385   2.843   2.028 -0.2258  0.4841 -0.1452
 5813SOL    HW129072   3.331   2.768   2.004 -0.2112  0.8123 -1.2103
 5813SOL    HW229073   3.363   2.922   1.978 -0.7604  0.3286 -0.1527
 5814SOL     OW29074   2.651   2.642   1.983  0.3442  0.1008  0.2361
 5814SOL    HW129075   2.689   2.614   2.066  0.1517 -1.5883 -0.2360
 5814SOL    HW229076   2.637   2.736   1.986  1.3123  0.1834  2.1398
 5815SOL     OW29077   2.822   3.261   7.364  0.4950 -0.1925  0.4922
 5815SOL    HW129078   2.835   3.250   7.270  0.1190  1.0528  0.2942
 5815SOL    HW229079   2.755   3.192   7.371  0.4220 -0.2341 -0.7103
 5816SOL     OW29080   1.051   2.718   5.458 -0.2093  0.5102 -0.1239
 5816SOL    HW129081   1.055   2.628   5.425  0.3530 -0.2317  1.9339
 5816SOL    HW229082   0.970   2.736   5.411  1.2244  0.7198 -2.5627
 5817SOL     OW29083   0.408   2.758  11.826  0.5490 -0.2675 -0.3022
 5817SOL    HW129084   0.446   2.764  11.739  0.0779 -3.0129 -0.7107
 5817SOL    HW229085   0.358   2.839  11.831 -0.1667 -0.7562  0.6621
 5818SOL     OW29086   1.445   4.395   8.794 -0.4207 -0.1750  0.1398
 5818SOL    HW129087   1.529   4.419   8.754  0.1828  0.3282  1.6756
 5818SOL    HW229088   1.395   4.448   8.732  0.6036  1.6491  0.8449
 5819SOL     OW29089   3.499   0.704   8.116  0.3397 -0.3087 -0.2754
 5819SOL    HW129090   3.441   0.676   8.187 -1.6054  2.1591 -0.8949
 5819SOL    HW229091   3.439   0.753   8.061  1.1016  0.4607 -0.4249
 5820SOL     OW29092   4.058   2.556   9.557  0.4580  0.2097  0.0309
 5820SOL    HW129093   3.997   2.483   9.542 -1.0161  1.4179  0.1887
 5820SOL    HW229094   4.015   2.637   9.532  0.0864  0.1434  0.4592
 5821SOL     OW29095   3.022   0.223   5.595 -0.1373  0.0071 -0.0315
 5821SOL    HW129096   2.973   0.277   5.532 -1.9339 -3.2482 -1.4100
 5821SOL    HW229097   3.014   0.139   5.551  3.3804 -2.3390  3.8152
 5822SOL     OW29098   2.146   3.215   7.108 -0.5414 -0.1797 -0.3318
 5822SOL    HW129099   2.063   3.241   7.068 -2.0128 -2.1228  1.4512
 5822SOL    HW229100   2.207   3.184   7.042 -1.0804  0.6809 -1.2341
 5823SOL     OW29101   2.444   4.325   4.502  0.4859  0.2153 -0.4258
 5823SOL    HW129102   2.413   4.252   4.555  2.8423  0.1975  0.9082
 5823SOL    HW229103   2.442   4.295   4.411  0.9989 -1.9117  0.2680
 5824SOL     OW29104   3.001   2.209  11.326 -0.1148  0.5703  0.1238
 5824SOL    HW129105   2.946   2.279  11.360 -1.8851 -0.6341 -0.2725
 5824SOL    HW229106   2.947   2.171  11.257 -0.7306 -0.5626  1.2273
 5825SOL     OW29107   0.317   3.230   9.593 -0.2330  0.7851  0.0542
 5825SOL    HW129108   0.396   3.282   9.581  1.2970 -1.5287  0.0415
 5825SOL    HW229109   0.283   3.240   9.504  0.6694  0.2015 -0.3559
 5826SOL     OW29110   1.296   3.384  13.086  0.0075  0.1930 -0.0148
 5826SOL    HW129111   1.296   3.370  13.180 -0.1142  2.1810  0.2772
 5826SOL    HW229112   1.380   3.429  13.074 -0.5796  1.7733  1.9351
 5827SOL     OW29113   0.225   4.253   2.559  0.1937  0.1763  0.9689
 5827SOL    HW129114   0.253   4.236   2.649 -0.6794 -2.1805  0.8145
 5827SOL    HW229115   0.294   4.313   2.532 -3.0156  2.7762 -1.4820
 5828SOL     OW29116   2.593   2.188   5.313 -0.3959 -0.5768 -0.6871
 5828SOL    HW129117   2.574   2.097   5.290 -2.3736 -0.2136 -0.5551
 5828SOL    HW229118   2.506   2.227   5.323 -0.8838 -1.9683  0.4112
 5829SOL     OW29119   0.731   2.066   9.738  0.6109  0.4685 -0.0790
 5829SOL    HW129120   0.641   2.077   9.708 -0.1353 -2.4310  1.0994
 5829SOL    HW229121   0.787   2.130   9.695 -0.1702  2.1392  1.3760
 5830SOL     OW29122   1.415   4.291  13.439  0.2292 -0.8066  0.1732
 5830SOL    HW129123   1.486   4.234  13.410  1.3928  0.7572 -0.0597
 5830SOL    HW229124   1.464   4.373  13.435 -0.3353 -0.5800 -1.7779
 5831SOL     OW29125   4.553   2.641  14.628  0.1635 -0.3692  0.5132
 5831SOL    HW129126   4.467   2.677  14.651 -0.7103 -0.6896 -2.2199
 5831SOL    HW229127   4.543   2.599  14.542 -0.3948  1.5157 -0.3522
 5832SOL     OW29128   1.605   2.602   4.295  0.0496 -0.4472 -0.3044
 5832SOL    HW129129   1.699   2.607   4.277  0.0340 -2.5225 -0.8689
 5832SOL    HW229130   1.617   2.586   4.388 -0.8079 -1.7151 -0.4208
 5833SOL     OW29131   3.578   0.175  15.853  0.1706  0.0369  0.2695
 5833SOL    HW129132   3.527   0.142  15.926  1.9679 -0.0555  1.4873
 5833SOL    HW229133   3.663   0.133  15.868 -0.5856 -1.9703 -1.0607
 5834SOL     OW29134   0.815   2.099   5.768  0.0727 -0.2103 -0.5006
 5834SOL    HW129135   0.850   2.082   5.856 -1.8240 -1.3513  0.0198
 5834SOL    HW229136   0.894   2.131   5.724 -0.4289  0.5662 -0.8351
 5835SOL     OW29137   3.430   1.275   4.956 -0.0576 -0.6205  0.2841
 5835SOL    HW129138   3.431   1.343   5.024 -2.9914 -2.8899  2.5841
 5835SOL    HW229139   3.520   1.246   4.944 -0.1321 -0.9054  0.3997
 5836SOL     OW29140   0.749   4.010  12.931 -0.1140 -0.0719 -0.1016
 5836SOL    HW129141   0.713   3.955  13.001  1.6660 -2.5132 -1.1047
 5836SOL    HW229142   0.674   4.014  12.872  1.0623 -2.3640 -1.7257
 5837SOL     OW29143   3.385   0.173   8.801 -0.0687  0.4465 -0.3378
 5837SOL    HW129144   3.461   0.158   8.744  1.8511 -1.4141  2.7537
 5837SOL    HW229145   3.390   0.268   8.806  0.0343  0.3824  0.8056
 5838SOL     OW29146   2.742   1.826   4.145 -0.0696  0.3408  0.1862
 5838SOL    HW129147   2.763   1.858   4.233  2.3280  0.8759 -0.5949
 5838SOL    HW229148   2.823   1.839   4.097 -0.3253 -0.2375 -0.3925
 5839SOL     OW29149   3.426   3.419   2.573 -0.5776 -0.2589 -0.2199
 5839SOL    HW129150   3.494   3.352   2.565  1.6296  1.7777  1.7763
 5839SOL    HW229151   3.385   3.394   2.655 -1.4537  1.3007 -0.1824
 5840SOL     OW29152   3.765   4.302   2.918  0.7046 -0.7095  0.1800
 5840SOL    HW129153   3.681   4.345   2.931  1.1627  0.2175  0.1029
 5840SOL    HW229154   3.762   4.215   2.958  0.0265 -2.0425 -2.6990
 5841SOL     OW29155   0.513   1.729  16.449  0.4553 -0.2945  0.0448
 5841SOL    HW129156   0.538   1.639  16.468  0.9243  0.2576  2.0551
 5841SOL    HW229157   0.467   1.750  16.531 -0.4339 -1.4450 -0.1562
 5842SOL     OW29158   2.768   2.964   3.533 -0.1087  0.4644  0.0697
 5842SOL    HW129159   2.825   2.887   3.541 -1.0608 -0.1144  1.2820
 5842SOL    HW229160   2.831   3.033   3.549  0.9391 -0.4093 -0.3224
 5843SOL     OW29161   1.970   2.626  12.291 -0.4091  0.0504 -0.3860
 5843SOL    HW129162   1.920   2.610  12.211 -4.3473 -1.4980  2.4286
 5843SOL    HW229163   2.026   2.697  12.258 -0.2197  0.7542  1.4738
 5844SOL     OW29164   1.965   3.830   1.986  0.8015 -0.0912  0.2197
 5844SOL    HW129165   1.879   3.827   1.943  1.5402 -2.6512 -1.0308
 5844SOL    HW229166   2.000   3.752   1.944 -0.9967 -1.9011  2.0724
 5845SOL     OW29167   1.374   1.206   3.546  0.3017  0.4675  0.1034
 5845SOL    HW129168   1.285   1.237   3.526  0.3779 -0.8231 -2.3527
 5845SOL    HW229169   1.378   1.119   3.505 -1.6758  0.7153 -0.6169
 5846SOL     OW29170   3.086   0.247   3.133 -0.1228 -0.2140 -0.6262
 5846SOL    HW129171   3.028   0.314   3.097  0.5731  1.6630  1.6876
 5846SOL    HW229172   3.174   0.285   3.131 -0.7624  1.2981  0.1214
 5847SOL     OW29173   3.444   2.101   7.446 -0.0990  0.1725  0.3594
 5847SOL    HW129174   3.356   2.069   7.427  0.4160 -1.1988  0.2639
 5847SOL    HW229175   3.423   2.124   7.536 -1.5114  0.3093 -0.0068
 5848SOL     OW29176   4.557   0.942   8.255  0.5188 -0.3523  0.3567
 5848SOL    HW129177   4.648   0.959   8.280  0.3095  0.0002  0.8845
 5848SOL    HW229178   4.570   0.965   8.163  0.5679 -1.2934  0.1284
 5849SOL     OW29179   4.606   3.122   8.687  0.2914 -0.7142  0.0604
 5849SOL    HW129180   4.585   3.076   8.606  0.6123  0.1698 -0.5206
 5849SOL    HW229181   4.542   3.192   8.700  0.7716  0.1269 -2.0139
 5850SOL     OW29182   3.008   1.385   8.595 -0.0474  0.3307 -0.5282
 5850SOL    HW129183   2.935   1.350   8.645 -1.3531  0.5181 -2.2925
 5850SOL    HW229184   3.050   1.441   8.660  2.0663 -0.3792 -1.2693
 5851SOL     OW29185   3.911   2.971  16.942  0.0776  0.2391  0.0603
 5851SOL    HW129186   3.853   3.047  16.935 -0.7950 -0.4984 -0.6473
 5851SOL    HW229187   3.978   3.008  16.884  0.1199 -1.1431 -0.7632
 5852SOL     OW29188   0.999   1.126   8.904  0.4406 -0.0612 -1.0050
 5852SOL    HW129189   1.021   1.138   8.996 -0.3792 -0.4138 -0.7618
 5852SOL    HW229190   0.918   1.177   8.898  0.6416  0.4456  0.6578
 5853SOL     OW29191   1.290   2.046   9.139 -0.2066  0.3027  0.5250
 5853SOL    HW129192   1.325   2.131   9.111 -2.3887  1.3926  1.1058
 5853SOL    HW229193   1.242   2.027   9.059  3.0240 -1.9430 -0.9235
 5854SOL     OW29194   2.115   4.425   0.958  0.1046 -0.2897  0.3867
 5854SOL    HW129195   2.165   4.500   0.992 -0.0014 -0.3780  0.7306
 5854SOL    HW229196   2.160   4.407   0.875  1.0420 -0.7112  0.9847
 5855SOL     OW29197   0.717   0.422  17.048 -0.3590  0.3058  0.1395
 5855SOL    HW129198   0.630   0.384  17.039  1.2677 -3.7792  1.6320
 5855SOL    HW229199   0.700   0.466  17.131 -1.1370  0.2284  0.0195
 5856SOL     OW29200   4.191   3.474   2.782 -0.0936  0.4423 -0.4886
 5856SOL    HW129201   4.269   3.518   2.816  0.0448 -0.2899  0.1613
 5856SOL    HW229202   4.115   3.531   2.794  0.1732  1.1980 -2.4805
 5857SOL     OW29203   3.388   0.777   2.972 -0.2867 -0.2364  0.3209
 5857SOL    HW129204   3.328   0.851   2.965  1.8638  1.7361  2.8784
 5857SOL    HW229205   3.395   0.738   2.884  1.2989  1.7445 -0.4244
 5858SOL     OW29206   0.617   1.074   8.354  0.3926 -0.1039  0.5177
 5858SOL    HW129207   0.678   1.148   8.358 -0.7528  0.7839  1.6294
 5858SOL    HW229208   0.665   1.011   8.301  0.5541  0.1104  0.4112
 5859SOL     OW29209   2.862   0.667   7.652 -0.4856  0.1487 -0.4028
 5859SOL    HW129210   2.807   0.659   7.730  0.3851 -0.2454  0.1713
 5859SOL    HW229211   2.949   0.653   7.689 -0.4372  0.2699 -0.4681
 5860SOL     OW29212   2.629   3.175  14.094 -0.1838  0.0539 -0.0297
 5860SOL    HW129213   2.609   3.095  14.045 -0.0303  0.2071 -0.3460
 5860SOL    HW229214   2.588   3.235  14.031  0.8211  1.3677  0.5574
 5861SOL     OW29215   3.841   0.025   2.406 -0.0179 -0.1655  0.3867
 5861SOL    HW129216   3.771   4.700   2.417  1.2742 -1.8311 -1.1045
 5861SOL    HW229217   3.869   0.002   2.318  2.1896  0.9776  0.7728
 5862SOL     OW29218   3.149   2.400   3.608  0.3648  0.8428  0.1647
 5862SOL    HW129219   3.232   2.357   3.628  1.4564  2.5309 -0.6527
 5862SOL    HW229220   3.182   2.462   3.543 -0.0384  0.5193 -0.3557
 5863SOL     OW29221   3.788   1.826   6.663  0.3643  0.0105  0.7219
 5863SOL    HW129222   3.786   1.730   6.663  1.4281 -0.0216 -0.7120
 5863SOL    HW229223   3.803   1.856   6.753  2.3747 -0.1643  0.4500
 5864SOL     OW29224   1.693   1.272   4.630 -0.4190 -0.2518 -0.2917
 5864SOL    HW129225   1.774   1.272   4.579 -1.1314 -0.4607 -1.4377
 5864SOL    HW229226   1.705   1.343   4.692  1.0042  0.2982 -1.2181
 5865SOL     OW29227   0.170   3.521   2.754  0.2209 -0.0978 -0.0108
 5865SOL    HW129228   0.158   3.615   2.742  0.6610 -0.1188 -0.6140
 5865SOL    HW229229   0.164   3.519   2.849  2.2222 -0.5921  0.0984
 5866SOL     OW29230   1.636   1.727   0.920 -0.3372 -0.1510  1.0340
 5866SOL    HW129231   1.662   1.647   0.964  1.7411  0.2714  0.5753
 5866SOL    HW229232   1.717   1.751   0.874 -0.1665 -0.1392  1.3388
 5867SOL     OW29233   3.671   0.673   5.677 -0.4664 -0.1613  0.6517
 5867SOL    HW129234   3.671   0.594   5.624 -1.6787  0.0372  0.3685
 5867SOL    HW229235   3.760   0.665   5.712  0.5659  0.7151 -1.7328
 5868SOL     OW29236   3.315   2.586   8.447  0.3477 -0.2277  0.0150
 5868SOL    HW129237   3.345   2.555   8.533  2.5860 -0.1608 -0.7543
 5868SOL    HW229238   3.358   2.671   8.443 -0.2647  0.1786  2.2611
 5869SOL     OW29239   4.341   2.786  12.352 -0.5523 -0.4526 -0.6441
 5869SOL    HW129240   4.404   2.845  12.310  1.4019 -1.1725  1.2595
 5869SOL    HW229241   4.354   2.699  12.315 -2.3815 -0.6602 -0.8088
 5870SOL     OW29242   1.780   3.590   0.140 -0.7735  0.2002 -0.1061
 5870SOL    HW129243   1.756   3.587   0.233 -1.1486 -1.3601 -0.2583
 5870SOL    HW229244   1.705   3.648   0.124 -0.2942  1.1335  1.0123
 5871SOL     OW29245   2.500   4.577   7.090  0.3644  0.1198 -0.5201
 5871SOL    HW129246   2.560   4.564   7.163  0.7724 -0.6675 -0.9961
 5871SOL    HW229247   2.492   4.672   7.082 -2.6426  0.2322  3.7693
 5872SOL     OW29248   0.579   1.837   3.325 -0.3716 -0.3981  0.0541
 5872SOL    HW129249   0.577   1.912   3.384 -0.9599  0.6290 -1.2754
 5872SOL    HW229250   0.661   1.853   3.279  0.0401  1.9165  1.5926
 5873SOL     OW29251   2.987   0.085   5.212 -0.3796 -0.6674  0.0930
 5873SOL    HW129252   3.032   0.060   5.131 -2.6903  0.3641 -1.5304
 5873SOL    HW229253   3.060   0.116   5.265 -0.5038 -1.8753  0.9837
 5874SOL     OW29254   0.082   3.981  10.016  0.1167 -0.1686  0.5067
 5874SOL    HW129255   0.108   3.971   9.924 -1.8419  0.0101 -0.0608
 5874SOL    HW229256   0.108   3.897  10.055  0.3040 -2.1345 -3.7423
 5875SOL     OW29257   2.594   0.930   9.557  0.0099  0.3738 -0.0979
 5875SOL    HW129258   2.536   0.856   9.571  0.5113  0.1231  0.6072
 5875SOL    HW229259   2.619   0.954   9.646 -0.8201  1.5915 -0.1899
 5876SOL     OW29260   2.638   2.516  10.734  0.2992 -0.0342  0.0756
 5876SOL    HW129261   2.669   2.434  10.772 -0.2000  0.3053  1.2136
 5876SOL    HW229262   2.657   2.568  10.813 -2.1025  0.5723  0.2544
 5877SOL     OW29263   1.086   1.125  16.605 -0.2177 -0.5242 -0.4486
 5877SOL    HW129264   1.109   1.177  16.681  0.0542 -1.8200  0.3588
 5877SOL    HW229265   1.057   1.201  16.554 -0.9450 -1.2363 -1.0950
 5878SOL     OW29266   0.524   3.777   6.372 -0.2911 -0.4321  0.6799
 5878SOL    HW129267   0.466   3.719   6.422 -0.7887 -0.7236 -0.2266
 5878SOL    HW229268   0.502   3.864   6.406 -0.4030 -0.5215  0.8369
 5879SOL     OW29269   3.659   3.146   6.313 -0.7213  0.4358  0.1150
 5879SOL    HW129270   3.605   3.126   6.237  2.4044 -0.6424 -1.8356
 5879SOL    HW229271   3.738   3.105   6.279 -1.9747 -1.9335  0.1019
 5880SOL     OW29272   1.337   4.169   8.914 -0.1483  0.1857  0.5547
 5880SOL    HW129273   1.360   4.261   8.898 -1.1471  0.2997 -0.2147
 5880SOL    HW229274   1.244   4.175   8.891 -0.3943 -2.2229  0.9179
 5881SOL     OW29275   3.260   0.726   1.183  0.6078 -0.2292  0.1775
 5881SOL    HW129276   3.188   0.773   1.141 -0.5734 -1.1787  1.1502
 5881SOL    HW229277   3.308   0.795   1.229  0.5808  1.0361 -1.6846
 5882SOL     OW29278   1.000   4.020  16.867 -0.2299 -0.6037 -0.1414
 5882SOL    HW129279   0.994   4.111  16.838 -0.1014 -0.4447  0.3293
 5882SOL    HW229280   1.022   4.027  16.960 -0.5456 -0.5316 -0.0734
 5883SOL     OW29281   2.156   4.564   7.335 -0.0031  0.0529 -0.7428
 5883SOL    HW129282   2.232   4.614   7.367  0.0237 -0.2074 -0.3934
 5883SOL    HW229283   2.151   4.595   7.245  0.6005 -1.9983 -1.4714
 5884SOL     OW29284   3.540   1.480   4.480 -0.0326  0.1025 -0.9757
 5884SOL    HW129285   3.474   1.435   4.534 -0.2722  0.4460 -0.9835
 5884SOL    HW229286   3.495   1.563   4.466 -0.9125 -0.3952 -1.1443
 5885SOL     OW29287   0.969   1.937  11.998  0.4039 -0.3482 -0.2064
 5885SOL    HW129288   0.985   1.934  11.904  1.2226 -0.3537 -0.0650
 5885SOL    HW229289   0.946   2.030  12.008  1.9300 -0.0033  0.0372
 5886SOL     OW29290   3.829   1.451   4.150  0.2411  0.8969 -0.1071
 5886SOL    HW129291   3.870   1.470   4.066  0.5185 -0.2621 -0.2333
 5886SOL    HW229292   3.901   1.399   4.186  0.1766  1.0593  0.2585
 5887SOL     OW29293   3.455   2.995   0.251 -0.2110  0.4883 -0.6071
 5887SOL    HW129294   3.415   2.921   0.205 -1.4431 -1.2436  3.2101
 5887SOL    HW229295   3.547   2.984   0.227  0.1027  0.3851  0.6521
 5888SOL     OW29296   3.066   3.327   4.088 -0.2348  0.0390  0.1902
 5888SOL    HW129297   3.128   3.270   4.132  1.0889  0.0810 -1.5941
 5888SOL    HW229298   3.114   3.331   4.005 -0.4928  1.1338  0.0979
 5889SOL     OW29299   3.864   0.837   2.881 -0.3216 -0.3148  0.5003
 5889SOL    HW129300   3.938   0.778   2.869 -0.3660 -0.3494  0.3922
 5889SOL    HW229301   3.853   0.878   2.795 -0.7322 -1.8393 -0.1781
 5890SOL     OW29302   1.203   2.229   7.465  0.5806 -0.2015 -0.2259
 5890SOL    HW129303   1.245   2.181   7.394  0.2825 -2.0902  0.8798
 5890SOL    HW229304   1.273   2.213   7.529  1.1411 -3.0738 -1.5315
 5891SOL     OW29305   1.855   2.045   3.871  0.2065  0.1132  0.3684
 5891SOL    HW129306   1.900   2.098   3.936  0.1838  0.3019  0.2325
 5891SOL    HW229307   1.822   2.120   3.821 -1.4538  0.3543  1.8698
 5892SOL     OW29308   0.743   0.365   6.496  0.1939  0.9020  0.3525
 5892SOL    HW129309   0.745   0.417   6.416 -0.6488  0.6026  0.1378
 5892SOL    HW229310   0.649   0.350   6.503  0.3609  0.3783  1.4306
 5893SOL     OW29311   2.116   2.447  13.991 -0.2313 -0.3182  0.5450
 5893SOL    HW129312   2.070   2.503  13.928  1.3456 -0.0354 -0.3395
 5893SOL    HW229313   2.167   2.511  14.040  0.3459 -1.2311  1.1353
 5894SOL     OW29314   4.568   2.699   4.745 -0.5488  0.1802 -0.0946
 5894SOL    HW129315   4.581   2.611   4.708  1.1118 -0.1122  1.1908
 5894SOL    HW229316   4.473   2.698   4.744 -0.5364 -0.4818 -0.7547
 5895SOL     OW29317   1.172   2.487   8.253 -0.1325 -0.5886 -0.0729
 5895SOL    HW129318   1.089   2.445   8.276 -1.2045  1.2707 -0.4768
 5895SOL    HW229319   1.161   2.582   8.264  0.5711 -0.5783  0.5704
 5896SOL     OW29320   0.691   4.252   5.221 -0.0576  0.7433  0.4726
 5896SOL    HW129321   0.645   4.170   5.208 -0.1269  0.8422  0.1096
 5896SOL    HW229322   0.642   4.314   5.168  0.5271 -1.2663 -2.3820
 5897SOL     OW29323   2.747   0.754   2.916 -0.6503  0.1858 -0.7055
 5897SOL    HW129324   2.838   0.783   2.914 -0.7255  0.4677  0.2332
 5897SOL    HW229325   2.722   0.839   2.954  1.7855 -0.3839  2.1439
 5898SOL     OW29326   2.780   0.332  14.084 -0.0665 -0.6408  0.9354
 5898SOL    HW129327   2.873   0.344  14.064  0.1706 -0.9808  1.8081
 5898SOL    HW229328   2.752   0.416  14.049  0.0872 -0.6115  0.8808
 5899SOL     OW29329   1.534   3.136   3.075  0.3519  0.3083  0.0782
 5899SOL    HW129330   1.484   3.061   3.108 -1.6333  0.5517 -2.3969
 5899SOL    HW229331   1.476   3.209   3.097 -1.4819 -1.0143 -0.2945
 5900SOL     OW29332   3.182   2.828   8.959 -0.5280  0.2533 -0.7161
 5900SOL    HW129333   3.133   2.893   9.009  0.4379  1.5857 -1.5138
 5900SOL    HW229334   3.261   2.823   9.012 -1.1166  0.7736  0.2137
 5901SOL     OW29335   0.506   1.157  15.850  0.1731 -0.1500  0.3549
 5901SOL    HW129336   0.550   1.102  15.916  0.8768  0.4696  0.3964
 5901SOL    HW229337   0.516   1.095  15.778  3.8822 -0.2690  0.9878
 5902SOL     OW29338   2.900   1.105  15.986 -0.3034  0.4581  0.0977
 5902SOL    HW129339   2.914   1.093  15.892  0.0774  0.7375  0.1164
 5902SOL    HW229340   2.825   1.165  15.986 -0.1278  0.6808  0.9535
 5903SOL     OW29341   1.971   1.589   2.545  0.2977 -0.1630  0.5609
 5903SOL    HW129342   1.908   1.579   2.474  1.3751 -2.3273 -0.0788
 5903SOL    HW229343   1.959   1.504   2.586 -2.0281 -1.2208 -2.3055
 5904SOL     OW29344   0.458   3.939  10.357 -0.3081  0.0269 -0.1138
 5904SOL    HW129345   0.394   4.009  10.356 -0.6944 -0.3261 -0.1695
 5904SOL    HW229346   0.406   3.861  10.378 -2.5977  1.8986  1.1096
 5905SOL     OW29347   2.171   4.573   2.541 -0.1365 -0.0683  0.0701
 5905SOL    HW129348   2.141   4.507   2.478 -0.8113  2.9226 -2.7163
 5905SOL    HW229349   2.090   4.619   2.563  2.0062  3.0081  1.5657
 5906SOL     OW29350   1.417   2.586   8.446  0.3596  0.2610 -0.4516
 5906SOL    HW129351   1.509   2.612   8.441  0.9870 -2.0805 -1.0984
 5906SOL    HW229352   1.434   2.494   8.464 -0.9345  0.2199  0.5550
 5907SOL     OW29353   1.727   1.378  14.149  0.0636 -0.2819 -0.0833
 5907SOL    HW129354   1.699   1.397  14.239 -1.4851  2.7783 -1.2112
 5907SOL    HW229355   1.664   1.313  14.116 -2.0506  2.0975 -0.7497
 5908SOL     OW29356   0.100   2.699   2.904  0.0554  0.1840 -0.2695
 5908SOL    HW129357   0.185   2.708   2.860  1.0895  3.0641  2.3037
 5908SOL    HW229358   0.054   2.778   2.873 -0.4296 -0.0087 -0.0420
 5909SOL     OW29359   2.130   3.784   7.453 -0.1744 -0.3423  0.0274
 5909SOL    HW129360   2.204   3.756   7.506  0.9839  1.4019 -0.6306
 5909SOL    HW229361   2.063   3.805   7.518  0.4480  0.5474  0.3883
 5910SOL     OW29362   1.380   1.540   4.039 -0.1708  0.8791  0.0788
 5910SOL    HW129363   1.464   1.561   3.999  1.3689 -4.5567  0.4818
 5910SOL    HW229364   1.374   1.598   4.115  2.5985  1.1733  0.0428
 5911SOL     OW29365   1.226   0.847   7.901  0.0271 -0.5680  0.1166
 5911SOL    HW129366   1.219   0.885   7.813  2.8646  1.8814  0.9331
 5911SOL    HW229367   1.171   0.769   7.896 -0.2348 -0.2815 -1.5420
 5912SOL     OW29368   1.460   2.319   2.545  0.2924 -0.4096 -0.2905
 5912SOL    HW129369   1.461   2.410   2.516 -0.1255 -0.1332  0.5825
 5912SOL    HW229370   1.551   2.299   2.522  0.7433 -0.0966  1.2048
 5913SOL     OW29371   0.262   0.009   5.323  0.1472  0.4872 -0.0900
 5913SOL    HW129372   0.286   0.060   5.246  0.1200  1.6176  0.6503
 5913SOL    HW229373   0.218   0.074   5.378 -1.0856  0.2925 -0.8294
 5914SOL     OW29374   1.300   3.796  12.651 -0.0878  0.3578 -0.1565
 5914SOL    HW129375   1.385   3.836  12.636  0.0850  0.1093  0.1719
 5914SOL    HW229376   1.276   3.830  12.738  0.9912 -1.2392  0.7561
 5915SOL     OW29377   2.980   2.381   4.899 -0.4217  0.0900  0.0775
 5915SOL    HW129378   2.892   2.344   4.904 -0.4468  0.2586  0.8573
 5915SOL    HW229379   3.017   2.321   4.834 -0.4422  0.6957 -0.5012
 5916SOL     OW29380   1.119   2.669   3.334 -0.2874  0.1469  0.4421
 5916SOL    HW129381   1.036   2.705   3.304  0.2406 -0.2512 -1.5056
 5916SOL    HW229382   1.160   2.641   3.252  1.0113 -0.5427  1.3149
 5917SOL     OW29383   0.172   2.721  14.358  0.2855  0.0532  0.4627
 5917SOL    HW129384   0.093   2.689  14.402 -0.0322  1.5226  0.9390
 5917SOL    HW229385   0.183   2.652  14.292 -0.3888 -0.1305  0.5439
 5918SOL     OW29386   2.065   2.783   7.870 -0.6030 -0.1605  0.1211
 5918SOL    HW129387   2.041   2.741   7.787  0.6659  0.2610 -0.4467
 5918SOL    HW229388   2.012   2.862   7.883  1.3061  1.4869 -2.1540
 5919SOL     OW29389   1.602   1.071   5.332  0.1803 -0.2397 -0.1967
 5919SOL    HW129390   1.650   1.011   5.275 -0.6397 -0.1032 -1.0316
 5919SOL    HW229391   1.524   1.104   5.289 -0.6632  0.3588  1.7994
 5920SOL     OW29392   1.190   1.320   3.020  0.2360  0.7086 -0.9919
 5920SOL    HW129393   1.261   1.283   2.966  1.9778 -1.2485  2.6170
 5920SOL    HW229394   1.108   1.279   2.994  0.5320 -0.6998  0.2338
 5921SOL     OW29395   4.548   1.218  13.907 -0.3236  0.7129  0.3592
 5921SOL    HW129396   4.629   1.239  13.859 -0.8969  1.0187 -0.4605
 5921SOL    HW229397   4.540   1.123  13.895 -3.3755  0.8608  1.4829
 5922SOL     OW29398   3.326   4.163   4.999  0.5483  0.0596  0.3560
 5922SOL    HW129399   3.250   4.158   5.057 -0.0317  3.0615 -0.1570
 5922SOL    HW229400   3.386   4.116   5.057  0.6471 -0.4573 -0.1592
 5923SOL     OW29401   1.976   0.179   6.833 -0.3675  0.3903 -0.3418
 5923SOL    HW129402   2.020   0.262   6.818  0.8222 -0.4083 -1.3135
 5923SOL    HW229403   2.035   0.129   6.889  0.2260  2.1959  0.6269
 5924SOL     OW29404   3.090   2.192   7.287 -0.2036 -0.2459  0.2607
 5924SOL    HW129405   3.105   2.148   7.371 -1.0678  0.9443  1.0455
 5924SOL    HW229406   2.995   2.204   7.285 -0.1678  0.1054  0.5651
 5925SOL     OW29407   1.895   0.888   2.851 -0.4149  0.5301  0.0498
 5925SOL    HW129408   1.973   0.880   2.907 -1.2100 -1.9761  0.8069
 5925SOL    HW229409   1.927   0.823   2.788  1.6918  1.1042  0.5093
 5926SOL     OW29410   0.085   0.157   4.926 -0.0135 -0.5199  0.8592
 5926SOL    HW129411   0.064   0.064   4.913 -0.1367  0.0930 -3.3574
 5926SOL    HW229412   0.003   0.205   4.914 -1.4927 -3.0725  0.5948
 5927SOL     OW29413   1.904   4.573  14.329  0.4073 -0.5638  0.6349
 5927SOL    HW129414   1.883   4.495  14.380 -0.1593  0.7925  2.4860
 5927SOL    HW229415   1.866   4.556  14.243  0.5716  1.4946  0.1516
 5928SOL     OW29416   0.558   3.534   2.930  0.3061  0.3062  0.6691
 5928SOL    HW129417   0.600   3.604   2.980 -0.7971  1.1392  0.4239
 5928SOL    HW229418   0.547   3.587   2.851  1.1844  1.4307  1.3044
 5929SOL     OW29419   3.117   2.964   1.948  0.3447 -0.0262 -0.3942
 5929SOL    HW129420   3.096   3.057   1.960  1.1603  0.1528 -0.3724
 5929SOL    HW229421   3.056   2.917   2.006  0.4441 -0.6054 -0.7610
 5930SOL     OW29422   4.458   3.017   5.349 -0.6660 -0.0025 -0.0842
 5930SOL    HW129423   4.515   3.045   5.278  1.2090 -1.1045  0.9952
 5930SOL    HW229424   4.379   2.991   5.301 -2.1461  2.5554  0.9969
 5931SOL     OW29425   2.423   2.631  11.351 -0.2766  0.1695  0.4122
 5931SOL    HW129426   2.472   2.703  11.390 -0.8313 -0.3534  2.0921
 5931SOL    HW229427   2.435   2.647  11.258  1.9376  1.3664  0.9255
 5932SOL     OW29428   0.573   2.567   2.376 -0.8842  0.0440 -0.1930
 5932SOL    HW129429   0.600   2.652   2.413 -1.3615  1.1853 -2.4944
 5932SOL    HW229430   0.505   2.542   2.439  0.6806  0.4253  1.6665
 5933SOL     OW29431   3.849   3.158   4.419 -0.6833 -0.1706 -0.3183
 5933SOL    HW129432   3.786   3.120   4.481 -0.5437  0.7198  0.3632
 5933SOL    HW229433   3.796   3.203   4.353 -0.0830  0.2685 -0.4988
 5934SOL     OW29434   0.201   1.817  15.902 -0.2576 -0.1177 -0.5919
 5934SOL    HW129435   0.149   1.876  15.957 -1.3666 -1.9356  0.2885
 5934SOL    HW229436   0.137   1.790  15.836 -0.5032  0.6049 -0.6571
 5935SOL     OW29437   1.011   3.027  16.714  0.0736  0.0837 -0.3258
 5935SOL    HW129438   1.033   3.052  16.624 -0.6038  1.6991 -0.0489
 5935SOL    HW229439   0.919   3.053  16.716  0.0866 -0.0313  1.4006
 5936SOL     OW29440   2.025   4.723   4.705 -0.7839  0.0083 -0.3262
 5936SOL    HW129441   2.036   0.079   4.716  0.7596 -0.0336 -1.4770
 5936SOL    HW229442   2.067   4.698   4.622  1.3911  0.8504  0.5041
 5937SOL     OW29443   1.059   2.635  12.469 -0.1938 -0.0785  0.2843
 5937SOL    HW129444   1.033   2.718  12.430 -0.1534 -0.3920 -0.4062
 5937SOL    HW229445   1.153   2.655  12.469 -0.1442 -0.3144 -1.1702
 5938SOL     OW29446   3.408   4.460   7.318 -0.1917  0.0175  0.3100
 5938SOL    HW129447   3.361   4.457   7.234  2.3747  0.6277 -1.1441
 5938SOL    HW229448   3.455   4.377   7.312 -1.5424 -0.5399 -2.6721
 5939SOL     OW29449   2.893   0.593  14.162 -0.0930  0.2102  0.5293
 5939SOL    HW129450   2.933   0.526  14.107 -0.1834  2.0608 -1.8091
 5939SOL    HW229451   2.854   0.651  14.096  0.2294 -1.6870 -1.2967
 5940SOL     OW29452   2.973   3.555   3.073  0.1701 -0.1372  0.5320
 5940SOL    HW129453   2.922   3.566   3.154 -1.5973 -0.4156 -0.5587
 5940SOL    HW229454   3.010   3.467   3.085  0.6968 -0.1938 -1.6545
 5941SOL     OW29455   4.306   1.024   0.390 -0.1368 -1.0186  0.2400
 5941SOL    HW129456   4.395   1.012   0.423  0.3482 -0.4131 -0.8442
 5941SOL    HW229457   4.282   1.115   0.407  2.0850 -0.1016 -1.4860
 5942SOL     OW29458   3.490   3.308  13.354 -0.8395  0.5480 -0.7320
 5942SOL    HW129459   3.428   3.361  13.304 -2.0287  0.2032  0.3885
 5942SOL    HW229460   3.433   3.239  13.389 -0.7145  0.2673 -1.0793
 5943SOL     OW29461   0.323   3.045   6.328  0.3730  0.3261  0.2876
 5943SOL    HW129462   0.332   3.089   6.412  0.9141  2.1993 -0.7634
 5943SOL    HW229463   0.266   2.968   6.337 -0.3887  1.0589  1.7357
 5944SOL     OW29464   2.096   2.942  15.708 -0.3927 -0.4064 -0.3868
 5944SOL    HW129465   2.057   2.926  15.623 -0.6379 -0.7993 -0.2028
 5944SOL    HW229466   2.042   2.903  15.777  1.8148 -0.7169  1.1805
 5945SOL     OW29467   4.095   1.020   5.090 -0.7805 -0.3420 -0.6315
 5945SOL    HW129468   4.138   0.976   5.016  0.8044  1.3658 -0.7252
 5945SOL    HW229469   4.110   1.112   5.066  0.2543  0.5989  3.5922
 5946SOL     OW29470   2.239   1.963   7.404  0.2600 -0.4149  0.1012
 5946SOL    HW129471   2.332   1.947   7.423  0.8029 -1.4281 -3.4220
 5946SOL    HW229472   2.244   2.044   7.354 -1.6911  0.7921  1.8552
 5947SOL     OW29473   4.193   1.905   1.985  0.0709  0.3286 -0.3175
 5947SOL    HW129474   4.135   1.978   2.010  1.0963  0.1735  2.5206
 5947SOL    HW229475   4.180   1.848   2.061 -0.3162 -0.1796 -0.7670
 5948SOL     OW29476   4.119   2.285   9.691  0.1247 -0.1894  0.1110
 5948SOL    HW129477   4.070   2.210   9.724  1.0232 -1.1433 -0.6896
 5948SOL    HW229478   4.057   2.325   9.630 -0.2022 -2.5298 -1.1127
 5949SOL     OW29479   3.464   2.127  16.519 -0.1398 -0.3349 -0.3375
 5949SOL    HW129480   3.540   2.127  16.460  0.0597  0.5035 -0.0889
 5949SOL    HW229481   3.506   2.138  16.605  4.8255  3.8352 -3.2564
 5950SOL     OW29482   3.709   0.533   2.769  0.2850  0.2179 -0.4013
 5950SOL    HW129483   3.780   0.487   2.725 -0.3657 -1.1871  0.0394
 5950SOL    HW229484   3.748   0.621   2.765  3.6140 -1.2064  1.1476
 5951SOL     OW29485   1.437   0.849  11.355 -0.1252  0.3935 -0.0612
 5951SOL    HW129486   1.438   0.897  11.272 -0.0794  4.4430  2.2628
 5951SOL    HW229487   1.507   0.785  11.344 -1.6733 -1.2103 -0.6240
 5952SOL     OW29488   4.194   0.452  11.875  0.3019 -0.2314 -0.3142
 5952SOL    HW129489   4.112   0.403  11.876  0.4999 -0.6153 -3.4353
 5952SOL    HW229490   4.210   0.474  11.967 -0.4138 -1.0857  0.0160
 5953SOL     OW29491   3.435   3.194   7.953 -0.3301 -0.2974 -0.0100
 5953SOL    HW129492   3.352   3.227   7.987 -0.5981  1.3117 -2.2912
 5953SOL    HW229493   3.411   3.212   7.863 -1.9880 -1.2261  0.2504
 5954SOL     OW29494   0.352   0.662   0.833  0.0002 -0.2806 -0.4983
 5954SOL    HW129495   0.263   0.625   0.830 -0.8396  1.8422 -1.8654
 5954SOL    HW229496   0.368   0.685   0.742  1.2635 -1.3186 -0.5329
 5955SOL     OW29497   2.123   0.935  10.031  0.3940 -0.1941 -0.2495
 5955SOL    HW129498   2.190   1.003  10.029 -1.0700  1.2612 -0.0017
 5955SOL    HW229499   2.050   0.998  10.028  0.0761 -0.4370  2.1820
 5956SOL     OW29500   2.240   0.758  17.614  0.1742 -0.3199 -0.4668
 5956SOL    HW129501   2.164   0.797  17.658  0.0224 -0.2958 -0.7538
 5956SOL    HW229502   2.320   0.795  17.651 -1.1378  1.3211  0.7701
 5957SOL     OW29503   1.565   4.195   7.112 -0.3265 -0.2651  0.0646
 5957SOL    HW129504   1.639   4.234   7.066 -0.2897  0.8935  1.0826
 5957SOL    HW229505   1.596   4.167   7.198 -2.0484  0.6270  0.9802
 5958SOL     OW29506   2.061   0.369   1.762  0.5768  0.0426  0.0437
 5958SOL    HW129507   2.016   0.329   1.836 -1.8946 -0.2264 -1.5881
 5958SOL    HW229508   2.148   0.384   1.798 -0.1519  1.9477  1.0263
 5959SOL     OW29509   0.117   0.573  10.868 -0.2396 -0.0224  0.4310
 5959SOL    HW129510   0.145   0.624  10.944 -1.5412  0.8219  0.3533
 5959SOL    HW229511   0.028   0.544  10.891 -1.1570  2.2529 -0.2051
 5960SOL     OW29512   2.832   4.429   1.309  0.3825 -0.1510  0.3058
 5960SOL    HW129513   2.784   4.409   1.390  1.5796 -0.0590  1.0318
 5960SOL    HW229514   2.905   4.368   1.320 -0.0427 -0.6468  0.3587
 5961SOL     OW29515   4.460   0.963   5.231 -0.2548 -0.3765 -0.1542
 5961SOL    HW129516   4.471   1.057   5.245  1.1679  0.0053 -3.7168
 5961SOL    HW229517   4.493   0.950   5.142  1.2304 -1.8907  0.6213
 5962SOL     OW29518   1.241   1.796   3.130 -0.5492 -0.2430  0.1007
 5962SOL    HW129519   1.264   1.887   3.109  1.7048 -0.4072  1.8784
 5962SOL    HW229520   1.323   1.767   3.170 -0.1078  1.1236  0.1860
 5963SOL     OW29521   4.264   3.986   3.750  0.6144  0.4200 -0.3380
 5963SOL    HW129522   4.343   4.036   3.772  1.3561  0.2505 -2.6711
 5963SOL    HW229523   4.210   4.050   3.703 -1.2225 -1.0304 -0.1876
 5964SOL     OW29524   4.497   2.352  14.817  0.3594 -0.7273 -0.2161
 5964SOL    HW129525   4.424   2.316  14.867 -0.9911  1.4007 -0.6332
 5964SOL    HW229526   4.471   2.443  14.801 -0.4431 -1.1431 -1.2501
 5965SOL     OW29527   0.177   3.900   9.097  0.4320  0.6065 -0.1129
 5965SOL    HW129528   0.110   3.859   9.151  0.0493 -0.5167 -1.4483
 5965SOL    HW229529   0.259   3.868   9.136 -1.0698 -1.8612  0.9884
 5966SOL     OW29530   4.513   2.661   7.682  0.3426 -0.0825  0.1393
 5966SOL    HW129531   4.517   2.698   7.593 -1.5027 -0.2276  0.0110
 5966SOL    HW229532   4.421   2.684   7.694  0.4985  0.3030  0.5908
 5967SOL     OW29533   1.724   1.456  11.715 -0.2837 -0.2926 -0.3291
 5967SOL    HW129534   1.771   1.533  11.747 -0.3313 -0.5459  0.3455
 5967SOL    HW229535   1.735   1.482  11.623 -3.4900  1.3728 -0.2087
 5968SOL     OW29536   3.636   0.020   3.100 -0.0009  0.0691  0.1406
 5968SOL    HW129537   3.588   4.678   3.083  0.8934 -0.4782  0.1818
 5968SOL    HW229538   3.570   0.088   3.116  0.9095  0.5487  1.8947
 5969SOL     OW29539   4.564   2.073   6.676 -0.1897  0.1962 -0.1234
 5969SOL    HW129540   4.602   2.103   6.758  1.5113  0.9034 -1.1840
 5969SOL    HW229541   4.630   2.102   6.614  0.6449  3.0910  2.1395
 5970SOL     OW29542   1.002   2.835  13.987  0.1959 -0.2912 -0.2335
 5970SOL    HW129543   1.023   2.743  13.970 -0.0720 -0.1262 -1.4179
 5970SOL    HW229544   0.926   2.822  14.043 -0.5061  0.5771 -0.9799
 5971SOL     OW29545   1.419   4.219  16.791 -0.1653 -0.3866  0.3317
 5971SOL    HW129546   1.478   4.198  16.718 -1.8192  1.0136 -1.4196
 5971SOL    HW229547   1.372   4.138  16.811  0.1654 -0.3919  1.0901
 5972SOL     OW29548   1.532   3.809   6.355 -0.0817 -0.5525  0.2204
 5972SOL    HW129549   1.560   3.723   6.387  0.9381  0.1882  1.3096
 5972SOL    HW229550   1.586   3.874   6.400  1.4215 -0.5055 -1.6853
 5973SOL     OW29551   4.008   4.156   5.533  0.0285 -0.4133 -1.1289
 5973SOL    HW129552   4.001   4.249   5.554  0.8700 -0.5048 -0.4588
 5973SOL    HW229553   4.023   4.168   5.439  2.4219 -0.3135 -0.7268
 5974SOL     OW29554   2.878   3.320   7.062 -0.1298  0.6103  0.5234
 5974SOL    HW129555   2.930   3.394   7.030 -1.0736  1.1206  0.1783
 5974SOL    HW229556   2.950   3.260   7.079 -1.8577 -0.7515  3.1274
 5975SOL     OW29557   2.456   3.523   2.650  0.2806  0.4040 -0.1241
 5975SOL    HW129558   2.406   3.570   2.716  0.6289  0.5431  0.0403
 5975SOL    HW229559   2.486   3.604   2.607  0.5782  0.5374  0.3338
 5976SOL     OW29560   0.078   2.597  16.838  0.2455  0.6550  0.4770
 5976SOL    HW129561   4.723   2.598  16.819  0.2088  1.1058  0.6798
 5976SOL    HW229562   0.069   2.637  16.925 -2.1095  0.2456  0.4297
 5977SOL     OW29563   0.115   3.748   6.179  0.0437  0.8520  0.3611
 5977SOL    HW129564   0.204   3.715   6.170 -0.9469 -2.1026  1.4404
 5977SOL    HW229565   0.070   3.666   6.201 -2.1681  1.5117 -1.6762
 5978SOL     OW29566   1.430   2.985   3.495 -0.0400  0.2183  0.2053
 5978SOL    HW129567   1.490   2.955   3.426 -0.5390  1.6141 -0.8389
 5978SOL    HW229568   1.474   3.056   3.541  0.7525  0.3167 -0.6878
 5979SOL     OW29569   0.558   1.679   7.628 -0.0419  0.0156 -0.2073
 5979SOL    HW129570   0.477   1.647   7.589 -0.2295 -0.1004  0.2772
 5979SOL    HW229571   0.603   1.595   7.638  0.3308  0.3218  0.7606
 5980SOL     OW29572   1.966   2.360   7.892 -0.7114 -0.0436 -0.2948
 5980SOL    HW129573   1.978   2.294   7.824 -0.8207 -0.8886  0.5038
 5980SOL    HW229574   2.054   2.361   7.929 -2.4019 -1.9118  3.7479
 5981SOL     OW29575   2.974   2.053   8.309 -0.2167 -0.2311  0.1980
 5981SOL    HW129576   2.999   2.143   8.288 -0.2439 -0.0482  0.9229
 5981SOL    HW229577   3.046   2.011   8.263  1.4802  3.0007 -0.1086
 5982SOL     OW29578   3.190   3.274   5.268  0.3725 -0.1864 -0.5144
 5982SOL    HW129579   3.177   3.356   5.315 -0.2876  0.2536 -1.4520
 5982SOL    HW229580   3.180   3.212   5.340 -1.8159 -0.5248 -1.0904
 5983SOL     OW29581   3.910   0.283   8.939  0.4732 -0.2545 -0.0400
 5983SOL    HW129582   3.965   0.215   8.900 -0.1006 -0.0518 -1.2223
 5983SOL    HW229583   3.943   0.295   9.028 -2.9960  0.7184  1.0946
 5984SOL     OW29584   1.269   1.671   5.983 -0.1357  0.5860  0.2741
 5984SOL    HW129585   1.363   1.652   5.984 -0.2725 -0.0916  0.0569
 5984SOL    HW229586   1.264   1.765   5.968 -1.8202  0.5983  0.8215
 5985SOL     OW29587   1.018   2.262  15.034  0.5308 -0.2697  0.5673
 5985SOL    HW129588   0.988   2.348  15.063 -1.9620 -1.6517  2.1265
 5985SOL    HW229589   0.943   2.232  14.982  1.7652 -0.2753 -1.2139
 5986SOL     OW29590   3.878   3.169   0.839 -0.7021  0.4592 -0.0183
 5986SOL    HW129591   3.803   3.174   0.899 -0.6028  0.7122  0.0859
 5986SOL    HW229592   3.950   3.155   0.901 -0.2011  0.7707 -0.5327
 5987SOL     OW29593   3.649   0.755  15.676  0.4296 -0.5176 -0.5818
 5987SOL    HW129594   3.565   0.797  15.694  2.6841  3.7913 -0.0183
 5987SOL    HW229595   3.621   0.680  15.624  0.0851  0.8832 -2.3991
 5988SOL     OW29596   1.983   0.474   4.125 -0.1686  0.0639  0.0492
 5988SOL    HW129597   1.914   0.484   4.058 -1.6617 -1.4791  1.3466
 5988SOL    HW229598   2.052   0.450   4.063 -0.3338 -0.2917  0.0013
 5989SOL     OW29599   2.795   3.743  13.522  0.2758  0.1109  0.3905
 5989SOL    HW129600   2.889   3.728  13.508  0.4432  0.7138  0.8590
 5989SOL    HW229601   2.776   3.827  13.481  0.9310  1.2763  2.4867
 5990SOL     OW29602   1.743   1.565   5.888  0.1896 -0.0042 -0.0702
 5990SOL    HW129603   1.814   1.615   5.927 -1.8061  1.0174  2.3011
 5990SOL    HW229604   1.791   1.483   5.889  0.7690  0.3413  0.3252
 5991SOL     OW29605   3.630   3.044   1.464 -0.3133 -0.1811  0.3556
 5991SOL    HW129606   3.636   3.132   1.503 -0.4533  0.2777 -0.6461
 5991SOL    HW229607   3.657   2.994   1.540 -0.9978 -2.9551 -1.2404
 5992SOL     OW29608   3.563   3.015   6.536 -0.1558  0.5247 -0.0365
 5992SOL    HW129609   3.566   2.930   6.492 -0.2731 -0.5470  2.0698
 5992SOL    HW229610   3.540   3.070   6.461  2.6258  0.9924 -0.5554
 5993SOL     OW29611   4.101   4.324   7.828 -0.1138 -0.2333 -0.8842
 5993SOL    HW129612   4.137   4.250   7.780 -1.0305 -1.3714  0.1831
 5993SOL    HW229613   4.179   4.375   7.850  0.4444 -1.0475 -0.9798
 5994SOL     OW29614   4.258   0.760   0.525  1.0822  0.4171 -0.3840
 5994SOL    HW129615   4.273   0.840   0.474  1.2136 -1.4245 -3.2803
 5994SOL    HW229616   4.240   0.802   0.609 -2.0335 -2.5961  0.4618
 5995SOL     OW29617   3.141   0.045   1.199 -0.3286 -0.8757  0.2207
 5995SOL    HW129618   3.155   0.140   1.202  1.8956 -1.3172  3.4613
 5995SOL    HW229619   3.231   0.022   1.222 -0.8951 -0.7840  2.4841
 5996SOL     OW29620   2.474   0.503  15.682 -0.4886 -0.1651  0.3241
 5996SOL    HW129621   2.392   0.498  15.633  0.2245  0.0926 -0.8819
 5996SOL    HW229622   2.535   0.509  15.608 -0.5386 -0.7210  0.2368
 5997SOL     OW29623   4.218   2.513   9.879  0.3577  0.3799  0.1820
 5997SOL    HW129624   4.169   2.587   9.843  1.1115  2.0755  2.6867
 5997SOL    HW229625   4.195   2.434   9.830  1.6114 -0.2381  0.5856
 5998SOL     OW29626   1.930   1.734   8.851 -0.5959 -0.4710  0.3910
 5998SOL    HW129627   1.989   1.781   8.911  0.9371  0.6271 -1.9781
 5998SOL    HW229628   1.917   1.794   8.777 -0.6988  0.0157  0.8004
 5999SOL     OW29629   0.700   2.336   3.083 -0.1612  0.1856 -0.7615
 5999SOL    HW129630   0.770   2.398   3.060  1.9178 -1.8382  0.1707
 5999SOL    HW229631   0.694   2.354   3.177  1.7758 -0.3892 -0.5370
 6000SOL     OW29632   4.475   2.234   9.879 -0.4128 -0.0765  0.1031
 6000SOL    HW129633   4.531   2.163   9.908  0.8498  0.9711  0.2298
 6000SOL    HW229634   4.424   2.239   9.960 -1.1866 -2.3802 -0.2487
 6001SOL     OW29635   1.364   4.398   9.613 -0.1520  0.0657 -0.6257
 6001SOL    HW129636   1.305   4.323   9.610  0.7988 -0.7466  0.7452
 6001SOL    HW229637   1.437   4.352   9.656 -1.4915 -0.8504  0.6539
 6002SOL     OW29638   4.151   0.428   9.482 -0.4920  0.1466 -0.4896
 6002SOL    HW129639   4.134   0.518   9.455  2.0665  0.8302  0.2193
 6002SOL    HW229640   4.134   0.437   9.576 -1.1240 -2.5579 -0.3326
 6003SOL     OW29641   0.051   0.872   1.753 -0.4180  0.3572 -0.0123
 6003SOL    HW129642   4.710   0.907   1.714  0.3508  1.1498 -0.8935
 6003SOL    HW229643   0.107   0.843   1.681 -0.4352  2.3146 -0.8269
 6004SOL     OW29644   2.894   4.650   7.108 -0.0009  0.2523 -0.0573
 6004SOL    HW129645   2.980   4.668   7.145 -1.2083  0.9780  2.3827
 6004SOL    HW229646   2.860   4.588   7.173  1.1224 -0.9704 -0.6218
 6005SOL     OW29647   3.250   1.710  10.134 -0.1435 -0.3166 -0.1341
 6005SOL    HW129648   3.339   1.677  10.144 -0.1240  0.1602  1.3144
 6005SOL    HW229649   3.239   1.750  10.221 -2.9606 -1.7213  0.1791
 6006SOL     OW29650   3.171   2.765   6.800  0.2293 -0.4340 -0.8905
 6006SOL    HW129651   3.177   2.851   6.842 -0.7764  0.6648 -2.9577
 6006SOL    HW229652   3.076   2.752   6.808 -0.0668  0.8393 -2.2421
 6007SOL     OW29653   0.328   3.851   9.396 -0.0775 -0.3279  0.0739
 6007SOL    HW129654   0.380   3.794   9.453  1.3552  2.5743  1.7271
 6007SOL    HW229655   0.247   3.859   9.446 -0.2778  0.6446 -0.4112
 6008SOL     OW29656   3.209   1.892  11.593 -0.3415  0.0381  0.9244
 6008SOL    HW129657   3.275   1.961  11.584 -0.7666  0.5174  1.5340
 6008SOL    HW229658   3.127   1.942  11.599 -0.3384 -0.0922  1.9229
 6009SOL     OW29659   2.397   3.218   1.854 -0.6091 -0.0528  0.2180
 6009SOL    HW129660   2.381   3.124   1.862  1.6380 -0.2782  2.0604
 6009SOL    HW229661   2.377   3.228   1.761 -0.2879  1.0172  0.2689
 6010SOL     OW29662   1.464   3.771   5.848  0.2926 -0.2327  0.0473
 6010SOL    HW129663   1.385   3.808   5.810 -0.2957  0.2502  1.7511
 6010SOL    HW229664   1.442   3.680   5.865  1.0769 -0.8614 -2.2763
 6011SOL     OW29665   2.621   4.025   6.792  0.6490  0.1903  0.5291
 6011SOL    HW129666   2.552   4.084   6.761 -1.1265 -1.7143  0.8593
 6011SOL    HW229667   2.686   4.045   6.725 -0.3109  0.4776 -0.3152
 6012SOL     OW29668   2.876   3.125  14.739 -0.1260  0.1104  0.7391
 6012SOL    HW129669   2.801   3.098  14.686 -1.1277  0.6537  1.8730
 6012SOL    HW229670   2.948   3.067  14.714  0.2072 -0.0340  2.0547
 6013SOL     OW29671   0.711   3.338  10.388 -0.4022 -0.2983  0.7419
 6013SOL    HW129672   0.696   3.399  10.461  1.8570  1.2970 -0.1442
 6013SOL    HW229673   0.752   3.269  10.441  0.6583 -1.5673 -1.7596
 6014SOL     OW29674   1.843   3.201   2.384 -0.3592  0.3259 -0.2894
 6014SOL    HW129675   1.921   3.145   2.385 -0.7764 -0.2317  1.0193
 6014SOL    HW229676   1.778   3.166   2.445 -1.0181 -0.7687 -1.6269
 6015SOL     OW29677   0.306   4.362  13.227 -0.0562  0.2330 -0.2239
 6015SOL    HW129678   0.393   4.391  13.257  0.1290  0.2367 -0.7694
 6015SOL    HW229679   0.318   4.359  13.132  0.3304  0.7921 -0.1941
 6016SOL     OW29680   0.846   3.875   8.619 -0.0942  0.2557 -0.3579
 6016SOL    HW129681   0.897   3.850   8.541  1.6428  1.1970  0.4721
 6016SOL    HW229682   0.903   3.845   8.691 -0.1339  1.0954  0.0180
 6017SOL     OW29683   4.575   2.407   9.120 -0.0452 -0.2532  0.4337
 6017SOL    HW129684   4.543   2.472   9.182  0.8722 -0.2158  0.8642
 6017SOL    HW229685   4.527   2.438   9.043 -0.8279  0.6395  1.2829
 6018SOL     OW29686   1.853   2.888   6.479  0.0044  0.0651 -0.3330
 6018SOL    HW129687   1.910   2.964   6.465  0.4795  0.2706  2.7142
 6018SOL    HW229688   1.789   2.895   6.408  0.1416  3.9399 -0.0818
 6019SOL     OW29689   0.456   2.797   4.870  0.3130  0.1299 -0.1911
 6019SOL    HW129690   0.382   2.759   4.823  0.7536  0.4915 -1.1761
 6019SOL    HW229691   0.521   2.804   4.801 -1.0480  2.4316 -1.2311
 6020SOL     OW29692   0.125   0.273   4.377 -0.3938 -0.3907 -0.0137
 6020SOL    HW129693   0.077   0.356   4.371  1.5136  0.7083 -0.2392
 6020SOL    HW229694   0.087   0.240   4.459 -0.7201  0.0906  0.0295
 6021SOL     OW29695   0.603   0.868   4.450 -0.1817 -0.2150  0.0131
 6021SOL    HW129696   0.555   0.844   4.371  0.8137  3.4957 -1.7167
 6021SOL    HW229697   0.679   0.810   4.448 -0.7609 -0.8938 -2.2228
 6022SOL     OW29698   4.429   1.022   4.969  0.2282  0.1384 -0.6399
 6022SOL    HW129699   4.376   0.964   4.914  0.5628 -1.0878  0.3557
 6022SOL    HW229700   4.374   1.101   4.967 -1.4507 -1.0613 -1.5754
 6023SOL     OW29701   3.842   2.232   7.367  0.3765 -0.1315  0.2063
 6023SOL    HW129702   3.771   2.293   7.344  0.8998 -0.0361 -1.1155
 6023SOL    HW229703   3.825   2.212   7.459 -0.4368  0.7660  0.2558
 6024SOL     OW29704   1.050   2.660   5.740  0.6524 -0.1584 -0.0196
 6024SOL    HW129705   1.044   2.751   5.769 -3.8890 -0.7313  0.8662
 6024SOL    HW229706   1.020   2.676   5.651 -1.5423 -2.6867  0.2278
 6025SOL     OW29707   2.530   3.667   7.605 -0.1724  0.3758  0.1282
 6025SOL    HW129708   2.517   3.607   7.678  1.0310 -1.7361 -1.3785
 6025SOL    HW229709   2.600   3.621   7.558  0.7553  0.1212  1.7748
 6026SOL     OW29710   0.926   0.091  14.580  0.4596  0.2404  0.2045
 6026SOL    HW129711   0.857   0.066  14.641  3.7059 -1.3315  3.2761
 6026SOL    HW229712   1.005   0.083  14.635 -0.3698 -0.6070  1.2579
 6027SOL     OW29713   4.111   0.409   1.262  0.9706  0.3263  0.3908
 6027SOL    HW129714   4.034   0.426   1.315  0.8650  1.7631 -0.2149
 6027SOL    HW229715   4.127   0.316   1.276 -2.5634 -0.1645  1.0950
 6028SOL     OW29716   4.704   1.129  16.177  0.0163  0.0030  0.0662
 6028SOL    HW129717   0.030   1.198  16.169 -1.1328  0.8128 -2.3504
 6028SOL    HW229718   0.007   1.066  16.118  0.4959  0.4321 -0.0489
 6029SOL     OW29719   3.340   2.601   3.493 -0.2338 -0.4401 -0.3409
 6029SOL    HW129720   3.327   2.598   3.398  0.0687 -1.9438 -0.3297
 6029SOL    HW229721   3.435   2.611   3.493  0.1010 -3.7319 -0.2712
 6030SOL     OW29722   4.157   3.930  10.530 -0.0087  0.3854  0.2024
 6030SOL    HW129723   4.205   3.962  10.453  0.2856  3.5837  1.7229
 6030SOL    HW229724   4.081   3.987  10.538 -2.2357 -2.2850 -1.7411
 6031SOL     OW29725   3.312   1.499  12.696 -0.2948 -0.1320  0.3628
 6031SOL    HW129726   3.299   1.418  12.646  0.3180 -0.0255  0.0236
 6031SOL    HW229727   3.273   1.483  12.782 -1.3070  0.1947 -0.0403
 6032SOL     OW29728   0.445   4.407  10.422 -0.0987  0.0736  0.1289
 6032SOL    HW129729   0.379   4.392  10.355  1.1631 -1.4615 -0.7711
 6032SOL    HW229730   0.387   4.469  10.466 -0.9741  0.0443 -1.0097
 6033SOL     OW29731   1.882   2.686  14.045 -0.1405  0.0232  0.1902
 6033SOL    HW129732   1.916   2.752  13.986  0.1320  0.9873  1.4450
 6033SOL    HW229733   1.903   2.716  14.133 -2.0659  0.6199  0.4410
 6034SOL     OW29734   0.276   1.528   1.582  0.1315  0.6432 -0.2807
 6034SOL    HW129735   0.303   1.576   1.661  0.0491  1.2567 -0.6260
 6034SOL    HW229736   0.364   1.509   1.550 -0.7072 -0.4116 -1.9407
 6035SOL     OW29737   0.831   2.455   4.550 -0.7775 -0.0731 -0.2479
 6035SOL    HW129738   0.822   2.471   4.456 -2.2236  0.0524 -0.0894
 6035SOL    HW229739   0.811   2.361   4.555 -0.3054 -0.2061 -0.8441
 6036SOL     OW29740   0.764   1.999   2.473  0.6552  0.1933  0.5566
 6036SOL    HW129741   0.806   2.071   2.425  1.1737  1.5296  3.0251
 6036SOL    HW229742   0.698   1.971   2.410  0.9942  0.4098  0.1002
 6037SOL     OW29743   3.060   3.458   7.749 -0.3019 -0.2768 -0.3497
 6037SOL    HW129744   3.098   3.465   7.661  2.1170 -0.3172  0.7026
 6037SOL    HW229745   3.021   3.371   7.754 -1.4770  0.2534 -0.3671
 6038SOL     OW29746   1.690   3.324   2.787  0.1075 -0.4225 -0.0192
 6038SOL    HW129747   1.679   3.413   2.818  0.6416 -0.5481  0.5402
 6038SOL    HW229748   1.600   3.295   2.773 -0.1653  0.5561 -0.2337
 6039SOL     OW29749   4.484   3.560   8.771 -0.1497  0.1777  0.3976
 6039SOL    HW129750   4.516   3.606   8.848 -2.5528  1.4384  0.6262
 6039SOL    HW229751   4.567   3.555   8.723 -0.6428  0.9176 -0.5225
 6040SOL     OW29752   0.789   2.199  15.556 -0.0544  0.3031  0.3957
 6040SOL    HW129753   0.860   2.136  15.548  0.7811  1.2551  0.3620
 6040SOL    HW229754   0.772   2.207  15.462  0.6844 -0.8070  0.1787
 6041SOL     OW29755   0.289   1.684  14.763  0.3506  0.5612  0.0999
 6041SOL    HW129756   0.235   1.753  14.800 -0.0741 -0.0111  0.5544
 6041SOL    HW229757   0.297   1.619  14.834  0.5547  0.6669  0.1750
 6042SOL     OW29758   3.763   3.955  10.863  0.1005  0.1559  0.2552
 6042SOL    HW129759   3.809   3.958  10.947 -0.8750 -0.5006  0.8192
 6042SOL    HW229760   3.742   3.861  10.860 -2.1756  0.6785 -0.0842
 6043SOL     OW29761   4.011   0.629   6.965  0.2342 -0.4928 -0.0386
 6043SOL    HW129762   3.970   0.543   6.966 -0.8741  0.0471  0.2638
 6043SOL    HW229763   4.100   0.598   6.944  0.9349  2.1077 -0.9968
 6044SOL     OW29764   0.694   1.108   6.712 -0.0274 -0.2608  0.4344
 6044SOL    HW129765   0.665   1.059   6.789 -2.5830 -1.1897 -1.1461
 6044SOL    HW229766   0.634   1.075   6.646 -0.1454 -0.3692  0.5970
 6045SOL     OW29767   1.629   1.746   9.991 -0.3191 -0.2870 -0.1062
 6045SOL    HW129768   1.669   1.661   9.975  1.4896  0.0882  2.4466
 6045SOL    HW229769   1.557   1.749   9.928 -0.4393  0.1924  0.0571
 6046SOL     OW29770   2.257   4.142   7.425  0.0147  0.9050  0.1492
 6046SOL    HW129771   2.295   4.128   7.338  2.9074  0.7762  1.4292
 6046SOL    HW229772   2.332   4.184   7.468 -0.1960 -0.1377  1.5212
 6047SOL     OW29773   4.293   4.500   5.668  0.0361 -0.2307  0.0928
 6047SOL    HW129774   4.225   4.542   5.617 -0.4781 -1.0199  0.1288
 6047SOL    HW229775   4.362   4.566   5.671  0.7107 -0.8675 -1.6686
 6048SOL     OW29776   2.661   2.348  12.040 -0.2329  0.1276 -0.0229
 6048SOL    HW129777   2.756   2.335  12.042 -0.3919 -0.7789  1.7336
 6048SOL    HW229778   2.635   2.268  11.993  0.2971  0.1417 -0.3417
 6049SOL     OW29779   0.409   2.459   2.158  0.5782  0.3833 -0.3925
 6049SOL    HW129780   0.417   2.412   2.074 -0.3279  0.4568 -0.5243
 6049SOL    HW229781   0.485   2.516   2.151  0.8165  0.2699  1.2968
 6050SOL     OW29782   2.398   2.659  14.723  0.2624  0.0115 -0.3974
 6050SOL    HW129783   2.391   2.569  14.690  2.8582 -0.1895 -0.4311
 6050SOL    HW229784   2.382   2.643  14.816  0.7646  0.9556 -0.1542
 6051SOL     OW29785   2.926   2.806   2.131 -0.2144  0.1350 -0.1809
 6051SOL    HW129786   2.860   2.764   2.186  1.4561  0.0092  1.7413
 6051SOL    HW229787   2.868   2.857   2.075 -2.0051 -1.4270  0.2797
 6052SOL     OW29788   2.303   0.211  17.227 -0.5900 -0.2911  0.2029
 6052SOL    HW129789   2.235   0.277  17.237  0.3152  0.7984 -0.8677
 6052SOL    HW229790   2.257   0.134  17.259 -1.3276  0.4436  0.9033
 6053SOL     OW29791   1.164   3.470   3.796  0.0856 -0.9531 -0.7489
 6053SOL    HW129792   1.116   3.552   3.808  2.2448 -0.0102  1.5175
 6053SOL    HW229793   1.161   3.446   3.889  1.1246  1.5052 -0.0640
 6054SOL     OW29794   1.958   1.593  13.106 -0.7285  0.3094 -0.5346
 6054SOL    HW129795   1.884   1.555  13.059  1.3106  0.2572 -3.7172
 6054SOL    HW229796   2.036   1.575  13.053 -0.3355  2.7347 -0.7831
 6055SOL     OW29797   2.939   4.470  15.134  0.2596 -0.4389 -0.3792
 6055SOL    HW129798   2.978   4.383  15.125 -0.3236 -0.9204  1.9229
 6055SOL    HW229799   2.849   4.438  15.142  0.0152  0.1781 -0.6426
 6056SOL     OW29800   0.635   2.837   2.443  0.1820 -0.0507  0.7051
 6056SOL    HW129801   0.708   2.887   2.480  2.1441 -0.0065 -3.1823
 6056SOL    HW229802   0.560   2.893   2.458  0.2193  0.0758  0.4311
 6057SOL     OW29803   0.628   1.479   1.977  0.2322  0.1154  0.2793
 6057SOL    HW129804   0.560   1.436   1.925 -1.2031  1.9923  0.6081
 6057SOL    HW229805   0.631   1.420   2.053  1.4095  0.9824  0.9076
 6058SOL     OW29806   1.524   0.390   2.190  0.5988  0.2625  0.8617
 6058SOL    HW129807   1.472   0.413   2.113  1.6559 -3.3747 -0.9603
 6058SOL    HW229808   1.492   0.453   2.254 -1.5830  1.6359 -1.6010
 6059SOL     OW29809   4.717   2.180   6.480  0.1140  0.4394  0.3077
 6059SOL    HW129810   4.651   2.231   6.432 -2.4380 -2.1645  1.0421
 6059SOL    HW229811   0.055   2.192   6.424  0.2177  0.4370  0.4526
 6060SOL     OW29812   2.760   1.197   8.369 -0.7638 -0.6207  0.3914
 6060SOL    HW129813   2.684   1.252   8.350 -1.6909 -0.7322  3.7571
 6060SOL    HW229814   2.836   1.241   8.331 -0.9823 -0.9088 -0.3902
 6061SOL     OW29815   0.240   0.226  16.483 -0.2311 -0.1478 -0.2625
 6061SOL    HW129816   0.220   0.220  16.576 -0.3814  1.0095 -0.2124
 6061SOL    HW229817   0.282   0.312  16.472  2.3717 -1.3104  0.8225
 6062SOL     OW29818   4.093   3.692  10.301 -0.2883  0.0843  0.1898
 6062SOL    HW129819   4.145   3.632  10.248 -1.7119 -2.7130  1.9467
 6062SOL    HW229820   4.147   3.770  10.292  2.8121 -2.0152  0.6246
 6063SOL     OW29821   3.466   0.090   6.378  0.0052 -0.1094 -0.3629
 6063SOL    HW129822   3.502   0.139   6.304  0.2634  1.9369  1.1084
 6063SOL    HW229823   3.502   0.134   6.455  0.7975 -0.9509 -0.2633
 6064SOL     OW29824   0.198   4.004  12.247 -0.3901  0.8611 -0.3529
 6064SOL    HW129825   0.205   3.908  12.239  3.1946  1.0719  0.0116
 6064SOL    HW229826   0.104   4.008  12.260 -0.3873 -3.1769  0.8916
 6065SOL     OW29827   4.648   2.762   4.145  0.1749 -0.2773  0.0609
 6065SOL    HW129828   4.604   2.722   4.220  1.0257 -0.2266  0.5951
 6065SOL    HW229829   4.707   2.704   4.096  0.1401 -0.0818 -0.2134
 6066SOL     OW29830   0.058   1.766   5.955 -0.6095  0.0767 -0.3697
 6066SOL    HW129831   0.010   1.829   6.010  1.1439  1.1205 -0.0534
 6066SOL    HW229832   4.727   1.702   5.943  0.0081 -0.5719 -0.4735
 6067SOL     OW29833   1.486   4.589   0.362 -0.1677 -0.1075  0.0821
 6067SOL    HW129834   1.503   4.648   0.435  0.3219 -0.2522  0.0821
 6067SOL    HW229835   1.471   4.505   0.405 -0.3650 -0.4306 -0.6120
 6068SOL     OW29836   2.369   3.979  15.904 -0.1595  0.4064  0.1497
 6068SOL    HW129837   2.379   4.064  15.946 -2.2302  1.8001 -2.1617
 6068SOL    HW229838   2.297   4.011  15.849  0.4751  0.9206 -0.3798
 6069SOL     OW29839   1.270   3.765  15.445  0.0940 -0.6810  0.2105
 6069SOL    HW129840   1.282   3.836  15.507 -1.1016 -1.3566  1.2113
 6069SOL    HW229841   1.206   3.812  15.391 -0.5172 -1.5137  0.2189
 6070SOL     OW29842   2.037   0.927   8.659  0.0519 -0.6119 -0.5047
 6070SOL    HW129843   1.957   0.903   8.706 -0.6330  0.3379 -1.2078
 6070SOL    HW229844   2.095   0.851   8.660  4.8489  3.1026 -0.0481
 6071SOL     OW29845   3.911   0.937   4.782  0.0885 -0.1423 -0.3055
 6071SOL    HW129846   3.852   0.955   4.855  1.5667  2.2856  0.3044
 6071SOL    HW229847   3.931   1.026   4.752 -0.8732  0.1457 -0.1068
 6072SOL     OW29848   0.616   2.844   3.126  0.7720  0.1058  0.5069
 6072SOL    HW129849   0.626   2.938   3.141 -1.4727  0.5726 -0.8065
 6072SOL    HW229850   0.581   2.825   3.213  1.7678 -2.0327  0.4352
 6073SOL     OW29851   1.568   3.980   8.051 -0.3291  0.3631  0.1723
 6073SOL    HW129852   1.496   3.965   8.111  2.3290 -0.8249  3.0642
 6073SOL    HW229853   1.529   4.045   7.993  0.1257  1.0926  0.6835
 6074SOL     OW29854   3.067   3.161   0.423  0.2089 -0.0158  0.2248
 6074SOL    HW129855   3.073   3.204   0.509  2.9643 -0.6968  0.3898
 6074SOL    HW229856   3.112   3.229   0.372  0.2440  0.6571  1.1456
 6075SOL     OW29857   4.156   3.123   0.258 -0.2162  0.2988 -0.1451
 6075SOL    HW129858   4.133   3.157   0.344 -0.0194  0.4870 -0.1690
 6075SOL    HW229859   4.153   3.031   0.286 -0.8224 -0.2012 -1.8416
 6076SOL     OW29860   3.631   1.242   0.695 -0.3729 -0.1946 -0.1313
 6076SOL    HW129861   3.587   1.158   0.699  0.7806 -0.7010  2.4056
 6076SOL    HW229862   3.622   1.272   0.786 -0.8719  0.5545 -0.4302
 6077SOL     OW29863   0.617   4.123   8.015 -0.5421 -0.2722 -0.0456
 6077SOL    HW129864   0.590   4.063   7.945  0.6951 -1.5367  0.5628
 6077SOL    HW229865   0.623   4.202   7.962 -0.1454  0.1169  0.5918
 6078SOL     OW29866   1.078   3.931   2.511 -0.1793  0.1856  0.0077
 6078SOL    HW129867   1.050   4.015   2.549 -0.7267  0.2150 -0.4691
 6078SOL    HW229868   1.091   3.945   2.418 -1.4601 -1.9536 -0.4856
 6079SOL     OW29869   3.579   3.331   7.074  0.7716 -0.1261  0.0129
 6079SOL    HW129870   3.665   3.341   7.033  0.4704  0.3990 -0.4743
 6079SOL    HW229871   3.542   3.262   7.019  0.6207  0.1732 -0.2590
 6080SOL     OW29872   3.978   4.227   8.639 -0.0955  0.4149 -0.3417
 6080SOL    HW129873   3.957   4.167   8.710 -0.2776  1.9143  0.8670
 6080SOL    HW229874   4.058   4.188   8.605 -1.8031 -1.9483 -1.6798
 6081SOL     OW29875   3.268   2.441   7.621 -0.4561 -0.0010 -0.5673
 6081SOL    HW129876   3.251   2.529   7.656 -0.6378  0.7378 -2.5155
 6081SOL    HW229877   3.274   2.458   7.528  1.0519 -3.1651 -1.0648
 6082SOL     OW29878   2.056   0.131   4.215 -0.5106 -0.2101  0.2370
 6082SOL    HW129879   1.971   0.088   4.225  1.0186 -3.1915  0.4454
 6082SOL    HW229880   2.090   0.100   4.131  1.4512 -2.0200  1.7057
 6083SOL     OW29881   0.262   4.323   4.942  0.2899  1.3205 -0.6304
 6083SOL    HW129882   0.350   4.304   4.910 -0.1038 -0.5551 -0.6453
 6083SOL    HW229883   0.213   4.259   4.889  1.1122 -0.1100  0.3471
 6084SOL     OW29884   3.280   0.228   9.643 -0.6768  0.1587  0.5743
 6084SOL    HW129885   3.209   0.178   9.603 -0.4748  0.1265  0.2583
 6084SOL    HW229886   3.340   0.167   9.685  1.9948  1.1963 -1.7923
 6085SOL     OW29887   2.327   2.644   5.341 -0.4088 -0.4035 -0.4348
 6085SOL    HW129888   2.332   2.685   5.428 -0.5750 -1.2984 -0.0053
 6085SOL    HW229889   2.232   2.639   5.333 -0.6024  1.2181  0.6918
 6086SOL     OW29890   4.434   0.100   9.165 -0.4754  0.3514  0.0357
 6086SOL    HW129891   4.437   0.112   9.070 -0.3651 -0.6346 -0.0790
 6086SOL    HW229892   4.461   0.009   9.172 -0.4446  0.4198  0.7708
 6087SOL     OW29893   2.371   0.351  10.062  0.3309  0.0842 -0.0344
 6087SOL    HW129894   2.285   0.387  10.083  0.8915  0.8122  1.0605
 6087SOL    HW229895   2.387   0.308  10.146  2.3929 -0.0632 -0.4965
 6088SOL     OW29896   0.960   3.128   9.600  0.0689  0.6442  0.2135
 6088SOL    HW129897   0.967   3.216   9.565  1.5615  0.2689 -0.4120
 6088SOL    HW229898   0.870   3.123   9.634  0.7520 -1.0720  1.7916
 6089SOL     OW29899   0.665   0.378   8.364  0.3595  0.0370  0.3479
 6089SOL    HW129900   0.665   0.427   8.282  1.3096  0.5562  0.6571
 6089SOL    HW229901   0.572   0.355   8.373  0.0477  0.9236 -0.5698
 6090SOL     OW29902   0.545   0.184   3.765  0.4656 -0.6533 -0.6553
 6090SOL    HW129903   0.599   0.123   3.816 -0.1162 -0.0927  0.6380
 6090SOL    HW229904   0.572   0.270   3.797 -2.2646 -0.8304  2.1336
 6091SOL     OW29905   0.396   0.427   2.572 -0.6181 -0.0453 -0.4986
 6091SOL    HW129906   0.341   0.349   2.571  0.5159 -0.8500  1.8161
 6091SOL    HW229907   0.446   0.411   2.652 -2.6003 -1.0919  0.5330
 6092SOL     OW29908   3.285   0.571   3.640  0.5765 -0.2206 -0.1848
 6092SOL    HW129909   3.226   0.608   3.705  1.8037 -1.1785  1.4657
 6092SOL    HW229910   3.224   0.567   3.566  1.5327 -1.2344 -0.9111
 6093SOL     OW29911   1.572   4.022  17.607  0.0947  0.4011 -0.3712
 6093SOL    HW129912   1.648   4.001  17.553 -0.0568 -0.5203 -0.2278
 6093SOL    HW229913   1.606   4.020  17.697  2.0171 -1.3816 -1.1423
 6094SOL     OW29914   0.187   4.380   4.346  0.1618  0.0640 -0.4800
 6094SOL    HW129915   0.237   4.334   4.414  0.5638  2.1983  0.6826
 6094SOL    HW229916   0.109   4.419   4.386 -1.1366  0.7330 -3.6499
 6095SOL     OW29917   1.065   0.185   2.499  0.0625  0.6297 -0.0519
 6095SOL    HW129918   1.019   0.157   2.420 -1.3359 -0.4445  1.1416
 6095SOL    HW229919   1.032   0.275   2.500 -3.2521 -0.6069  2.3869
 6096SOL     OW29920   4.077   0.768   9.426  0.1160 -0.1537  0.0384
 6096SOL    HW129921   4.128   0.775   9.345 -0.7124 -0.1524 -0.4837
 6096SOL    HW229922   4.138   0.806   9.489  1.8286 -0.2128 -1.5804
 6097SOL     OW29923   1.065   2.583   4.396 -0.1283 -0.1040  0.0354
 6097SOL    HW129924   0.984   2.550   4.358  0.5217 -0.3014 -1.1744
 6097SOL    HW229925   1.129   2.573   4.325 -0.8549 -1.2560 -0.4638
 6098SOL     OW29926   1.459   1.720   3.285 -0.3027 -0.0447  0.2277
 6098SOL    HW129927   1.500   1.647   3.240  0.2051  0.9349 -0.8957
 6098SOL    HW229928   1.524   1.731   3.354  0.9680 -0.2368 -0.9565
 6099SOL     OW29929   2.895   3.472   4.366  0.3957  0.0511 -0.4755
 6099SOL    HW129930   2.968   3.416   4.392  0.3482  1.2501  2.2321
 6099SOL    HW229931   2.839   3.452   4.440  0.4713  0.0875 -0.4074
 6100SOL     OW29932   2.016   0.343   3.586  0.0186 -0.5389  0.6813
 6100SOL    HW129933   1.984   0.284   3.518 -0.7911 -0.0237  0.6119
 6100SOL    HW229934   2.108   0.353   3.561 -0.0188  0.5688  0.9765
 6101SOL     OW29935   3.417   1.769   7.267 -0.0184 -0.0548  0.3550
 6101SOL    HW129936   3.347   1.828   7.238  0.9350  1.2464  0.6854
 6101SOL    HW229937   3.484   1.830   7.297  0.9743 -1.1979  0.4365
 6102SOL     OW29938   2.019   2.803  10.808 -0.4661  0.1874 -0.1149
 6102SOL    HW129939   1.925   2.807  10.792 -0.9644 -0.5039  2.7603
 6102SOL    HW229940   2.048   2.782  10.719  1.2922 -0.7525  0.6824
 6103SOL     OW29941   1.518   0.400  10.868  0.0501 -0.2293 -0.3407
 6103SOL    HW129942   1.486   0.317  10.903  2.4916 -0.1415  2.0750
 6103SOL    HW229943   1.511   0.385  10.774  1.6055 -2.1478 -0.1413
 6104SOL     OW29944   2.321   2.480  13.363  0.4832 -0.4049  0.4869
 6104SOL    HW129945   2.380   2.553  13.385 -2.5986  2.5256 -1.0762
 6104SOL    HW229946   2.383   2.407  13.367  1.8678  0.7116 -0.5987
 6105SOL     OW29947   4.071   0.929  14.761  0.5290  0.4104 -0.3985
 6105SOL    HW129948   4.131   1.002  14.774  1.2451 -0.1938 -0.3461
 6105SOL    HW229949   3.995   0.987  14.762  1.1250  1.1975 -0.7517
 6106SOL     OW29950   0.422   3.588  14.026  0.0728 -0.0779  0.2541
 6106SOL    HW129951   0.354   3.531  13.990 -1.9382  1.6044  1.4062
 6106SOL    HW229952   0.481   3.516  14.046 -1.6926 -0.9993  2.0953
 6107SOL     OW29953   1.484   3.819   6.830  0.1603 -0.0452 -0.2589
 6107SOL    HW129954   1.437   3.833   6.913 -0.5818  0.8398 -0.8274
 6107SOL    HW229955   1.469   3.904   6.789 -0.6780 -0.0019  0.1318
 6108SOL     OW29956   2.053   3.199   6.632  0.1995 -0.4493  0.0292
 6108SOL    HW129957   2.066   3.168   6.542  1.3348 -0.9503  0.3600
 6108SOL    HW229958   2.128   3.152   6.669 -0.4224  0.3390  2.2810
 6109SOL     OW29959   3.246   2.752   1.771 -0.6522  0.7458  0.2435
 6109SOL    HW129960   3.208   2.717   1.851  0.5568 -1.6069 -0.1881
 6109SOL    HW229961   3.218   2.842   1.786  1.5724  1.4090  0.4186
 6110SOL     OW29962   2.588   3.926   4.545  0.2772  0.0754  0.1642
 6110SOL    HW129963   2.588   3.936   4.450 -3.0512  0.1857  0.1512
 6110SOL    HW229964   2.681   3.919   4.563  0.9305  1.2400 -2.7592
 6111SOL     OW29965   3.604   1.486   3.239 -0.0617  0.0285 -0.3127
 6111SOL    HW129966   3.592   1.427   3.164 -3.9893 -2.8568  2.5770
 6111SOL    HW229967   3.625   1.567   3.192 -1.1860  0.0171 -0.8436
 6112SOL     OW29968   2.632   3.905   7.066 -0.1315  0.2305  0.1829
 6112SOL    HW129969   2.571   3.833   7.085 -0.3667 -0.0168 -1.5591
 6112SOL    HW229970   2.574   3.958   7.013  0.0714 -0.8795 -1.1536
 6113SOL     OW29971   3.575   0.622  16.523 -0.1443 -0.3680  0.0713
 6113SOL    HW129972   3.521   0.543  16.533 -0.2185 -0.8534 -4.3677
 6113SOL    HW229973   3.659   0.590  16.490  1.3046  1.0528  2.3702
 6114SOL     OW29974   3.963   0.296  11.884  0.0867  0.8158 -0.2613
 6114SOL    HW129975   4.019   0.220  11.900  0.9148  1.9993  2.3823
 6114SOL    HW229976   3.905   0.262  11.816  0.9622 -3.6901  1.2509
 6115SOL     OW29977   1.616   2.301  15.027 -0.0853 -0.1839  0.2059
 6115SOL    HW129978   1.698   2.321  14.983 -0.4609  2.2595  0.6037
 6115SOL    HW229979   1.618   2.369  15.095  1.7935  0.9183 -0.9572
 6116SOL     OW29980   0.516   4.358  10.807  0.3904  0.0870 -0.2184
 6116SOL    HW129981   0.447   4.328  10.865  0.2977 -0.3069 -0.5321
 6116SOL    HW229982   0.492   4.450  10.798 -0.7581  0.0558  2.6931
 6117SOL     OW29983   2.842   1.790  11.469 -0.0987  0.2046 -0.3464
 6117SOL    HW129984   2.754   1.766  11.498  1.1416 -1.5853  1.8918
 6117SOL    HW229985   2.890   1.741  11.536 -2.2423  0.6933  1.5500
 6118SOL     OW29986   4.166   2.796   2.421 -0.0635  0.1474 -0.2349
 6118SOL    HW129987   4.121   2.769   2.501 -0.8041 -1.8829 -1.3114
 6118SOL    HW229988   4.255   2.805   2.453  0.4472 -1.2767 -1.2188
 6119SOL     OW29989   2.439   3.029   4.226 -0.2910  0.1357 -0.3719
 6119SOL    HW129990   2.398   3.103   4.272 -0.8260 -0.2296 -0.2552
 6119SOL    HW229991   2.406   2.962   4.286 -0.7869  0.0450 -0.7517
 6120SOL     OW29992   3.802   4.250   3.638  0.0105  0.4978  0.0853
 6120SOL    HW129993   3.775   4.330   3.682  0.3100  0.6308  0.0260
 6120SOL    HW229994   3.772   4.182   3.699  0.4693  0.3028  0.0894
 6121SOL     OW29995   2.224   3.624  11.255  0.0351  0.3357 -0.6024
 6121SOL    HW129996   2.267   3.553  11.303 -1.2092  0.0759  0.1319
 6121SOL    HW229997   2.209   3.599  11.164 -0.9035 -0.0420 -0.3437
 6122SOL     OW29998   3.218   4.396   3.080  0.1773 -0.5584 -0.5810
 6122SOL    HW129999   3.151   4.403   3.013  1.0646 -0.3582 -1.4433
 6122SOL    HW230000   3.289   4.346   3.039 -1.6659 -1.4171 -2.6926
 6123SOL     OW30001   2.062   0.406  10.775  0.4894  0.2641 -0.3141
 6123SOL    HW130002   2.126   0.370  10.837 -0.4883 -0.4764  0.2660
 6123SOL    HW230003   2.012   0.471  10.824 -0.3115 -0.0718 -0.6840
 6124SOL     OW30004   1.995   4.088   6.173  0.0458  0.4909 -0.1254
 6124SOL    HW130005   2.036   4.042   6.100  2.9508  2.0138  0.5260
 6124SOL    HW230006   1.961   4.013   6.221  0.9759 -1.1341 -2.0084
 6125SOL     OW30007   4.584   0.528  10.885 -0.2232  0.5882 -0.3612
 6125SOL    HW130008   4.546   0.442  10.871  0.4456  0.6581 -2.6218
 6125SOL    HW230009   4.512   0.573  10.930 -0.0253 -0.5044  1.0447
 6126SOL     OW30010   2.980   2.613   8.385 -0.5122 -1.0953 -0.4114
 6126SOL    HW130011   2.893   2.631   8.420  0.0615 -0.2018  0.5352
 6126SOL    HW230012   3.042   2.660   8.441 -0.4610 -2.9866  1.1390
 6127SOL     OW30013   3.665   0.186   5.597  0.1511  0.3645 -0.5253
 6127SOL    HW130014   3.753   0.220   5.583  0.2736 -0.6251 -2.1900
 6127SOL    HW230015   3.689   0.138   5.677  0.5083  0.2520 -0.7004
 6128SOL     OW30016   1.128   4.348   4.271 -0.2692  0.4860 -0.3774
 6128SOL    HW130017   1.205   4.393   4.306  0.5447 -3.0190  2.3067
 6128SOL    HW230018   1.125   4.402   4.192  2.6610  1.6787  0.3135
 6129SOL     OW30019   4.527   1.015   6.445 -0.0516  0.4017  0.4573
 6129SOL    HW130020   4.501   0.923   6.458 -1.9393  0.9871  0.7581
 6129SOL    HW230021   4.442   1.056   6.458 -0.3317 -0.2965  0.8562
 6130SOL     OW30022   4.504   2.537   5.729  0.6582 -0.4501  0.1621
 6130SOL    HW130023   4.476   2.445   5.723 -1.6007  0.1991  0.5850
 6130SOL    HW230024   4.594   2.530   5.759  0.4120  1.6260  1.3398
 6131SOL     OW30025   2.993   3.209   6.306 -1.1643  0.0435 -0.3042
 6131SOL    HW130026   3.036   3.277   6.359  1.4110 -0.8255 -1.2603
 6131SOL    HW230027   2.934   3.166   6.368 -3.0109  0.1706 -1.9926
 6132SOL     OW30028   3.337   0.573   9.002 -0.0935  0.1060  0.3393
 6132SOL    HW130029   3.397   0.648   9.009 -0.6303  0.3136  2.6306
 6132SOL    HW230030   3.259   0.598   9.052 -1.5814 -0.6286 -1.6072
 6133SOL     OW30031   1.933   1.362   7.833 -0.2413  0.0133  0.4578
 6133SOL    HW130032   1.968   1.332   7.917 -0.6577 -0.5507  0.4266
 6133SOL    HW230033   1.911   1.448   7.870  0.5026 -0.1699  1.3232
 6134SOL     OW30034   3.207   3.034   2.835  0.4962  0.1581 -0.5513
 6134SOL    HW130035   3.206   2.952   2.787  3.1490  0.0116 -0.3756
 6134SOL    HW230036   3.116   3.036   2.863  1.1783 -1.9456  1.7777
 6135SOL     OW30037   1.861   1.911   6.057 -0.1573 -0.2711  1.1610
 6135SOL    HW130038   1.910   1.830   6.045 -2.5227 -1.4514 -0.2554
 6135SOL    HW230039   1.855   1.927   5.963  1.5595 -2.1534  0.7234
 6136SOL     OW30040   0.717   4.509   8.838 -0.2702  0.1026 -0.0471
 6136SOL    HW130041   0.788   4.540   8.782  0.0458 -0.6349 -0.0646
 6136SOL    HW230042   0.688   4.585   8.887 -0.4185 -0.7311  1.1491
 6137SOL     OW30043   0.113   4.603   7.684  0.0576  0.2766 -0.1689
 6137SOL    HW130044   0.175   4.676   7.685 -1.6214  1.7144 -0.7908
 6137SOL    HW230045   0.124   4.564   7.771 -0.8987  0.9824  0.2729
 6138SOL     OW30046   4.058   4.189   2.214  0.7844 -0.0371  0.5673
 6138SOL    HW130047   4.067   4.197   2.119 -0.6011 -4.2361  0.0900
 6138SOL    HW230048   4.148   4.192   2.247  0.7344  0.9028  0.6437
 6139SOL     OW30049   3.967   2.442   7.124  0.3620 -0.1940  0.5219
 6139SOL    HW130050   3.876   2.461   7.145 -0.6835 -2.2299 -2.1103
 6139SOL    HW230051   4.013   2.520   7.155  2.6608 -2.0834  1.9074
 6140SOL     OW30052   3.919   1.163   2.116  0.2505 -0.1054 -0.4432
 6140SOL    HW130053   3.960   1.109   2.184 -1.0959 -0.5331  0.0214
 6140SOL    HW230054   3.940   1.109   2.040  0.5886  0.4310 -0.7314
 6141SOL     OW30055   2.154   4.304   8.228 -0.3695 -0.0658 -0.4406
 6141SOL    HW130056   2.234   4.265   8.264 -0.0986  1.9746  1.1977
 6141SOL    HW230057   2.204   4.360   8.167 -0.7117 -0.0503 -0.7021
 6142SOL     OW30058   4.145   2.578   0.528  0.1698 -0.1852 -0.0738
 6142SOL    HW130059   4.124   2.547   0.617  1.7710  0.9632  0.6903
 6142SOL    HW230060   4.078   2.531   0.478 -1.4872  0.1865  1.7920
 6143SOL     OW30061   2.643   1.086   5.376  0.5003 -0.2654 -0.3708
 6143SOL    HW130062   2.565   1.107   5.325  0.4160  1.9940  0.7148
 6143SOL    HW230063   2.605   1.041   5.451  1.2765  0.2126  0.3024
 6144SOL     OW30064   0.304   0.879  15.754  0.1688 -0.0374  0.0091
 6144SOL    HW130065   0.384   0.911  15.712 -0.4526  0.9715 -0.4046
 6144SOL    HW230066   0.255   0.959  15.773  1.3635  0.5785  0.4858
 6145SOL     OW30067   1.353   1.707  16.157 -0.1529  0.3642 -0.0454
 6145SOL    HW130068   1.375   1.702  16.064  0.6377 -0.2413  0.1702
 6145SOL    HW230069   1.385   1.625  16.196 -1.0025  1.1831  2.4011
 6146SOL     OW30070   3.861   4.647   6.121 -0.1607 -0.8213  0.5539
 6146SOL    HW130071   3.805   4.720   6.147  1.0116  0.8181 -1.5899
 6146SOL    HW230072   3.937   4.700   6.096  0.0231 -1.6792 -0.6909
 6147SOL     OW30073   3.666   2.764   1.108  0.2694  0.3091 -0.1552
 6147SOL    HW130074   3.754   2.769   1.147  0.6596 -0.1336 -0.9824
 6147SOL    HW230075   3.684   2.729   1.021  0.5902 -2.1795  0.8899
 6148SOL     OW30076   0.256   2.584  17.153  0.2004  0.3997  0.3389
 6148SOL    HW130077   0.266   2.679  17.147  1.7331  0.1561 -0.7933
 6148SOL    HW230078   0.239   2.579  17.247  0.7679  1.4967  0.4903
 6149SOL     OW30079   3.986   1.762   7.661  0.1737 -0.1735  0.0981
 6149SOL    HW130080   3.985   1.857   7.670 -2.6766 -0.0386 -1.5921
 6149SOL    HW230081   3.959   1.743   7.751  0.9697 -0.1131  0.3560
 6150SOL     OW30082   3.151   1.339   7.453 -0.3874  0.1959  0.2760
 6150SOL    HW130083   3.233   1.386   7.467  0.1312 -0.3140 -0.9948
 6150SOL    HW230084   3.110   1.410   7.404  1.4683  1.1948  0.1464
 6151SOL     OW30085   1.852   2.571   2.335 -0.5017  0.1160 -0.4417
 6151SOL    HW130086   1.795   2.640   2.369  1.6096  1.2118  0.9531
 6151SOL    HW230087   1.889   2.605   2.253  0.5256  0.0238 -0.0256
 6152SOL     OW30088   4.298   0.796   2.870 -0.2575 -0.1867  0.0780
 6152SOL    HW130089   4.218   0.761   2.910 -2.2141  2.5817 -1.4364
 6152SOL    HW230090   4.305   0.888   2.894  0.2486  0.5261 -2.8293
 6153SOL     OW30091   4.034   1.998  14.842 -0.0411 -0.0064 -0.5681
 6153SOL    HW130092   4.041   2.072  14.781 -0.4388 -0.5812 -1.3178
 6153SOL    HW230093   4.100   1.948  14.794 -0.1240  0.4363 -1.1517
 6154SOL     OW30094   2.397   4.544  12.367  0.1864 -0.0293 -0.3845
 6154SOL    HW130095   2.431   4.525  12.279  2.7457 -0.5955  0.7380
 6154SOL    HW230096   2.306   4.516  12.356 -0.1210  1.3924 -1.4380
 6155SOL     OW30097   1.160   3.815   9.055  0.6422  0.1876  0.6658
 6155SOL    HW130098   1.229   3.750   9.058 -0.1565 -0.6759  0.4121
 6155SOL    HW230099   1.105   3.781   9.125 -0.1495  0.7823  0.3468
 6156SOL     OW30100   4.296   0.123   2.074 -0.8405 -0.0512 -0.5352
 6156SOL    HW130101   4.343   0.205   2.058 -1.9273  0.9083  1.3130
 6156SOL    HW230102   4.225   0.142   2.013 -0.0551  2.0711 -0.7969
 6157SOL     OW30103   0.666   4.058   3.734 -0.1390  0.6624 -0.3380
 6157SOL    HW130104   0.646   3.991   3.799  0.4127 -0.9844 -1.8425
 6157SOL    HW230105   0.584   4.108   3.737  0.2996  1.4219 -0.7916
 6158SOL     OW30106   0.198   3.379   3.594  0.0102 -0.3891  0.0426
 6158SOL    HW130107   0.177   3.466   3.630 -0.3239 -0.8702  1.0229
 6158SOL    HW230108   0.292   3.399   3.596  0.0079 -0.3519 -0.2772
 6159SOL     OW30109   1.208   0.179   6.057  0.4719 -0.1372 -0.5295
 6159SOL    HW130110   1.239   0.092   6.032 -0.6510 -0.5394 -0.4932
 6159SOL    HW230111   1.143   0.187   5.988  1.7115  0.6987 -1.6091
 6160SOL     OW30112   3.160   4.310  16.852 -0.2939  0.6776  0.1555
 6160SOL    HW130113   3.118   4.248  16.793 -0.0869  2.3480 -1.7188
 6160SOL    HW230114   3.248   4.274  16.859  0.7330  3.2627  0.3240
 6161SOL     OW30115   2.124   4.380   6.077  0.2601  0.2249 -0.1879
 6161SOL    HW130116   2.069   4.330   6.137 -1.1465  1.1727 -0.7161
 6161SOL    HW230117   2.110   4.331   5.996  1.2846 -0.0571 -0.1970
 6162SOL     OW30118   1.030   4.315  17.103  0.1732  0.1766  0.2944
 6162SOL    HW130119   1.003   4.299  17.012 -1.8891 -1.9062  1.2878
 6162SOL    HW230120   1.122   4.297  17.088 -0.2469 -0.0454 -2.0013
 6163SOL     OW30121   0.395   2.462   0.118 -0.0826 -0.0916  0.4777
 6163SOL    HW130122   0.460   2.392   0.122 -1.0236 -1.0395 -0.7404
 6163SOL    HW230123   0.316   2.409   0.121 -1.5145  1.9707 -0.5125
 6164SOL     OW30124   2.484   3.427   3.608  0.1731 -0.0088 -0.4711
 6164SOL    HW130125   2.570   3.410   3.646  1.4073  0.4590 -3.0721
 6164SOL    HW230126   2.427   3.357   3.639 -0.2049  0.4088 -0.2285
 6165SOL     OW30127   1.673   3.432   3.547  0.5582  0.1444 -0.0949
 6165SOL    HW130128   1.641   3.512   3.505  2.6475  1.7123  1.3040
 6165SOL    HW230129   1.601   3.369   3.540  0.7417 -0.1050  0.2570
 6166SOL     OW30130   1.215   2.135   4.706  0.1066 -0.1715 -0.1925
 6166SOL    HW130131   1.290   2.114   4.763  0.0185 -1.6585 -0.6163
 6166SOL    HW230132   1.234   2.217   4.660  1.5418  0.6890  1.8887
 6167SOL     OW30133   3.306   3.854   1.960  0.1721  0.1321 -0.0916
 6167SOL    HW130134   3.343   3.897   1.883 -0.5611  1.0874  0.1000
 6167SOL    HW230135   3.335   3.913   2.029  0.2894  0.1996 -0.1981
 6168SOL     OW30136   1.863   3.173   5.552 -0.4347 -0.0144  0.5883
 6168SOL    HW130137   1.849   3.090   5.599  0.0136 -1.4723 -1.8224
 6168SOL    HW230138   1.789   3.173   5.491 -0.1089  2.9427  0.2068
 6169SOL     OW30139   2.746   2.207   8.927  0.2285 -0.4788  0.1083
 6169SOL    HW130140   2.657   2.229   8.956 -0.0332 -2.4146  0.7773
 6169SOL    HW230141   2.758   2.272   8.858 -1.9738  0.3965  0.5547
 6170SOL     OW30142   1.277   0.566  14.013  0.2098  0.7522  0.0997
 6170SOL    HW130143   1.254   0.601  14.099  0.8882  0.5248  0.3761
 6170SOL    HW230144   1.313   0.483  14.042 -0.2982  0.0995 -1.1511
 6171SOL     OW30145   4.226   0.979   6.177 -0.3275  0.4715 -0.2069
 6171SOL    HW130146   4.262   0.990   6.265 -0.6084 -1.8193  0.1959
 6171SOL    HW230147   4.302   0.983   6.119 -0.6142 -0.1774 -0.6215
 6172SOL     OW30148   0.530   3.442   5.017  0.7432 -0.3045 -0.1062
 6172SOL    HW130149   0.570   3.529   5.017  0.6934 -0.2805  1.1782
 6172SOL    HW230150   0.598   3.385   4.980  0.9612  0.5678 -1.0519
 6173SOL     OW30151   2.283   2.872  15.465 -0.3791  0.7665 -0.3146
 6173SOL    HW130152   2.199   2.871  15.420 -0.8259  1.7209  0.5062
 6173SOL    HW230153   2.335   2.919  15.400  1.0504 -0.8871 -0.3505
 6174SOL     OW30154   4.708   3.755   9.237  0.1273  0.1311  0.5728
 6174SOL    HW130155   4.662   3.730   9.157  1.0415 -2.2308  0.7917
 6174SOL    HW230156   4.713   3.673   9.287  0.2039  0.4313  1.0598
 6175SOL     OW30157   4.259   4.452   1.630 -0.5767  0.3356 -0.6791
 6175SOL    HW130158   4.166   4.474   1.640 -0.7978 -1.8790  2.0392
 6175SOL    HW230159   4.295   4.516   1.568 -0.6985  2.5698  1.5818
 6176SOL     OW30160   1.128   3.916  10.180 -0.1046 -0.6213  0.2963
 6176SOL    HW130161   1.142   3.963  10.261 -0.2511 -0.7548  0.3993
 6176SOL    HW230162   1.202   3.855  10.177 -0.2450 -0.8092  0.6702
 6177SOL     OW30163   2.264   3.988  14.865  0.8325 -0.7410  0.0357
 6177SOL    HW130164   2.262   3.913  14.924  2.2605 -2.5599 -2.2218
 6177SOL    HW230165   2.180   3.980  14.821  0.7466  1.2030 -0.1493
 6178SOL     OW30166   0.590   0.928   8.578 -0.0043  0.4725  0.7434
 6178SOL    HW130167   0.548   0.857   8.529  0.8494  1.6560 -1.6967
 6178SOL    HW230168   0.584   0.992   8.508 -0.9112  0.4849  0.8301
 6179SOL     OW30169   1.463   3.492   5.910 -0.3309 -0.6311 -0.3235
 6179SOL    HW130170   1.444   3.510   6.002  1.0042 -0.2940 -0.1290
 6179SOL    HW230171   1.373   3.463   5.889 -0.5015  0.8885 -1.6701
 6180SOL     OW30172   4.313   2.176   9.174  0.3516  0.6421 -0.0124
 6180SOL    HW130173   4.236   2.219   9.212  0.4236  3.8002 -3.4524
 6180SOL    HW230174   4.355   2.138   9.252  0.7267 -0.5271 -0.7787
 6181SOL     OW30175   3.629   3.685  13.518 -0.3410  0.5547 -0.0054
 6181SOL    HW130176   3.562   3.750  13.542 -1.9014 -0.9847 -0.2223
 6181SOL    HW230177   3.619   3.626  13.593 -0.4051 -0.2887 -0.6819
 6182SOL     OW30178   4.487   1.026   7.233  0.3060 -0.6479  0.2374
 6182SOL    HW130179   4.567   1.036   7.285 -0.3356  1.5015  0.8304
 6182SOL    HW230180   4.445   0.956   7.284  1.3882 -0.6862  1.0700
 6183SOL     OW30181   1.137   4.284   9.660 -0.4078  0.3892  0.0477
 6183SOL    HW130182   1.077   4.253   9.728 -0.5757  1.0599  0.2019
 6183SOL    HW230183   1.096   4.254   9.579  1.5103 -0.9182 -0.4255
 6184SOL     OW30184   0.378   3.000   2.400  0.2459 -0.0678  0.5155
 6184SOL    HW130185   0.328   3.079   2.382 -1.9894 -0.7216  3.8488
 6184SOL    HW230186   0.371   3.015   2.494 -2.0176 -0.3242  0.3879
 6185SOL     OW30187   2.903   4.163   6.906  0.4643 -0.1336  0.6471
 6185SOL    HW130188   2.991   4.149   6.873  1.2844  2.4171  1.7454
 6185SOL    HW230189   2.854   4.150   6.825  0.9313 -1.7593  0.6264
 6186SOL     OW30190   1.361   2.319   8.141 -1.0040  0.1866 -0.4331
 6186SOL    HW130191   1.334   2.407   8.167  1.9605  1.1545 -0.6849
 6186SOL    HW230192   1.295   2.264   8.185 -0.3631  1.2756  1.9155
 6187SOL     OW30193   2.328   4.060   7.769 -0.0434  0.0403 -0.2058
 6187SOL    HW130194   2.412   4.030   7.805  1.0416  0.2064 -2.5784
 6187SOL    HW230195   2.316   4.150   7.800  1.6349 -0.3494  1.5564
 6188SOL     OW30196   2.858   2.943  15.975 -0.8057 -0.1794 -0.0014
 6188SOL    HW130197   2.804   3.014  15.939  1.0818  1.6272  0.6865
 6188SOL    HW230198   2.908   2.928  15.895 -0.8217  1.7423 -0.3699
 6189SOL     OW30199   3.412   1.288   7.762 -0.3797  0.5313 -0.0430
 6189SOL    HW130200   3.412   1.338   7.680 -1.2336 -1.0959 -1.0288
 6189SOL    HW230201   3.505   1.273   7.775 -0.7437 -2.1290 -0.5856
 6190SOL     OW30202   3.461   1.806   8.433  0.2111  0.2229  0.7236
 6190SOL    HW130203   3.544   1.848   8.454 -0.4117  1.4940  0.6916
 6190SOL    HW230204   3.483   1.715   8.415  1.5607  0.7129 -0.1031
 6191SOL     OW30205   1.675   3.191   8.731  0.3581  0.0800  0.2397
 6191SOL    HW130206   1.659   3.195   8.825 -0.0878 -1.9362  0.2438
 6191SOL    HW230207   1.714   3.104   8.722  1.3963  0.3322  2.3616
 6192SOL     OW30208   3.329   0.648  12.582  0.4205  0.4688 -0.1019
 6192SOL    HW130209   3.247   0.607  12.610  1.1724  0.8001  2.5898
 6192SOL    HW230210   3.352   0.600  12.502 -1.9680 -1.4957  0.3933
 6193SOL     OW30211   4.318   2.944  17.493  0.2952  0.1942 -0.3860
 6193SOL    HW130212   4.377   2.887  17.443 -0.5462 -1.5306  0.5809
 6193SOL    HW230213   4.243   2.933  17.435  1.4670 -1.1957 -1.6610
 6194SOL     OW30214   2.882   0.185   4.840 -0.4572  0.3001  0.3030
 6194SOL    HW130215   2.863   0.210   4.931  2.8609  2.6310  0.3755
 6194SOL    HW230216   2.936   0.108   4.859  1.3902  0.7015 -3.3796
 6195SOL     OW30217   0.580   0.360   6.888 -0.2710 -0.3769  0.3432
 6195SOL    HW130218   0.491   0.325   6.888 -0.6953  0.7003  0.4036
 6195SOL    HW230219   0.597   0.349   6.795 -1.6258  1.0155 -0.0549
 6196SOL     OW30220   4.102   0.162  12.104 -0.0062  0.0058 -0.5116
 6196SOL    HW130221   4.062   0.208  12.178 -0.4913  0.5773 -1.1263
 6196SOL    HW230222   4.181   0.212  12.082  0.2483 -0.0753  0.2346
 6197SOL     OW30223   1.269   1.885   3.446 -0.4310 -0.0604  0.2308
 6197SOL    HW130224   1.317   1.819   3.396  1.4934  1.2430  0.3612
 6197SOL    HW230225   1.214   1.830   3.502  1.5060 -0.4472  1.7517
 6198SOL     OW30226   3.120   2.792   3.402  0.3864 -0.1066 -0.0468
 6198SOL    HW130227   3.190   2.748   3.449  1.3931 -0.9446 -2.3426
 6198SOL    HW230228   3.048   2.741   3.438  0.9687 -1.8189 -1.3193
 6199SOL     OW30229   3.581   1.978  17.504 -0.4075  0.2215  0.3704
 6199SOL    HW130230   3.662   1.942  17.541 -0.8726 -0.7939  0.3932
 6199SOL    HW230231   3.612   2.063  17.473 -2.2097  0.9177  0.4784
 6200SOL     OW30232   0.861   1.248   7.704 -0.0765 -0.4550  0.3801
 6200SOL    HW130233   0.941   1.208   7.672  0.3300  0.2025  0.5526
 6200SOL    HW230234   0.840   1.185   7.773 -1.7708 -0.3782 -0.0560
 6201SOL     OW30235   2.015   3.279   8.144 -0.7254  0.1479  0.3755
 6201SOL    HW130236   1.931   3.246   8.112 -0.1224 -1.1711  0.1476
 6201SOL    HW230237   1.987   3.345   8.208  0.5670  0.7989  0.2835
 6202SOL     OW30238   2.148   3.082   3.544 -0.1227  0.3005  0.3503
 6202SOL    HW130239   2.150   2.998   3.590 -0.2561  0.6917  1.0695
 6202SOL    HW230240   2.055   3.105   3.543 -0.3783 -0.8485 -1.0087
 6203SOL     OW30241   4.602   3.705   1.429 -0.7855  0.1562 -0.0222
 6203SOL    HW130242   4.669   3.773   1.434  1.1423 -1.7236 -0.0298
 6203SOL    HW230243   4.562   3.716   1.343 -3.7242  4.7678  1.9300
 6204SOL     OW30244   0.749   3.228   4.003  0.6338 -0.0269  0.0864
 6204SOL    HW130245   0.758   3.263   3.915  0.1146  0.5028  0.2464
 6204SOL    HW230246   0.803   3.292   4.048 -0.9836  0.7763  0.8899
 6205SOL     OW30247   2.919   2.188  12.014  0.5841 -0.1324  0.2326
 6205SOL    HW130248   3.011   2.161  12.007  0.2541 -1.2950  0.3603
 6205SOL    HW230249   2.900   2.209  11.922  1.5633  0.3632  0.1391
 6206SOL     OW30250   1.781   3.918   8.193 -0.2080 -0.3419 -0.5535
 6206SOL    HW130251   1.770   4.013   8.190  0.0744 -0.3452 -1.6427
 6206SOL    HW230252   1.710   3.885   8.138  0.8265  1.2353 -2.8133
 6207SOL     OW30253   0.824   2.720   3.592 -0.0854  0.8133 -0.6172
 6207SOL    HW130254   0.776   2.741   3.511  0.8328  2.1258 -0.8115
 6207SOL    HW230255   0.897   2.659   3.581 -2.2873 -1.6327 -1.8038
 6208SOL     OW30256   1.418   3.429   7.855 -0.3611 -0.2851  0.0717
 6208SOL    HW130257   1.487   3.367   7.831  0.2008  0.8999 -1.3546
 6208SOL    HW230258   1.445   3.517   7.830  1.2892 -0.8248 -0.0577
 6209SOL     OW30259   1.167   3.056  10.487  0.2988 -0.4642  0.3568
 6209SOL    HW130260   1.162   3.152  10.493  1.3141 -0.4098  0.2675
 6209SOL    HW230261   1.262   3.049  10.491  0.4129  0.0835 -1.2848
 6210SOL     OW30262   1.606   2.484  17.529 -0.4080  0.2922  0.1504
 6210SOL    HW130263   1.621   2.391  17.516 -1.4239  0.3980 -1.6943
 6210SOL    HW230264   1.646   2.490  17.616 -1.9459  0.9741  0.8110
 6211SOL     OW30265   2.343   2.681   1.810 -0.4787 -1.0796 -0.1385
 6211SOL    HW130266   2.419   2.627   1.791 -0.3309  0.3355 -3.4963
 6211SOL    HW230267   2.314   2.711   1.724  0.3727  0.0411 -0.0380
 6212SOL     OW30268   0.609   3.665   7.079 -0.5487  0.5291 -0.0440
 6212SOL    HW130269   0.675   3.733   7.092  2.5039 -2.5005  0.1922
 6212SOL    HW230270   0.581   3.643   7.167 -1.4450  0.8785 -0.2451
 6213SOL     OW30271   2.529   4.611   3.212  0.3291 -0.1670  0.3028
 6213SOL    HW130272   2.506   4.617   3.119 -0.1694  2.3519  0.5985
 6213SOL    HW230273   2.541   4.517   3.221 -0.1494 -0.2677 -0.1464
 6214SOL     OW30274   0.559   4.137   3.002 -0.2799 -0.1727  0.3577
 6214SOL    HW130275   0.618   4.070   3.038  0.5516  1.1833  1.5288
 6214SOL    HW230276   0.518   4.151   3.087  0.0103  2.6337  0.0577
 6215SOL     OW30277   0.509   3.762   8.172 -0.1477 -0.0121 -0.7227
 6215SOL    HW130278   0.445   3.706   8.217  1.8570 -1.8932 -0.2312
 6215SOL    HW230279   0.477   3.753   8.082 -0.1345 -1.1881 -0.6187
 6216SOL     OW30280   2.510   0.798  11.332 -0.4746  0.0403 -0.7599
 6216SOL    HW130281   2.419   0.774  11.314 -0.6076 -2.1014  2.8191
 6216SOL    HW230282   2.513   0.880  11.282 -0.4100  2.3756  3.1028
 6217SOL     OW30283   3.688   3.533  17.135 -0.1309 -0.0165 -0.2243
 6217SOL    HW130284   3.740   3.613  17.134 -1.5491  0.9063  1.2867
 6217SOL    HW230285   3.759   3.469  17.145  0.8236  0.9564 -0.8480
 6218SOL     OW30286   2.518   1.916   3.913  0.5578  0.1837 -0.3192
 6218SOL    HW130287   2.546   1.888   4.000  1.6138 -1.0667 -1.0620
 6218SOL    HW230288   2.591   1.972   3.886  0.6376  0.1946 -0.0724
 6219SOL     OW30289   3.308   1.998   7.146  0.0731 -0.4909  0.0474
 6219SOL    HW130290   3.394   1.964   7.120 -0.4111 -1.9759  0.3814
 6219SOL    HW230291   3.336   2.089   7.160  0.3029 -0.3423 -1.3854
 6220SOL     OW30292   4.524   2.419  17.045 -0.1099 -0.1772 -0.4387
 6220SOL    HW130293   4.536   2.434  17.139 -1.4899  0.0072 -0.3006
 6220SOL    HW230294   4.546   2.327  17.035  0.6753  0.0598 -0.8949
 6221SOL     OW30295   1.062   0.172   6.275 -0.7620 -0.5278  0.1894
 6221SOL    HW130296   1.030   0.262   6.281  1.1225  0.1347  0.2857
 6221SOL    HW230297   1.136   0.184   6.216 -1.8670  1.3222 -0.8411
 6222SOL     OW30298   1.942   4.019   4.666 -0.3792 -0.1699 -0.3602
 6222SOL    HW130299   1.897   4.030   4.582  0.5919 -0.8972 -0.9814
 6222SOL    HW230300   1.973   3.929   4.655 -0.1017 -0.2456  1.0712
 6223SOL     OW30301   4.326   3.010  13.962 -0.1160 -0.4096 -0.3910
 6223SOL    HW130302   4.332   3.074  14.033  1.6944 -0.3405 -0.6129
 6223SOL    HW230303   4.363   3.054  13.886  2.2178  0.4533  1.2654
 6224SOL     OW30304   4.710   1.505   3.605 -0.2055  0.2491 -0.2926
 6224SOL    HW130305   4.705   1.440   3.675 -1.0396  0.7103  0.0755
 6224SOL    HW230306   0.018   1.459   3.536 -0.2110  1.6410 -1.2291
 6225SOL     OW30307   3.146   1.549   8.781 -0.2543  0.0487  0.0232
 6225SOL    HW130308   3.208   1.597   8.726  2.0610 -2.2687  0.6135
 6225SOL    HW230309   3.205   1.495   8.834  0.0070 -0.2752 -0.6031
 6226SOL     OW30310   0.810   2.130   7.723 -0.4148 -0.2763  0.4364
 6226SOL    HW130311   0.776   2.041   7.721 -0.4234 -0.2774  0.6337
 6226SOL    HW230312   0.802   2.156   7.631 -1.3600 -0.9233  0.3394
 6227SOL     OW30313   0.787   2.439   7.332 -0.2080 -0.4185 -0.5202
 6227SOL    HW130314   0.858   2.471   7.388 -0.3851 -1.6407  0.4263
 6227SOL    HW230315   0.752   2.516   7.289 -0.5808 -0.6193 -0.5821
 6228SOL     OW30316   0.689   1.560  11.597  0.7039 -0.2945  0.0728
 6228SOL    HW130317   0.751   1.571  11.669  0.0126  3.2130  0.1493
 6228SOL    HW230318   0.649   1.647  11.604  1.4799 -0.0406  1.4204
 6229SOL     OW30319   2.489   1.286  11.251  0.2214 -0.0831  0.3365
 6229SOL    HW130320   2.478   1.376  11.280  1.7087 -0.0125  0.6937
 6229SOL    HW230321   2.583   1.292  11.232 -0.1392 -0.1718 -1.3866
 6230SOL     OW30322   0.563   0.950  15.604  0.9289  0.3591  0.0802
 6230SOL    HW130323   0.529   0.989  15.523 -0.9512 -0.4918  0.4519
 6230SOL    HW230324   0.634   0.897  15.567  1.6081  0.4432  1.2908
 6231SOL     OW30325   2.948   4.550  14.179 -0.1874 -0.0127  0.5747
 6231SOL    HW130326   2.862   4.525  14.211 -0.4707 -0.1483 -0.2817
 6231SOL    HW230327   2.949   4.643  14.204  1.6376 -0.6075  2.6191
 6232SOL     OW30328   1.858   2.145   4.927  0.1496 -0.4417 -0.1393
 6232SOL    HW130329   1.839   2.098   5.009 -0.7117  2.6003  1.3804
 6232SOL    HW230330   1.874   2.235   4.956  3.0954 -1.3970  1.2362
 6233SOL     OW30331   0.982   1.160   8.628  0.3309 -0.6559 -0.1150
 6233SOL    HW130332   1.077   1.169   8.624  0.4476 -2.0221 -0.5808
 6233SOL    HW230333   0.980   1.144   8.722 -1.5382  0.9751  0.1158
 6234SOL     OW30334   3.984   3.142   4.964  0.6912 -0.2576  0.2811
 6234SOL    HW130335   3.902   3.127   5.012  1.8554 -0.4204  2.2177
 6234SOL    HW230336   4.053   3.113   5.024  2.6149 -0.2566 -1.9475
 6235SOL     OW30337   4.671   4.448  10.401 -1.1243  0.0666 -0.2349
 6235SOL    HW130338   4.615   4.524  10.386 -2.1264 -0.3803  1.2103
 6235SOL    HW230339   0.002   4.501  10.439 -1.6137  1.8643 -1.8663
 6236SOL     OW30340   3.234   3.083   5.868 -0.6576 -0.1035  0.3809
 6236SOL    HW130341   3.210   3.175   5.871  0.5961  0.3308 -2.4477
 6236SOL    HW230342   3.158   3.035   5.901 -1.4309 -2.0901 -4.2961
 6237SOL     OW30343   3.304   4.276   6.872  0.1052 -0.6980  0.8590
 6237SOL    HW130344   3.376   4.244   6.818 -1.0799  0.5578 -1.4688
 6237SOL    HW230345   3.239   4.214   6.839 -0.8752  0.1924  1.1262
 6238SOL     OW30346   2.941   0.566  12.062  0.3861  0.2221 -0.1503
 6238SOL    HW130347   2.855   0.552  12.023 -0.5630  1.5769  1.4442
 6238SOL    HW230348   2.927   0.626  12.136  2.6542 -0.6384  0.9799
 6239SOL     OW30349   3.673   0.432   7.168 -0.4964  0.2280  0.0977
 6239SOL    HW130350   3.617   0.475   7.233  0.3245  0.7806  0.4380
 6239SOL    HW230351   3.649   0.339   7.173  0.1248  0.1519  1.7542
 6240SOL     OW30352   4.404   3.206   9.564 -0.3178  0.7904  0.0694
 6240SOL    HW130353   4.335   3.224   9.500 -0.4448 -0.8662 -0.2593
 6240SOL    HW230354   4.374   3.122   9.598  0.5302  0.3599 -0.2442
 6241SOL     OW30355   1.153   0.416   4.686  0.1853  0.0443  0.8614
 6241SOL    HW130356   1.105   0.494   4.714 -0.0769  0.0969  0.2635
 6241SOL    HW230357   1.198   0.393   4.768  1.5349  1.1845  0.4428
 6242SOL     OW30358   2.634   1.405   6.562  0.2629  0.4788 -0.0973
 6242SOL    HW130359   2.566   1.388   6.628  0.3527 -0.3283 -0.2119
 6242SOL    HW230360   2.577   1.449   6.499 -0.8808 -1.9519 -0.7571
 6243SOL     OW30361   1.157   0.482   5.969  0.9311 -0.3365 -0.6557
 6243SOL    HW130362   1.206   0.516   5.894 -1.6506  0.4847 -1.9412
 6243SOL    HW230363   1.233   0.478   6.028 -0.3920  1.7669  1.1860
 6244SOL     OW30364   3.659   2.442   2.036  1.0975  1.0814  0.0313
 6244SOL    HW130365   3.721   2.460   1.965  0.0985  1.7816 -0.6768
 6244SOL    HW230366   3.667   2.347   2.031  2.4050  1.1446  1.0445
 6245SOL     OW30367   2.280   2.068   6.026 -0.2173 -0.0528 -0.2239
 6245SOL    HW130368   2.290   1.985   5.979  1.2071 -0.0198  0.0081
 6245SOL    HW230369   2.360   2.057   6.078 -1.3691 -0.6444  1.3873
 6246SOL     OW30370   3.762   3.251   0.199 -0.7429 -0.4823  0.2706
 6246SOL    HW130371   3.823   3.313   0.239 -1.8411  0.2625  0.7771
 6246SOL    HW230372   3.786   3.256   0.107 -2.7298  0.3329 -0.2019
 6247SOL     OW30373   0.726   3.714   9.107  0.3277  0.2627 -0.0514
 6247SOL    HW130374   0.798   3.727   9.169  0.2298 -2.7286  0.6913
 6247SOL    HW230375   0.664   3.676   9.170 -2.0297  1.9287 -1.3754
 6248SOL     OW30376   0.526   4.468   5.139  0.1277 -0.6254  0.3065
 6248SOL    HW130377   0.482   4.532   5.083 -0.3805 -0.1245  1.2603
 6248SOL    HW230378   0.614   4.502   5.156 -0.4049  0.3014  1.2746
 6249SOL     OW30379   1.644   1.750   5.485 -0.2139  0.8596 -0.1638
 6249SOL    HW130380   1.640   1.658   5.461  0.4658  0.5706  0.8106
 6249SOL    HW230381   1.577   1.787   5.427 -0.1912  1.1251 -0.0218
 6250SOL     OW30382   4.110   0.029   6.091 -0.0218  0.1479 -0.2294
 6250SOL    HW130383   4.105   0.029   6.187  0.2001  0.9571 -0.2140
 6250SOL    HW230384   4.188   4.714   6.086 -1.6904 -2.0980 -2.5135
 6251SOL     OW30385   1.296   0.109   3.181  1.0032 -0.1271  0.5319
 6251SOL    HW130386   1.232   0.038   3.180  1.8152 -0.8185 -2.0074
 6251SOL    HW230387   1.234   0.178   3.158  1.3651  0.3801  1.0846
 6252SOL     OW30388   2.442   0.785   6.520 -0.2315 -0.2465  0.0240
 6252SOL    HW130389   2.358   0.800   6.477 -1.1682  1.5194  2.4663
 6252SOL    HW230390   2.514   0.803   6.459 -0.8243  3.8942  0.5570
 6253SOL     OW30391   2.136   3.925  10.543  0.0963  0.0926 -0.0620
 6253SOL    HW130392   2.191   3.929  10.465  1.5410 -1.2050  0.9188
 6253SOL    HW230393   2.200   3.908  10.611  0.2874 -2.0744 -0.7968
 6254SOL     OW30394   3.131   0.756   8.182  0.2018 -0.4075  0.3810
 6254SOL    HW130395   3.179   0.813   8.122 -0.5264 -2.1932 -1.8969
 6254SOL    HW230396   3.090   0.705   8.112 -0.4637  0.9489 -0.2160
 6255SOL     OW30397   3.215   0.149   8.568  0.0614  0.1877 -0.0604
 6255SOL    HW130398   3.209   0.182   8.657  0.7073  0.1067  0.0172
 6255SOL    HW230399   3.270   0.073   8.586 -0.4011 -0.2979 -0.6748
 6256SOL     OW30400   3.239   4.143   4.722 -0.3354 -0.0938 -0.0657
 6256SOL    HW130401   3.276   4.176   4.803 -3.3530 -0.2863  1.3970
 6256SOL    HW230402   3.173   4.085   4.761  0.3173 -1.8279 -1.5374
 6257SOL     OW30403   2.870   2.875   8.050  0.3000  0.3736 -0.1465
 6257SOL    HW130404   2.821   2.795   8.067 -1.0134  1.3218  0.5200
 6257SOL    HW230405   2.826   2.938   8.107 -0.9596  1.1612 -1.9598
 6258SOL     OW30406   0.337   0.434   7.039  0.0420  0.1438 -0.0788
 6258SOL    HW130407   0.330   0.520   6.997  0.7801  0.1970 -0.0979
 6258SOL    HW230408   0.403   0.448   7.106  1.4471 -0.1494 -1.3978
 6259SOL     OW30409   4.497   1.968  15.388  0.6755 -0.7798 -0.1720
 6259SOL    HW130410   4.512   1.897  15.450  0.2237  0.6093  1.5212
 6259SOL    HW230411   4.542   1.934  15.310  0.5102 -0.8633 -0.2309
 6260SOL     OW30412   4.243   2.140   6.061 -0.1527  0.0370 -0.5225
 6260SOL    HW130413   4.208   2.216   6.014  0.2996  0.5636  0.0118
 6260SOL    HW230414   4.172   2.134   6.125  0.7163  0.6389  0.4934
 6261SOL     OW30415   0.891   0.344  15.074 -0.1593  0.3882 -0.0544
 6261SOL    HW130416   0.825   0.388  15.020  0.6903 -0.2471 -1.6066
 6261SOL    HW230417   0.953   0.320  15.004  0.4257 -2.9862  1.6186
 6262SOL     OW30418   4.614   3.302   4.807 -0.2399  0.1333 -0.2113
 6262SOL    HW130419   4.708   3.298   4.821 -0.4490 -4.9540 -0.3442
 6262SOL    HW230420   4.599   3.210   4.787 -0.4230  0.0973  0.0834
 6263SOL     OW30421   1.887   1.572  12.533  0.0529 -0.2030 -0.5641
 6263SOL    HW130422   1.892   1.481  12.562  2.3199 -0.5326 -1.9753
 6263SOL    HW230423   1.811   1.597  12.586 -1.0612 -0.5896 -1.9536
 6264SOL     OW30424   2.962   2.310   2.997  0.1724  0.2412 -0.1552
 6264SOL    HW130425   2.960   2.398   3.035  2.1250 -0.1837  0.9523
 6264SOL    HW230426   2.981   2.339   2.908 -0.8135  1.4210  0.0261
 6265SOL     OW30427   3.396   1.527   7.129 -0.8799 -0.3375 -0.0477
 6265SOL    HW130428   3.423   1.590   7.195  0.8279 -0.8143 -0.3060
 6265SOL    HW230429   3.405   1.579   7.049 -2.4894  0.9281  0.5995
 6266SOL     OW30430   2.616   0.683   7.480  0.5289  0.0421  0.1687
 6266SOL    HW130431   2.706   0.700   7.507  0.7950 -0.6509 -0.2815
 6266SOL    HW230432   2.568   0.713   7.558 -0.4170  0.7163 -0.6682
 6267SOL     OW30433   3.953   3.526   3.123  0.6355 -0.1902 -0.4103
 6267SOL    HW130434   3.879   3.469   3.140  1.0810 -0.8188 -0.5662
 6267SOL    HW230435   3.997   3.507   3.205 -0.5261 -1.1683 -0.0165
 6268SOL     OW30436   1.225   1.267   8.572  0.3547 -0.7087  0.1594
 6268SOL    HW130437   1.267   1.347   8.604  2.2383 -1.9280  0.7146
 6268SOL    HW230438   1.288   1.199   8.597  1.3469 -0.0004 -0.4207
 6269SOL     OW30439   0.632   0.747   5.428 -0.3820 -0.1186  0.1101
 6269SOL    HW130440   0.624   0.778   5.518  1.8423  1.6801 -0.2943
 6269SOL    HW230441   0.725   0.729   5.432 -0.2968  0.2605 -0.1010
 6270SOL     OW30442   0.131   1.609   6.258 -0.3470 -0.8235 -1.0321
 6270SOL    HW130443   0.178   1.567   6.330 -0.9385 -2.3258 -1.5266
 6270SOL    HW230444   0.210   1.644   6.216 -0.7704  0.3743 -0.8375
 6271SOL     OW30445   0.991   1.212   6.737  0.9659 -0.2690  0.4604
 6271SOL    HW130446   0.996   1.133   6.791  3.4518 -0.6786 -0.4140
 6271SOL    HW230447   0.951   1.175   6.658  1.0754  1.4009 -0.3656
 6272SOL     OW30448   2.675   1.636   2.162 -0.1646 -0.5717  0.4124
 6272SOL    HW130449   2.616   1.564   2.140  0.7793 -0.9586 -0.8635
 6272SOL    HW230450   2.608   1.696   2.196  0.7046  0.5561  0.1433
 6273SOL     OW30451   0.595   3.927   7.835  0.7644  0.3080  0.1197
 6273SOL    HW130452   0.650   3.864   7.789  0.5473  0.6234 -0.5725
 6273SOL    HW230453   0.535   3.865   7.877  3.0264 -1.3930  0.8782
 6274SOL     OW30454   0.893   0.443   8.476 -0.0740 -0.2767  0.5240
 6274SOL    HW130455   0.891   0.537   8.494 -1.5318 -0.3630  0.7933
 6274SOL    HW230456   0.805   0.419   8.446 -0.0708 -0.7119  0.8630
 6275SOL     OW30457   2.186   0.823  10.537 -0.1347  0.5747  0.3053
 6275SOL    HW130458   2.211   0.731  10.546  1.5347  0.7865 -2.1606
 6275SOL    HW230459   2.092   0.812  10.528  0.2755 -0.1699 -2.9745
 6276SOL     OW30460   4.608   3.869   3.958 -0.3585  0.6570  0.5433
 6276SOL    HW130461   4.616   3.957   3.995  0.3122 -0.4765  3.1217
 6276SOL    HW230462   4.576   3.891   3.870 -0.5404 -1.1421  0.1693
 6277SOL     OW30463   3.607   1.585  14.284 -0.0496 -0.1891  0.0104
 6277SOL    HW130464   3.631   1.577  14.376 -0.1318  0.8091  0.1179
 6277SOL    HW230465   3.685   1.611  14.236  0.0779 -1.1759 -0.3271
 6278SOL     OW30466   0.042   1.375   8.118 -0.1547 -0.3447 -0.5312
 6278SOL    HW130467   0.027   1.346   8.208  0.9187  2.7723  0.6541
 6278SOL    HW230468   4.721   1.329   8.060  2.4234 -2.4496 -1.5118
 6279SOL     OW30469   4.075   2.484   1.786 -0.8052 -0.3700 -0.4015
 6279SOL    HW130470   3.991   2.439   1.797 -0.3871 -0.5692  1.8532
 6279SOL    HW230471   4.077   2.551   1.854 -0.3585 -0.9971  0.2046
 6280SOL     OW30472   2.968   0.694   7.966  0.0484 -0.2998  0.5002
 6280SOL    HW130473   2.886   0.649   7.944  0.5799 -0.8950 -0.2911
 6280SOL    HW230474   3.029   0.670   7.896  0.7366  0.4725  0.8382
 6281SOL     OW30475   0.922   3.036   7.284 -0.2073 -0.0980  0.5702
 6281SOL    HW130476   0.907   2.952   7.241 -1.5421  0.1814  0.4865
 6281SOL    HW230477   1.001   3.021   7.337 -0.6467  2.9804  2.1123
 6282SOL     OW30478   3.636   3.742  14.531  0.1720 -0.3713  0.5845
 6282SOL    HW130479   3.719   3.706  14.563  0.1614 -0.4055  0.5726
 6282SOL    HW230480   3.568   3.690  14.571 -1.3360  0.3605 -1.0105
 6283SOL     OW30481   2.555   4.020  12.527  0.1769  0.1950 -0.1826
 6283SOL    HW130482   2.569   3.936  12.484  0.5364 -0.9440  2.1316
 6283SOL    HW230483   2.606   4.013  12.608  0.1257  0.5975 -0.1114
 6284SOL     OW30484   2.222   1.688   6.205 -0.0360 -0.0042 -0.2616
 6284SOL    HW130485   2.263   1.759   6.254 -1.0695  0.7978 -0.5760
 6284SOL    HW230486   2.183   1.640   6.278 -0.7262  1.5401  0.3760
 6285SOL     OW30487   3.675   4.412   9.789 -0.2358  0.0508 -0.9730
 6285SOL    HW130488   3.744   4.352   9.764  1.0150  0.6268  1.0435
 6285SOL    HW230489   3.630   4.371   9.863  0.7541  2.3404  0.9313
 6286SOL     OW30490   2.916   1.060   5.685 -0.1288 -0.2318 -0.2658
 6286SOL    HW130491   2.834   1.010   5.680 -0.3787 -0.0390  1.8981
 6286SOL    HW230492   2.982   0.993   5.700 -1.4141 -2.2544 -3.5650
 6287SOL     OW30493   1.627   1.628   6.603 -0.2058 -0.4018  0.0455
 6287SOL    HW130494   1.578   1.700   6.643  0.8043 -1.1455  2.5948
 6287SOL    HW230495   1.569   1.559   6.634 -0.1284  0.3769  1.8818
 6288SOL     OW30496   0.750   2.263   5.206 -0.4234 -0.3907 -0.2096
 6288SOL    HW130497   0.728   2.207   5.132 -2.2640  0.1069 -0.0455
 6288SOL    HW230498   0.822   2.220   5.252  0.9316  1.7338 -0.3493
 6289SOL     OW30499   1.747   2.424   5.260 -0.0069  0.6133  0.3519
 6289SOL    HW130500   1.691   2.497   5.234  0.6631  1.2285  0.6720
 6289SOL    HW230501   1.788   2.443   5.344 -3.5481 -1.0589  2.4690
 6290SOL     OW30502   1.565   1.539   1.468 -0.3708  0.2666 -0.3568
 6290SOL    HW130503   1.539   1.526   1.559 -2.3454 -1.2505 -1.1240
 6290SOL    HW230504   1.620   1.462   1.457  0.0666  0.4002  0.8916
 6291SOL     OW30505   4.602   2.698   5.024 -0.5433  0.6915 -0.1417
 6291SOL    HW130506   4.616   2.693   4.929  3.3082 -0.9191  0.5152
 6291SOL    HW230507   4.630   2.611   5.052  1.1982  0.7000 -1.8739
 6292SOL     OW30508   4.146   3.019   7.115  0.1927  0.3637  0.5192
 6292SOL    HW130509   4.170   3.037   7.024  2.8513  0.1793  1.1692
 6292SOL    HW230510   4.113   3.105   7.141  1.4910  0.7250  0.9911
 6293SOL     OW30511   1.083   1.158   9.482 -0.2454  0.2337 -0.8298
 6293SOL    HW130512   1.071   1.250   9.507  2.1452  0.2964  0.0976
 6293SOL    HW230513   1.168   1.139   9.522  0.1107  1.9573 -0.7421
 6294SOL     OW30514   2.764   2.397  14.977 -0.9233  0.0838  0.2379
 6294SOL    HW130515   2.857   2.383  14.963 -0.9916  0.9626 -1.0821
 6294SOL    HW230516   2.753   2.474  14.922  3.5579  1.1014  0.7372
 6295SOL     OW30517   1.777   3.953  17.429 -0.4557 -0.3579  0.0614
 6295SOL    HW130518   1.737   4.025  17.379  1.2915  0.9091  0.4755
 6295SOL    HW230519   1.815   3.903  17.358 -1.4650 -0.2958 -0.5267
 6296SOL     OW30520   2.624   2.618   7.926 -0.0316 -0.3767 -0.0762
 6296SOL    HW130521   2.576   2.536   7.927  0.2294 -0.5424 -1.7900
 6296SOL    HW230522   2.684   2.607   8.000  0.0666 -0.2129 -0.1307
 6297SOL     OW30523   1.790   3.315  11.420  0.7414 -0.0285  0.5046
 6297SOL    HW130524   1.778   3.222  11.438 -1.7948 -0.0899 -1.5285
 6297SOL    HW230525   1.876   3.316  11.379  0.9115 -1.6338  0.8568
 6298SOL     OW30526   3.122   1.188   9.073  0.1665 -0.1497  0.7277
 6298SOL    HW130527   3.180   1.113   9.061  0.4948  0.4445 -1.3790
 6298SOL    HW230528   3.085   1.159   9.156 -3.5220 -4.0556 -2.2890
 6299SOL     OW30529   4.582   3.862   4.344  0.3214 -0.3251 -0.0710
 6299SOL    HW130530   4.662   3.911   4.363  0.9077 -0.9928 -0.8340
 6299SOL    HW230531   4.534   3.928   4.293  0.4214  2.1234  3.0189
 6300SOL     OW30532   1.729   1.297   6.986 -0.8320  0.6139 -0.1347
 6300SOL    HW130533   1.780   1.218   7.004 -1.6783  0.1386  0.2252
 6300SOL    HW230534   1.692   1.277   6.899  1.2668 -2.9462 -0.1996
 6301SOL     OW30535   4.001   4.220  11.055 -0.4505  0.2840 -0.2342
 6301SOL    HW130536   4.020   4.211  10.962 -0.3437 -1.0524 -0.0934
 6301SOL    HW230537   3.920   4.269  11.042 -0.7944  0.6052  2.9943
 6302SOL     OW30538   0.029   1.043  13.035 -0.1773 -0.0961  0.3578
 6302SOL    HW130539   0.124   1.051  13.044 -0.0957  0.7339 -1.1135
 6302SOL    HW230540   0.028   1.020  12.942 -2.5823  0.4209  0.2696
 6303SOL     OW30541   3.703   0.619   7.807  0.2512  0.3729 -0.2637
 6303SOL    HW130542   3.732   0.528   7.812 -0.7814 -0.0337 -1.7689
 6303SOL    HW230543   3.702   0.641   7.714  0.3998 -0.7184 -0.5142
 6304SOL     OW30544   3.960   0.995   6.170 -0.1003  0.3214 -1.0656
 6304SOL    HW130545   4.054   0.978   6.161  0.5192  2.7375  1.0266
 6304SOL    HW230546   3.930   0.991   6.079 -0.8365 -0.6699 -0.7860
 6305SOL     OW30547   2.578   3.598   2.209  0.1515  0.9183  0.0793
 6305SOL    HW130548   2.533   3.560   2.133  3.1960 -2.1385 -0.2017
 6305SOL    HW230549   2.608   3.522   2.260 -1.8540  1.6423  2.3107
 6306SOL     OW30550   3.043   0.788   1.623 -0.5110  0.0561  0.2604
 6306SOL    HW130551   2.976   0.775   1.555  1.8818 -0.9391 -1.9226
 6306SOL    HW230552   3.032   0.712   1.681 -0.5675  0.9905  1.4709
 6307SOL     OW30553   1.654   1.938   5.170  0.1969  0.4053  0.2151
 6307SOL    HW130554   1.577   1.989   5.145  0.0323  0.1123  0.1268
 6307SOL    HW230555   1.722   2.002   5.193 -0.7627  1.8741 -1.0561
 6308SOL     OW30556   4.293   0.984  12.075  0.1588 -0.0219 -0.0950
 6308SOL    HW130557   4.349   0.987  12.153  0.1938  0.5987 -0.1423
 6308SOL    HW230558   4.250   1.069  12.078  1.7910  0.8385 -0.8831
 6309SOL     OW30559   1.290   0.247   1.721 -0.0288  0.2562 -0.1103
 6309SOL    HW130560   1.203   0.263   1.684  0.1086  1.0883 -0.0742
 6309SOL    HW230561   1.284   0.158   1.756  0.2262  0.1866 -0.2505
 6310SOL     OW30562   1.691   1.380   8.855 -0.2015 -0.3384 -0.4096
 6310SOL    HW130563   1.695   1.302   8.911  0.4530  0.4782  0.6751
 6310SOL    HW230564   1.622   1.431   8.898 -0.7063 -0.9624 -0.4734
 6311SOL     OW30565   4.177   4.332   6.302 -0.4255 -0.1687  0.4033
 6311SOL    HW130566   4.238   4.268   6.267 -0.3249  1.4526 -2.4068
 6311SOL    HW230567   4.190   4.321   6.396 -0.8050 -0.5186  0.4174
 6312SOL     OW30568   0.324   2.795   2.788 -0.1018  0.4448  0.4931
 6312SOL    HW130569   0.316   2.879   2.743 -2.2093  1.2979  2.4962
 6312SOL    HW230570   0.419   2.790   2.802 -0.3813  0.4054  2.3268
 6313SOL     OW30571   1.020   0.382  16.601 -0.1347 -0.2181  0.3579
 6313SOL    HW130572   1.113   0.365  16.618  0.0119 -0.2574 -0.4783
 6313SOL    HW230573   0.976   0.297  16.607  1.1536 -0.8495  0.9138
 6314SOL     OW30574   4.732   4.240  11.449 -0.4590 -0.5774 -0.2049
 6314SOL    HW130575   4.656   4.277  11.493 -1.0456 -0.3116 -1.4217
 6314SOL    HW230576   4.714   4.147  11.463  0.4588 -0.9210 -1.2689
 6315SOL     OW30577   2.165   0.711   6.163  0.0939  0.3101 -0.0236
 6315SOL    HW130578   2.174   0.617   6.144  1.7048  0.2006  1.3209
 6315SOL    HW230579   2.249   0.754   6.150  0.5773 -0.3714  0.8190
 6316SOL     OW30580   3.656   1.528   8.116  0.6703 -0.2914 -0.0584
 6316SOL    HW130581   3.735   1.484   8.086  0.9155 -1.1236  1.8152
 6316SOL    HW230582   3.644   1.588   8.042  0.3485  0.1921  0.3845
 6317SOL     OW30583   2.978   0.619   1.838  0.6977 -0.3772 -0.5722
 6317SOL    HW130584   3.033   0.541   1.838 -1.6075 -2.0000 -0.5893
 6317SOL    HW230585   2.891   0.580   1.831 -0.2719  1.2717  2.1732
 6318SOL     OW30586   4.005   1.821   9.598  0.0748  0.1206 -0.4324
 6318SOL    HW130587   4.022   1.733   9.632 -3.2054 -0.2491  0.2690
 6318SOL    HW230588   3.937   1.800   9.534  0.2717  1.6423 -1.1401
 6319SOL     OW30589   3.077   3.083  10.067  0.5685 -0.4854 -0.1783
 6319SOL    HW130590   3.068   3.173  10.100  0.5838 -0.9241  1.0395
 6319SOL    HW230591   3.002   3.039  10.107 -0.2131 -1.0862 -2.3595
 6320SOL     OW30592   3.918   4.442   6.338 -0.2312  0.2606  0.5487
 6320SOL    HW130593   3.990   4.383   6.312 -0.6659  0.7992 -1.8534
 6320SOL    HW230594   3.908   4.500   6.263 -1.1031 -0.7353 -0.1007
 6321SOL     OW30595   4.051   2.394   8.589  0.5515  0.5610  0.1359
 6321SOL    HW130596   4.022   2.343   8.665  2.8332  0.5462  0.9936
 6321SOL    HW230597   3.986   2.373   8.522  0.3680 -1.1394  0.8479
 6322SOL     OW30598   3.950   4.177   4.119  0.3466  0.1417 -0.3584
 6322SOL    HW130599   3.857   4.152   4.118  0.4514 -0.2991  1.1262
 6322SOL    HW230600   3.940   4.242   4.188 -0.1644 -0.1326 -0.1692
 6323SOL     OW30601   4.172   1.082   6.731 -0.3464  0.0732  0.4450
 6323SOL    HW130602   4.229   1.065   6.806  0.4656  1.1929  0.0761
 6323SOL    HW230603   4.124   1.153   6.772  0.1384  0.3972  0.4459
 6324SOL     OW30604   0.071   3.027   9.577 -0.2101  0.8429  0.9084
 6324SOL    HW130605   0.160   3.046   9.549  0.2979 -1.6058  0.8176
 6324SOL    HW230606   0.035   2.949   9.534 -1.6768  1.2360  1.3992
 6325SOL     OW30607   2.395   3.762  11.880  0.2125 -0.4794  0.1370
 6325SOL    HW130608   2.334   3.739  11.810  1.0685  0.3709 -0.8715
 6325SOL    HW230609   2.417   3.853  11.859 -0.5708 -0.0747  1.0802
 6326SOL     OW30610   0.392   4.620   1.901 -0.2248  0.3243 -0.2217
 6326SOL    HW130611   0.463   4.598   1.841  1.7067 -0.2739  2.3135
 6326SOL    HW230612   0.363   4.532   1.927  0.4017  0.7736  2.0067
 6327SOL     OW30613   1.039   4.381   9.215  0.9800 -0.6976  0.3278
 6327SOL    HW130614   1.074   4.294   9.199  0.0388 -0.7111 -1.7050
 6327SOL    HW230615   1.015   4.402   9.124  1.6935  2.0295  0.7540
 6328SOL     OW30616   0.876   3.742   4.084 -0.4465  0.0741  0.0321
 6328SOL    HW130617   0.900   3.833   4.100  0.2218  0.1139 -1.2067
 6328SOL    HW230618   0.801   3.741   4.144  0.4946  2.4495  1.2606
 6329SOL     OW30619   2.276   4.354   9.361  0.2539  0.0682  0.0215
 6329SOL    HW130620   2.266   4.434   9.412 -0.4219  0.0144 -0.0204
 6329SOL    HW230621   2.365   4.359   9.327  0.3302 -0.4214  0.1554
 6330SOL     OW30622   0.116   2.779   0.271 -1.3064  0.4522 -0.5962
 6330SOL    HW130623   0.021   2.790   0.266 -1.3261  0.9530  0.7193
 6330SOL    HW230624   0.115   2.738   0.357  1.5835 -0.6865 -1.1113
 6331SOL     OW30625   4.664   4.453  14.385  0.4483  0.0058 -0.0864
 6331SOL    HW130626   4.594   4.408  14.337 -2.0469  1.2261  2.3701
 6331SOL    HW230627   4.735   4.390  14.392  1.3338  1.0109 -0.0148
 6332SOL     OW30628   1.330   2.315   8.434 -0.0756  0.8202  0.1896
 6332SOL    HW130629   1.309   2.244   8.373 -1.1631  1.4526 -0.1754
 6332SOL    HW230630   1.285   2.386   8.387  1.9604  3.1251  1.7715
 6333SOL     OW30631   2.718   1.932   7.404 -0.2526 -0.0907  0.3100
 6333SOL    HW130632   2.790   1.882   7.443  0.1930 -1.5374 -2.3690
 6333SOL    HW230633   2.735   1.923   7.310  3.6077 -0.1137  0.9991
 6334SOL     OW30634   2.774   1.029   4.998 -0.2633 -0.2229 -0.8853
 6334SOL    HW130635   2.779   1.100   5.062  1.2305 -1.1693  0.0384
 6334SOL    HW230636   2.709   0.970   5.036 -1.5796  0.1752 -2.5146
 6335SOL     OW30637   2.993   1.189  11.383 -0.1263 -0.0503 -0.2686
 6335SOL    HW130638   2.986   1.281  11.355  4.3665  0.1977 -0.4889
 6335SOL    HW230639   3.019   1.207  11.474 -0.2697  3.2411 -0.8575
 6336SOL     OW30640   0.721   0.426  11.211  0.7022  0.6130 -0.5280
 6336SOL    HW130641   0.754   0.500  11.159  1.3058  0.3508 -0.5123
 6336SOL    HW230642   0.682   0.466  11.289 -0.4736 -0.4544 -0.5697
 6337SOL     OW30643   3.694   2.892  12.342 -0.3911 -0.0537 -0.4140
 6337SOL    HW130644   3.741   2.836  12.403  0.6155 -0.2412 -1.3573
 6337SOL    HW230645   3.765   2.913  12.281  1.0136 -0.5418  1.0567
 6338SOL     OW30646   1.535   1.500   1.751 -0.3068  0.1998 -0.1924
 6338SOL    HW130647   1.458   1.450   1.777  0.5478 -0.7872  0.4578
 6338SOL    HW230648   1.598   1.488   1.822  1.3442 -2.3818 -2.0636
 6339SOL     OW30649   2.112   1.505  16.166 -0.6385 -0.1443  0.1744
 6339SOL    HW130650   2.069   1.489  16.250 -0.4696 -1.3058  0.0472
 6339SOL    HW230651   2.048   1.471  16.104 -0.3321 -1.6840  0.6965
 6340SOL     OW30652   3.988   1.221   1.007 -0.3275 -0.8860  0.4437
 6340SOL    HW130653   3.918   1.157   1.024  0.3016 -1.6839  0.0086
 6340SOL    HW230654   3.999   1.260   1.094 -0.3554 -0.5447  0.2976
 6341SOL     OW30655   3.667   1.851   5.619 -0.0086 -0.0827  0.4684
 6341SOL    HW130656   3.577   1.846   5.586  0.7954 -1.6835 -1.4601
 6341SOL    HW230657   3.664   1.820   5.710 -0.8135 -2.7983 -0.4847
 6342SOL     OW30658   2.495   0.901   3.841  1.0887  0.3019 -0.2131
 6342SOL    HW130659   2.550   0.823   3.836 -0.9864 -1.1041 -0.8988
 6342SOL    HW230660   2.447   0.888   3.923  1.1672 -0.1451 -0.2390
 6343SOL     OW30661   3.611   3.630   2.656 -0.4822 -0.6159 -0.3867
 6343SOL    HW130662   3.557   3.583   2.592 -1.4066  1.7793 -1.3791
 6343SOL    HW230663   3.648   3.559   2.708 -2.9619 -1.4691  0.2211
 6344SOL     OW30664   1.830   0.233   0.663 -0.4188 -0.5611  0.9024
 6344SOL    HW130665   1.876   0.149   0.666  0.0392 -0.4069 -1.2594
 6344SOL    HW230666   1.786   0.235   0.748 -0.7707 -0.1090  0.7103
 6345SOL     OW30667   1.823   1.761   2.031  0.3800  0.6883 -0.9947
 6345SOL    HW130668   1.747   1.785   2.083  0.4495 -0.0929 -0.5312
 6345SOL    HW230669   1.796   1.670   2.016  2.3207 -0.2783  1.3342
 6346SOL     OW30670   1.858   2.942  16.640  0.6446 -0.1723 -0.0851
 6346SOL    HW130671   1.786   2.920  16.698  0.2570  1.9432  0.2377
 6346SOL    HW230672   1.846   2.875  16.572 -2.6061 -1.3317  1.6013
 6347SOL     OW30673   2.646   3.076  14.576 -0.5128  0.2269  0.4431
 6347SOL    HW130674   2.666   3.068  14.483 -0.9865  1.4142  0.2314
 6347SOL    HW230675   2.613   2.986  14.583 -1.0225  0.3742  0.0117
 6348SOL     OW30676   2.930   3.577   0.539 -0.2078 -0.0507  0.5676
 6348SOL    HW130677   2.923   3.520   0.615  3.7180 -0.7505  0.4233
 6348SOL    HW230678   2.950   3.662   0.579  0.5463 -0.2418  0.6004
 6349SOL     OW30679   1.460   4.628   1.781 -0.2559  0.0805  0.3990
 6349SOL    HW130680   1.383   4.685   1.785  0.9046  1.5817  1.2274
 6349SOL    HW230681   1.527   4.680   1.737  2.0467 -2.9766  0.2261
 6350SOL     OW30682   4.639   3.105  12.072 -0.4724 -0.7412  0.5378
 6350SOL    HW130683   4.673   3.189  12.103 -0.2338 -1.0344  1.0692
 6350SOL    HW230684   4.568   3.147  12.024 -0.9556 -1.3889  0.6928
 6351SOL     OW30685   1.007   3.760   8.436 -0.8529  0.1535  0.0690
 6351SOL    HW130686   1.049   3.800   8.360 -1.6773 -2.2311 -1.6754
 6351SOL    HW230687   1.076   3.702   8.468 -0.5921  1.3441  1.6014
 6352SOL     OW30688   0.724   3.174   8.607 -0.0108 -1.0319  0.1427
 6352SOL    HW130689   0.736   3.235   8.680 -0.2279 -0.5726 -0.2069
 6352SOL    HW230690   0.636   3.204   8.586 -0.2974 -1.5340  0.6358
 6353SOL     OW30691   0.728   3.960   1.308 -0.1173 -0.5836 -0.7979
 6353SOL    HW130692   0.673   3.912   1.246  1.5951 -1.0187 -1.9873
 6353SOL    HW230693   0.792   4.005   1.252 -0.9560  0.8387 -0.5884
 6354SOL     OW30694   0.413   2.604   7.161  0.3852  0.1630 -0.0821
 6354SOL    HW130695   0.377   2.566   7.241 -0.5890 -1.1953 -1.1838
 6354SOL    HW230696   0.416   2.694   7.194 -1.8943  0.7451 -1.4438
 6355SOL     OW30697   0.023   0.872   7.712  0.4433  0.0942  0.1607
 6355SOL    HW130698   4.689   0.815   7.690 -0.5963  1.7136 -0.6314
 6355SOL    HW230699   0.038   0.837   7.799 -0.0564 -0.9184 -0.1666
 6356SOL     OW30700   0.039   0.432  13.642 -0.0380  0.2410 -0.1012
 6356SOL    HW130701   4.712   0.461  13.704  2.5569  1.2017  2.2071
 6356SOL    HW230702   0.092   0.376  13.698 -2.4446 -0.8392  1.1008
 6357SOL     OW30703   3.233   0.606   3.185 -0.0329 -0.3108 -0.0073
 6357SOL    HW130704   3.163   0.627   3.123 -1.8934 -2.2919  1.4068
 6357SOL    HW230705   3.299   0.674   3.176  1.9280 -2.0284  1.4754
 6358SOL     OW30706   3.661   0.322   6.324 -0.3388 -0.1957  0.3868
 6358SOL    HW130707   3.753   0.344   6.306 -0.0486 -1.2015  0.6557
 6358SOL    HW230708   3.625   0.404   6.358 -1.4354 -0.1446 -0.8858
 6359SOL     OW30709   0.846   3.862   4.520  0.6936  0.2628 -0.6157
 6359SOL    HW130710   0.751   3.866   4.508  0.3353 -1.0740  1.8301
 6359SOL    HW230711   0.848   3.877   4.615  1.3543  0.9335 -0.7336
 6360SOL     OW30712   1.081   4.297   2.839 -0.2363 -1.0119 -0.4108
 6360SOL    HW130713   1.134   4.233   2.791  1.9334  0.3244  0.2017
 6360SOL    HW230714   1.002   4.249   2.864 -0.3333  0.4921  2.1634
 6361SOL     OW30715   2.521   0.355   2.710  0.1768 -0.7846 -0.9696
 6361SOL    HW130716   2.433   0.379   2.681  0.3754  2.9114  1.4264
 6361SOL    HW230717   2.540   0.421   2.777 -0.2073  0.8341 -2.4426
 6362SOL     OW30718   3.210   3.254  14.811  0.2140 -0.2252  0.7410
 6362SOL    HW130719   3.249   3.292  14.733  0.4778 -1.0845  0.4526
 6362SOL    HW230720   3.291   3.210  14.835  0.0346 -0.1689  1.4450
 6363SOL     OW30721   0.006   1.244   4.516  0.5908 -0.5146  0.0842
 6363SOL    HW130722   0.096   1.271   4.534  0.2275  2.0088 -1.9775
 6363SOL    HW230723   0.006   1.158   4.473 -1.6442 -0.3099 -0.3232
 6364SOL     OW30724   4.391   2.988  11.590 -0.4690 -0.2642 -0.6055
 6364SOL    HW130725   4.417   2.991  11.498  0.0707  0.3211 -0.4278
 6364SOL    HW230726   4.300   3.020  11.583 -0.3838  0.1735  0.2572
 6365SOL     OW30727   1.470   2.202   6.277  0.9214  0.8172  0.0559
 6365SOL    HW130728   1.375   2.217   6.277  0.4909 -1.9562  0.8293
 6365SOL    HW230729   1.484   2.235   6.188 -0.5217 -2.5209 -1.4129
 6366SOL     OW30730   1.617   2.241   7.368  0.4722 -0.1441  0.4536
 6366SOL    HW130731   1.541   2.194   7.335  0.1276  1.3774 -0.9279
 6366SOL    HW230732   1.669   2.161   7.378  2.2241  0.8796 -0.4106
 6367SOL     OW30733   3.251   4.556   6.099  0.5948 -0.3361  0.5005
 6367SOL    HW130734   3.177   4.554   6.160 -0.1202 -0.2250 -0.3581
 6367SOL    HW230735   3.276   4.642   6.133  0.9098 -0.5032  0.6991
 6368SOL     OW30736   3.911   2.315   9.536 -0.0789 -0.3486  0.0725
 6368SOL    HW130737   3.882   2.246   9.595 -2.9888  0.4239 -0.4495
 6368SOL    HW230738   3.841   2.314   9.471 -0.8790 -2.6737  0.9686
 6369SOL     OW30739   0.344   0.854   4.821  0.1724  0.2282 -0.5274
 6369SOL    HW130740   0.432   0.892   4.826 -0.8779  2.3477  2.1490
 6369SOL    HW230741   0.292   0.935   4.822 -1.8718 -1.0673 -0.9549
 6370SOL     OW30742   2.171   0.047   6.960  0.4469 -0.0112  0.1530
 6370SOL    HW130743   2.196   4.694   6.958 -1.2196 -0.4423 -0.2983
 6370SOL    HW230744   2.241   0.082   6.905  1.1174  0.8082  1.5053
 6371SOL     OW30745   2.133   4.148   3.252  0.2240 -0.1105 -0.1002
 6371SOL    HW130746   2.043   4.115   3.247  0.0719  0.2157  0.4578
 6371SOL    HW230747   2.138   4.206   3.328 -1.7950 -1.4757  1.0704
 6372SOL     OW30748   0.204   2.331   2.670  0.2172 -0.3368 -0.1741
 6372SOL    HW130749   0.116   2.343   2.633 -0.1114 -1.6135  0.1889
 6372SOL    HW230750   0.205   2.236   2.673  2.9313 -0.2193  3.3713
 6373SOL     OW30751   3.496   1.263   7.125 -0.0472  0.0646 -0.6267
 6373SOL    HW130752   3.429   1.214   7.174  1.6445 -1.0006  0.6017
 6373SOL    HW230753   3.458   1.350   7.132  2.3069  0.9475  1.2104
 6374SOL     OW30754   1.065   3.344   4.695 -0.5553 -0.2049  0.1798
 6374SOL    HW130755   1.135   3.285   4.722 -0.0929  0.2582  0.0012
 6374SOL    HW230756   1.107   3.380   4.617 -0.6062 -0.1549  0.1756
 6375SOL     OW30757   1.295   4.123   2.768 -0.2658 -0.6039 -0.1569
 6375SOL    HW130758   1.273   4.030   2.771 -2.1076 -0.2066 -1.2378
 6375SOL    HW230759   1.390   4.132   2.768 -0.3646  0.4189 -0.0446
 6376SOL     OW30760   0.716   4.535   2.832  0.1481 -0.0750 -0.0563
 6376SOL    HW130761   0.792   4.479   2.848  0.5839  1.0873  2.0381
 6376SOL    HW230762   0.705   4.537   2.737 -1.8735  0.6610  0.1841
 6377SOL     OW30763   4.047   4.549   5.042  0.2578 -0.0729  0.2582
 6377SOL    HW130764   4.093   4.611   4.986  0.5787 -0.3667  0.1991
 6377SOL    HW230765   4.079   4.545   5.132 -2.7146  0.0384  1.3347
 6378SOL     OW30766   4.019   4.059   1.704 -0.0774 -0.0918 -0.1986
 6378SOL    HW130767   4.087   4.077   1.640 -1.8919 -0.5018 -2.2362
 6378SOL    HW230768   3.943   4.055   1.646 -1.4490  0.5142  1.5343
 6379SOL     OW30769   2.601   2.055   4.440  0.0745 -0.1615 -0.1107
 6379SOL    HW130770   2.573   1.987   4.502 -0.1173 -1.0279 -1.1442
 6379SOL    HW230771   2.673   2.089   4.491  0.3256  0.3711 -0.8207
 6380SOL     OW30772   0.523   2.210  12.396  0.0698 -0.6254  0.0527
 6380SOL    HW130773   0.481   2.218  12.482  2.0946  0.5129  0.9445
 6380SOL    HW230774   0.447   2.205  12.338 -0.8506  2.3531  1.0061
 6381SOL     OW30775   3.940   4.700  16.830 -0.5603 -0.4479 -0.5315
 6381SOL    HW130776   3.909   4.731  16.915 -0.7315 -0.4518 -0.5927
 6381SOL    HW230777   3.997   0.028  16.794 -1.7384  0.8699  0.0806
 6382SOL     OW30778   2.159   0.651   4.796 -0.1989 -0.2971 -0.2372
 6382SOL    HW130779   2.149   0.629   4.703 -0.8806 -1.3122  0.0862
 6382SOL    HW230780   2.237   0.598   4.812 -1.5599 -1.6153  1.9835
 6383SOL     OW30781   2.905   2.795   6.877 -0.1271 -0.4125 -0.2537
 6383SOL    HW130782   2.827   2.848   6.861 -0.7473 -0.3577  3.0207
 6383SOL    HW230783   2.867   2.707   6.875  0.8932 -0.8018 -2.6038
 6384SOL     OW30784   0.855   0.334  14.429  0.5252  0.7992  0.3055
 6384SOL    HW130785   0.863   0.239  14.430  0.1464  0.7754  1.9607
 6384SOL    HW230786   0.863   0.360  14.521 -1.3407  0.8305  0.4605
 6385SOL     OW30787   0.641   0.893  13.566  0.5124  0.2409 -0.1947
 6385SOL    HW130788   0.608   0.982  13.578  0.2183 -0.0543  1.2261
 6385SOL    HW230789   0.670   0.903  13.476  2.0097  0.6948  0.3449
 6386SOL     OW30790   0.326   2.700  17.696  0.1055  0.0420  0.3439
 6386SOL    HW130791   0.263   2.767  17.724 -0.3465 -0.6461  0.9844
 6386SOL    HW230792   0.305   2.637   0.011  1.3027  0.9353  1.5448
 6387SOL     OW30793   0.561   2.147   5.660  0.2123 -0.0875  0.0360
 6387SOL    HW130794   0.585   2.209   5.591 -0.1649  0.2963  0.2490
 6387SOL    HW230795   0.646   2.139   5.703  0.3282  0.3804 -0.1055
 6388SOL     OW30796   0.819   0.130  11.426 -0.1364  0.0986 -0.1435
 6388SOL    HW130797   0.728   0.102  11.433  0.1677 -0.5359  1.2732
 6388SOL    HW230798   0.816   0.191  11.500 -0.7486 -0.4510  0.2848
 6389SOL     OW30799   3.120   4.434   8.962 -0.0288 -0.1919 -0.8222
 6389SOL    HW130800   3.196   4.413   8.908 -0.4627 -1.7065 -0.8357
 6389SOL    HW230801   3.166   4.470   9.038 -1.7225 -0.5946  0.4154
 6390SOL     OW30802   0.652   3.278   2.187  0.0567 -0.2294 -0.6349
 6390SOL    HW130803   0.703   3.270   2.106  1.4047  1.2240  0.0775
 6390SOL    HW230804   0.569   3.230   2.174 -1.0488  0.8132  2.6457
 6391SOL     OW30805   1.610   3.968  10.055 -0.2905 -0.0465  0.3896
 6391SOL    HW130806   1.574   4.057  10.060 -1.4656 -0.3998 -1.6882
 6391SOL    HW230807   1.619   3.953  10.149  1.2922 -1.7212 -0.0414
 6392SOL     OW30808   1.795   3.910   1.052  0.0392  0.2733 -0.3629
 6392SOL    HW130809   1.820   3.923   0.960  2.2632  1.0629  0.3320
 6392SOL    HW230810   1.765   3.996   1.083  1.1453 -0.4168  2.6815
 6393SOL     OW30811   2.910   3.398  14.705  0.1916 -0.2930 -0.3201
 6393SOL    HW130812   2.846   3.352  14.651  0.5968 -2.0219  0.6766
 6393SOL    HW230813   2.882   3.490  14.697  0.1496 -0.3377 -0.6871
 6394SOL     OW30814   0.222   2.704   5.373 -0.2567 -1.4518  0.2873
 6394SOL    HW130815   0.150   2.719   5.434  0.5762  2.3425  0.3798
 6394SOL    HW230816   0.227   2.787   5.325 -0.0942 -1.3515  0.4776
 6395SOL     OW30817   0.282   2.132  17.686  0.1448 -0.4637  0.2622
 6395SOL    HW130818   0.338   2.058  17.663 -0.9929 -1.2093 -0.0785
 6395SOL    HW230819   0.349   2.200  17.691  0.0964 -0.2729 -1.8205
 6396SOL     OW30820   2.754   2.042   6.473 -0.0083  0.0130 -0.7403
 6396SOL    HW130821   2.683   2.071   6.530  1.0175  1.6757 -0.3201
 6396SOL    HW230822   2.744   2.113   6.408  0.7769  0.3981 -0.4397
 6397SOL     OW30823   0.654   2.292   4.273  0.0519 -0.2112 -0.1318
 6397SOL    HW130824   0.605   2.263   4.197 -0.6862 -1.0215  0.6481
 6397SOL    HW230825   0.664   2.212   4.327  2.8358  1.7488  2.3043
 6398SOL     OW30826   0.146   2.625  17.464  0.6988 -0.2041  0.0993
 6398SOL    HW130827   0.098   2.708  17.458  0.7956  0.0063  2.2636
 6398SOL    HW230828   0.210   2.658  17.526  0.0284  1.1428  0.0910
 6399SOL     OW30829   1.207   4.632   0.720 -0.5584  0.4359 -0.1457
 6399SOL    HW130830   1.121   4.656   0.687 -0.3095  2.8264  0.9267
 6399SOL    HW230831   1.252   4.629   0.635 -0.4314  4.7206 -0.2253
 6400SOL     OW30832   1.008   3.564   2.543 -0.6543 -0.0105 -0.5925
 6400SOL    HW130833   1.007   3.523   2.456 -0.5719  1.2615 -1.1932
 6400SOL    HW230834   0.974   3.499   2.604 -0.0822 -0.1283 -0.3976
 6401SOL     OW30835   3.425   2.894   8.759 -0.1067  0.7061 -0.1838
 6401SOL    HW130836   3.348   2.948   8.775 -0.2383 -0.0656  1.8392
 6401SOL    HW230837   3.448   2.847   8.839 -0.8389 -0.0996 -0.4404
 6402SOL     OW30838   0.363   1.453  10.944 -0.2778 -0.0047  0.5429
 6402SOL    HW130839   0.351   1.486  11.033 -1.0902  0.7393  0.1508
 6402SOL    HW230840   0.418   1.519  10.901 -0.5086  0.1911  0.5480
 6403SOL     OW30841   1.685   2.018   7.054  0.7635  0.3166  0.1380
 6403SOL    HW130842   1.701   2.111   7.070 -0.4477  0.3154  1.4585
 6403SOL    HW230843   1.744   1.973   7.114  0.7107  1.2848  0.9215
 6404SOL     OW30844   1.576   2.288   8.734 -0.0983  0.0386 -0.1389
 6404SOL    HW130845   1.597   2.379   8.710 -0.6766 -0.0718 -1.0717
 6404SOL    HW230846   1.619   2.275   8.818 -1.6701 -1.8325  0.3648
 6405SOL     OW30847   0.559   2.947  12.204 -0.2661  0.2664  0.3096
 6405SOL    HW130848   0.519   2.942  12.291 -0.4835 -1.7154  0.1021
 6405SOL    HW230849   0.648   2.928  12.231 -0.1871 -0.9098 -0.7970
 6406SOL     OW30850   3.339   3.822  15.591  0.1675  0.0073 -0.2311
 6406SOL    HW130851   3.347   3.873  15.510 -0.9199 -0.3259 -0.5490
 6406SOL    HW230852   3.252   3.833  15.628 -0.2252  0.5544 -1.3073
 6407SOL     OW30853   2.255   4.139  16.152  0.4412  0.0236  0.5128
 6407SOL    HW130854   2.345   4.110  16.168  0.6180  0.9517  1.1815
 6407SOL    HW230855   2.265   4.203  16.081  1.3479 -1.8517 -1.0585
 6408SOL     OW30856   3.544   4.539   8.832 -0.4308 -0.2497 -0.3582
 6408SOL    HW130857   3.633   4.525   8.798 -1.0985 -0.1090 -2.1521
 6408SOL    HW230858   3.564   4.607   8.897 -0.3776 -1.0762  0.4917
 6409SOL     OW30859   1.952   3.206  11.813  0.1225  0.1808 -0.3644
 6409SOL    HW130860   1.911   3.288  11.786 -0.2552 -0.4057 -1.5736
 6409SOL    HW230861   2.025   3.226  11.871 -0.6955  0.9477  0.3929
 6410SOL     OW30862   4.311   1.147   9.272  0.1003  0.1582  0.0987
 6410SOL    HW130863   4.401   1.160   9.243  0.4169 -1.2004  0.4736
 6410SOL    HW230864   4.283   1.238   9.266  1.0262  0.3513 -1.4076
 6411SOL     OW30865   3.847   0.717   1.725 -0.2315 -0.0542  0.0408
 6411SOL    HW130866   3.777   0.681   1.781 -0.4514  0.5478  0.1547
 6411SOL    HW230867   3.803   0.791   1.683  0.2376 -0.0976 -0.5202
 6412SOL     OW30868   4.058   1.497   1.730  0.1906 -0.0083  0.2147
 6412SOL    HW130869   3.982   1.511   1.674 -1.8540 -1.7114  2.5258
 6412SOL    HW230870   4.062   1.401   1.723 -2.4971  0.0200 -1.5022
 6413SOL     OW30871   4.181   2.682   8.616 -0.4764  0.2782 -0.9366
 6413SOL    HW130872   4.115   2.738   8.575  0.2542  1.6991 -0.1419
 6413SOL    HW230873   4.130   2.623   8.672 -0.5751  0.9369 -0.3365
 6414SOL     OW30874   4.113   1.713   9.317 -0.1454  0.2157 -0.3487
 6414SOL    HW130875   4.079   1.629   9.346  0.1935  0.7636  1.6224
 6414SOL    HW230876   4.153   1.748   9.396  2.5204 -0.4499 -1.3895
 6415SOL     OW30877   3.717   3.526  11.038  0.1847  0.2273  0.3125
 6415SOL    HW130878   3.624   3.509  11.024  0.8502 -2.2966 -1.1064
 6415SOL    HW230879   3.747   3.435  11.038  0.1027  0.2028 -0.1791
 6416SOL     OW30880   2.127   4.142  16.385 -0.0217 -0.7744 -0.3391
 6416SOL    HW130881   2.138   4.169  16.294 -1.1143  0.0929 -0.2136
 6416SOL    HW230882   2.129   4.224  16.434  0.9327 -1.6134  1.0360
 6417SOL     OW30883   2.647   1.490   6.195  0.6327  0.7217  0.6834
 6417SOL    HW130884   2.606   1.532   6.271 -0.8479 -1.7088  1.2369
 6417SOL    HW230885   2.582   1.499   6.125  0.7423  0.3655  0.5351
 6418SOL     OW30886   3.913   2.334  10.860  0.0455 -0.6519 -0.5833
 6418SOL    HW130887   3.923   2.274  10.786 -2.4492 -1.1580 -0.5010
 6418SOL    HW230888   4.001   2.372  10.860  0.7818 -2.3391 -0.6560
 6419SOL     OW30889   1.820   1.362   1.725  0.1047 -0.0789  0.5611
 6419SOL    HW130890   1.760   1.393   1.658 -1.3547  1.6441  2.6694
 6419SOL    HW230891   1.753   1.348   1.792 -1.1841 -1.0705 -0.9433
 6420SOL     OW30892   0.843   0.616  16.630  0.0903 -0.3914  0.0855
 6420SOL    HW130893   0.886   0.538  16.594 -1.6153 -0.9287 -0.8290
 6420SOL    HW230894   0.904   0.687  16.610 -1.6511  1.2305  0.5306
 6421SOL     OW30895   1.736   2.423   2.127  0.0139 -0.2516 -0.0732
 6421SOL    HW130896   1.765   2.413   2.218 -0.0578 -1.7420 -0.2153
 6421SOL    HW230897   1.817   2.416   2.076  1.3304 -0.7396  2.0564
 6422SOL     OW30898   2.003   1.568   1.676 -0.6050  0.0528  0.5575
 6422SOL    HW130899   1.948   1.509   1.729 -0.4681 -0.5778  0.0052
 6422SOL    HW230900   2.061   1.605   1.742 -0.9255 -1.2633  1.5678
 6423SOL     OW30901   0.133   2.231  11.686 -0.7323 -0.1870  0.2545
 6423SOL    HW130902   0.041   2.252  11.670 -0.1546 -1.2704 -4.4465
 6423SOL    HW230903   0.171   2.288  11.619 -2.1462  0.6556  0.1521
 6424SOL     OW30904   2.385   2.947   7.049  0.1620  0.0051 -0.6580
 6424SOL    HW130905   2.297   2.913   7.035  0.3269 -0.3528 -0.8362
 6424SOL    HW230906   2.411   2.925   7.138  1.7304  1.4934 -0.7252
 6425SOL     OW30907   4.216   4.265   4.056  0.2408  0.7181 -0.4071
 6425SOL    HW130908   4.267   4.189   4.083  0.4668  1.8920  2.4686
 6425SOL    HW230909   4.133   4.223   4.077  1.3469 -1.5803 -0.6357
 6426SOL     OW30910   4.621   0.847  12.615 -0.4722 -0.1482 -0.1269
 6426SOL    HW130911   4.673   0.868  12.692 -1.6841  0.3893  0.5451
 6426SOL    HW230912   4.618   0.929  12.565  0.8464 -0.5866 -0.9346
 6427SOL     OW30913   1.962   2.909  11.947  0.2373  0.2638  0.2612
 6427SOL    HW130914   1.972   2.980  11.884 -0.1843 -1.2261 -1.4977
 6427SOL    HW230915   1.867   2.902  11.955  0.3712 -2.0065 -0.1824
 6428SOL     OW30916   0.800   3.792   2.102  0.4716 -0.4564  0.4167
 6428SOL    HW130917   0.738   3.721   2.083  0.3753 -0.4631  0.7458
 6428SOL    HW230918   0.837   3.822   2.019  1.0407  1.0259  1.2129
 6429SOL     OW30919   0.330   3.179  12.577 -0.0776 -0.5445 -0.1810
 6429SOL    HW130920   0.276   3.170  12.656 -1.4835 -1.0057 -1.1890
 6429SOL    HW230921   0.371   3.093  12.582  1.1614  0.0865  0.6457
 6430SOL     OW30922   4.412   2.769  17.064 -0.3727 -0.0082  0.1196
 6430SOL    HW130923   4.432   2.725  17.147 -0.4577 -1.7350 -0.7693
 6430SOL    HW230924   4.342   2.710  17.037  0.7245 -1.0987 -0.3985
 6431SOL     OW30925   2.834   3.331  11.819  0.0203  0.2641  0.0939
 6431SOL    HW130926   2.739   3.324  11.812  0.3001  0.2024 -3.6072
 6431SOL    HW230927   2.851   3.300  11.908  0.2168  0.0175 -0.0280
 6432SOL     OW30928   2.718   2.524   3.635  0.0498  0.1105 -0.0965
 6432SOL    HW130929   2.633   2.561   3.613 -1.3179 -1.4441  2.4990
 6432SOL    HW230930   2.700   2.532   3.729 -0.0266 -1.6744  0.0386
 6433SOL     OW30931   2.957   0.764   4.610 -0.3142 -0.1416 -0.6655
 6433SOL    HW130932   2.991   0.762   4.520 -1.6651  0.1274 -1.1870
 6433SOL    HW230933   2.866   0.788   4.592 -0.0834  1.3882  0.2506
 6434SOL     OW30934   2.708   0.557   8.666 -0.1903 -0.0749 -0.5068
 6434SOL    HW130935   2.653   0.615   8.614 -0.4875 -2.9686 -3.3705
 6434SOL    HW230936   2.738   0.621   8.732 -0.9006  0.6235 -0.8603
 6435SOL     OW30937   3.429   0.276   2.492 -0.4947 -0.0222  0.0822
 6435SOL    HW130938   3.391   0.230   2.417 -0.1818  1.1266 -0.7744
 6435SOL    HW230939   3.520   0.264   2.466 -0.4398  0.0392  0.2479
 6436SOL     OW30940   3.475   3.275   0.311  0.0917  0.3973  0.0078
 6436SOL    HW130941   3.438   3.191   0.285  0.6297  0.7826 -2.0239
 6436SOL    HW230942   3.566   3.258   0.287 -0.3411 -1.9393  0.0381
 6437SOL     OW30943   2.431   3.119   8.791  0.1512  0.1009 -0.0466
 6437SOL    HW130944   2.368   3.192   8.788 -0.0389 -0.0192  1.2395
 6437SOL    HW230945   2.436   3.096   8.698 -0.3949  1.7923 -0.5005
 6438SOL     OW30946   4.737   3.751   5.840 -0.2559  0.2740  0.4111
 6438SOL    HW130947   0.035   3.829   5.798  0.8609 -0.8980 -0.7396
 6438SOL    HW230948   4.735   3.787   5.929  0.9957 -1.7850  1.2696
 6439SOL     OW30949   4.616   1.101   2.927  0.0606 -0.3206  0.2705
 6439SOL    HW130950   4.559   1.170   2.958  0.7216 -0.2454  1.3180
 6439SOL    HW230951   4.594   1.019   2.971  0.9964  0.8957  3.0349
 6440SOL     OW30952   3.809   2.799   2.601  0.0333 -0.3777  1.0124
 6440SOL    HW130953   3.822   2.771   2.511 -1.0042  1.9860  0.1181
 6440SOL    HW230954   3.899   2.796   2.632  0.4080  0.6066  0.0240
 6441SOL     OW30955   0.755   1.623   5.257  0.4125 -0.4863  0.4568
 6441SOL    HW130956   0.709   1.569   5.323 -1.5280  0.0242 -0.4945
 6441SOL    HW230957   0.840   1.581   5.249 -0.4784 -1.9167 -1.4539
 6442SOL     OW30958   2.220   2.988   8.431  0.3156  0.3239 -0.2287
 6442SOL    HW130959   2.281   2.936   8.379 -0.3370 -0.6543 -0.0279
 6442SOL    HW230960   2.257   3.074   8.413  1.5703 -0.0162  0.6842
 6443SOL     OW30961   1.480   0.704   2.197  0.1919 -0.3013  0.3672
 6443SOL    HW130962   1.443   0.646   2.130  0.7627 -0.8665  0.5470
 6443SOL    HW230963   1.411   0.697   2.263 -1.2355  1.4984 -0.9125
 6444SOL     OW30964   1.624   3.061  12.738 -0.2513 -0.6702 -0.3719
 6444SOL    HW130965   1.672   2.984  12.707  1.2478  0.7649 -1.6414
 6444SOL    HW230966   1.533   3.037  12.722 -0.8176  1.6433 -0.5385
 6445SOL     OW30967   3.596   0.518   0.933 -0.0891 -0.1955  0.2911
 6445SOL    HW130968   3.670   0.474   0.974  1.6762  1.6595 -0.9089
 6445SOL    HW230969   3.629   0.511   0.843 -1.8542 -4.6091  0.0119
 6446SOL     OW30970   4.286   1.720   1.222  0.0203 -0.2436 -0.2053
 6446SOL    HW130971   4.333   1.720   1.139 -1.5680 -2.7330 -1.1212
 6446SOL    HW230972   4.348   1.692   1.289 -0.8120 -1.7538 -0.0735
 6447SOL     OW30973   0.892   3.941  10.808  0.7028 -0.0370  0.1916
 6447SOL    HW130974   0.936   3.891  10.876  2.4092 -1.0221 -1.6160
 6447SOL    HW230975   0.844   3.871  10.763 -0.1765  1.4249 -1.1778
 6448SOL     OW30976   0.300   3.443   2.527  0.1677  1.5389  0.1811
 6448SOL    HW130977   0.336   3.515   2.476  1.0506  0.1348 -1.1904
 6448SOL    HW230978   0.255   3.486   2.600 -5.3842 -0.5177 -2.0695
 6449SOL     OW30979   2.961   3.219   7.651  0.2719  0.5132  0.3456
 6449SOL    HW130980   2.884   3.185   7.697 -1.6264 -0.1101 -3.2798
 6449SOL    HW230981   2.910   3.243   7.573  0.6294 -1.3606 -0.4537
 6450SOL     OW30982   0.251   1.915   3.693 -0.2143  0.3471  0.1808
 6450SOL    HW130983   0.346   1.906   3.684 -0.5795 -1.8975 -1.5278
 6450SOL    HW230984   0.244   1.898   3.787  2.7888  1.0701  0.5340
 6451SOL     OW30985   2.741   3.390   2.104 -0.3406  0.3084  0.5394
 6451SOL    HW130986   2.787   3.387   2.188  0.4535 -0.6306  0.0664
 6451SOL    HW230987   2.781   3.467   2.064 -0.2091  0.6042  1.2293
 6452SOL     OW30988   1.588   3.933  16.910 -0.4689  0.6170  0.2679
 6452SOL    HW130989   1.525   3.866  16.937 -0.5025  1.2189  1.6974
 6452SOL    HW230990   1.522   3.994  16.877 -0.2800  1.7926  2.0853
 6453SOL     OW30991   2.513   2.577  10.275 -0.5567 -0.0900  0.2484
 6453SOL    HW130992   2.521   2.535  10.361  3.2430  1.2329  0.5593
 6453SOL    HW230993   2.520   2.502  10.215  0.3399  0.1005  0.1137
 6454SOL     OW30994   2.720   3.495   0.373  0.4100  0.6260 -0.4712
 6454SOL    HW130995   2.789   3.529   0.316  0.5203 -0.6834 -1.1292
 6454SOL    HW230996   2.764   3.501   0.457  0.9495 -0.1656 -0.6984
 6455SOL     OW30997   4.288   3.711   3.770  0.4912 -0.3249  0.4198
 6455SOL    HW130998   4.266   3.723   3.678  0.1659  0.7037  0.6273
 6455SOL    HW230999   4.273   3.803   3.793 -1.1456 -1.0889  2.3453
 6456SOL     OW31000   2.627   4.618   6.033 -0.3327  0.3670 -0.3680
 6456SOL    HW131001   2.556   4.639   6.094 -0.1194 -1.2684  0.4450
 6456SOL    HW231002   2.675   4.551   6.081  0.7492  0.3011 -1.5207
 6457SOL     OW31003   1.251   3.084  12.151  0.2361 -0.1565  0.0849
 6457SOL    HW131004   1.175   3.140  12.165 -0.6142 -0.9649 -1.2947
 6457SOL    HW231005   1.276   3.106  12.061 -1.3854 -0.6707 -0.4856
 6458SOL     OW31006   4.200   2.373   6.539  0.2333 -0.3937  0.4072
 6458SOL    HW131007   4.241   2.290   6.562  2.1419 -0.3557 -2.9167
 6458SOL    HW231008   4.122   2.355   6.486 -0.2399  0.7524  0.6984
 6459SOL     OW31009   4.071   2.523   6.151 -0.3485 -0.4595  0.1986
 6459SOL    HW131010   4.162   2.553   6.144 -1.1572  1.1666 -3.0155
 6459SOL    HW231011   4.034   2.553   6.068 -0.6602  4.6569  2.2075
 6460SOL     OW31012   4.229   1.026   2.271  0.4952  0.2076  0.0889
 6460SOL    HW131013   4.221   1.069   2.356 -1.6817  0.8584 -0.4411
 6460SOL    HW231014   4.267   0.944   2.301 -2.5734 -1.7850 -1.5422
 6461SOL     OW31015   4.680   1.683   3.209 -0.5254 -0.0240 -0.1518
 6461SOL    HW131016   4.656   1.591   3.211 -2.4516  0.4490 -2.4099
 6461SOL    HW231017   4.660   1.702   3.301 -0.4785  1.5450 -0.4579
 6462SOL     OW31018   1.575   2.896   5.617 -0.3341  0.0949  0.3100
 6462SOL    HW131019   1.563   2.804   5.594  1.3197  0.2447 -1.2337
 6462SOL    HW231020   1.500   2.934   5.571  1.8559  1.0309 -2.5201
 6463SOL     OW31021   4.225   1.018   7.431 -0.0407  0.2284  0.5825
 6463SOL    HW131022   4.227   1.103   7.388  2.6008  0.8490  1.9173
 6463SOL    HW231023   4.283   1.046   7.502 -0.5625  3.7649 -0.3963
 6464SOL     OW31024   1.834   4.174  16.487 -0.7508 -0.5633 -0.5825
 6464SOL    HW131025   1.843   4.081  16.466 -1.6431 -1.0855  1.3530
 6464SOL    HW231026   1.872   4.227  16.416 -1.9190  1.5718  0.4090
 6465SOL     OW31027   0.219   3.969   8.137  0.0123  0.3748  0.0115
 6465SOL    HW131028   0.240   3.877   8.155 -0.8583  0.2352  0.3066
 6465SOL    HW231029   0.124   3.964   8.125  0.1450  0.5667 -1.1140
 6466SOL     OW31030   2.539   2.863  11.273  0.3943 -0.4913  0.4105
 6466SOL    HW131031   2.531   2.930  11.340 -3.0971 -0.2158 -0.3258
 6466SOL    HW231032   2.626   2.828  11.295  0.4065 -1.8133 -1.6444
 6467SOL     OW31033   4.058   1.945   0.910  0.6897  0.2613  0.1598
 6467SOL    HW131034   3.982   1.973   0.962 -1.0184 -2.2335 -1.0100
 6467SOL    HW231035   4.114   1.922   0.984  0.0371  0.6823  0.7899
 6468SOL     OW31036   1.543   0.639   4.943  0.1327  0.3716 -1.1855
 6468SOL    HW131037   1.631   0.629   4.980 -0.4696  3.2841  1.1553
 6468SOL    HW231038   1.499   0.578   5.002  0.5189 -1.3744 -2.7294
 6469SOL     OW31039   2.711   2.782   0.753  0.1349  0.0338 -0.4265
 6469SOL    HW131040   2.624   2.752   0.731 -0.1747  1.6631 -1.4009
 6469SOL    HW231041   2.701   2.850   0.820  0.2276  2.6189 -3.0531
 6470SOL     OW31042   2.985   4.523   4.426 -0.5713 -0.0187 -0.7172
 6470SOL    HW131043   3.063   4.548   4.377 -0.6501  2.4793  0.4254
 6470SOL    HW231044   3.018   4.450   4.478  0.3948  0.3664 -0.7932
 6471SOL     OW31045   2.977   4.267   2.979 -0.6230 -0.3941 -0.1122
 6471SOL    HW131046   2.895   4.267   3.029 -0.3321  0.3094  0.3766
 6471SOL    HW231047   2.957   4.330   2.910  0.0739 -0.4431 -0.3589
 6472SOL     OW31048   0.095   1.018   7.135  0.0275 -0.1138  0.3878
 6472SOL    HW131049   0.118   1.045   7.046 -1.4837  0.9762  0.3292
 6472SOL    HW231050   0.039   0.942   7.119 -1.7746  1.7239 -2.1081
 6473SOL     OW31051   3.363   2.193   0.779  0.2681 -0.2853  0.3507
 6473SOL    HW131052   3.268   2.202   0.788  0.4437  0.9254  0.9850
 6473SOL    HW231053   3.359   2.107   0.820  1.3033 -1.3781 -1.8507
 6474SOL     OW31054   0.690   3.066  12.441  0.0036 -0.0166 -0.2636
 6474SOL    HW131055   0.637   3.077  12.519 -1.6305  1.6865 -1.6091
 6474SOL    HW231056   0.653   3.127  12.377  0.7588 -0.8571 -1.5165
 6475SOL     OW31057   2.597   4.181   8.139 -0.5744 -0.0962  0.5475
 6475SOL    HW131058   2.629   4.261   8.180  2.8986 -1.8243  1.2577
 6475SOL    HW231059   2.663   4.128   8.184 -0.7700 -0.9905 -0.2277
 6476SOL     OW31060   1.816   3.410   6.501 -0.1845  0.1968  0.2846
 6476SOL    HW131061   1.722   3.402   6.517 -0.1527  1.0888  0.9418
 6476SOL    HW231062   1.854   3.409   6.589  1.5045  0.4738 -0.4488
 6477SOL     OW31063   1.074   3.044  14.315 -0.2855  0.0740 -0.2890
 6477SOL    HW131064   1.105   3.060  14.405 -2.2841  2.5262 -0.0387
 6477SOL    HW231065   1.141   2.983  14.284  0.3536  0.5982  0.0639
 6478SOL     OW31066   0.273   0.270   5.134  0.1096  0.2587 -0.4611
 6478SOL    HW131067   0.255   0.335   5.203  2.4533  0.8058 -0.3898
 6478SOL    HW231068   0.189   0.250   5.091  0.6908 -4.0851  0.4409
 6479SOL     OW31069   4.213   3.200   2.756  0.3895 -0.0272 -0.4712
 6479SOL    HW131070   4.134   3.175   2.708  0.4214 -0.2750 -0.3945
 6479SOL    HW231071   4.211   3.295   2.743 -0.4269  0.0462  0.1348
 6480SOL     OW31072   1.991   3.728  10.146 -0.2287 -0.3550  0.1934
 6480SOL    HW131073   1.999   3.823  10.142 -1.6143 -0.3653 -2.9840
 6480SOL    HW231074   1.899   3.714  10.125  0.0294  0.4598 -1.5263
 6481SOL     OW31075   3.381   2.481   8.686  0.0694  0.2917 -0.1839
 6481SOL    HW131076   3.326   2.403   8.688  1.9001 -1.0880 -3.5052
 6481SOL    HW231077   3.464   2.447   8.718  0.2744  1.3810  0.4339
 6482SOL     OW31078   2.920   1.765  17.741 -0.1219 -0.0843  0.0469
 6482SOL    HW131079   2.975   1.751  17.664  0.6436  2.5240  0.1055
 6482SOL    HW231080   2.901   1.673   0.003  1.0570 -0.1114  1.2593
 6483SOL     OW31081   1.609   4.474  13.411  0.2692  0.9523 -0.1958
 6483SOL    HW131082   1.648   4.511  13.490 -0.8911 -0.1078  0.8682
 6483SOL    HW231083   1.624   4.541  13.344  0.0009  0.7908 -0.4193
 6484SOL     OW31084   1.165   2.828   8.843  0.2080 -0.6690  0.4395
 6484SOL    HW131085   1.186   2.738   8.819  1.4989  0.1145 -1.3430
 6484SOL    HW231086   1.250   2.868   8.828  0.2761 -0.1107  2.2750
 6485SOL     OW31087   2.243   4.506   1.740  0.0651  0.0594 -0.6829
 6485SOL    HW131088   2.199   4.583   1.705 -1.8094 -1.7328 -2.2511
 6485SOL    HW231089   2.327   4.534   1.777 -0.1368 -0.5786  0.2645
 6486SOL     OW31090   0.688   3.845   5.611 -0.0994  0.6389  0.0315
 6486SOL    HW131091   0.704   3.939   5.609  2.8415  0.1695  0.2737
 6486SOL    HW231092   0.687   3.821   5.518 -0.7121 -1.1801  0.5111
 6487SOL     OW31093   2.392   4.573   8.994  0.2564  0.3374  0.2033
 6487SOL    HW131094   2.314   4.518   8.997 -0.4412  1.3562  0.8714
 6487SOL    HW231095   2.407   4.596   8.902 -2.4618  0.5950 -0.1755
 6488SOL     OW31096   4.083   1.912   7.284 -0.4147 -0.2435  0.1387
 6488SOL    HW131097   4.174   1.902   7.256  0.1661  0.3432  1.7904
 6488SOL    HW231098   4.084   2.007   7.276 -0.7735 -0.2590 -0.0509
 6489SOL     OW31099   0.128   0.835   6.165  0.2230 -0.5250  0.2514
 6489SOL    HW131100   0.077   0.779   6.224  1.5576 -1.3390  0.6378
 6489SOL    HW231101   0.110   0.919   6.207  2.1955  1.0168 -2.0120
 6490SOL     OW31102   2.449   0.112  12.375  0.2630  0.6101  0.4859
 6490SOL    HW131103   2.461   0.110  12.280  0.8040  0.0793  0.5648
 6490SOL    HW231104   2.363   0.153  12.380  0.6956  1.4854  0.6142
 6491SOL     OW31105   1.099   1.213   4.172  0.0128  0.0434 -0.2732
 6491SOL    HW131106   1.132   1.302   4.159 -0.4121  0.0488 -1.3331
 6491SOL    HW231107   1.107   1.207   4.267 -1.5545  0.0361 -0.1387
 6492SOL     OW31108   0.315   3.351   2.063 -0.6730  0.4189  0.1308
 6492SOL    HW131109   0.220   3.338   2.060 -0.7508  1.3132 -1.7050
 6492SOL    HW231110   0.328   3.439   2.099  0.7303  0.8993 -1.5569
 6493SOL     OW31111   2.883   3.356  12.605  0.1515  0.0424 -0.3684
 6493SOL    HW131112   2.882   3.269  12.564  2.3427  0.1283 -0.6004
 6493SOL    HW231113   2.904   3.416  12.534 -2.9835 -0.0280 -1.3511
 6494SOL     OW31114   2.009   2.482   2.752 -0.2681  0.0903  0.2292
 6494SOL    HW131115   2.020   2.567   2.709 -1.8818 -0.0345 -0.3904
 6494SOL    HW231116   2.099   2.485   2.786 -0.5149  1.4727  0.7777
 6495SOL     OW31117   3.057   4.035  10.952  0.1716 -0.2900 -0.5869
 6495SOL    HW131118   3.002   4.006  11.025  2.6925 -0.2095  1.3335
 6495SOL    HW231119   3.095   3.952  10.924 -0.3112 -0.8565  0.4167
 6496SOL     OW31120   3.640   3.719  10.483  0.0658 -0.1794 -0.1797
 6496SOL    HW131121   3.710   3.771  10.445 -0.9209  0.2145 -1.4767
 6496SOL    HW231122   3.674   3.632  10.462  0.7454 -0.0751  0.5262
 6497SOL     OW31123   2.597   4.690   1.332 -0.6658 -0.1942  0.3491
 6497SOL    HW131124   2.595   4.646   1.247 -0.7849  0.0690  0.2151
 6497SOL    HW231125   2.540   4.632   1.383 -0.1639 -0.5344  0.5236
 6498SOL     OW31126   2.838   3.398  10.222 -0.4596  0.1268  0.2000
 6498SOL    HW131127   2.817   3.414  10.131 -0.7277 -0.1582  0.2101
 6498SOL    HW231128   2.920   3.350  10.214 -1.0027 -0.4152 -2.0079
 6499SOL     OW31129   0.933   3.289  13.329  0.6899  0.1342  0.0968
 6499SOL    HW131130   1.022   3.321  13.344  1.4331 -2.0481  0.3827
 6499SOL    HW231131   0.944   3.214  13.387  1.0958 -1.5953 -2.2070
 6500SOL     OW31132   2.219   2.167   7.765  0.5154  0.1529  0.8156
 6500SOL    HW131133   2.164   2.138   7.692  1.3477 -1.1831  0.7219
 6500SOL    HW231134   2.300   2.180   7.717  0.6696 -0.7398  0.8334
 6501SOL     OW31135   4.308   0.324  12.093 -0.3234  0.4854  0.4899
 6501SOL    HW131136   4.305   0.306  12.187  1.5061  0.8529  0.6193
 6501SOL    HW231137   4.400   0.350  12.080 -0.5972  1.1899 -0.0362
 6502SOL     OW31138   1.051   4.639  11.602  0.2838  0.2043  0.0780
 6502SOL    HW131139   1.123   4.680  11.649 -0.2937 -0.9382  1.9595
 6502SOL    HW231140   0.980   4.634  11.666 -0.2274  2.5125 -0.3010
 6503SOL     OW31141   1.411   2.082   6.701 -0.1745 -0.3042 -0.0163
 6503SOL    HW131142   1.375   2.156   6.652 -2.2884 -0.1619  1.7731
 6503SOL    HW231143   1.339   2.020   6.705 -0.9097  0.5366 -0.2580
 6504SOL     OW31144   3.786   1.177  14.287 -0.2040 -0.3288  0.5635
 6504SOL    HW131145   3.855   1.119  14.256  2.6838  2.8796  0.9933
 6504SOL    HW231146   3.763   1.130  14.367  0.4657  1.3211  1.7078
 6505SOL     OW31147   0.622   4.240   8.701  0.6912  0.7377 -0.0082
 6505SOL    HW131148   0.671   4.316   8.732 -0.6227  0.7359  2.0159
 6505SOL    HW231149   0.537   4.283   8.697 -0.6097 -1.9447 -1.6886
 6506SOL     OW31150   1.466   2.202   5.115  0.0994 -0.2706 -0.5429
 6506SOL    HW131151   1.443   2.287   5.076  1.3470  0.2635 -0.1135
 6506SOL    HW231152   1.530   2.234   5.179  0.2819  0.4792 -1.1050
 6507SOL     OW31153   0.824   4.415   6.679 -0.1294  0.1428 -0.1067
 6507SOL    HW131154   0.738   4.449   6.704 -0.8591 -0.2927 -2.0599
 6507SOL    HW231155   0.838   4.437   6.587 -0.7456  0.1248 -0.2031
 6508SOL     OW31156   0.505   3.244  13.567  0.1930  0.1826 -0.4772
 6508SOL    HW131157   0.581   3.187  13.579  0.0883  0.4431  1.4171
 6508SOL    HW231158   0.487   3.240  13.473 -0.6286  0.8561 -0.3425
 6509SOL     OW31159   1.032   2.740   9.148 -0.9765  0.9112  0.0972
 6509SOL    HW131160   1.064   2.682   9.217 -0.2302  0.4533 -0.6339
 6509SOL    HW231161   1.008   2.815   9.203 -1.4561 -0.5250  1.8559
 6510SOL     OW31162   4.010   0.812   8.119  0.2151  0.1266  0.5774
 6510SOL    HW131163   3.932   0.786   8.071  1.8742 -0.6639 -1.7162
 6510SOL    HW231164   4.054   0.866   8.054 -0.0388 -1.0792 -0.5837
 6511SOL     OW31165   1.205   1.965   5.507  0.2475  0.0130 -0.6823
 6511SOL    HW131166   1.180   1.873   5.498 -0.2661  0.0034  0.8946
 6511SOL    HW231167   1.219   1.992   5.416 -1.6587 -0.7579 -1.2258
 6512SOL     OW31168   1.974   2.132   1.915  0.1892  0.2945 -0.1559
 6512SOL    HW131169   1.984   2.064   1.848  0.0852 -0.3227  0.4604
 6512SOL    HW231170   1.996   2.083   1.994 -0.5676  0.3987  0.1149
 6513SOL     OW31171   3.206   1.966   3.014  0.4883  0.6545 -0.0797
 6513SOL    HW131172   3.143   2.012   2.959 -1.1717 -1.6155 -0.1393
 6513SOL    HW231173   3.197   1.885   2.963  1.6947 -0.0368  0.8101
 6514SOL     OW31174   0.617   3.625  13.181  0.0412 -0.1573  0.0021
 6514SOL    HW131175   0.654   3.544  13.217 -0.4470 -0.6987 -0.7141
 6514SOL    HW231176   0.564   3.588  13.110 -0.6137 -1.2850  1.0915
 6515SOL     OW31177   3.154   3.277  13.011  0.5352 -0.3494 -0.5379
 6515SOL    HW131178   3.221   3.345  13.018  0.0638  0.3742 -3.0198
 6515SOL    HW231179   3.202   3.196  13.026 -0.5086 -1.2332 -1.9619
 6516SOL     OW31180   2.060   3.043   0.878  0.4434 -0.0439  0.0935
 6516SOL    HW131181   1.966   3.050   0.860  0.5115 -0.5241 -0.4464
 6516SOL    HW231182   2.090   3.058   0.788  0.7543 -2.7822 -0.2617
 6517SOL     OW31183   0.464   3.918  11.403 -0.7642 -0.0768  0.4435
 6517SOL    HW131184   0.388   3.899  11.347 -0.4031  0.2779 -0.1725
 6517SOL    HW231185   0.507   3.989  11.355 -0.3941 -0.9040 -0.4415
 6518SOL     OW31186   4.066   4.705   8.458 -0.3237  0.3787 -0.0679
 6518SOL    HW131187   4.120   4.728   8.534 -2.0612 -0.3566  1.3768
 6518SOL    HW231188   4.028   4.619   8.476 -0.0257 -0.1853 -2.2012
 6519SOL     OW31189   1.256   3.415   8.265  0.0134 -0.0235  0.3031
 6519SOL    HW131190   1.255   3.343   8.328 -1.3822  0.7882  1.2038
 6519SOL    HW231191   1.267   3.357   8.189  1.6128  2.0755 -1.0408
 6520SOL     OW31192   1.754   2.882   2.658 -0.2274 -0.3276  0.1913
 6520SOL    HW131193   1.739   2.964   2.705  0.6590  0.1479 -0.3564
 6520SOL    HW231194   1.848   2.864   2.665 -0.0201  1.3358  1.6131
 6521SOL     OW31195   3.219   2.349   5.386 -0.3320 -0.1077 -0.2272
 6521SOL    HW131196   3.231   2.398   5.304 -0.5366  1.3630  0.6213
 6521SOL    HW231197   3.210   2.423   5.445  1.3677 -1.4061  1.6543
 6522SOL     OW31198   1.821   3.855  15.236 -0.2610 -0.4910  0.1531
 6522SOL    HW131199   1.771   3.919  15.287 -0.2717 -0.0130 -0.4573
 6522SOL    HW231200   1.761   3.781  15.242  1.8858 -2.2051  0.4947
 6523SOL     OW31201   3.974   2.416   5.186  0.0437 -0.2111 -0.4844
 6523SOL    HW131202   3.888   2.405   5.144 -0.0710 -1.1650  0.0026
 6523SOL    HW231203   3.977   2.333   5.234  3.3811 -0.2973 -0.8616
 6524SOL     OW31204   3.317   4.441   1.673 -0.3870  0.3586  0.0493
 6524SOL    HW131205   3.263   4.460   1.596 -0.2700 -0.0888 -0.1393
 6524SOL    HW231206   3.253   4.447   1.743 -1.4702  2.2836 -1.1002
 6525SOL     OW31207   4.658   2.868   3.821 -0.9888 -0.5116  0.0481
 6525SOL    HW131208   4.579   2.881   3.874 -2.7186 -0.6127 -2.4603
 6525SOL    HW231209   4.718   2.839   3.890  0.1171 -1.7889 -1.4501
 6526SOL     OW31210   1.699   4.049  15.423  0.0755 -0.0262  0.4678
 6526SOL    HW131211   1.691   4.048  15.519  1.5911  1.1174  0.6087
 6526SOL    HW231212   1.651   4.131  15.411  3.0246  1.5447 -0.6237
 6527SOL     OW31213   4.680   4.452   5.343 -0.4854  0.1779 -0.0942
 6527SOL    HW131214   4.694   4.360   5.319 -0.0228  0.8697 -2.4690
 6527SOL    HW231215   0.025   4.490   5.315 -0.6004  0.2987 -0.2772
 6528SOL     OW31216   0.654   0.118   3.331 -0.0490  0.0499 -0.6129
 6528SOL    HW131217   0.582   0.055   3.327  1.2830 -1.3657 -2.0899
 6528SOL    HW231218   0.606   0.201   3.339 -0.9834 -0.5152 -0.3362
 6529SOL     OW31219   3.921   4.059   8.839 -0.3264  0.0728 -0.1699
 6529SOL    HW131220   3.898   3.966   8.850 -1.6053  0.3199 -0.8645
 6529SOL    HW231221   3.991   4.070   8.904  0.7229  0.2421 -1.3234
 6530SOL     OW31222   0.311   2.917   4.045  1.0002 -0.0127  1.0005
 6530SOL    HW131223   0.340   2.985   3.985 -0.2795  1.7144  2.3422
 6530SOL    HW231224   0.313   2.962   4.130  2.0663  1.1655  0.3491
 6531SOL     OW31225   2.084   0.790  12.769  0.0604 -0.2400  0.5265
 6531SOL    HW131226   2.147   0.744  12.825  0.9073 -0.3731 -0.5461
 6531SOL    HW231227   2.024   0.817  12.839  1.1595 -0.0674  1.3957
 6532SOL     OW31228   3.878   4.577   1.608  0.2816  0.6708  0.0227
 6532SOL    HW131229   3.895   4.521   1.684 -0.9007 -3.4180 -2.7357
 6532SOL    HW231230   3.790   4.544   1.588  0.2874 -0.0407  1.1557
 6533SOL     OW31231   2.372   1.664  15.940 -0.0416 -0.2623 -0.4293
 6533SOL    HW131232   2.303   1.729  15.954  0.2339 -0.1447  0.3526
 6533SOL    HW231233   2.322   1.590  15.903  1.4625 -1.1274 -0.7372
 6534SOL     OW31234   0.450   1.631  17.530 -0.6341 -0.2954  0.0923
 6534SOL    HW131235   0.504   1.598  17.602 -1.9752  0.2334  1.3335
 6534SOL    HW231236   0.424   1.553  17.482  0.0148  0.3893 -1.3965
 6535SOL     OW31237   2.105   1.456   2.939  0.4317  0.5956  0.2981
 6535SOL    HW131238   2.070   1.494   3.020  0.4694  0.3096  0.4468
 6535SOL    HW231239   2.029   1.458   2.880  1.5827 -0.7534 -1.2105
 6536SOL     OW31240   2.450   2.308   2.002 -0.0642 -0.0031 -0.3597
 6536SOL    HW131241   2.429   2.267   1.918  0.7982 -2.9294  0.8579
 6536SOL    HW231242   2.537   2.276   2.025 -0.4586  0.5184  1.8726
 6537SOL     OW31243   3.915   0.735   6.608 -0.3220 -1.1584 -0.1212
 6537SOL    HW131244   3.936   0.702   6.520  1.6400  0.0153 -0.0784
 6537SOL    HW231245   4.004   0.721   6.641  0.6931  2.8472 -1.1843
 6538SOL     OW31246   1.613   3.811   8.446 -0.3600 -0.3741 -1.1543
 6538SOL    HW131247   1.665   3.880   8.404  1.0664 -0.0484  1.1674
 6538SOL    HW231248   1.682   3.748   8.465 -0.7009 -0.3323  0.2050
 6539SOL     OW31249   1.399   4.697   4.172 -0.6787 -0.2466 -0.1437
 6539SOL    HW131250   1.304   4.687   4.166 -0.8334  0.3414  1.1452
 6539SOL    HW231251   1.425   4.653   4.091 -1.2213 -2.3508  0.8206
 6540SOL     OW31252   1.133   2.166   9.346 -0.0099 -0.5480  0.1553
 6540SOL    HW131253   1.178   2.100   9.294  0.7767  0.1004  0.0066
 6540SOL    HW231254   1.055   2.184   9.294 -0.4190 -0.0947  0.9167
 6541SOL     OW31255   1.411   0.392  17.360 -0.1767 -0.1715 -0.3219
 6541SOL    HW131256   1.366   0.446  17.424  2.4282 -0.0216  1.3739
 6541SOL    HW231257   1.498   0.431  17.350  0.6996 -1.6950  1.3802
 6542SOL     OW31258   3.035   0.387  14.029 -0.2562 -0.2275 -0.0285
 6542SOL    HW131259   3.046   0.346  13.944 -1.4502 -1.4216  0.3907
 6542SOL    HW231260   3.122   0.422  14.044 -0.2533  0.3420 -1.4295
 6543SOL     OW31261   4.391   0.514   6.551 -0.5042 -0.3227 -0.1614
 6543SOL    HW131262   4.374   0.434   6.601 -0.9771  0.4762  0.9564
 6543SOL    HW231263   4.471   0.542   6.595 -2.2443  2.2352  1.3779
 6544SOL     OW31264   1.761   0.208   4.737 -0.0885  0.2088 -0.0925
 6544SOL    HW131265   1.746   0.117   4.712  0.6601 -0.3683  1.5746
 6544SOL    HW231266   1.783   0.192   4.828 -2.5070 -0.3376  0.3905
 6545SOL     OW31267   2.007   2.118  11.741 -0.0951  0.6267  0.0162
 6545SOL    HW131268   2.011   2.086  11.831  0.3426 -0.0278 -0.2408
 6545SOL    HW231269   2.096   2.093  11.715 -0.2219  1.4906 -1.2609
 6546SOL     OW31270   0.868   0.981  16.463 -0.2280  0.3671 -0.1274
 6546SOL    HW131271   0.943   0.922  16.453  0.2215  0.7386  1.0304
 6546SOL    HW231272   0.913   1.061  16.489 -2.6040  0.9413  2.3239
 6547SOL     OW31273   1.332   2.946  16.633 -0.0271 -0.4787  0.3811
 6547SOL    HW131274   1.341   2.958  16.728  0.8479  0.9253  0.1268
 6547SOL    HW231275   1.287   3.027  16.608 -0.7305 -1.2814 -0.9371
 6548SOL     OW31276   0.214   3.152  14.671  0.9396  0.1561 -0.2756
 6548SOL    HW131277   0.140   3.149  14.610 -0.2251 -1.9488  1.2680
 6548SOL    HW231278   0.253   3.229  14.630  0.6326  1.7398  2.4072
 6549SOL     OW31279   2.705   3.482  10.498  0.1853  0.1967  0.1594
 6549SOL    HW131280   2.794   3.446  10.493 -0.0143 -0.4192  1.0903
 6549SOL    HW231281   2.723   3.571  10.528 -0.6115  1.1122 -2.1053
 6550SOL     OW31282   2.364   1.104   8.527  0.3438 -0.3777 -0.1761
 6550SOL    HW131283   2.405   1.024   8.562 -1.2598 -0.0917  2.2617
 6550SOL    HW231284   2.442   1.157   8.511  0.7907 -1.3641 -1.2943
 6551SOL     OW31285   2.464   1.956   8.484 -0.2466  0.7043  0.3198
 6551SOL    HW131286   2.553   1.944   8.451  0.6665  0.3505  2.8472
 6551SOL    HW231287   2.417   1.912   8.414 -1.6820  1.4855  0.7825
 6552SOL     OW31288   3.404   1.028   9.593  0.0731 -0.3937  0.4452
 6552SOL    HW131289   3.385   0.938   9.568  1.9448 -0.5198 -0.5354
 6552SOL    HW231290   3.465   1.022   9.667  2.0699  0.5050 -1.1356
 6553SOL     OW31291   4.006   1.301   4.257 -0.2762  0.0327  0.4424
 6553SOL    HW131292   4.101   1.290   4.263  0.0134  1.5941 -1.5282
 6553SOL    HW231293   3.976   1.267   4.341  1.2265  0.1605  1.0417
 6554SOL     OW31294   4.514   0.921  12.906  0.0164 -0.5398 -0.2692
 6554SOL    HW131295   4.608   0.939  12.910  0.1092 -1.1476  0.2297
 6554SOL    HW231296   4.492   0.965  12.988 -1.1258 -1.2661 -0.1866
 6555SOL     OW31297   0.163   3.394  12.514  0.4131 -0.3404 -0.3856
 6555SOL    HW131298   0.205   3.311  12.539 -0.1708 -0.8980 -1.2629
 6555SOL    HW231299   0.191   3.412  12.425  1.1036 -1.4294 -0.3832
 6556SOL     OW31300   1.861   4.537  12.331  0.4159  0.5430  0.7148
 6556SOL    HW131301   1.896   4.512  12.246  0.9210  0.4007  0.9685
 6556SOL    HW231302   1.779   4.487  12.323  0.4256  0.5280  0.7107
 6557SOL     OW31303   0.332   4.362   7.705  0.2365  0.0760 -0.2296
 6557SOL    HW131304   0.351   4.440   7.757 -2.1277 -0.1222  0.9087
 6557SOL    HW231305   0.405   4.305   7.730  0.4747  0.7349  0.5702
 6558SOL     OW31306   1.705   3.465   3.853 -0.2245 -0.2041  0.7023
 6558SOL    HW131307   1.770   3.417   3.904 -0.8207  1.8443  3.3831
 6558SOL    HW231308   1.713   3.444   3.760  0.9114  1.4788  0.4237
 6559SOL     OW31309   0.766   4.104   3.196 -0.2260  0.6017 -0.4643
 6559SOL    HW131310   0.759   4.054   3.277  0.6208  1.0025 -0.1509
 6559SOL    HW231311   0.742   4.187   3.238 -1.6155  0.6152 -1.2470
 6560SOL     OW31312   3.324   4.469  12.423  0.4633 -0.1308  0.2224
 6560SOL    HW131313   3.418   4.481  12.440  0.4465 -0.8427  0.8790
 6560SOL    HW231314   3.314   4.431  12.336 -1.4159  1.7342 -0.3556
 6561SOL     OW31315   0.280   0.823   9.648  0.0592  0.0919  0.4493
 6561SOL    HW131316   0.186   0.841   9.634  0.0373  2.5102  3.7813
 6561SOL    HW231317   0.284   0.746   9.705  1.6047  2.4779  3.5160
 6562SOL     OW31318   2.655   0.494   4.287  0.2731 -0.2586 -0.4603
 6562SOL    HW131319   2.562   0.514   4.295  0.5686  1.3487 -1.0580
 6562SOL    HW231320   2.651   0.423   4.223 -0.6840  0.8671 -1.6452
 6563SOL     OW31321   0.046   4.073   2.162  0.4424  0.2835  0.1548
 6563SOL    HW131322   0.016   4.163   2.178 -1.6916 -0.1508 -1.4728
 6563SOL    HW231323   0.131   4.070   2.206 -1.0983 -1.4281  3.0283
 6564SOL     OW31324   0.532   4.490   6.421  0.0690  0.2921 -0.3964
 6564SOL    HW131325   0.450   4.441   6.412  0.5414 -1.2153  3.3517
 6564SOL    HW231326   0.525   4.497   6.516 -0.7526  1.0112 -0.5111
 6565SOL     OW31327   4.566   0.339   9.199  0.4591  0.2388  0.9000
 6565SOL    HW131328   4.499   0.378   9.143 -0.7504  1.4408  3.1876
 6565SOL    HW231329   4.538   0.249   9.214 -0.9125  0.2989 -1.2804
 6566SOL     OW31330   2.458   3.747  10.900 -0.0285 -0.3050 -0.2230
 6566SOL    HW131331   2.491   3.708  10.981 -2.0791 -0.7313  0.4140
 6566SOL    HW231332   2.468   3.674  10.839 -1.3513 -1.1442  0.5503
 6567SOL     OW31333   4.037   4.017   7.284 -0.3074  0.3393  0.3743
 6567SOL    HW131334   4.128   4.037   7.307 -0.6859  2.5384 -0.0387
 6567SOL    HW231335   4.029   4.066   7.202 -0.7922 -2.5061 -1.2665
 6568SOL     OW31336   0.371   1.336   9.134 -0.1035  0.5369  0.2686
 6568SOL    HW131337   0.425   1.257   9.142 -1.7173 -0.5492  0.3084
 6568SOL    HW231338   0.427   1.398   9.086 -0.7967  1.4554  0.6548
 6569SOL     OW31339   4.088   1.074   4.606 -0.4158  0.5638  0.2293
 6569SOL    HW131340   4.152   1.122   4.554 -0.8118  1.9483  1.0353
 6569SOL    HW231341   4.010   1.074   4.550  1.1495 -1.5129 -1.9335
 6570SOL     OW31342   0.657   4.214  13.702  0.0458  0.5611 -0.7457
 6570SOL    HW131343   0.710   4.274  13.753 -0.8558  1.6119 -1.0275
 6570SOL    HW231344   0.699   4.130  13.717  2.1381  1.8052  0.2638
 6571SOL     OW31345   1.503   0.422  13.144 -0.1384  0.0080  0.2118
 6571SOL    HW131346   1.544   0.411  13.230 -0.2441  0.7698  0.3655
 6571SOL    HW231347   1.488   0.517  13.147  1.0313  0.2156 -0.7890
 6572SOL     OW31348   3.696   2.154   5.807  0.8176 -0.1238  0.4856
 6572SOL    HW131349   3.724   2.096   5.879 -1.4679 -1.2069  0.4764
 6572SOL    HW231350   3.617   2.111   5.774  0.6357  2.0061 -1.8139
 6573SOL     OW31351   0.134   2.487   8.774 -0.3701  0.0530  0.0541
 6573SOL    HW131352   0.171   2.402   8.798  0.2287  0.9159  2.1994
 6573SOL    HW231353   0.157   2.541   8.850 -0.8384 -0.0803  0.2917
 6574SOL     OW31354   1.507   0.061   9.136 -0.0809  0.4796  0.0176
 6574SOL    HW131355   1.412   0.053   9.144  0.1474 -0.1826  2.0949
 6574SOL    HW231356   1.523   4.727   9.076  0.4428  0.9931 -0.4717
 6575SOL     OW31357   3.018   1.226  11.948  0.1266 -0.1460 -0.2115
 6575SOL    HW131358   2.973   1.231  12.033  2.3777  0.8917  0.9373
 6575SOL    HW231359   2.957   1.172  11.899  0.2064 -0.3070 -0.1328
 6576SOL     OW31360   4.378   0.967  11.792 -0.5831  0.2602 -0.1081
 6576SOL    HW131361   4.327   0.955  11.872 -0.6475  4.0758  0.4230
 6576SOL    HW231362   4.465   0.984  11.829 -0.5768 -3.1851  1.4501
 6577SOL     OW31363   4.711   1.565   2.064  0.5504 -0.1399 -0.1637
 6577SOL    HW131364   0.025   1.635   2.102 -1.9685  1.7856 -0.2101
 6577SOL    HW231365   4.624   1.603   2.050  0.2332 -0.7510  0.1604
 6578SOL     OW31366   3.476   1.573   1.512  0.5140  0.1234 -0.1375
 6578SOL    HW131367   3.540   1.550   1.444  0.1227  0.6063 -0.6719
 6578SOL    HW231368   3.423   1.638   1.466  0.8612 -1.0584 -2.2054
 6579SOL     OW31369   0.629   4.411   3.297  0.0790  0.4891 -0.2328
 6579SOL    HW131370   0.598   4.500   3.313  0.5403  0.5689  0.1995
 6579SOL    HW231371   0.657   4.387   3.386 -0.9521  1.3006  0.3143
 6580SOL     OW31372   3.395   2.034   1.546  0.5030  0.6369  0.1778
 6580SOL    HW131373   3.454   2.029   1.621 -0.7974 -1.2952  1.0826
 6580SOL    HW231374   3.403   1.951   1.499  0.1995  0.3859  0.5673
 6581SOL     OW31375   2.992   0.306   4.614  0.1222 -0.3987 -0.5126
 6581SOL    HW131376   2.953   0.261   4.689 -0.3186 -2.5937 -2.0737
 6581SOL    HW231377   2.947   0.266   4.540 -1.5092 -0.5676  0.5648
 6582SOL     OW31378   4.547   0.079  12.815  0.0759 -0.3287 -0.0879
 6582SOL    HW131379   4.639   0.100  12.830  0.0685  0.1265 -0.6849
 6582SOL    HW231380   4.507   0.079  12.902  1.4796  0.4482  0.5447
 6583SOL     OW31381   0.461   3.359   9.126  0.1218 -0.6328  0.4659
 6583SOL    HW131382   0.479   3.281   9.074  0.1186  0.4970 -1.2225
 6583SOL    HW231383   0.456   3.417   9.050 -0.0399  0.3672  1.2456
 6584SOL     OW31384   3.279   0.574  16.192 -0.7448  0.7658 -0.2845
 6584SOL    HW131385   3.353   0.572  16.131  0.1553  1.2583  0.7771
 6584SOL    HW231386   3.279   0.657  16.240 -0.5717  1.3341 -1.2573
 6585SOL     OW31387   4.585   1.953  12.227  0.2781 -0.5667 -0.0422
 6585SOL    HW131388   4.534   1.939  12.307  1.2233 -0.4852  0.5727
 6585SOL    HW231389   4.538   1.896  12.166 -0.1310 -3.3696  2.9159
 6586SOL     OW31390   1.640   3.280   6.020 -0.3294 -0.7574  0.1159
 6586SOL    HW131391   1.569   3.324   5.974  0.6330 -1.7444 -2.2888
 6586SOL    HW231392   1.700   3.354   6.020 -0.7258 -0.4376 -0.6145
 6587SOL     OW31393   0.000   0.746  17.656 -0.6511  0.0659 -0.0694
 6587SOL    HW131394   4.646   0.762  17.672 -0.9401 -0.5731 -1.0959
 6587SOL    HW231395   0.012   0.656  17.687 -0.7170  0.0390 -0.1221
 6588SOL     OW31396   4.206   1.398   3.781 -0.1339 -0.3448 -0.3382
 6588SOL    HW131397   4.251   1.369   3.702 -1.9441  2.3217 -2.3628
 6588SOL    HW231398   4.263   1.472   3.802  2.1449 -2.1025 -0.3804
 6589SOL     OW31399   4.250   3.396  15.418  0.5017 -0.0487 -0.6928
 6589SOL    HW131400   4.269   3.382  15.325 -1.3737  0.2166 -1.1079
 6589SOL    HW231401   4.290   3.480  15.439 -1.1391  0.7965 -0.9633
 6590SOL     OW31402   3.783   3.854   4.279 -0.0744 -0.1795 -0.1656
 6590SOL    HW131403   3.760   3.940   4.243 -0.4582 -0.3389 -0.2888
 6590SOL    HW231404   3.853   3.892   4.333  0.6932 -1.3330 -0.3461
 6591SOL     OW31405   4.306   1.079   1.182 -0.8500 -0.5704  0.3597
 6591SOL    HW131406   4.287   1.019   1.253 -1.3522 -0.6475  0.1610
 6591SOL    HW231407   4.294   1.024   1.105  0.6001 -0.1184 -0.1944
 6592SOL     OW31408   2.547   1.912   9.133  0.9224 -0.0978  0.2739
 6592SOL    HW131409   2.598   1.859   9.194  1.6451 -0.8236 -0.9696
 6592SOL    HW231410   2.579   1.867   9.055 -0.3252 -1.2050  0.4075
 6593SOL     OW31411   0.684   0.292   9.147  0.4455 -0.5955 -0.9098
 6593SOL    HW131412   0.753   0.355   9.168 -0.0821 -0.7913  1.3861
 6593SOL    HW231413   0.641   0.293   9.233  0.1274  1.1459 -1.0985
 6594SOL     OW31414   2.510   1.334   5.789 -0.1496 -0.3686  0.1045
 6594SOL    HW131415   2.572   1.388   5.838 -0.9624  1.4056 -0.8562
 6594SOL    HW231416   2.535   1.248   5.824  1.3189 -1.0874 -2.6767
 6595SOL     OW31417   1.383   3.859   4.233  0.0265 -0.2362  0.1160
 6595SOL    HW131418   1.335   3.839   4.313  1.2067  0.0369  0.8892
 6595SOL    HW231419   1.332   3.818   4.163 -1.7134 -0.2749  1.3939
 6596SOL     OW31420   2.416   1.273   6.716 -0.2914 -0.4675 -0.0067
 6596SOL    HW131421   2.476   1.292   6.789 -0.2165 -0.8316  0.0260
 6596SOL    HW231422   2.399   1.180   6.725 -1.3928  0.1704  4.9392
 6597SOL     OW31423   3.454   1.866   8.141 -0.2424  0.2702 -0.1026
 6597SOL    HW131424   3.432   1.896   8.229  2.2784  1.1979  0.2185
 6597SOL    HW231425   3.490   1.947   8.104  0.3760  1.7171  3.7183
 6598SOL     OW31426   1.753   3.222   6.298 -0.2849 -0.1105  0.1102
 6598SOL    HW131427   1.703   3.262   6.226  2.3166  0.6442 -1.2702
 6598SOL    HW231428   1.715   3.256   6.379  0.4729 -1.2098  0.9219
 6599SOL     OW31429   1.108   1.552   4.916 -0.0927  1.0271 -0.3171
 6599SOL    HW131430   1.158   1.534   4.996  0.9432  0.6534 -1.0635
 6599SOL    HW231431   1.107   1.462   4.882  0.4336  1.0827 -0.4675
 6600SOL     OW31432   3.132   0.361   5.203 -0.1998  0.0698 -0.1860
 6600SOL    HW131433   3.117   0.380   5.111  0.1326 -1.8689 -0.6256
 6600SOL    HW231434   3.215   0.407   5.214 -0.2317 -0.1460  0.9671
 6601SOL     OW31435   2.057   3.608   2.910  0.8826  0.4232 -0.2086
 6601SOL    HW131436   2.040   3.700   2.928  0.3633 -0.0347  1.5829
 6601SOL    HW231437   2.001   3.555   2.966 -0.0033  2.8807  1.2329
 6602SOL     OW31438   3.027   1.203   7.697  0.2596  0.3350  0.4591
 6602SOL    HW131439   3.011   1.110   7.685 -0.6888  0.8576 -2.3614
 6602SOL    HW231440   3.096   1.218   7.633  1.4611 -0.5234  1.5396
 6603SOL     OW31441   3.299   3.144   4.164  0.4031  0.2681  0.6801
 6603SOL    HW131442   3.265   3.057   4.142  0.5192  1.1730 -3.0210
 6603SOL    HW231443   3.375   3.151   4.106  0.3420  1.9858  0.8082
 6604SOL     OW31444   0.538   3.299  12.434  0.3380  0.9159 -0.4291
 6604SOL    HW131445   0.589   3.365  12.481 -0.1241  0.0254  1.3468
 6604SOL    HW231446   0.476   3.273  12.503  1.5987  0.0444  0.3657
 6605SOL     OW31447   1.195   4.347  15.067 -0.4916  0.8547  0.8381
 6605SOL    HW131448   1.281   4.334  15.106 -0.7166  0.8220  1.3332
 6605SOL    HW231449   1.180   4.258  15.033  0.4900  1.5117 -1.3185
 6606SOL     OW31450   0.733   3.968  13.817  0.3757 -0.5710 -0.0658
 6606SOL    HW131451   0.819   3.938  13.785  0.7930 -1.5845  1.9786
 6606SOL    HW231452   0.690   3.889  13.849  2.4540 -1.4523  0.5876
 6607SOL     OW31453   1.641   1.901   1.154 -0.2686  0.1451  0.2358
 6607SOL    HW131454   1.603   1.814   1.165  2.6028 -0.7744  2.7963
 6607SOL    HW231455   1.728   1.869   1.130  0.2346  0.8766  1.0837
 6608SOL     OW31456   1.855   2.262   2.697  0.5322  0.3581  0.3836
 6608SOL    HW131457   1.931   2.206   2.684  1.0388  1.4135 -1.2150
 6608SOL    HW231458   1.907   2.337   2.727  0.3998 -0.3250  2.3443
 6609SOL     OW31459   1.238   0.615  14.805  0.8188  0.2262  0.5564
 6609SOL    HW131460   1.296   0.619  14.882  1.4406  2.6246 -0.0515
 6609SOL    HW231461   1.182   0.692  14.811 -0.2089 -0.4816 -0.0694
 6610SOL     OW31462   4.407   0.263  11.783  0.0530 -0.0659 -0.0025
 6610SOL    HW131463   4.338   0.327  11.803 -2.2227 -3.1658  2.1852
 6610SOL    HW231464   4.352   0.192  11.750  1.0093 -1.0611  0.5301
 6611SOL     OW31465   3.443   0.760   7.842  0.6000 -0.0143  0.1164
 6611SOL    HW131466   3.495   0.803   7.774  1.3678 -0.6074  0.3259
 6611SOL    HW231467   3.480   0.672   7.835 -1.5895 -1.1962  3.6334
 6612SOL     OW31468   1.758   2.035  16.439 -0.1105 -0.5295  0.5761
 6612SOL    HW131469   1.684   2.002  16.491  0.7996 -0.7824  1.7350
 6612SOL    HW231470   1.825   2.033  16.508  0.4203  0.5247  0.0846
 6613SOL     OW31471   1.959   0.739  15.123 -0.0551  0.1378  0.1206
 6613SOL    HW131472   1.903   0.683  15.069  0.8056  1.1192 -1.7963
 6613SOL    HW231473   2.042   0.724  15.077  0.2016  0.1967  0.5657
 6614SOL     OW31474   0.632   3.508  17.748  0.1654 -0.7536 -0.0331
 6614SOL    HW131475   0.697   3.460  17.696  0.2638 -1.2001  0.4881
 6614SOL    HW231476   0.638   3.598  17.716 -0.5701 -0.3498  0.9494
 6615SOL     OW31477   2.930   0.374   1.640  0.1510  0.3017  0.2815
 6615SOL    HW131478   2.985   0.308   1.598 -1.3263  0.5417 -1.9899
 6615SOL    HW231479   2.870   0.406   1.573  0.4440  0.7737  0.2483
 6616SOL     OW31480   1.101   4.046  17.125  0.2974 -0.0099 -0.5123
 6616SOL    HW131481   1.185   4.007  17.146 -0.1382 -0.2998  0.6621
 6616SOL    HW231482   1.096   4.124  17.181  1.5857 -0.0664 -0.3226
 6617SOL     OW31483   4.597   2.605   0.298  0.4366 -0.0983 -0.0065
 6617SOL    HW131484   4.530   2.661   0.338  0.8032  2.3935 -2.8432
 6617SOL    HW231485   4.570   2.516   0.319  2.6829 -0.9322 -0.7208
 6618SOL     OW31486   2.085   1.174   8.017  0.3206 -0.5491 -0.1935
 6618SOL    HW131487   2.141   1.102   7.987 -1.1236 -2.3839  1.4738
 6618SOL    HW231488   2.003   1.127   8.031 -0.6599  1.6810  1.5397
 6619SOL     OW31489   0.113   0.681   8.249  0.0194 -0.2851  0.0349
 6619SOL    HW131490   0.072   0.726   8.322  0.4921  0.5119 -0.1961
 6619SOL    HW231491   0.086   0.590   8.265 -0.3048 -0.4412 -1.3191
 6620SOL     OW31492   3.394   2.684  16.189 -0.2879  0.1552 -0.1605
 6620SOL    HW131493   3.462   2.622  16.159 -1.8734 -1.5621 -0.2253
 6620SOL    HW231494   3.445   2.715  16.263 -0.4705  0.6052 -0.2275
 6621SOL     OW31495   0.804   4.363   5.437 -0.2986  0.3797  0.0653
 6621SOL    HW131496   0.852   4.444   5.423  1.1078 -0.4939 -0.1898
 6621SOL    HW231497   0.756   4.345   5.356 -0.3682  0.2552  0.1340
 6622SOL     OW31498   1.880   4.264  13.144 -0.2195 -0.1038  0.2794
 6622SOL    HW131499   1.797   4.305  13.168  0.2601 -0.3423  2.3072
 6622SOL    HW231500   1.892   4.291  13.053  0.9794  0.7141  0.6714
 6623SOL     OW31501   3.372   4.327   3.381 -0.1498 -0.0303  0.0906
 6623SOL    HW131502   3.295   4.369   3.343  0.0530 -0.6276 -0.9971
 6623SOL    HW231503   3.377   4.251   3.323  0.4037  0.2113 -0.1852
 6624SOL     OW31504   0.805   2.439   1.650  0.2944  0.0678 -0.2179
 6624SOL    HW131505   0.713   2.419   1.663  0.1833 -0.1105 -1.3003
 6624SOL    HW231506   0.831   2.443   1.742 -0.0424  1.6929 -0.1983
 6625SOL     OW31507   2.899   2.512   7.602  0.0172 -0.4548 -0.3629
 6625SOL    HW131508   2.878   2.468   7.684 -0.6976 -0.3660 -0.5059
 6625SOL    HW231509   2.992   2.537   7.605 -0.4934  1.6486 -2.1082
 6626SOL     OW31510   2.249   3.877  10.041  0.5852  0.2864  0.1766
 6626SOL    HW131511   2.224   3.792  10.005  0.6870 -0.1220  1.0860
 6626SOL    HW231512   2.168   3.928  10.048  0.6646  0.4774 -0.2617
 6627SOL     OW31513   4.165   3.598   7.563  0.1923  0.7787 -0.1102
 6627SOL    HW131514   4.109   3.522   7.555  1.7187 -0.5322  1.5244
 6627SOL    HW231515   4.200   3.604   7.474  1.3018  0.5990  0.3129
 6628SOL     OW31516   3.101   4.436   1.861  0.4839 -0.1784  0.1250
 6628SOL    HW131517   3.019   4.449   1.908  0.1366  1.1448 -0.8439
 6628SOL    HW231518   3.112   4.342   1.843 -0.9186 -0.7298  2.1159
 6629SOL     OW31519   2.417   0.516  10.278  0.0529  0.0387 -0.4034
 6629SOL    HW131520   2.337   0.525  10.227 -0.8883 -2.1459  0.6645
 6629SOL    HW231521   2.400   0.460  10.355 -0.4835 -0.6710 -1.0444
 6630SOL     OW31522   0.415   3.722   9.093 -0.3338 -0.4846 -0.4763
 6630SOL    HW131523   0.435   3.683   9.178  1.1312 -1.2854 -1.1903
 6630SOL    HW231524   0.501   3.720   9.050  0.0573  0.7528  0.2237
 6631SOL     OW31525   1.203   0.991  16.375 -0.5363 -0.0117 -0.2091
 6631SOL    HW131526   1.288   0.952  16.396 -0.4175 -0.0699 -0.7963
 6631SOL    HW231527   1.163   0.994  16.462 -0.7103  0.8969 -0.3256
 6632SOL     OW31528   4.554   1.268  13.324 -0.4844  0.2938 -0.2768
 6632SOL    HW131529   4.544   1.221  13.407 -1.8286  2.1182  0.5983
 6632SOL    HW231530   4.649   1.284  13.328 -0.2894 -0.5975 -1.4997
 6633SOL     OW31531   3.090   4.733   2.818  0.6965 -0.2664 -0.2521
 6633SOL    HW131532   3.125   0.073   2.776 -0.2712 -1.3499 -3.1215
 6633SOL    HW231533   3.043   0.025   2.895 -0.0973  0.0553 -0.8692
 6634SOL     OW31534   1.707   1.821   9.116 -0.8329  0.2822 -0.0180
 6634SOL    HW131535   1.731   1.873   9.040 -1.5823  0.1125 -0.3680
 6634SOL    HW231536   1.705   1.884   9.188 -1.7250 -2.4081  2.3119
 6635SOL     OW31537   1.074   1.345   6.361 -0.3536 -0.2085 -0.2136
 6635SOL    HW131538   1.063   1.379   6.272 -2.2646 -1.8942 -0.6362
 6635SOL    HW231539   1.133   1.270   6.350  0.5171  0.5781 -0.9604
 6636SOL     OW31540   2.965   1.148   8.086  0.4133  0.1478  0.2406
 6636SOL    HW131541   3.041   1.175   8.036 -0.5814 -0.0230 -1.3561
 6636SOL    HW231542   2.909   1.226   8.088  0.8739  0.4873 -0.2850
 6637SOL     OW31543   1.425   0.034   7.225  0.4379  0.1189  0.0271
 6637SOL    HW131544   1.383   0.040   7.310 -1.2687 -0.6625 -0.7558
 6637SOL    HW231545   1.496   4.709   7.232 -1.8230 -2.6600 -2.1209
 6638SOL     OW31546   4.708   1.576  17.036 -0.3843  0.3730  0.5331
 6638SOL    HW131547   4.689   1.670  17.041  0.8933  0.6464  0.1242
 6638SOL    HW231548   4.666   1.550  17.118  0.3255 -2.6489 -0.0533
 6639SOL     OW31549   3.453   0.064   5.445 -0.1859 -0.2346  0.2940
 6639SOL    HW131550   3.498   4.720   5.429 -0.1994 -0.0788 -0.5526
 6639SOL    HW231551   3.516   0.098   5.508 -0.6199 -1.9129  1.6241
 6640SOL     OW31552   3.249   1.094  16.006 -0.4183  0.2562 -0.0256
 6640SOL    HW131553   3.180   1.046  16.052 -1.8267  2.9728  0.6902
 6640SOL    HW231554   3.299   1.028  15.959  1.9648  2.7134 -0.9553
 6641SOL     OW31555   1.724   4.049  11.068 -0.2050 -0.1556  0.1010
 6641SOL    HW131556   1.710   3.966  11.112 -2.1088  0.3608  0.4522
 6641SOL    HW231557   1.697   4.022  10.981 -1.4449 -0.3529  0.5481
 6642SOL     OW31558   2.841   3.886   4.596 -0.3755  0.3727 -0.4915
 6642SOL    HW131559   2.862   3.905   4.505 -0.2436 -1.0004 -0.7535
 6642SOL    HW231560   2.911   3.824   4.615 -0.4090 -0.1362 -2.0233
 6643SOL     OW31561   0.671   2.467   5.818  0.4634 -0.1061 -0.1454
 6643SOL    HW131562   0.710   2.404   5.879  1.0110 -0.2317 -0.6150
 6643SOL    HW231563   0.657   2.542   5.875  0.8985 -0.6436  0.6701
 6644SOL     OW31564   2.593   1.633   4.669 -0.0238 -0.2453  0.6243
 6644SOL    HW131565   2.650   1.687   4.724  0.6309 -2.3184  2.0238
 6644SOL    HW231566   2.585   1.550   4.717 -1.1504  0.4762  1.6665
 6645SOL     OW31567   3.340   1.866  17.629  0.4704  0.1142 -0.3428
 6645SOL    HW131568   3.379   1.780  17.644 -1.8024 -0.8161  0.2022
 6645SOL    HW231569   3.405   1.915  17.578  0.0945 -1.3301 -2.1935
 6646SOL     OW31570   2.353   2.348   4.101  0.3528 -0.3937  0.5776
 6646SOL    HW131571   2.400   2.327   4.020 -1.2455  1.0070 -0.7094
 6646SOL    HW231572   2.268   2.381   4.072  0.8352 -0.2077 -0.6715
 6647SOL     OW31573   4.597   4.339   6.930  0.0124 -0.6386 -0.0742
 6647SOL    HW131574   4.543   4.380   6.998  2.3714  0.9409  0.8211
 6647SOL    HW231575   4.656   4.276   6.972 -0.2025 -0.2091  0.8822
 6648SOL     OW31576   4.515   2.373   8.713 -0.4434  0.2746 -0.3441
 6648SOL    HW131577   4.566   2.443   8.672  0.6148 -0.0850  0.3363
 6648SOL    HW231578   4.443   2.368   8.650 -0.4459  0.8588 -0.3899
 6649SOL     OW31579   4.356   3.301   7.116  0.6778  0.4694 -0.2257
 6649SOL    HW131580   4.402   3.218   7.129  1.8291  1.1842  0.2185
 6649SOL    HW231581   4.271   3.273   7.149  1.3097  0.4760  1.4102
 6650SOL     OW31582   4.352   1.468   6.922 -0.4434 -0.3481  0.2901
 6650SOL    HW131583   4.412   1.503   6.987  0.2221  0.5056 -0.7960
 6650SOL    HW231584   4.267   1.490   6.960 -0.1188 -0.4541  1.0832
 6651SOL     OW31585   3.549   0.396   9.353 -0.4293  0.1651  0.0950
 6651SOL    HW131586   3.565   0.393   9.447  1.1307 -1.0347 -0.2097
 6651SOL    HW231587   3.506   0.479   9.335  0.6957  0.5882 -0.6529
 6652SOL     OW31588   1.258   0.003   2.543 -0.0576  0.0779  0.0691
 6652SOL    HW131589   1.265   4.718   2.451 -0.7021  0.1669  0.0029
 6652SOL    HW231590   1.190   0.070   2.543 -0.4764 -0.3532  0.2158
 6653SOL     OW31591   2.616   2.013  10.069 -0.2949 -0.1096  0.3902
 6653SOL    HW131592   2.590   2.080  10.133 -0.4410  0.4518 -0.2588
 6653SOL    HW231593   2.570   2.053   9.996  4.1275  0.8989 -1.8510
 6654SOL     OW31594   3.778   2.900  17.684  0.0934  0.3554 -0.3319
 6654SOL    HW131595   3.723   2.922   0.005  0.6137  2.8132 -0.6712
 6654SOL    HW231596   3.834   2.831  17.720  0.8816  1.3350  0.3250
 6655SOL     OW31597   0.384   1.271   9.572 -0.0704 -0.5258 -0.6572
 6655SOL    HW131598   0.298   1.245   9.606 -0.8024  0.3520 -1.8701
 6655SOL    HW231599   0.394   1.196   9.513 -1.0872 -0.9536 -0.2797
 6656SOL     OW31600   2.817   1.898   0.283  0.1824 -0.0070  0.1899
 6656SOL    HW131601   2.806   1.803   0.284  0.4898 -0.0283  1.4116
 6656SOL    HW231602   2.777   1.923   0.200 -0.3955  0.4215  0.5978
 6657SOL     OW31603   1.728   2.225   1.794 -0.5951  0.5120  0.4776
 6657SOL    HW131604   1.810   2.201   1.838 -0.4399 -2.0201 -1.1425
 6657SOL    HW231605   1.754   2.218   1.702 -3.1425  1.2790 -0.3066
 6658SOL     OW31606   3.537   3.204   4.001 -0.0785  0.1676  0.2212
 6658SOL    HW131607   3.538   3.186   3.906 -0.0305 -1.0741  0.4496
 6658SOL    HW231608   3.518   3.297   3.990  0.7978 -0.0697 -3.6309
 6659SOL     OW31609   0.917   1.715   8.641  0.4818  0.0080  0.0932
 6659SOL    HW131610   0.889   1.633   8.600 -0.1378 -0.9055  2.3487
 6659SOL    HW231611   0.842   1.729   8.699 -0.0368  0.0082 -0.5819
 6660SOL     OW31612   4.249   0.577   4.056  0.3470 -0.3248 -0.0488
 6660SOL    HW131613   4.215   0.627   4.130  0.8959 -1.0290  0.6773
 6660SOL    HW231614   4.323   0.631   4.027 -0.9555  2.3582  1.5877
 6661SOL     OW31615   1.362   0.994   2.036 -0.3875 -0.4918 -0.1446
 6661SOL    HW131616   1.447   0.949   2.031 -0.6473 -1.0402  0.4127
 6661SOL    HW231617   1.308   0.950   1.970 -0.0967  0.3484 -0.9432
 6662SOL     OW31618   1.505   2.032  15.964  0.4413 -0.1666  1.1755
 6662SOL    HW131619   1.416   1.999  15.950  0.2011 -0.1050  2.5620
 6662SOL    HW231620   1.531   1.995  15.880 -0.3775 -1.5714  1.5424
 6663SOL     OW31621   4.549   4.412  15.719 -0.5786  0.2481 -0.5291
 6663SOL    HW131622   4.592   4.485  15.763 -1.4859  0.2669  0.3311
 6663SOL    HW231623   4.504   4.389  15.800  0.3224  0.8653  0.1491
 6664SOL     OW31624   4.459   2.748   7.437  0.3994 -0.2689  0.3760
 6664SOL    HW131625   4.421   2.670   7.395 -0.2421 -0.1274  0.6933
 6664SOL    HW231626   4.429   2.814   7.374 -2.2119 -0.1498  1.7498
 6665SOL     OW31627   3.253   2.588   0.106 -0.0407  0.5505 -0.5895
 6665SOL    HW131628   3.195   2.602   0.032 -1.4872 -1.2100  0.1796
 6665SOL    HW231629   3.195   2.564   0.179  1.2744 -1.2092 -0.1121
 6666SOL     OW31630   1.258   4.690   8.839 -0.0592 -0.0084  0.6853
 6666SOL    HW131631   1.202   4.652   8.907  1.9423  1.1690  3.0202
 6666SOL    HW231632   1.252   0.046   8.849  1.6947  0.2199 -0.2903
 6667SOL     OW31633   2.857   0.210  12.868  0.0992 -0.5892 -0.7205
 6667SOL    HW131634   2.773   0.175  12.895  0.7732 -0.6421  1.3064
 6667SOL    HW231635   2.920   0.144  12.897 -1.3776 -1.1872  1.0852
 6668SOL     OW31636   2.231   3.672   1.985 -0.2026  0.2672 -0.1520
 6668SOL    HW131637   2.170   3.630   2.045 -1.3959  0.5303 -1.1570
 6668SOL    HW231638   2.316   3.659   2.027 -1.0441  0.0764  1.4681
 6669SOL     OW31639   3.921   1.787   0.425  0.2960  0.1789  0.8745
 6669SOL    HW131640   3.878   1.844   0.489 -0.1582  0.7518  0.0634
 6669SOL    HW231641   3.937   1.707   0.474 -1.0907 -0.8799 -0.3827
 6670SOL     OW31642   3.752   3.115   6.688 -0.2112 -0.0216  0.5898
 6670SOL    HW131643   3.753   3.044   6.752 -1.0410  0.6456  1.3460
 6670SOL    HW231644   3.687   3.082   6.626 -0.6498  0.5682  0.7361
 6671SOL     OW31645   1.186   2.872   3.578 -0.3968 -0.1707 -0.0076
 6671SOL    HW131646   1.119   2.889   3.512 -1.5590 -3.1121  0.4154
 6671SOL    HW231647   1.261   2.926   3.552  1.0177 -0.7450  2.8098
 6672SOL     OW31648   0.007   2.211  12.239 -0.4887  0.0930 -0.4472
 6672SOL    HW131649   4.657   2.237  12.261 -0.0534 -0.1362  1.5142
 6672SOL    HW231650   0.002   2.183  12.147 -2.1693 -2.2502  0.3578
 6673SOL     OW31651   2.916   3.922   7.636 -0.3878  0.2898  0.2751
 6673SOL    HW131652   2.961   3.948   7.717 -1.0705  0.3043  0.6480
 6673SOL    HW231653   2.889   3.832   7.656  0.1304  0.2529  0.8199
 6674SOL     OW31654   3.368   0.635   4.931  0.2268  0.2146  0.5346
 6674SOL    HW131655   3.400   0.700   4.994 -1.5455 -0.5841  2.2450
 6674SOL    HW231656   3.288   0.676   4.897 -1.1926 -1.1062  2.3131
 6675SOL     OW31657   0.537   4.674   6.174  0.1230  0.4010 -0.3037
 6675SOL    HW131658   0.566   4.583   6.168  1.1835  0.6821  0.5533
 6675SOL    HW231659   0.608   4.709   6.229 -0.0175  0.6036 -0.2486
 6676SOL     OW31660   0.063   0.518   1.764 -0.7079 -0.1054 -0.5134
 6676SOL    HW131661   0.148   0.496   1.726 -0.2273  0.3414  0.3001
 6676SOL    HW231662   0.006   0.449   1.730  0.0394 -1.0598  0.1606
 6677SOL     OW31663   3.733   1.619   6.249  0.0162 -0.0571  0.1998
 6677SOL    HW131664   3.738   1.594   6.157 -2.5633 -2.9956  0.8614
 6677SOL    HW231665   3.742   1.714   6.244 -0.5551  0.0034  0.2862
 6678SOL     OW31666   4.552   4.075   2.033  0.4156  0.1944  0.0857
 6678SOL    HW131667   4.628   4.052   2.088  0.7156  1.4759  0.2008
 6678SOL    HW231668   4.598   4.108   1.956  1.7185 -2.4027 -0.2373
 6679SOL     OW31669   1.016   1.459   1.694 -0.3373  0.4250 -0.3513
 6679SOL    HW131670   1.083   1.512   1.737  0.1644 -0.4592 -0.0550
 6679SOL    HW231671   0.959   1.434   1.768  1.6678 -1.0794  0.6652
 6680SOL     OW31672   2.331   2.921   5.213 -0.0247 -0.5495  0.2745
 6680SOL    HW131673   2.425   2.920   5.233 -0.5089 -0.8499  2.5586
 6680SOL    HW231674   2.304   2.845   5.265  0.4562 -0.5279  0.5639
 6681SOL     OW31675   2.145   4.166   5.356 -0.1045  0.0099  0.2147
 6681SOL    HW131676   2.126   4.164   5.262 -0.2940 -2.6257  0.3095
 6681SOL    HW231677   2.222   4.108   5.352 -0.1077  0.1023 -1.3042
 6682SOL     OW31678   2.102   3.174   8.821  0.1397  0.2563  0.7093
 6682SOL    HW131679   2.137   3.224   8.747  0.1687 -0.1979  0.4137
 6682SOL    HW231680   2.089   3.084   8.791  0.2506 -0.3398  2.4555
 6683SOL     OW31681   4.724   0.673   7.304  0.0967  0.4797 -0.2371
 6683SOL    HW131682   4.668   0.751   7.308 -0.8887 -0.1344 -1.7364
 6683SOL    HW231683   4.712   0.637   7.391 -0.7020 -0.6304 -0.8108
 6684SOL     OW31684   1.143   4.494   6.415 -0.6811 -0.1337 -0.4493
 6684SOL    HW131685   1.048   4.501   6.427 -0.5164  0.5168  0.5210
 6684SOL    HW231686   1.150   4.501   6.320 -1.4021 -2.1305 -0.6401
 6685SOL     OW31687   2.168   0.917   7.224  0.4313  0.0553  0.5044
 6685SOL    HW131688   2.157   0.914   7.319  5.3248  3.5932  1.1935
 6685SOL    HW231689   2.144   1.004   7.193  0.3105 -0.5503 -1.1137
 6686SOL     OW31690   4.315   4.047   1.943 -0.2518  0.1127 -1.2393
 6686SOL    HW131691   4.403   4.074   1.971 -1.7620  0.5847  2.9815
 6686SOL    HW231692   4.270   4.130   1.928 -0.0939  0.1334 -1.6153
 6687SOL     OW31693   3.759   4.656   7.866 -0.4718 -0.3049 -0.4202
 6687SOL    HW131694   3.776   4.616   7.781  2.0288  0.6757 -0.3747
 6687SOL    HW231695   3.849   4.659   7.898 -1.2015  0.2992  1.5476
 6688SOL     OW31696   1.540   4.296   1.027  0.0001  0.5149  0.4942
 6688SOL    HW131697   1.607   4.251   1.078 -1.2791  0.2984  1.9972
 6688SOL    HW231698   1.559   4.258   0.941  0.7387  0.6111  0.6163
 6689SOL     OW31699   1.864   4.729   6.675  0.0843  0.1693 -0.0526
 6689SOL    HW131700   1.905   0.065   6.717  1.7798  0.2836 -1.8967
 6689SOL    HW231701   1.901   0.000   6.587 -1.4426 -0.1678 -0.7430
 6690SOL     OW31702   0.957   4.314  15.987 -0.2003  0.1862  0.5517
 6690SOL    HW131703   0.972   4.341  15.897 -0.6849 -0.7339  0.1947
 6690SOL    HW231704   0.919   4.395  16.022  0.6939  1.1732 -0.8192
 6691SOL     OW31705   2.584   2.378  13.203 -0.2594  0.0139  0.0878
 6691SOL    HW131706   2.649   2.340  13.144 -1.0644  2.3852 -2.3315
 6691SOL    HW231707   2.598   2.473  13.202 -0.1020 -0.0221 -1.2174
 6692SOL     OW31708   1.348   4.221  11.715 -0.4673  0.3618 -0.1944
 6692SOL    HW131709   1.289   4.183  11.651  0.3087 -4.0694  1.6741
 6692SOL    HW231710   1.340   4.313  11.689  0.4818  0.7304  0.7956
 6693SOL     OW31711   4.606   0.392   1.604  0.6316 -0.3905  0.0237
 6693SOL    HW131712   4.541   0.462   1.591  0.5551 -0.6987 -1.2923
 6693SOL    HW231713   4.650   0.390   1.519  0.4765  0.9556 -0.0858
 6694SOL     OW31714   3.525   2.114   3.520  0.0302  0.3793 -0.1958
 6694SOL    HW131715   3.483   2.182   3.467  0.7767  0.1012 -1.1581
 6694SOL    HW231716   3.528   2.045   3.454 -1.1861  0.5820 -0.4630
 6695SOL     OW31717   4.273   3.071   6.883 -0.3416  0.2263 -0.0046
 6695SOL    HW131718   4.340   3.114   6.937  1.3674  0.3443 -2.1914
 6695SOL    HW231719   4.332   3.017   6.829  1.0668  0.6436  1.1142
 6696SOL     OW31720   1.709   3.529   2.022 -0.6927  1.0388  1.2990
 6696SOL    HW131721   1.793   3.484   2.009 -1.7938 -1.4056  2.7849
 6696SOL    HW231722   1.666   3.464   2.078 -0.4834  0.3611  0.6738
 6697SOL     OW31723   4.236   2.639   3.167  0.1441 -0.3230 -0.4410
 6697SOL    HW131724   4.263   2.549   3.186  1.3879 -0.0936 -1.1743
 6697SOL    HW231725   4.276   2.686   3.240 -0.3442 -0.9020  0.2008
 6698SOL     OW31726   0.382   0.939   3.431 -0.3993 -0.3755  0.1616
 6698SOL    HW131727   0.359   0.913   3.342 -1.2504 -0.2422  0.3448
 6698SOL    HW231728   0.418   1.027   3.422 -0.2206 -0.5493 -0.7921
 6699SOL     OW31729   1.882   2.356   4.307 -0.0715  0.3462 -0.1967
 6699SOL    HW131730   1.966   2.398   4.285  0.1953 -0.0913 -0.0140
 6699SOL    HW231731   1.914   2.273   4.343 -0.5615  0.0813 -0.3835
 6700SOL     OW31732   3.556   1.503   4.171  0.3484  0.4305  0.0400
 6700SOL    HW131733   3.648   1.478   4.172  0.3420  0.3618 -1.5079
 6700SOL    HW231734   3.520   1.458   4.248 -0.5403  1.1991  0.0681
 6701SOL     OW31735   1.126   3.357   4.059 -0.3461 -0.4035 -0.2388
 6701SOL    HW131736   1.158   3.315   4.139 -1.7086  0.6745  0.8710
 6701SOL    HW231737   1.045   3.392   4.096 -0.1441  1.0282 -1.1446
 6702SOL     OW31738   4.110   2.619  10.325  0.5316  0.3913 -0.1906
 6702SOL    HW131739   4.092   2.537  10.371 -0.3725  0.3798 -0.5752
 6702SOL    HW231740   4.191   2.604  10.276  0.3619  1.3794 -0.7804
 6703SOL     OW31741   3.887   4.168   7.052  0.4724  0.0709  0.1448
 6703SOL    HW131742   3.881   4.237   7.118 -1.6081 -1.5232  1.6269
 6703SOL    HW231743   3.952   4.204   6.992  0.3671  0.2599  0.1442
 6704SOL     OW31744   1.977   2.831  15.943 -0.0543 -0.1175 -0.7633
 6704SOL    HW131745   1.967   2.921  15.973  0.0352 -0.4261  0.1931
 6704SOL    HW231746   1.921   2.775  15.997 -1.5410  0.9406 -1.1842
 6705SOL     OW31747   3.696   4.011   6.952  0.5264 -0.3233 -0.2475
 6705SOL    HW131748   3.782   4.042   6.982  0.9574 -1.4883 -0.2825
 6705SOL    HW231749   3.720   3.929   6.909  0.3082  0.0919 -1.1653
 6706SOL     OW31750   4.615   4.719   4.401 -0.3883  0.2123 -0.1500
 6706SOL    HW131751   4.650   4.705   4.489 -0.6555 -1.3413 -0.2874
 6706SOL    HW231752   4.695   4.696   4.353 -0.6248  0.6578 -0.7490
 6707SOL     OW31753   1.885   3.470  11.729 -0.3735 -0.6327  0.1648
 6707SOL    HW131754   1.911   3.458  11.638  0.3215 -0.3475  0.3241
 6707SOL    HW231755   1.880   3.566  11.726  1.1762 -0.5739 -0.4972
 6708SOL     OW31756   3.373   2.430   7.100  0.3434 -0.6000 -0.0343
 6708SOL    HW131757   3.395   2.418   7.008  0.2292 -3.2977  0.2903
 6708SOL    HW231758   3.426   2.361   7.140  1.7174  0.3589 -0.2123
 6709SOL     OW31759   2.308   3.141   1.017  0.1919 -0.4021 -0.9876
 6709SOL    HW131760   2.238   3.121   0.956 -1.3128  0.3714  0.4897
 6709SOL    HW231761   2.267   3.154   1.102 -0.4278 -0.9603 -1.2030
 6710SOL     OW31762   2.768   1.596   5.704 -0.3185  0.7050 -0.1925
 6710SOL    HW131763   2.800   1.560   5.787  0.1770  1.3650 -0.0963
 6710SOL    HW231764   2.839   1.561   5.651  1.6596  3.3589  0.7234
 6711SOL     OW31765   3.826   1.312   9.683  0.1576 -0.1339 -0.2501
 6711SOL    HW131766   3.881   1.300   9.606 -0.2086 -0.1158 -0.5152
 6711SOL    HW231767   3.765   1.239   9.671  0.7721 -0.8189  0.7326
 6712SOL     OW31768   0.869   1.378   1.482 -0.6275  0.3997  0.2291
 6712SOL    HW131769   0.941   1.407   1.539  1.4115 -0.8731 -1.6748
 6712SOL    HW231770   0.792   1.396   1.535 -0.1995 -0.4721  1.1459
 6713SOL     OW31771   1.388   4.474  11.379 -0.2050 -0.4189  0.1900
 6713SOL    HW131772   1.404   4.392  11.332 -1.7289  0.5265 -1.9636
 6713SOL    HW231773   1.441   4.473  11.459  0.3814 -0.2040 -0.1902
 6714SOL     OW31774   2.072   0.853  10.798 -0.6308 -0.2647  0.4558
 6714SOL    HW131775   2.119   0.862  10.715 -0.4236  0.8479  0.6951
 6714SOL    HW231776   2.104   0.924  10.854  1.3484 -1.9750  1.4760
 6715SOL     OW31777   0.273   3.996   1.349  0.1864 -0.4378  0.0265
 6715SOL    HW131778   0.203   4.008   1.285 -0.6805  1.1530  1.2736
 6715SOL    HW231779   0.224   3.927   1.392 -0.5834 -0.7550 -1.3850
 6716SOL     OW31780   2.047   3.217   1.999 -0.0435 -0.2119  0.3642
 6716SOL    HW131781   1.977   3.261   2.047 -0.6616 -1.3082  0.4594
 6716SOL    HW231782   2.049   3.271   1.920 -0.5287 -2.2686 -1.0338
 6717SOL     OW31783   3.218   2.829   2.620 -1.0313  0.1960 -0.4303
 6717SOL    HW131784   3.133   2.797   2.589  0.2917 -2.6532 -1.1655
 6717SOL    HW231785   3.279   2.834   2.546 -1.6586 -1.5424 -1.0694
 6718SOL     OW31786   2.404   1.824  15.105  0.1085  0.6024  0.3468
 6718SOL    HW131787   2.493   1.860  15.103  0.0518  0.7616  0.6275
 6718SOL    HW231788   2.348   1.898  15.131 -0.9251  0.0598 -0.3100
 6719SOL     OW31789   3.391   4.041  10.473  0.3964 -0.1164 -0.1397
 6719SOL    HW131790   3.359   3.962  10.428 -1.7679  1.4666 -1.3653
 6719SOL    HW231791   3.485   4.023  10.468 -0.0461 -2.4182  0.0447
 6720SOL     OW31792   3.839   1.265   2.432 -0.1782 -0.2061 -0.1241
 6720SOL    HW131793   3.850   1.178   2.392 -1.3896 -0.3177 -0.2401
 6720SOL    HW231794   3.821   1.252   2.525 -1.1308  0.3899 -0.2211
 6721SOL     OW31795   2.673   1.361  11.813  0.0620 -0.4499 -0.3041
 6721SOL    HW131796   2.623   1.305  11.755  1.0676 -1.8625  0.1876
 6721SOL    HW231797   2.704   1.302  11.882  0.1358 -1.1974 -0.9827
 6722SOL     OW31798   1.134   3.797   1.757  0.4495 -0.1784 -0.8782
 6722SOL    HW131799   1.147   3.710   1.719  0.2150 -1.1918  1.3428
 6722SOL    HW231800   1.120   3.854   1.681  1.2786 -0.2303 -1.0739
 6723SOL     OW31801   3.855   1.600   5.174  0.1047  0.4154 -0.3439
 6723SOL    HW131802   3.929   1.576   5.230 -1.1294  0.2054  1.2026
 6723SOL    HW231803   3.791   1.529   5.182 -0.4510  1.2032  2.3043
 6724SOL     OW31804   2.379   4.021  11.303  0.2124 -0.3346  0.4479
 6724SOL    HW131805   2.351   3.946  11.356 -0.0240 -1.1111 -0.7764
 6724SOL    HW231806   2.368   3.979  11.218 -1.0474  0.9001 -0.0065
 6725SOL     OW31807   4.255   3.394   1.495 -0.2253  0.3277  0.3953
 6725SOL    HW131808   4.250   3.414   1.402 -1.3239 -2.2619 -0.1302
 6725SOL    HW231809   4.278   3.480   1.529  2.5284 -0.2707 -0.0157
 6726SOL     OW31810   4.327   2.587   8.952  0.3341 -0.1222 -0.1283
 6726SOL    HW131811   4.266   2.606   9.023 -0.6366  1.0523 -1.2907
 6726SOL    HW231812   4.334   2.492   8.953 -0.8425 -0.2162 -1.2332
 6727SOL     OW31813   0.414   0.656   6.701 -0.0698  0.0474  0.1238
 6727SOL    HW131814   0.387   0.678   6.790 -2.4892  0.9889 -0.8574
 6727SOL    HW231815   0.509   0.658   6.713 -0.3118 -0.9871  2.1299
 6728SOL     OW31816   1.343   2.317   9.478 -0.3160  0.3141 -0.3509
 6728SOL    HW131817   1.285   2.277   9.413 -0.8261  1.1350 -0.4057
 6728SOL    HW231818   1.272   2.333   9.540 -0.0641  0.2408 -0.0460
 6729SOL     OW31819   3.217   2.311   2.764  0.3208  0.8245 -0.2316
 6729SOL    HW131820   3.239   2.395   2.723 -1.2087  1.6096  0.5538
 6729SOL    HW231821   3.292   2.265   2.728 -1.5459 -0.5968 -2.3358
 6730SOL     OW31822   2.579   1.279  15.843 -0.0375 -0.1888  0.0889
 6730SOL    HW131823   2.634   1.245  15.772  1.4474  0.6633  0.8320
 6730SOL    HW231824   2.517   1.206  15.843  1.2038 -1.2265 -0.3868
 6731SOL     OW31825   0.568   2.774   5.287  0.0110  0.5485  0.4825
 6731SOL    HW131826   0.659   2.743   5.289 -0.2481 -0.2997 -1.4700
 6731SOL    HW231827   0.566   2.856   5.335 -0.8630  1.2626 -0.7909
 6732SOL     OW31828   3.203   0.017   7.827  0.0149  0.1684 -0.4217
 6732SOL    HW131829   3.248   0.041   7.908  0.9085 -0.4056 -0.7449
 6732SOL    HW231830   3.198   4.661   7.832 -0.7586  0.2052 -0.4822
 6733SOL     OW31831   4.340   4.264   8.769 -0.0418  0.0025 -0.4579
 6733SOL    HW131832   4.388   4.185   8.792  0.2433  0.1332 -0.5960
 6733SOL    HW231833   4.286   4.242   8.693 -2.1367  2.1706  0.3738
 6734SOL     OW31834   1.409   3.567  14.561 -0.9848  0.8379 -0.4905
 6734SOL    HW131835   1.324   3.542  14.596 -0.4258 -1.0010 -0.4351
 6734SOL    HW231836   1.469   3.528  14.624  1.5053  1.1221 -2.6515
 6735SOL     OW31837   1.768   0.504   5.085 -0.3908 -0.2757 -0.1923
 6735SOL    HW131838   1.847   0.540   5.045 -0.3244  1.0439  1.1123
 6735SOL    HW231839   1.753   0.561   5.161 -2.6710  0.7742 -1.4523
 6736SOL     OW31840   2.667   1.655   0.244 -0.3095 -0.2836  0.3605
 6736SOL    HW131841   2.652   1.638   0.151 -0.3815  0.0965  0.3042
 6736SOL    HW231842   2.575   1.666   0.269 -0.3993 -2.4085  1.0192
 6737SOL     OW31843   0.534   2.267   4.821  0.5171  0.7311  0.3937
 6737SOL    HW131844   0.497   2.314   4.896 -3.5198 -0.5764 -0.7767
 6737SOL    HW231845   0.610   2.227   4.864  0.1135 -1.6347 -1.0829
 6738SOL     OW31846   1.229   3.076   6.181  0.2084  0.1778 -0.3134
 6738SOL    HW131847   1.175   3.117   6.249  0.3046  0.4908 -0.4246
 6738SOL    HW231848   1.177   3.106   6.106  0.3891  0.4931 -0.3132
 6739SOL     OW31849   2.995   3.044   3.397  0.2838  0.3459 -0.1824
 6739SOL    HW131850   3.064   2.977   3.398  0.4262  0.4659 -1.6813
 6739SOL    HW231851   2.947   3.012   3.321 -0.0526 -0.3165  0.3104
 6740SOL     OW31852   3.236   2.104   5.704  0.4909 -0.1824  1.0155
 6740SOL    HW131853   3.224   2.194   5.735  0.3804 -0.9733  3.3166
 6740SOL    HW231854   3.147   2.069   5.693  0.9140 -0.3920 -1.6402
 6741SOL     OW31855   0.998   0.724   6.989 -0.3508  0.2241 -0.3916
 6741SOL    HW131856   0.922   0.764   7.032 -0.0678  0.3691 -0.0233
 6741SOL    HW231857   0.960   0.655   6.935 -1.7058  0.5901  0.1169
 6742SOL     OW31858   0.009   2.744   6.132 -0.1043 -0.0753  0.7083
 6742SOL    HW131859   0.047   2.685   6.198  0.9593 -0.0202  0.1445
 6742SOL    HW231860   0.077   2.808   6.114 -2.4744  1.6210 -2.1494
 6743SOL     OW31861   0.979   4.667   2.186 -0.4319 -0.5512  0.2252
 6743SOL    HW131862   0.904   4.662   2.127 -0.4392  1.9837  0.0316
 6743SOL    HW231863   0.992   0.023   2.193  0.0960 -0.4295 -2.4414
 6744SOL     OW31864   0.217   2.149   1.956  0.5290 -0.2336  0.3672
 6744SOL    HW131865   0.250   2.211   1.891 -0.4488 -2.2790 -2.0894
 6744SOL    HW231866   0.164   2.197   2.019  0.6613 -0.8977  0.9921
 6745SOL     OW31867   4.735   1.627  16.716  0.1544 -0.0276 -0.2840
 6745SOL    HW131868   4.707   1.630  16.808 -0.6110  1.6837 -0.5702
 6745SOL    HW231869   4.711   1.715  16.686 -0.9199  0.5646  2.2290
 6746SOL     OW31870   3.968   3.144   2.640  0.9135 -0.5006  0.1770
 6746SOL    HW131871   3.931   3.225   2.606  0.5671 -1.1361 -0.9827
 6746SOL    HW231872   3.966   3.089   2.562  1.7629  0.7192 -0.6969
 6747SOL     OW31873   1.728   0.430   7.537  0.2789 -0.6241  0.4657
 6747SOL    HW131874   1.715   0.472   7.622 -1.3282 -1.0007  0.4122
 6747SOL    HW231875   1.643   0.386   7.536 -0.0033 -0.0894  1.1538
 6748SOL     OW31876   0.434   2.476  12.921  0.3077  0.7149  0.0574
 6748SOL    HW131877   0.346   2.442  12.937  0.1804  1.0342  0.0352
 6748SOL    HW231878   0.485   2.417  12.978  0.2210  0.7376  0.1585
 6749SOL     OW31879   3.788   2.385  16.331  0.5611 -0.2395 -0.4312
 6749SOL    HW131880   3.845   2.394  16.255 -0.8135  2.9380 -1.0687
 6749SOL    HW231881   3.751   2.473  16.337 -1.9028 -1.0864 -3.7071
 6750SOL     OW31882   0.172   2.150   3.358  0.5348 -0.1309 -0.4055
 6750SOL    HW131883   0.209   2.062   3.346 -0.9255 -0.7233 -0.5980
 6750SOL    HW231884   0.208   2.199   3.284  2.1640 -0.2118  0.3531
 6751SOL     OW31885   3.610   0.905   6.064 -0.9743 -0.1540 -0.0570
 6751SOL    HW131886   3.662   0.973   6.020  0.0050  0.0682  1.4317
 6751SOL    HW231887   3.606   0.943   6.152 -1.5805 -0.5823  0.1011
 6752SOL     OW31888   4.158   3.232  17.481  0.4281 -0.2451 -0.6468
 6752SOL    HW131889   4.215   3.156  17.464  1.6248  0.6718 -0.7285
 6752SOL    HW231890   4.084   3.208  17.426  1.9145 -0.3618 -2.6298
 6753SOL     OW31891   0.801   1.211   6.102  0.0126 -0.1796  0.5094
 6753SOL    HW131892   0.765   1.274   6.040 -0.4967 -0.4397  0.5394
 6753SOL    HW231893   0.893   1.202   6.079  0.3581 -3.6340  3.2316
 6754SOL     OW31894   3.941   2.401  16.562  0.6259 -0.4645 -0.2429
 6754SOL    HW131895   3.921   2.377  16.472 -3.6202  0.1804  0.5280
 6754SOL    HW231896   3.859   2.440  16.594  0.8555 -0.1287 -0.0647
 6755SOL     OW31897   2.301   3.868   7.049  0.2254  0.6089  0.0611
 6755SOL    HW131898   2.346   3.854   6.966 -0.8742 -0.1558 -0.4089
 6755SOL    HW231899   2.222   3.814   7.038  0.5201  0.7276 -2.6592
 6756SOL     OW31900   3.187   1.433   7.781  0.3093 -0.2781  0.0635
 6756SOL    HW131901   3.281   1.416   7.788  0.4180  0.0414 -0.5986
 6756SOL    HW231902   3.151   1.356   7.739  0.9088  0.5477 -1.9357
 6757SOL     OW31903   2.918   0.454   2.254  0.7008 -0.0805  0.2001
 6757SOL    HW131904   2.893   0.386   2.190  0.6802  0.2820 -0.1777
 6757SOL    HW231905   2.882   0.412   2.332  0.6486 -1.2733 -0.4578
 6758SOL     OW31906   2.093   0.748   3.000  0.8209 -0.0126 -0.6473
 6758SOL    HW131907   2.081   0.655   2.985  1.1422 -0.0035 -0.9666
 6758SOL    HW231908   2.132   0.740   3.087 -1.7967 -1.8915  0.3601
 6759SOL     OW31909   1.721   4.294   5.464  0.2616 -0.1920 -0.5014
 6759SOL    HW131910   1.770   4.215   5.490 -1.5383 -1.2470 -0.3036
 6759SOL    HW231911   1.661   4.289   5.539 -0.8387 -3.2569 -1.5979
 6760SOL     OW31912   3.285   1.338   8.349  0.1869  0.3973  0.1772
 6760SOL    HW131913   3.224   1.264   8.341  2.3509 -1.1293 -2.1746
 6760SOL    HW231914   3.357   1.322   8.288  2.2107  2.3413  2.0507
 6761SOL     OW31915   3.840   0.401   5.988 -0.3673 -0.3846 -0.2853
 6761SOL    HW131916   3.868   0.437   5.904 -0.3799  0.9418  0.2747
 6761SOL    HW231917   3.924   0.383   6.030 -0.0124 -1.3568 -1.4450
 6762SOL     OW31918   1.814   4.422   9.051 -0.1177 -0.3794  0.1576
 6762SOL    HW131919   1.802   4.373   8.970  0.1791 -0.8266  0.3800
 6762SOL    HW231920   1.823   4.352   9.116  1.4102  0.8505  1.2903
 6763SOL     OW31921   0.703   3.696  10.844  0.2144 -0.3019  0.5587
 6763SOL    HW131922   0.725   3.645  10.921 -0.8684 -1.1346  0.3217
 6763SOL    HW231923   0.659   3.775  10.875  0.7736  0.7513 -1.3292
 6764SOL     OW31924   1.555   1.878   6.827  0.5035 -0.5460 -0.0447
 6764SOL    HW131925   1.601   1.913   6.903 -0.7416  0.3519  0.2772
 6764SOL    HW231926   1.533   1.955   6.775  0.2449  0.0832  1.0021
 6765SOL     OW31927   0.677   3.773   1.630  0.1941  0.3580 -0.4800
 6765SOL    HW131928   0.597   3.768   1.578  0.1283 -2.3481 -0.1072
 6765SOL    HW231929   0.740   3.739   1.566  1.7714  1.8610  0.2749
 6766SOL     OW31930   1.718   3.052  11.680  0.0987 -0.2277 -0.0877
 6766SOL    HW131931   1.720   3.020  11.589  3.7614 -0.1550 -0.0277
 6766SOL    HW231932   1.806   3.083  11.700 -0.6483  0.9362  1.3783
 6767SOL     OW31933   2.318   3.350   2.869  0.5359  0.1039 -0.2556
 6767SOL    HW131934   2.329   3.438   2.833  1.5585  0.7181  1.5288
 6767SOL    HW231935   2.321   3.286   2.798  2.1175 -0.3056  0.1628
 6768SOL     OW31936   3.037   1.278   1.250 -0.0518  0.0899 -0.0559
 6768SOL    HW131937   3.022   1.191   1.288 -2.3871  1.5550  2.3449
 6768SOL    HW231938   2.947   1.306   1.232  0.0166  0.6043  0.3848
 6769SOL     OW31939   1.630   2.169   8.497  0.3365  0.2970  0.3677
 6769SOL    HW131940   1.587   2.195   8.578  0.4721  2.1551 -0.1385
 6769SOL    HW231941   1.595   2.239   8.441  0.4129 -0.6010 -0.8040
 6770SOL     OW31942   2.482   0.753   4.091  0.3281 -0.6457 -0.0901
 6770SOL    HW131943   2.571   0.733   4.061  1.2232 -0.9290  2.7941
 6770SOL    HW231944   2.489   0.726   4.182 -1.6653 -1.7330 -0.2667
 6771SOL     OW31945   0.817   4.478  12.050 -0.0521 -0.3533  0.6904
 6771SOL    HW131946   0.803   4.403  12.108  1.9128 -2.2420 -1.2903
 6771SOL    HW231947   0.769   4.554  12.084 -0.2055  1.0929 -2.7725
 6772SOL     OW31948   4.003   3.740   7.933 -0.4360  0.2491 -0.2318
 6772SOL    HW131949   4.026   3.664   7.987  2.1410 -0.7703 -2.7488
 6772SOL    HW231950   4.030   3.808   7.995 -0.7257  0.1404  0.0149
 6773SOL     OW31951   0.483   0.405   4.807  0.0470  0.4190  1.0155
 6773SOL    HW131952   0.552   0.341   4.824 -0.8969 -0.2954  2.1108
 6773SOL    HW231953   0.411   0.345   4.790  0.4907  0.4230 -0.9909
 6774SOL     OW31954   2.760   2.679   3.358  0.3712  0.3819  0.1094
 6774SOL    HW131955   2.715   2.686   3.274  0.7681  2.1626  0.0558
 6774SOL    HW231956   2.682   2.665   3.412  1.1355  0.8544  1.3411
 6775SOL     OW31957   2.027   1.232   5.088 -0.1773  0.5481 -0.1566
 6775SOL    HW131958   1.936   1.231   5.057  0.0503 -1.5416 -0.7531
 6775SOL    HW231959   2.047   1.300   5.024  0.4532 -1.5638 -2.2069
 6776SOL     OW31960   0.365   3.948   7.068  0.0581 -0.5394  0.0683
 6776SOL    HW131961   0.351   4.023   7.126  0.9882 -1.2668  1.2417
 6776SOL    HW231962   0.348   3.870   7.122  0.9216 -1.2509 -0.6896
 6777SOL     OW31963   1.971   4.226   1.290 -0.0482  0.3535 -0.0008
 6777SOL    HW131964   1.941   4.315   1.307 -0.1197  0.1881  0.7683
 6777SOL    HW231965   1.903   4.176   1.335  0.5334 -1.3393 -1.0094
 6778SOL     OW31966   0.776   0.579  14.625 -0.6286 -0.1105 -0.4529
 6778SOL    HW131967   0.850   0.630  14.593  0.9005 -0.8068  1.9510
 6778SOL    HW231968   0.716   0.568  14.552 -1.2224  0.2580 -0.0221
 6779SOL     OW31969   3.118   3.892   4.806  0.2802  0.5563  0.1073
 6779SOL    HW131970   3.147   3.801   4.809  0.1822  0.5844  1.5623
 6779SOL    HW231971   3.093   3.904   4.897  2.2971 -0.6060  0.8140
 6780SOL     OW31972   3.088   1.851   9.947  0.0538  0.1004 -0.5432
 6780SOL    HW131973   3.010   1.884   9.993 -0.0856 -1.4215  0.3171
 6780SOL    HW231974   3.139   1.806  10.014  0.0854  0.2015 -0.5010
 6781SOL     OW31975   0.949   2.232   6.640  0.6284  0.0347  0.3904
 6781SOL    HW131976   0.873   2.194   6.596  0.8425 -0.9843  0.9077
 6781SOL    HW231977   0.929   2.323   6.618  1.0240  0.2079  0.7597
 6782SOL     OW31978   1.948   1.883   8.614 -0.3689 -0.1856 -0.1241
 6782SOL    HW131979   1.989   1.870   8.528  0.5042 -0.8259  0.3759
 6782SOL    HW231980   1.912   1.970   8.603 -1.3387 -0.6127 -0.2947
 6783SOL     OW31981   0.067   2.725   2.500 -0.2176  0.2678  0.5341
 6783SOL    HW131982   0.016   2.776   2.437 -2.9559 -2.3808  0.5854
 6783SOL    HW231983   0.058   2.759   2.589  0.4321  2.5394 -0.2720
 6784SOL     OW31984   1.483   3.116  16.914 -0.0827 -0.2187 -0.2204
 6784SOL    HW131985   1.396   3.075  16.919 -0.1168 -0.2352 -0.9302
 6784SOL    HW231986   1.479   3.171  16.992 -0.4102  0.1394 -0.4925
 6785SOL     OW31987   1.268   0.668   0.921  0.1917 -0.5708  0.3578
 6785SOL    HW131988   1.312   0.741   0.876 -2.1295  1.2384  1.0342
 6785SOL    HW231989   1.299   0.671   1.011 -0.4522 -1.0605  0.5898
 6786SOL     OW31990   2.026   4.220   5.115  0.3760 -0.1732  0.2259
 6786SOL    HW131991   1.994   4.164   5.044 -1.7228  1.3270 -0.0294
 6786SOL    HW231992   2.075   4.293   5.078 -1.1717  1.4237  1.3075
 6787SOL     OW31993   2.673   2.260  10.322 -0.0102  0.2739  0.1343
 6787SOL    HW131994   2.616   2.285  10.250  1.3645  1.6692 -0.4586
 6787SOL    HW231995   2.656   2.327  10.389 -1.0550 -0.6342  0.7810
 6788SOL     OW31996   3.340   2.188  15.335 -0.1328 -0.1873 -0.0119
 6788SOL    HW131997   3.247   2.166  15.338 -0.6762  2.4886  2.5644
 6788SOL    HW231998   3.338   2.283  15.321 -0.1925  0.0238  1.4510
 6789SOL     OW31999   0.229   3.982   2.419  0.3402 -0.3036 -0.1572
 6789SOL    HW132000   0.150   4.023   2.455  1.0771 -0.8428  2.0946
 6789SOL    HW232001   0.278   4.058   2.389  1.3585 -0.0980  2.0173
 6790SOL     OW32002   2.247   3.156  11.638 -0.0384 -0.0349 -0.5211
 6790SOL    HW132003   2.276   3.214  11.709  0.5536  1.6260 -2.1318
 6790SOL    HW232004   2.237   3.073  11.685  1.1055  0.3657  0.4303
 6791SOL     OW32005   1.158   3.654   5.813 -0.1806  0.8463 -0.1196
 6791SOL    HW132006   1.170   3.562   5.837  1.8990  1.2996  0.5214
 6791SOL    HW232007   1.185   3.651   5.721  2.3744 -0.4119  0.6929
 6792SOL     OW32008   1.272   1.452   5.095 -0.6178  0.0678 -0.1971
 6792SOL    HW132009   1.301   1.361   5.104  0.6251  0.3182 -1.6069
 6792SOL    HW232010   1.292   1.489   5.181  1.6629  0.6982 -0.9827
 6793SOL     OW32011   1.310   2.151   3.436 -0.3254 -0.3405 -0.1641
 6793SOL    HW132012   1.294   2.057   3.447 -1.6377 -0.4009 -2.4338
 6793SOL    HW232013   1.326   2.168   3.343 -0.1782  0.3476 -0.0132
 6794SOL     OW32014   1.588   1.730  14.861 -0.5617  0.4024 -0.1000
 6794SOL    HW132015   1.553   1.720  14.950  0.6827  0.9696  0.4445
 6794SOL    HW232016   1.669   1.679  14.864 -0.7872 -0.0696 -1.8781
 6795SOL     OW32017   1.612   0.842  10.618  0.0643  0.0190  0.3009
 6795SOL    HW132018   1.559   0.821  10.695  1.3966  1.8300  1.7382
 6795SOL    HW232019   1.682   0.897  10.653  0.2365  0.1668 -0.2942
 6796SOL     OW32020   4.559   3.313   8.117  0.5655  0.0034  1.0100
 6796SOL    HW132021   4.546   3.315   8.211 -1.4903 -1.0198  0.7447
 6796SOL    HW232022   4.478   3.268   8.093  1.4065 -0.6003 -0.7449
 6797SOL     OW32023   0.560   4.486   6.686  0.4638  0.1080  0.2427
 6797SOL    HW132024   0.582   4.396   6.712 -1.1061  0.2204  1.9672
 6797SOL    HW232025   0.481   4.500   6.738 -0.5246  0.6160 -1.3854
 6798SOL     OW32026   1.498   1.337   2.199  0.7134  0.4612  0.1146
 6798SOL    HW132027   1.427   1.356   2.138  0.2765  1.7529  1.0438
 6798SOL    HW232028   1.482   1.387   2.279 -0.3415  0.3553 -0.0385
 6799SOL     OW32029   4.531   4.498   2.134 -0.1194  0.6504  0.1713
 6799SOL    HW132030   4.599   4.560   2.108  0.5846 -0.3599 -0.4124
 6799SOL    HW232031   4.496   4.476   2.048  1.0343 -0.0506 -0.1081
 6800SOL     OW32032   3.863   4.579   3.073  0.0614  0.3243  0.0314
 6800SOL    HW132033   3.828   4.491   3.053 -0.2758  0.8367 -1.6771
 6800SOL    HW232034   3.787   4.634   3.093  0.1400 -0.1543  1.6186
 6801SOL     OW32035   3.419   0.313  13.728  0.1605 -0.5705  0.5504
 6801SOL    HW132036   3.386   0.256  13.658 -1.6927 -1.5112  2.1939
 6801SOL    HW232037   3.367   0.275  13.798 -0.0353 -0.6475  0.3642
 6802SOL     OW32038   3.425   1.512   1.759  0.2191 -0.3223  0.4470
 6802SOL    HW132039   3.386   1.434   1.721  1.7513 -0.1772 -1.4415
 6802SOL    HW232040   3.445   1.552   1.675  0.0512 -1.3502 -0.0791
 6803SOL     OW32041   4.347   3.669  15.400 -0.0821 -0.3939 -0.3733
 6803SOL    HW132042   4.442   3.686  15.400  0.0362 -0.9790  1.5272
 6803SOL    HW232043   4.319   3.711  15.319 -1.4534 -1.9382 -0.6936
 6804SOL     OW32044   0.473   3.640  14.923 -0.0139  0.1539 -0.3648
 6804SOL    HW132045   0.488   3.698  14.848  2.0621  0.5181  0.3204
 6804SOL    HW232046   0.503   3.555  14.892 -1.5849 -0.4024 -0.3431
 6805SOL     OW32047   0.058   0.889   5.034  0.2809  0.4308 -0.0200
 6805SOL    HW132048   0.005   0.894   5.114 -1.8116 -0.4902 -1.3353
 6805SOL    HW232049   0.094   0.803   5.056 -1.6536 -0.8265 -1.7865
 6806SOL     OW32050   3.648   3.563   1.493  0.4465 -0.3374 -0.4284
 6806SOL    HW132051   3.610   3.563   1.404 -1.5228  2.1461  0.4075
 6806SOL    HW232052   3.706   3.638   1.488  0.6196 -0.4530 -0.1339
 6807SOL     OW32053   2.399   4.004   3.794  0.2337  0.6066  0.5040
 6807SOL    HW132054   2.316   4.025   3.837 -0.3043  0.6218 -0.5527
 6807SOL    HW232055   2.375   4.024   3.704  0.7179 -0.0530  0.2214
 6808SOL     OW32056   0.037   1.887   7.316 -0.5281  0.2777  0.1883
 6808SOL    HW132057   0.125   1.905   7.349  0.2981 -2.3432 -0.5795
 6808SOL    HW232058   0.023   1.801   7.357 -0.4205  0.4129  0.5077
 6809SOL     OW32059   4.443   0.255   3.134 -0.1975 -0.1264 -0.9228
 6809SOL    HW132060   4.425   0.329   3.077  0.0663  0.4943 -0.1977
 6809SOL    HW232061   4.354   0.229   3.161  0.0259 -0.0762 -0.1438
 6810SOL     OW32062   0.629   2.022  16.977 -0.2647 -0.2908  0.1661
 6810SOL    HW132063   0.589   2.106  16.955  0.8598  0.0015 -0.7373
 6810SOL    HW232064   0.668   1.995  16.894  1.1647  0.9589  0.4287
 6811SOL     OW32065   1.271   0.050   4.552 -1.1901 -0.4508  0.6221
 6811SOL    HW132066   1.178   0.061   4.573 -1.3171 -0.8221  0.2532
 6811SOL    HW232067   1.299   0.138   4.528  0.3465 -0.8886  0.7794
 6812SOL     OW32068   2.245   4.310   3.081 -0.4207  0.2925 -0.3076
 6812SOL    HW132069   2.199   4.256   3.144 -2.6799 -0.8416 -2.9097
 6812SOL    HW232070   2.175   4.352   3.031  1.8964  1.5701 -2.5364
 6813SOL     OW32071   3.847   0.210   5.169 -0.3385 -0.1579 -0.3561
 6813SOL    HW132072   3.884   0.170   5.247  0.9852  0.7235 -0.5432
 6813SOL    HW232073   3.754   0.190   5.185 -0.8892  0.6316 -2.5340
 6814SOL     OW32074   1.450   0.846  10.387  0.1483  0.7177  0.1214
 6814SOL    HW132075   1.519   0.786  10.359  0.7028  1.7230 -0.7083
 6814SOL    HW232076   1.474   0.859  10.478 -2.3804  4.2965  0.2923
 6815SOL     OW32077   0.082   3.056   5.429 -0.1055  0.1514  0.0612
 6815SOL    HW132078   0.158   3.017   5.386  0.3005  2.3942 -1.2456
 6815SOL    HW232079   0.037   3.100   5.358  1.3997 -0.6809 -1.4085
 6816SOL     OW32080   4.498   1.994   2.471  0.7788  0.0114 -0.4935
 6816SOL    HW132081   4.564   1.982   2.403  2.7387  1.7595  1.0958
 6816SOL    HW232082   4.466   1.905   2.460 -0.6533  0.4247  0.2969
 6817SOL     OW32083   1.668   4.180  13.394 -0.2356  0.4622  1.1718
 6817SOL    HW132084   1.712   4.197  13.477 -1.8191  2.9341  1.4871
 6817SOL    HW232085   1.678   4.270  13.365  0.1417  0.2569  0.6526
 6818SOL     OW32086   1.002   3.195  11.905  0.2981  0.1212  0.1523
 6818SOL    HW132087   1.062   3.140  11.955  0.0192  2.4457  2.9936
 6818SOL    HW232088   1.058   3.207  11.828 -1.4172  1.4551 -0.8898
 6819SOL     OW32089   2.128   2.127   2.388  0.2675 -0.1875 -0.3433
 6819SOL    HW132090   2.175   2.061   2.336 -0.6233  0.1425 -1.5615
 6819SOL    HW232091   2.134   2.199   2.325 -0.1411  0.1113 -0.0389
 6820SOL     OW32092   3.376   0.904  12.648  0.1584  0.1448 -0.0854
 6820SOL    HW132093   3.452   0.924  12.594  0.2187  1.1145  0.3634
 6820SOL    HW232094   3.365   0.813  12.621  1.4528  0.2338 -0.9106
 6821SOL     OW32095   0.890   3.820  16.189 -0.2626 -0.6110  0.6811
 6821SOL    HW132096   0.973   3.817  16.235  0.6096  2.2303 -0.6894
 6821SOL    HW232097   0.867   3.912  16.203  0.2784 -0.6676  1.8788
 6822SOL     OW32098   0.752   3.872   8.236 -0.1884  0.4897 -0.5205
 6822SOL    HW132099   0.794   3.836   8.314  0.7202 -0.2786 -1.3568
 6822SOL    HW232100   0.704   3.797   8.200  0.3362  0.0301 -0.2582
 6823SOL     OW32101   2.303   2.316   6.598  0.1233  0.3042 -0.3046
 6823SOL    HW132102   2.242   2.256   6.555  0.2427  0.3927 -0.5973
 6823SOL    HW232103   2.246   2.390   6.617 -1.9999 -0.8759 -2.0186
 6824SOL     OW32104   3.430   1.836   5.493  0.4561  0.0049  0.1169
 6824SOL    HW132105   3.412   1.897   5.422  2.3078  0.2175 -0.1643
 6824SOL    HW232106   3.448   1.755   5.445  1.1264 -1.2386  2.4359
 6825SOL     OW32107   1.021   4.701   4.337  0.1669  0.0495  0.5867
 6825SOL    HW132108   1.044   4.624   4.390  1.1087 -0.7536 -0.9735
 6825SOL    HW232109   0.933   4.678   4.309  0.1252  0.9211 -0.0051
 6826SOL     OW32110   0.866   3.333   5.461 -0.3594 -0.6378  0.0364
 6826SOL    HW132111   0.935   3.368   5.404  0.4347 -0.7467  0.9410
 6826SOL    HW232112   0.828   3.411   5.502 -1.6039 -0.4804 -1.4076
 6827SOL     OW32113   3.919   2.689   1.192  0.0028  0.0533 -0.1566
 6827SOL    HW132114   3.999   2.729   1.159 -1.2135  1.7458 -1.0318
 6827SOL    HW232115   3.960   2.644   1.266 -0.1633 -0.5097 -0.4123
 6828SOL     OW32116   2.462   1.785   4.249  0.2661 -0.0537  0.1711
 6828SOL    HW132117   2.395   1.844   4.217 -0.6765  0.9833  4.0076
 6828SOL    HW232118   2.542   1.837   4.248 -2.2895  3.8285 -1.3667
 6829SOL     OW32119   0.191   0.713   1.239 -0.0202 -0.3093  0.0664
 6829SOL    HW132120   0.133   0.785   1.213 -0.4802 -0.0766  1.7355
 6829SOL    HW232121   0.262   0.742   1.182 -0.5252  0.6487 -0.0686
 6830SOL     OW32122   0.493   3.575   3.951 -0.5422  0.1663  0.1611
 6830SOL    HW132123   0.442   3.624   4.015 -0.4653 -0.3030  0.5744
 6830SOL    HW232124   0.423   3.531   3.901  0.7304  0.0333 -1.5182
 6831SOL     OW32125   2.698   1.918   5.073  0.4718 -0.4240 -0.1591
 6831SOL    HW132126   2.710   1.846   5.136 -0.6011 -0.1033  0.4021
 6831SOL    HW232127   2.760   1.975   5.119  1.4576 -0.9016 -0.8916
 6832SOL     OW32128   4.660   0.229  11.869 -0.4780 -0.2209  0.0311
 6832SOL    HW132129   4.722   0.297  11.842 -0.0993 -0.2939  0.7183
 6832SOL    HW232130   4.575   0.263  11.842 -1.3667 -1.6844  0.9714
 6833SOL     OW32131   3.515   1.053   5.522 -0.3991 -0.1528  0.2135
 6833SOL    HW132132   3.487   0.998   5.595 -0.6912 -1.0842 -0.5983
 6833SOL    HW232133   3.485   1.002   5.446 -0.0908 -2.3653  1.5769
 6834SOL     OW32134   0.901   1.931   2.073  0.1847  0.1286 -0.0005
 6834SOL    HW132135   0.853   1.848   2.076 -1.9643  1.3668  0.5764
 6834SOL    HW232136   0.989   1.920   2.106 -0.5390  1.3355  2.3398
 6835SOL     OW32137   1.032   0.839   5.375 -0.3880 -0.2821 -0.5084
 6835SOL    HW132138   1.091   0.831   5.450 -0.4284 -1.6759 -0.6272
 6835SOL    HW232139   1.048   0.924   5.334 -0.3892  0.0835  0.2416
 6836SOL     OW32140   3.868   3.832   4.677  0.1070 -0.2747  0.0413
 6836SOL    HW132141   3.781   3.812   4.712  0.2833 -0.8963  0.1080
 6836SOL    HW232142   3.913   3.850   4.759 -0.6435 -0.7693  0.5599
 6837SOL     OW32143   4.424   1.920   8.994  0.4753  0.3273  0.0286
 6837SOL    HW132144   4.483   1.933   9.068 -0.9496 -0.7511  1.3474
 6837SOL    HW232145   4.392   1.831   9.011  0.3209  0.0773 -1.5418
 6838SOL     OW32146   0.788   0.867   4.202 -0.0521  0.4923  0.0009
 6838SOL    HW132147   0.785   0.877   4.107 -1.1325  3.0279  0.3083
 6838SOL    HW232148   0.768   0.958   4.221  1.6587  1.0572 -0.8647
 6839SOL     OW32149   1.473   0.246   5.330 -0.1388  0.1113  0.1005
 6839SOL    HW132150   1.390   0.251   5.376 -0.1158 -2.7256  0.4861
 6839SOL    HW232151   1.459   0.166   5.279 -2.4734  0.1945  0.6178
 6840SOL     OW32152   1.638   2.194   7.953 -0.6811 -0.4814 -0.7504
 6840SOL    HW132153   1.710   2.207   7.891 -0.7299  1.2637 -0.4291
 6840SOL    HW232154   1.603   2.282   7.965 -0.4137 -0.5765  0.7031
 6841SOL     OW32155   0.030   3.463  12.774  0.5975  0.3223  0.3872
 6841SOL    HW132156   0.111   3.455  12.825  0.8458  1.8628  0.2268
 6841SOL    HW232157   0.054   3.412  12.697 -1.9447  1.2702 -1.0288
 6842SOL     OW32158   2.890   1.948   8.775 -0.4323  0.1526 -0.0578
 6842SOL    HW132159   2.844   2.026   8.744 -1.3536 -0.4089 -0.0788
 6842SOL    HW232160   2.928   1.917   8.693  0.8292  0.5277  0.3781
 6843SOL     OW32161   3.802   4.085   3.104  0.6747 -0.8084  0.1457
 6843SOL    HW132162   3.800   3.990   3.108  0.1760 -0.8083 -0.2058
 6843SOL    HW232163   3.766   4.115   3.188  0.8530 -0.5702  0.1378
 6844SOL     OW32164   4.047   2.724   2.676 -0.2108  0.7430  0.1253
 6844SOL    HW132165   4.116   2.712   2.742 -0.2418 -1.5445 -0.2420
 6844SOL    HW232166   4.002   2.642   2.697 -0.1210  0.2689 -1.5303
 6845SOL     OW32167   2.977   1.472  11.373 -0.5401 -0.0939  0.4802
 6845SOL    HW132168   2.967   1.498  11.464 -0.5272  1.4078  0.0567
 6845SOL    HW232169   2.906   1.517  11.326 -0.2798  0.7655  0.9031
 6846SOL     OW32170   2.360   3.240   4.616 -0.4581  0.2275 -0.2088
 6846SOL    HW132171   2.330   3.150   4.627 -2.2644  1.0047  1.1482
 6846SOL    HW232172   2.454   3.239   4.634 -0.5457 -2.0210  0.1108
 6847SOL     OW32173   1.495   3.653   4.795  0.8616 -0.0249 -0.7632
 6847SOL    HW132174   1.530   3.708   4.724 -1.0008 -0.0246 -1.6698
 6847SOL    HW232175   1.571   3.659   4.853  0.5152  0.5852 -0.3798
 6848SOL     OW32176   3.688   3.204   8.656 -0.2382 -0.3371 -0.0762
 6848SOL    HW132177   3.673   3.223   8.564 -1.8244  2.2897  0.7323
 6848SOL    HW232178   3.738   3.280   8.684  1.7386 -1.4693 -0.4897
 6849SOL     OW32179   2.854   2.347   7.387 -0.9308  0.0842 -0.0152
 6849SOL    HW132180   2.762   2.324   7.376 -0.7809  0.4188 -2.0241
 6849SOL    HW232181   2.861   2.399   7.467 -0.7574 -0.5721  0.4004
 6850SOL     OW32182   4.578   2.053   3.377 -0.1382 -0.3497  0.6013
 6850SOL    HW132183   4.489   2.084   3.357  0.3098  1.0473  0.7794
 6850SOL    HW232184   4.565   1.971   3.423 -0.2096 -0.5253  0.2697
 6851SOL     OW32185   0.580   3.763   9.789 -0.3807 -0.4252 -0.0100
 6851SOL    HW132186   0.537   3.725   9.866 -0.2874 -1.9261 -0.7055
 6851SOL    HW232187   0.568   3.857   9.801  0.4824 -0.4758  1.2436
 6852SOL     OW32188   0.676   0.719  12.111  0.1145  0.0871 -0.2026
 6852SOL    HW132189   0.630   0.718  12.195  0.2505 -0.5997 -0.1340
 6852SOL    HW232190   0.658   0.630  12.078 -0.4279 -0.1182  0.6477
 6853SOL     OW32191   0.076   0.661   2.008 -0.0717 -0.4969  0.0475
 6853SOL    HW132192   0.093   0.745   1.964  1.5774 -0.3653  0.9474
 6853SOL    HW232193   0.072   0.614   1.924  1.5434  1.7263 -1.2784
 6854SOL     OW32194   4.432   2.128  16.562  0.2291  0.2118  0.3220
 6854SOL    HW132195   4.392   2.043  16.542  1.0649 -0.1715  0.2785
 6854SOL    HW232196   4.467   2.136  16.473 -0.1465 -1.0737  0.0559
 6855SOL     OW32197   2.760   3.750   3.690 -0.0276 -0.2935  0.1525
 6855SOL    HW132198   2.813   3.677   3.723  1.0835  1.2556  1.8097
 6855SOL    HW232199   2.670   3.719   3.690 -0.3381  0.5893  2.0979
 6856SOL     OW32200   2.367   2.015   3.667 -0.2026 -0.0525  0.2425
 6856SOL    HW132201   2.334   2.093   3.712  1.9709  0.8514  0.2884
 6856SOL    HW232202   2.421   1.967   3.730  3.1203  0.7656 -2.0129
 6857SOL     OW32203   3.974   2.070   4.311  0.1733  0.0009  0.5832
 6857SOL    HW132204   3.949   2.151   4.266 -0.8308 -0.2872  0.6239
 6857SOL    HW232205   3.945   1.998   4.255 -0.6550  0.4316  0.4647
 6858SOL     OW32206   2.307   2.597   8.305 -0.1007  0.1621  0.1272
 6858SOL    HW132207   2.331   2.679   8.350 -2.2902  0.2953  1.0603
 6858SOL    HW232208   2.265   2.636   8.229 -2.2923 -0.3451  1.0982
 6859SOL     OW32209   3.446   4.253  10.674 -0.4438 -0.6528 -0.0102
 6859SOL    HW132210   3.460   4.191  10.745 -2.7092  0.1792  1.1340
 6859SOL    HW232211   3.390   4.207  10.612 -0.1006 -1.3326  0.1855
 6860SOL     OW32212   4.692   3.951   8.193 -0.1850 -0.4404  0.5784
 6860SOL    HW132213   4.681   3.903   8.276 -0.8038  0.3593  0.9554
 6860SOL    HW232214   4.649   4.034   8.212 -1.8246 -1.0850 -0.3466
 6861SOL     OW32215   2.541   4.372   9.200 -0.1834 -0.2396  0.3553
 6861SOL    HW132216   2.517   4.303   9.139  0.8826  0.3627 -0.7407
 6861SOL    HW232217   2.511   4.441   9.141 -1.4547 -0.4135  0.7839
 6862SOL     OW32218   3.488   2.513   5.831 -0.1608  0.3079  0.7525
 6862SOL    HW132219   3.408   2.471   5.797 -1.2210  1.4048  1.8995
 6862SOL    HW232220   3.456   2.602   5.846 -1.0538  0.6158 -2.8632
 6863SOL     OW32221   3.461   1.018   0.749  0.2319  0.2826 -0.5427
 6863SOL    HW132222   3.521   0.947   0.727 -0.0375  0.1251 -0.7790
 6863SOL    HW232223   3.435   0.984   0.834  0.8303 -0.2242 -0.5711
 6864SOL     OW32224   0.497   1.536   8.489  0.6290 -0.2703  0.1224
 6864SOL    HW132225   0.441   1.486   8.429 -0.4731  0.6358  0.4116
 6864SOL    HW232226   0.576   1.545   8.435  0.2340  0.3269 -0.3494
 6865SOL     OW32227   4.567   2.761  17.673  0.8816 -0.4216 -0.0788
 6865SOL    HW132228   4.491   2.816  17.690  1.0244 -0.7984  1.8118
 6865SOL    HW232229   4.549   2.677  17.715 -0.3487 -1.8782 -3.5107
 6866SOL     OW32230   0.493   0.996   8.857 -0.0563  0.4095  0.4586
 6866SOL    HW132231   0.502   0.964   8.768  1.6714 -1.3089  1.2349
 6866SOL    HW232232   0.577   0.969   8.895 -0.7489  0.2345  1.8671
 6867SOL     OW32233   3.885   1.559   9.875  0.3441 -0.0364 -0.3504
 6867SOL    HW132234   3.876   1.506   9.796 -0.4553  1.9852 -1.6345
 6867SOL    HW232235   3.832   1.507   9.934 -0.3617 -0.0013 -0.9484
 6868SOL     OW32236   4.122   4.626   2.503  0.0549  0.3502  0.1942
 6868SOL    HW132237   4.179   4.595   2.431 -3.6246  0.0491 -2.5791
 6868SOL    HW232238   4.170   4.704   2.530 -0.8603  1.1619 -0.5354
 6869SOL     OW32239   0.725   3.594  13.574  0.1482 -0.3059 -0.1954
 6869SOL    HW132240   0.728   3.565  13.483 -0.9556  3.8978 -1.5319
 6869SOL    HW232241   0.811   3.571  13.607  0.4932  1.4606  0.1273
 6870SOL     OW32242   0.914   4.292   7.102  0.0859 -0.1089  0.2134
 6870SOL    HW132243   0.964   4.347   7.043  0.2080  0.4108  0.7981
 6870SOL    HW232244   0.980   4.224   7.112 -1.7986 -2.0971 -0.9108
 6871SOL     OW32245   0.620   2.431   6.562 -1.0901  0.4104 -0.2364
 6871SOL    HW132246   0.581   2.347   6.588 -0.7876 -0.2887 -2.0123
 6871SOL    HW232247   0.558   2.487   6.608 -1.4591 -1.3103  1.3858
 6872SOL     OW32248   0.163   4.544   9.585  0.0534  0.4198  0.2098
 6872SOL    HW132249   0.162   4.615   9.521  1.1703 -0.1266 -0.4069
 6872SOL    HW232250   0.255   4.516   9.583 -0.2636 -0.7556  1.5843
 6873SOL     OW32251   0.944   2.721   4.017 -0.4223  0.1046 -0.1828
 6873SOL    HW132252   0.900   2.666   4.082  0.1888 -1.0557 -0.7451
 6873SOL    HW232253   0.980   2.656   3.957  0.6728 -2.1752  2.9730
 6874SOL     OW32254   1.289   3.864  10.518 -0.2685  0.3142  0.4818
 6874SOL    HW132255   1.205   3.827  10.545 -0.5208  1.3198  1.0574
 6874SOL    HW232256   1.256   3.943  10.476 -0.3239 -0.5004 -1.0284
 6875SOL     OW32257   1.996   2.690   1.158 -0.1137  0.1121  0.4350
 6875SOL    HW132258   1.954   2.633   1.093  0.7110 -0.8713  0.7590
 6875SOL    HW232259   1.980   2.779   1.127  1.9887 -0.4865 -2.3678
 6876SOL     OW32260   0.914   4.280   4.937 -0.6539 -0.2289  0.0949
 6876SOL    HW132261   0.909   4.238   5.023 -2.2233 -0.4364 -0.1013
 6876SOL    HW232262   0.963   4.218   4.882 -2.4741  0.4188 -2.2538
 6877SOL     OW32263   2.633   4.525   1.132  0.5457 -0.5518  0.5341
 6877SOL    HW132264   2.704   4.485   1.181  1.9190  0.7698 -0.3660
 6877SOL    HW232265   2.624   4.461   1.061  0.9504  0.7335 -0.6902
 6878SOL     OW32266   4.162   0.144   9.032 -0.1325  0.2201 -0.0458
 6878SOL    HW132267   4.185   0.051   9.032 -1.8320 -0.1919 -0.1606
 6878SOL    HW232268   4.086   0.135   9.089 -1.5398  0.7502 -1.8433
 6879SOL     OW32269   0.612   2.325   5.458  0.5772 -0.0699 -0.0016
 6879SOL    HW132270   0.649   2.310   5.371 -0.7076 -2.6753 -0.0868
 6879SOL    HW232271   0.557   2.401   5.440  0.3020 -0.5394 -1.1265
 6880SOL     OW32272   2.070   4.079   2.569 -0.3521 -1.0055 -0.2828
 6880SOL    HW132273   2.122   4.136   2.513 -1.0284  0.6854  0.7915
 6880SOL    HW232274   2.038   4.014   2.506  0.0139  0.3592 -1.8854
 6881SOL     OW32275   1.149   3.049   7.450  0.7401  0.2185 -0.2669
 6881SOL    HW132276   1.225   3.086   7.495  1.7160 -1.3338 -0.6258
 6881SOL    HW232277   1.090   3.050   7.526  1.6765  2.1627  0.4234
 6882SOL     OW32278   3.236   1.159   6.091 -0.0729  0.0777 -0.5360
 6882SOL    HW132279   3.206   1.243   6.127 -0.6233 -0.0863 -0.6060
 6882SOL    HW232280   3.230   1.114   6.175 -1.4284  0.6018 -0.3397
 6883SOL     OW32281   2.786   2.105   9.339  0.7713  0.1606  0.2967
 6883SOL    HW132282   2.793   2.144   9.426  0.0393 -4.1461  2.3140
 6883SOL    HW232283   2.781   2.012   9.362  1.8161  0.3083  1.1174
 6884SOL     OW32284   0.029   2.844  12.093 -0.5865  0.1119 -0.1808
 6884SOL    HW132285   0.004   2.926  12.050 -1.8052  0.6173  1.4760
 6884SOL    HW232286   0.125   2.845  12.088 -0.4974  0.8112  1.4072
 6885SOL     OW32287   0.298   0.488  14.430  0.0740  0.2055  0.3139
 6885SOL    HW132288   0.360   0.437  14.377 -0.7264  1.8506 -2.2021
 6885SOL    HW232289   0.209   0.465  14.406  0.6847  0.9901 -2.7344
 6886SOL     OW32290   3.276   3.517   6.626 -0.0588  0.1972 -0.1090
 6886SOL    HW132291   3.231   3.511   6.542 -0.7523  1.8579  0.1433
 6886SOL    HW232292   3.285   3.611   6.638 -2.8076  0.1946  1.9194
 6887SOL     OW32293   0.391   2.990   5.033  0.0597  0.1061 -0.2841
 6887SOL    HW132294   0.397   2.917   4.971  0.9119 -0.6724  0.7233
 6887SOL    HW232295   0.429   3.063   4.983  1.1511  0.3478  0.8913
 6888SOL     OW32296   1.241   4.276   2.080 -0.1748  0.3021  0.2345
 6888SOL    HW132297   1.266   4.232   2.161 -0.5694  0.1269  0.2623
 6888SOL    HW232298   1.270   4.366   2.097  0.7455  0.0013  0.2598
 6889SOL     OW32299   0.111   3.768   5.361  0.4017  0.1663  0.1888
 6889SOL    HW132300   0.056   3.729   5.429  3.1190 -0.1635  2.1962
 6889SOL    HW232301   0.183   3.811   5.407  0.8665 -1.3087  0.8450
 6890SOL     OW32302   0.126   3.498   5.867 -0.2473 -0.4954  0.0959
 6890SOL    HW132303   0.167   3.472   5.784  0.5962  1.5104 -0.1256
 6890SOL    HW232304   0.104   3.590   5.849  0.4865 -0.1617  0.9158
 6891SOL     OW32305   4.355   3.377   7.817  0.1050 -0.2960 -0.1855
 6891SOL    HW132306   4.322   3.452   7.867  3.2292  0.0609  1.3296
 6891SOL    HW232307   4.337   3.301   7.872 -2.1434  1.2296  1.1657
 6892SOL     OW32308   3.039   3.959   3.985  0.2147 -0.8474  0.0413
 6892SOL    HW132309   3.088   3.890   4.030  1.2796 -0.3467 -0.3521
 6892SOL    HW232310   2.955   3.959   4.030 -0.7484 -0.3353 -1.7831
 6893SOL     OW32311   3.445   2.723  11.596  0.1202 -0.2139 -0.3020
 6893SOL    HW132312   3.384   2.774  11.542  0.0736  0.0283 -0.0183
 6893SOL    HW232313   3.404   2.727  11.682  0.5981  3.1310 -0.2317
 6894SOL     OW32314   1.234   2.504   8.978 -0.6308  0.7154  0.2712
 6894SOL    HW132315   1.142   2.483   8.992  0.1058 -1.6730  1.5184
 6894SOL    HW232316   1.236   2.511   8.882  0.1138  0.5788  0.2746
 6895SOL     OW32317   4.050   3.728   4.156  0.5014 -0.6277 -0.2997
 6895SOL    HW132318   3.958   3.738   4.180 -0.2179 -0.6894 -3.0261
 6895SOL    HW232319   4.055   3.795   4.087  1.2346  1.0758  1.3874
 6896SOL     OW32320   3.575   2.650   2.660 -0.5732  0.4550 -0.5211
 6896SOL    HW132321   3.646   2.692   2.612  2.3367 -1.5614  2.0793
 6896SOL    HW232322   3.614   2.563   2.656 -2.3207 -0.4084  1.0799
 6897SOL     OW32323   1.577   0.707  16.027 -0.2846  0.3607 -0.2473
 6897SOL    HW132324   1.582   0.628  16.081 -2.5526  0.0756 -0.4293
 6897SOL    HW232325   1.484   0.698  16.006 -0.2448  0.5817 -0.5165
 6898SOL     OW32326   3.910   0.010  11.709 -0.0430  0.2004  0.0732
 6898SOL    HW132327   3.887   4.657  11.722  1.0068 -0.2878 -1.5798
 6898SOL    HW232328   3.899   0.022  11.614  0.0007  0.5173  0.1078
 6899SOL     OW32329   2.566   0.692   2.619 -0.6862  0.1967  0.4432
 6899SOL    HW132330   2.567   0.679   2.714  0.4340 -0.3888  0.3522
 6899SOL    HW232331   2.503   0.765   2.616 -2.0653 -1.1134 -2.2254
 6900SOL     OW32332   4.393   2.340   1.374  0.1551  0.6898 -0.3460
 6900SOL    HW132333   4.411   2.248   1.393 -1.2022  0.8045  1.4907
 6900SOL    HW232334   4.354   2.370   1.456  0.8352 -0.6819  0.4781
 6901SOL     OW32335   0.665   3.834  10.219  0.3553 -0.0061 -0.3892
 6901SOL    HW132336   0.698   3.910  10.171  1.1612 -0.3919 -0.4463
 6901SOL    HW232337   0.591   3.873  10.266  1.2176  0.8771  0.2605
 6902SOL     OW32338   1.622   0.747   6.621 -0.1254  0.1823 -0.6923
 6902SOL    HW132339   1.597   0.758   6.713  1.3898  1.6255 -0.4614
 6902SOL    HW232340   1.557   0.679   6.604  2.2132 -1.9359 -1.1289
 6903SOL     OW32341   1.134   4.334   3.674 -0.2484 -0.9535  0.4038
 6903SOL    HW132342   1.071   4.405   3.664  0.0596 -0.3293  2.9511
 6903SOL    HW232343   1.220   4.375   3.683 -0.9040  0.6453 -0.5617
 6904SOL     OW32344   2.679   0.156   7.075 -0.3206  0.5277 -0.7081
 6904SOL    HW132345   2.727   0.073   7.071 -2.1976 -0.5229 -1.1106
 6904SOL    HW232346   2.737   0.211   7.129  0.0252  0.3261 -0.8722
 6905SOL     OW32347   2.121   0.331   4.381 -0.5216 -0.5056  1.2067
 6905SOL    HW132348   2.096   0.245   4.347 -0.2264 -0.5991  1.2194
 6905SOL    HW232349   2.092   0.369   4.298  3.0307  1.4858  0.8819
 6906SOL     OW32350   0.277   1.496   2.272  1.0294 -0.5398 -0.1856
 6906SOL    HW132351   0.371   1.504   2.285  0.8695 -3.0996  2.5566
 6906SOL    HW232352   0.262   1.433   2.343  0.6169 -0.1378  0.0903
 6907SOL     OW32353   0.700   0.998  14.390 -0.2384 -0.1079 -0.4616
 6907SOL    HW132354   0.637   0.943  14.344 -0.3964  1.2929 -1.8972
 6907SOL    HW232355   0.777   0.999  14.333  1.1532  0.6517  1.4096
 6908SOL     OW32356   2.259   0.110   3.614 -0.1665 -0.2913  0.2546
 6908SOL    HW132357   2.269   0.061   3.532  0.1267  1.6781 -0.8928
 6908SOL    HW232358   2.344   0.154   3.622 -1.2281  1.8356 -0.0945
 6909SOL     OW32359   3.553   0.553   6.470  0.0532 -0.1904 -0.2567
 6909SOL    HW132360   3.583   0.633   6.427 -0.1183  0.0323  0.0328
 6909SOL    HW232361   3.460   0.546   6.449 -0.1089 -0.0442  0.4170
 6910SOL     OW32362   2.901   4.731  11.943 -0.8772  0.2958 -0.4377
 6910SOL    HW132363   2.887   4.658  12.004 -0.7606  0.5737 -0.0762
 6910SOL    HW232364   2.957   4.687  11.879 -0.0597 -1.9737  1.8479
 6911SOL     OW32365   2.639   1.464  16.952  0.0498 -0.0838 -0.2417
 6911SOL    HW132366   2.658   1.419  16.870  2.0245 -0.7277  0.5838
 6911SOL    HW232367   2.545   1.456  16.971  0.6427 -1.8272  1.9500
 6912SOL     OW32368   2.940   0.380   9.681  0.1759 -0.5893  0.3342
 6912SOL    HW132369   2.847   0.366   9.700 -0.2582  0.4338 -1.0637
 6912SOL    HW232370   2.969   0.292   9.704  3.6503 -0.0225 -1.8651
 6913SOL     OW32371   2.125   1.751   1.854  0.3098 -0.3179 -0.1254
 6913SOL    HW132372   2.054   1.808   1.826 -1.8957 -3.4712 -0.9242
 6913SOL    HW232373   2.170   1.821   1.902 -0.6274  0.0444  0.2096
 6914SOL     OW32374   1.031   3.667   8.150 -0.3549 -0.1708 -0.0668
 6914SOL    HW132375   1.074   3.683   8.066 -2.1974 -1.4617 -1.2920
 6914SOL    HW232376   1.054   3.747   8.197 -1.8140  0.2451 -0.0494
 6915SOL     OW32377   1.573   3.265   8.974 -0.4596 -0.0353  0.1903
 6915SOL    HW132378   1.577   3.222   9.059  3.1098  1.7080  0.9346
 6915SOL    HW232379   1.602   3.354   8.994 -0.8853 -0.0683  0.9418
 6916SOL     OW32380   3.540   4.406  10.016  0.2517 -0.1675 -0.7441
 6916SOL    HW132381   3.483   4.473  10.053 -1.5548 -0.6993 -2.5739
 6916SOL    HW232382   3.621   4.446  10.048 -0.5581 -0.2356  1.4251
 6917SOL     OW32383   0.460   2.240   2.387  0.0366 -0.3696  0.0002
 6917SOL    HW132384   0.520   2.267   2.457  0.6282 -0.4544 -0.4674
 6917SOL    HW232385   0.425   2.325   2.357 -0.5616 -0.8836 -0.7601
 6918SOL     OW32386   1.576   0.776  12.104 -0.9248 -0.0663  0.1891
 6918SOL    HW132387   1.612   0.848  12.051  1.0714 -0.4447  1.0171
 6918SOL    HW232388   1.542   0.722  12.033  1.4378  0.2901 -1.2264
 6919SOL     OW32389   4.265   0.020  15.876 -0.3272 -0.3818 -0.0089
 6919SOL    HW132390   4.352   0.051  15.902 -1.8660  2.9861  1.1021
 6919SOL    HW232391   4.277   0.001  15.783  0.3426 -0.5408  0.1096
 6920SOL     OW32392   2.711   3.948   2.481  0.2898 -0.0928  0.1298
 6920SOL    HW132393   2.743   3.902   2.558  0.4102 -0.1020  0.0739
 6920SOL    HW232394   2.715   4.039   2.509  0.6325 -0.6467  1.9046
 6921SOL     OW32395   2.412   4.521   2.965 -0.1569 -0.0184  0.1736
 6921SOL    HW132396   2.402   4.502   2.872  0.0997 -0.5419  0.2585
 6921SOL    HW232397   2.357   4.450   2.997  1.8212 -1.6272 -0.0130
 6922SOL     OW32398   0.789   4.581   7.191  0.0006  0.1026  0.2386
 6922SOL    HW132399   0.832   4.500   7.163 -0.7071  0.0371 -0.6714
 6922SOL    HW232400   0.720   4.558   7.254 -0.2959  2.1991  0.6752
 6923SOL     OW32401   0.008   3.967   6.335 -0.2291 -0.3722 -0.1898
 6923SOL    HW132402   0.042   3.922   6.259  0.4857 -1.5314  0.8209
 6923SOL    HW232403   4.724   3.896   6.395  0.6613 -0.5136 -0.0278
 6924SOL     OW32404   4.067   0.994   3.759 -0.2482 -0.0161 -0.3610
 6924SOL    HW132405   4.071   0.989   3.855  0.8651 -1.3825 -0.4821
 6924SOL    HW232406   4.159   0.984   3.734 -0.8436 -1.7203 -1.8003
 6925SOL     OW32407   1.672   0.874   7.070 -0.0826 -1.2141 -0.0940
 6925SOL    HW132408   1.658   0.841   7.159 -4.4806 -2.4381 -1.2082
 6925SOL    HW232409   1.735   0.946   7.071 -1.9373  0.4171 -1.7971
 6926SOL     OW32410   0.654   2.587  14.860  0.2518  0.3671  0.0885
 6926SOL    HW132411   0.647   2.654  14.928  1.5078 -0.4857  1.0444
 6926SOL    HW232412   0.565   2.592  14.825 -0.0819 -0.2883  0.8565
 6927SOL     OW32413   4.709   3.905  11.925 -0.8162 -0.2042  0.4812
 6927SOL    HW132414   4.737   3.815  11.944  2.1490  0.5357 -0.2836
 6927SOL    HW232415   0.021   3.929  11.848 -1.7318 -0.0511 -0.0667
 6928SOL     OW32416   1.944   3.789   1.515 -0.4898  0.0307  0.5208
 6928SOL    HW132417   1.991   3.803   1.434 -1.0732  1.5644  0.4542
 6928SOL    HW232418   1.861   3.833   1.494 -1.1325 -1.4289 -0.0088
 6929SOL     OW32419   0.592   2.367  11.890 -0.6465 -0.0363  0.1382
 6929SOL    HW132420   0.529   2.321  11.835  1.0663  1.0236 -2.7296
 6929SOL    HW232421   0.676   2.338  11.854 -0.8418 -0.4986  0.0531
 6930SOL     OW32422   3.781   0.752   8.017  0.2310  0.2667 -1.0928
 6930SOL    HW132423   3.695   0.749   8.059  1.1853 -0.4411  0.8027
 6930SOL    HW232424   3.763   0.716   7.930 -1.7274  0.3869 -0.7292
 6931SOL     OW32425   3.904   2.809   1.882  0.1594 -0.4028  0.2824
 6931SOL    HW132426   3.904   2.904   1.891 -0.1976 -0.2513 -1.3440
 6931SOL    HW232427   3.812   2.786   1.877  0.3826 -1.8204  2.8377
 6932SOL     OW32428   1.946   2.936   2.356  0.1738 -0.2177 -0.2288
 6932SOL    HW132429   1.975   2.901   2.272 -0.5075  1.7943 -1.2885
 6932SOL    HW232430   2.011   2.895   2.413  1.1185 -0.5434 -1.5242
 6933SOL     OW32431   0.026   4.724   6.750 -0.1265  0.0835 -0.0304
 6933SOL    HW132432   0.059   4.672   6.823 -1.1541 -2.3996 -1.3217
 6933SOL    HW232433   0.070   0.069   6.763 -0.0601 -0.0760  0.7465
 6934SOL     OW32434   0.582   0.574   0.918 -0.4027 -0.6177 -0.7929
 6934SOL    HW132435   0.615   0.597   0.831  1.7366 -0.5777  0.0166
 6934SOL    HW232436   0.490   0.592   0.899 -0.1315 -0.1882 -1.7211
 6935SOL     OW32437   0.341   0.802   8.141  0.1381  0.0902  0.7512
 6935SOL    HW132438   0.339   0.890   8.178  1.4914  0.9737 -1.2381
 6935SOL    HW232439   0.270   0.756   8.184 -0.4908  1.6205  1.3677
 6936SOL     OW32440   2.809   0.745  14.375  0.5921  0.0891  0.4072
 6936SOL    HW132441   2.844   0.686  14.308 -1.4899 -2.3403  1.4667
 6936SOL    HW232442   2.887   0.735  14.429 -0.6151  2.3471  2.5457
 6937SOL     OW32443   2.702   0.495   3.234  0.0187 -0.3060 -0.8298
 6937SOL    HW132444   2.665   0.426   3.179 -0.0426 -0.5541 -0.4784
 6937SOL    HW232445   2.761   0.530   3.168  0.4681  2.0513  0.8382
 6938SOL     OW32446   3.113   1.553   1.949 -0.7432 -0.3666 -0.7679
 6938SOL    HW132447   3.052   1.512   2.009  1.9675 -0.5397  1.8557
 6938SOL    HW232448   3.094   1.640   1.985 -0.9599  0.3465 -2.5930
 6939SOL     OW32449   0.085   3.607   5.138 -0.0778  0.1682  0.5057
 6939SOL    HW132450   0.073   3.659   5.218  0.6419 -1.5399  1.7228
 6939SOL    HW232451   0.170   3.569   5.160  1.2482  1.6411 -2.0640
 6940SOL     OW32452   3.427   0.515   8.488 -0.6952 -0.1133  0.1693
 6940SOL    HW132453   3.386   0.599   8.469 -1.4722 -0.0568  2.1193
 6940SOL    HW232454   3.414   0.514   8.583 -0.1637 -2.2813  0.2284
 6941SOL     OW32455   3.072   4.424  17.085 -0.3269  0.1032 -0.2109
 6941SOL    HW132456   3.029   4.507  17.062 -0.3660 -0.2504 -1.4174
 6941SOL    HW232457   3.102   4.392  17.000  0.9329  2.5754 -0.6945
 6942SOL     OW32458   4.617   0.711  14.832 -0.1444 -0.0025 -0.6253
 6942SOL    HW132459   4.630   0.684  14.741  2.5388 -0.3607 -0.1332
 6942SOL    HW232460   4.548   0.651  14.860  0.2879 -0.2841 -0.1588
 6943SOL     OW32461   0.396   3.915   5.500 -0.1436 -0.1076  0.3306
 6943SOL    HW132462   0.411   3.841   5.558 -0.5790 -0.5206 -0.0851
 6943SOL    HW232463   0.384   3.993   5.555 -1.3925  0.5564 -0.8783
 6944SOL     OW32464   3.581   1.873   8.803  0.0505 -0.0686  0.2109
 6944SOL    HW132465   3.653   1.821   8.839  1.1280  1.1273 -0.2416
 6944SOL    HW232466   3.613   1.875   8.713 -0.4826 -0.1776  0.0169
 6945SOL     OW32467   3.955   2.012   8.297  0.3627  0.0961 -0.6494
 6945SOL    HW132468   3.921   2.024   8.386 -0.1922  0.8691 -0.9615
 6945SOL    HW232469   4.027   1.951   8.313  0.9393  1.5386  2.3696
 6946SOL     OW32470   1.292   0.228   5.698  0.4440  0.3251 -0.3731
 6946SOL    HW132471   1.338   0.295   5.750  1.4297 -0.6583  0.0073
 6946SOL    HW232472   1.365   0.169   5.681  1.8247  1.5013  1.4507
 6947SOL     OW32473   0.012   1.433   7.127  0.0973 -0.0315 -0.3651
 6947SOL    HW132474   4.674   1.378   7.114 -1.6143  2.2918 -0.0583
 6947SOL    HW232475   0.053   1.423   7.041 -2.0646  0.8422 -1.5038
 6948SOL     OW32476   4.606   4.124   7.427 -0.2968  0.3694  0.2321
 6948SOL    HW132477   4.659   4.061   7.476  1.7229  0.6465 -1.5721
 6948SOL    HW232478   4.640   4.209   7.454  0.1776  0.1778  0.2415
 6949SOL     OW32479   1.251   3.327   0.363 -0.8790  0.3691  0.0078
 6949SOL    HW132480   1.329   3.382   0.355  0.4591 -1.4245  0.7540
 6949SOL    HW232481   1.285   3.244   0.330 -3.0683 -0.5309  0.0062
 6950SOL     OW32482   4.513   3.416   2.318  0.3846  0.1597 -0.3439
 6950SOL    HW132483   4.555   3.357   2.381 -0.0086  1.1068  0.8128
 6950SOL    HW232484   4.428   3.404   2.360 -0.3133  1.0850 -1.4994
 6951SOL     OW32485   4.257   0.797  11.627  0.0245  0.1700 -0.9467
 6951SOL    HW132486   4.291   0.877  11.669  1.5402  0.2385 -2.3077
 6951SOL    HW232487   4.218   0.831  11.546 -0.8189 -1.0737 -1.0699
 6952SOL     OW32488   4.645   0.327   6.984  0.4038  0.4231  0.7788
 6952SOL    HW132489   4.620   0.413   7.018 -2.9211 -0.6094  0.9304
 6952SOL    HW232490   4.610   0.259   7.042 -2.6473  0.3057 -1.2344
 6953SOL     OW32491   2.943   0.405   2.801  0.0029  0.7895 -0.2393
 6953SOL    HW132492   2.905   0.471   2.744  0.3524  0.2461 -1.1058
 6953SOL    HW232493   2.878   0.336   2.789  1.9792 -0.4842 -3.5697
 6954SOL     OW32494   1.776   3.801   6.517 -0.5385 -0.1125 -0.0294
 6954SOL    HW132495   1.815   3.878   6.558 -0.3659 -0.1533 -0.1156
 6954SOL    HW232496   1.736   3.757   6.592  1.1025  1.8998  2.0082
 6955SOL     OW32497   2.747   2.854   9.083 -0.1234 -0.6028 -0.6050
 6955SOL    HW132498   2.777   2.795   9.014 -1.7409 -1.2324 -0.7775
 6955SOL    HW232499   2.731   2.936   9.036  1.7714 -0.6802 -1.3759
 6956SOL     OW32500   3.732   2.533   5.685 -0.4778 -0.2372 -0.9077
 6956SOL    HW132501   3.650   2.527   5.734 -0.6325 -0.1255 -1.1525
 6956SOL    HW232502   3.695   2.592   5.620 -1.0345  1.7701  1.2849
 6957SOL     OW32503   3.838   1.974   3.532 -0.7686  0.0497 -0.1009
 6957SOL    HW132504   3.874   2.037   3.595  0.4762  0.7364 -1.4801
 6957SOL    HW232505   3.806   2.037   3.467 -0.0142 -0.1393 -0.6583
 6958SOL     OW32506   0.556   4.058   6.912 -0.0041 -0.0705 -0.0372
 6958SOL    HW132507   0.486   4.004   6.948  2.2711 -3.1378 -0.1789
 6958SOL    HW232508   0.623   4.060   6.981 -1.0196 -1.3068  0.9598
 6959SOL     OW32509   2.960   3.952   1.434 -0.0045 -0.0261 -0.6937
 6959SOL    HW132510   2.925   3.900   1.362 -1.3480  1.4404 -1.0783
 6959SOL    HW232511   3.047   3.919   1.457  0.0740  1.4264  1.0968
 6960SOL     OW32512   2.075   3.895   7.889  0.1778 -0.6145  0.4025
 6960SOL    HW132513   2.037   3.983   7.883  0.7188 -0.3679  0.6064
 6960SOL    HW232514   2.170   3.905   7.882  0.1833 -1.9642 -1.7577
 6961SOL     OW32515   4.005   4.260   4.921 -0.2309 -0.4763  0.2737
 6961SOL    HW132516   4.099   4.253   4.907 -0.4174 -1.6214 -0.5020
 6961SOL    HW232517   4.006   4.339   4.974  1.2908 -0.0662 -0.3948
 6962SOL     OW32518   1.161   0.188   4.293 -0.5131  0.4634 -0.0948
 6962SOL    HW132519   1.208   0.202   4.375 -1.3286  1.2229  0.2412
 6962SOL    HW232520   1.118   0.105   4.310  1.2822 -0.5947 -0.7091
 6963SOL     OW32521   0.268   2.511   3.213  0.1645 -0.3961 -0.1881
 6963SOL    HW132522   0.199   2.476   3.157  0.4693  1.4675 -1.7178
 6963SOL    HW232523   0.325   2.435   3.222  0.8539  0.1103 -0.2903
 6964SOL     OW32524   2.465   0.908   9.142 -0.0893 -0.1546  0.7135
 6964SOL    HW132525   2.419   0.824   9.143 -0.0005 -0.1863  1.7570
 6964SOL    HW232526   2.452   0.941   9.053  0.0988 -1.4416  0.2067
 6965SOL     OW32527   1.186   2.016   8.876 -0.1391  0.2983  0.5570
 6965SOL    HW132528   1.101   2.057   8.863 -0.0316  0.0518 -0.9174
 6965SOL    HW232529   1.232   2.047   8.798  0.3119 -1.2759  0.1786
 6966SOL     OW32530   1.510   2.994   5.061  0.1899  0.4345 -0.3329
 6966SOL    HW132531   1.548   3.080   5.082 -0.3054  0.4792  0.3897
 6966SOL    HW232532   1.592   2.952   5.035  1.0116  1.4534  0.5968
 6967SOL     OW32533   1.935   3.271   6.852 -0.5955 -0.3109 -0.3090
 6967SOL    HW132534   1.973   3.236   6.772  3.8934  2.2300  0.6757
 6967SOL    HW232535   1.850   3.228   6.844 -0.4099 -0.5828 -0.7695
 6968SOL     OW32536   4.429   3.766   4.860  0.3676  0.1056  0.4588
 6968SOL    HW132537   4.499   3.791   4.920 -0.5500 -2.5454  2.6331
 6968SOL    HW232538   4.358   3.813   4.903 -0.8583  0.4265 -1.9120
 6969SOL     OW32539   0.120   0.302   8.124 -0.3533  0.2480  0.6975
 6969SOL    HW132540   0.040   0.281   8.171 -1.3543 -2.6330 -2.2869
 6969SOL    HW232541   0.175   0.237   8.168  0.0101 -0.8871 -1.4529
 6970SOL     OW32542   4.225   4.401   2.732 -0.3965  0.6748 -0.5490
 6970SOL    HW132543   4.130   4.395   2.725 -0.4211  0.2316  0.1824
 6970SOL    HW232544   4.229   4.489   2.695  0.6003  0.6314 -0.5578
 6971SOL     OW32545   2.312   2.965   4.599  0.4318 -0.0104  0.1747
 6971SOL    HW132546   2.287   2.919   4.518  0.0021  0.4072  0.0654
 6971SOL    HW232547   2.392   2.917   4.616  0.9499  0.4833 -0.8220
 6972SOL     OW32548   0.424   2.535   6.723  0.1186  0.0475  0.1227
 6972SOL    HW132549   0.444   2.583   6.803  2.4858  1.2201 -1.1700
 6972SOL    HW232550   0.338   2.571   6.702  0.1175  0.8188  1.4912
 6973SOL     OW32551   3.458   2.990  13.946  0.2382  0.4074 -0.1520
 6973SOL    HW132552   3.531   3.052  13.939  0.1261  0.3976 -1.3832
 6973SOL    HW232553   3.490   2.924  13.886  1.7307 -1.1569  2.3848
 6974SOL     OW32554   4.739   2.580   5.902  0.3508  0.2923 -0.2517
 6974SOL    HW132555   4.693   2.539   5.976 -1.2259  1.2103 -0.7226
 6974SOL    HW232556   0.024   2.660   5.948  4.1614 -2.0409  1.7620
 6975SOL     OW32557   3.243   3.997   7.671 -0.5464 -0.1724  0.2228
 6975SOL    HW132558   3.261   3.904   7.682 -0.7263 -0.3818 -1.2192
 6975SOL    HW232559   3.315   4.033   7.721 -1.0143  0.2925  0.5666
 6976SOL     OW32560   3.753   1.080   1.063 -0.4593  0.3529 -0.3304
 6976SOL    HW132561   3.789   1.009   1.116  0.1014  1.9342  1.3893
 6976SOL    HW232562   3.723   1.027   0.989  2.0078 -0.4124 -0.7781
 6977SOL     OW32563   3.377   4.147   3.188  0.3195 -0.2220 -0.9251
 6977SOL    HW132564   3.440   4.156   3.116 -0.0353 -0.4171 -1.2611
 6977SOL    HW232565   3.357   4.053   3.187 -1.2531  0.0863  0.9397
 6978SOL     OW32566   3.937   3.819   5.411  0.3453 -0.2100 -0.1104
 6978SOL    HW132567   4.027   3.806   5.381 -0.6533 -1.9092 -2.3395
 6978SOL    HW232568   3.957   3.834   5.503  0.0245  2.0778 -0.4077
 6979SOL     OW32569   2.711   3.244   3.089 -0.6643  0.0192 -0.3910
 6979SOL    HW132570   2.617   3.257   3.083 -0.8432 -1.1778 -0.1768
 6979SOL    HW232571   2.724   3.236   3.183 -1.0750 -1.8795 -0.4965
 6980SOL     OW32572   3.894   2.477   0.964 -0.1311 -0.0079 -0.3025
 6980SOL    HW132573   3.965   2.505   0.907 -0.0967 -0.2444 -0.3784
 6980SOL    HW232574   3.895   2.542   1.034  0.9737  1.6995 -1.9129
 6981SOL     OW32575   3.304   1.272  12.053  0.7458  0.7882  0.4180
 6981SOL    HW132576   3.267   1.204  11.997 -0.9312  1.8053  0.2848
 6981SOL    HW232577   3.229   1.332  12.046 -0.7716 -1.3677 -1.7578
 6982SOL     OW32578   0.234   3.956   4.624 -0.3635 -0.3061 -0.1344
 6982SOL    HW132579   0.147   3.993   4.607 -0.6038 -1.3904 -1.2590
 6982SOL    HW232580   0.239   3.901   4.546 -2.4655 -1.7528  0.7522
 6983SOL     OW32581   0.671   2.078   3.001 -0.6375  0.1016 -0.2431
 6983SOL    HW132582   0.612   2.087   2.926 -0.5574 -0.3191 -0.3563
 6983SOL    HW232583   0.682   2.170   3.025  1.2850 -0.1553 -0.0949
 6984SOL     OW32584   1.141   0.961   3.498 -0.2755 -0.1985 -0.4804
 6984SOL    HW132585   1.183   0.889   3.545 -1.3600 -1.4029 -1.3507
 6984SOL    HW232586   1.196   0.983   3.423 -0.9170  1.4379 -0.4739
 6985SOL     OW32587   1.945   1.391   5.971 -0.6595  0.6777 -0.4210
 6985SOL    HW132588   1.987   1.335   6.038 -1.5968 -2.0211 -2.0842
 6985SOL    HW232589   1.924   1.328   5.903 -0.3924 -0.6258  0.6928
 6986SOL     OW32590   3.513   3.182   3.724 -0.1084  0.5360  0.2016
 6986SOL    HW132591   3.602   3.189   3.689  0.0746 -1.3690  0.3047
 6986SOL    HW232592   3.466   3.223   3.651  3.1049  0.9162 -1.6371
 6987SOL     OW32593   0.200   1.495   5.193  0.0559  0.2148  0.1390
 6987SOL    HW132594   0.276   1.528   5.240 -0.5709 -0.4224  1.5851
 6987SOL    HW232595   0.224   1.503   5.100  1.0094 -1.4070  0.2414
 6988SOL     OW32596   3.576   0.098   9.729  0.2791  0.3707 -0.3659
 6988SOL    HW132597   3.517   0.069   9.798  0.2439  1.7829  0.1969
 6988SOL    HW232598   3.569   0.192   9.713  1.0146  0.7050  1.3190
 6989SOL     OW32599   0.834   3.814   1.838  0.3038  0.2321  0.5823
 6989SOL    HW132600   0.900   3.782   1.777 -1.5461 -1.8850 -0.3099
 6989SOL    HW232601   0.749   3.805   1.795  1.5203 -1.9273 -1.3699
 6990SOL     OW32602   2.541   1.217   1.390  0.0312  0.6671  0.2394
 6990SOL    HW132603   2.558   1.162   1.313 -2.7957  0.7268 -0.4418
 6990SOL    HW232604   2.455   1.256   1.372  1.2507  2.3783 -1.9044
 6991SOL     OW32605   2.988   0.373   9.153 -0.0951 -0.1257 -0.0565
 6991SOL    HW132606   2.924   0.395   9.221 -1.0197 -1.5984 -0.4458
 6991SOL    HW232607   2.996   0.278   9.164  0.2787  0.0546  1.2031
 6992SOL     OW32608   3.061   3.812  11.152  0.2039 -0.2122  0.3032
 6992SOL    HW132609   3.100   3.881  11.206  0.1068 -1.1843  1.6235
 6992SOL    HW232610   3.018   3.754  11.215 -2.4214  0.3627 -0.9381
 6993SOL     OW32611   1.666   1.452   6.315 -0.2239 -0.2059  0.1483
 6993SOL    HW132612   1.723   1.379   6.291  0.9569  1.0914 -0.9986
 6993SOL    HW232613   1.578   1.415   6.313 -0.1124 -0.3557 -2.0741
 6994SOL     OW32614   4.324   4.374  14.617 -0.0270  0.7441  0.1536
 6994SOL    HW132615   4.344   4.349  14.527  4.0223 -1.8953  1.7687
 6994SOL    HW232616   4.391   4.334  14.673 -1.2713  0.6474  1.5579
 6995SOL     OW32617   3.023   1.622   6.992  0.4691 -0.1452  0.3759
 6995SOL    HW132618   3.063   1.699   7.033 -2.1353  1.3635  0.0728
 6995SOL    HW232619   3.017   1.648   6.900 -1.6483  1.9484  1.0899
 6996SOL     OW32620   1.870   0.966  10.360 -0.1401  0.1160 -0.0859
 6996SOL    HW132621   1.888   1.030  10.429 -2.7656 -0.5340  1.2089
 6996SOL    HW232622   1.892   1.005  10.275 -0.2733  0.8128  0.1980
 6997SOL     OW32623   3.303   1.254   2.032 -0.0915  0.0259  0.3955
 6997SOL    HW132624   3.300   1.224   2.122  0.7366 -1.7030 -0.1572
 6997SOL    HW232625   3.322   1.347   2.046 -1.6152  0.5269 -0.7728
 6998SOL     OW32626   0.923   0.978   6.475 -0.5384  0.2359  0.3049
 6998SOL    HW132627   0.877   0.897   6.497  1.5571 -1.0421 -0.0236
 6998SOL    HW232628   0.900   0.992   6.383  1.3112  0.5035 -0.1151
 6999SOL     OW32629   0.319   1.642  16.935 -0.2030 -0.1823  0.3789
 6999SOL    HW132630   0.275   1.624  17.018  0.3164 -0.0120  0.6891
 6999SOL    HW232631   0.260   1.610  16.867 -0.7607  0.5213  0.5317
 7000SOL     OW32632   3.144   0.885   5.666 -0.8309 -0.1716 -0.3246
 7000SOL    HW132633   3.170   0.818   5.603  0.2545 -0.0687  0.0095
 7000SOL    HW232634   3.229   0.901   5.709 -1.6427  0.7532  0.9306
 7001SOL     OW32635   2.984   1.850   3.482 -0.3711  0.5919 -0.0235
 7001SOL    HW132636   3.062   1.799   3.460 -0.5258  0.0588  0.6763
 7001SOL    HW232637   2.995   1.917   3.415  0.6914  0.3836 -0.0632
 7002SOL     OW32638   0.411   0.683   3.797 -0.1392 -0.3485  0.4142
 7002SOL    HW132639   0.442   0.769   3.823 -0.3099  0.1516 -1.1003
 7002SOL    HW232640   0.481   0.654   3.738 -1.7935  1.3915 -2.3686
 7003SOL     OW32641   2.127   0.296   3.909  0.1049  0.2867 -0.5924
 7003SOL    HW132642   2.080   0.213   3.910  0.5732  0.0169 -0.8877
 7003SOL    HW232643   2.120   0.320   3.816  0.5506 -0.7724 -0.8957
 7004SOL     OW32644   1.532   3.905  14.249  0.2097 -0.1681 -0.3412
 7004SOL    HW132645   1.454   3.853  14.228  1.3030 -2.3010  0.9185
 7004SOL    HW232646   1.575   3.848  14.313  0.5997  0.0240 -0.4335
 7005SOL     OW32647   2.359   1.060   4.059 -0.5817  0.2699 -0.1952
 7005SOL    HW132648   2.437   1.023   4.100  0.2732 -0.2445 -2.3234
 7005SOL    HW232649   2.394   1.138   4.017 -1.2040  1.2003  1.0087
 7006SOL     OW32650   1.887   4.393   5.258 -0.0014  0.3175  0.0850
 7006SOL    HW132651   1.940   4.329   5.210 -1.5775 -0.0683 -1.1223
 7006SOL    HW232652   1.823   4.338   5.304  1.1575 -1.5432 -0.5011
 7007SOL     OW32653   4.446   1.630   5.408 -0.1612  0.2381  0.0695
 7007SOL    HW132654   4.524   1.634   5.354 -1.3842 -0.3059 -1.7421
 7007SOL    HW232655   4.449   1.713   5.456 -1.0037 -1.1086  2.4957
 7008SOL     OW32656   2.423   0.845   6.972 -0.1157  0.6221 -0.2707
 7008SOL    HW132657   2.424   0.750   6.962  2.2611  0.4553  1.5162
 7008SOL    HW232658   2.428   0.845   7.067  3.6367 -1.3577 -0.4467
 7009SOL     OW32659   1.129   3.006   5.542 -0.3614  0.0891 -0.0095
 7009SOL    HW132660   1.102   2.919   5.511  0.0900 -0.2038  0.4183
 7009SOL    HW232661   1.057   3.028   5.601 -0.1735 -0.5112  0.4499
 7010SOL     OW32662   4.096   0.201   2.801 -0.1177  0.0859  0.0137
 7010SOL    HW132663   4.027   0.197   2.867 -0.2163  0.8303 -0.0439
 7010SOL    HW232664   4.110   0.106   2.796  2.6256  0.5666 -1.2089
 7011SOL     OW32665   1.087   1.556   6.560  0.1060  0.3151  0.0526
 7011SOL    HW132666   1.121   1.488   6.618  0.9189  0.1111 -0.6803
 7011SOL    HW232667   1.080   1.499   6.484  3.2713 -0.1974  0.1581
 7012SOL     OW32668   3.542   0.037  12.298 -0.1925 -0.2232 -0.4842
 7012SOL    HW132669   3.593   4.736  12.368 -0.3035  1.4663  0.5512
 7012SOL    HW232670   3.564   4.726  12.220  2.2970  1.6993 -0.9930
 7013SOL     OW32671   3.697   0.258  10.548 -0.0329 -0.1432 -0.1708
 7013SOL    HW132672   3.651   0.267  10.631  0.1442  1.1326 -0.2156
 7013SOL    HW232673   3.700   0.162  10.551 -0.2026 -0.1710 -1.0224
 7014SOL     OW32674   0.041   3.345   6.088 -0.5288  0.2103  0.3351
 7014SOL    HW132675   0.087   3.374   6.010  1.5343  0.1073  1.5086
 7014SOL    HW232676   4.690   3.371   6.066  0.2306  1.1179 -1.6785
 7015SOL     OW32677   3.408   1.134   1.792  0.1261  0.2590  0.1942
 7015SOL    HW132678   3.320   1.116   1.758 -0.4345  1.4200  1.0499
 7015SOL    HW232679   3.378   1.172   1.875 -1.6550  0.1264 -0.3854
 7016SOL     OW32680   2.758   3.469   5.213 -0.0106 -0.0697  0.8122
 7016SOL    HW132681   2.809   3.448   5.134 -1.6246 -0.7228 -0.0503
 7016SOL    HW232682   2.764   3.388   5.264 -1.0727  0.2556  1.4439
 7017SOL     OW32683   3.656   2.315   9.429  0.4591 -0.7894 -0.0272
 7017SOL    HW132684   3.634   2.262   9.353  0.0645  0.3907 -0.7488
 7017SOL    HW232685   3.586   2.305   9.494  0.2546  2.6974  0.3196
 7018SOL     OW32686   2.567   4.279   9.846 -0.1777  0.5671 -0.3791
 7018SOL    HW132687   2.623   4.212   9.809 -0.8262 -0.3595  0.3231
 7018SOL    HW232688   2.502   4.229   9.896  0.6249  0.0671  0.1630
 7019SOL     OW32689   4.427   1.695   8.655 -0.6917 -0.1165  0.2018
 7019SOL    HW132690   4.391   1.649   8.731 -1.9515 -2.0777 -1.5739
 7019SOL    HW232691   4.428   1.627   8.587  0.2548  1.0056 -0.9183
 7020SOL     OW32692   1.676   4.406  10.044 -0.4159  0.5980  0.4146
 7020SOL    HW132693   1.769   4.386  10.043 -0.7538 -0.9777 -0.1394
 7020SOL    HW232694   1.676   4.488   9.996  1.8428 -1.0612 -2.4003
 7021SOL     OW32695   0.864   4.148   2.645  0.8562  0.1493 -0.0420
 7021SOL    HW132696   0.845   4.055   2.662  0.0576  0.2073 -0.6486
 7021SOL    HW232697   0.828   4.195   2.720 -1.5167 -2.1428  0.2830
 7022SOL     OW32698   4.712   2.874  17.487  0.4198 -0.1975  0.0181
 7022SOL    HW132699   4.646   2.830  17.541 -0.3858 -0.3918 -1.1275
 7022SOL    HW232700   4.683   2.962  17.463  0.5881  0.2448  1.4051
 7023SOL     OW32701   0.816   2.250   3.796 -0.1006 -0.0539  0.8442
 7023SOL    HW132702   0.888   2.190   3.775  0.6174  1.5391 -1.2319
 7023SOL    HW232703   0.766   2.182   3.841 -0.0451 -2.0099 -2.0129
 7024SOL     OW32704   3.146   0.375   1.813 -0.4936  0.2797 -0.5197
 7024SOL    HW132705   3.226   0.400   1.767 -0.5080  0.2362 -0.5678
 7024SOL    HW232706   3.079   0.381   1.745 -1.9091 -1.9545  0.7166
 7025SOL     OW32707   4.503   3.645   8.298 -0.0600 -0.5597  0.2488
 7025SOL    HW132708   4.483   3.615   8.386 -1.7624  0.5163  0.2302
 7025SOL    HW232709   4.587   3.681   8.327  1.2615 -2.0700 -1.6886
 7026SOL     OW32710   0.244   4.130   3.454  0.3274 -0.5551  0.9608
 7026SOL    HW132711   0.237   4.062   3.521 -0.8211 -2.8426 -1.4882
 7026SOL    HW232712   0.153   4.141   3.427  1.1937 -0.4921 -1.8627
 7027SOL     OW32713   3.682   1.121   9.523  0.1405  0.4103 -0.0344
 7027SOL    HW132714   3.706   1.033   9.552  1.0964  0.4289 -0.7701
 7027SOL    HW232715   3.596   1.130   9.563  1.1596  0.1296  2.1775
 7028SOL     OW32716   0.940   0.543  11.994  1.1513  0.1768  0.4731
 7028SOL    HW132717   0.854   0.502  11.989  0.6259  1.2635  0.7379
 7028SOL    HW232718   0.920   0.630  11.960 -1.8212 -1.1846 -1.2916
 7029SOL     OW32719   0.308   2.207   8.438  0.4228 -0.1912  0.6017
 7029SOL    HW132720   0.248   2.137   8.412  0.9497 -0.5112  0.2457
 7029SOL    HW232721   0.240   2.275   8.447 -0.2249 -0.5095 -1.6621
 7030SOL     OW32722   1.210   2.618   0.344 -0.3094 -0.1215 -0.1026
 7030SOL    HW132723   1.203   2.622   0.248 -0.4642  1.8804 -0.0144
 7030SOL    HW232724   1.241   2.528   0.348  0.7819  0.2436 -0.4448
 7031SOL     OW32725   2.440   4.360   6.513 -0.1480 -0.2540 -0.4823
 7031SOL    HW132726   2.448   4.361   6.418  1.2085  0.4522 -0.3438
 7031SOL    HW232727   2.409   4.448   6.531  0.6860  0.0090 -0.3423
 7032SOL     OW32728   0.942   3.368   7.088  0.7584 -0.0034 -0.2709
 7032SOL    HW132729   0.956   3.404   7.001  2.6282 -0.8367 -0.3223
 7032SOL    HW232730   0.922   3.276   7.071  3.0296 -0.1285 -2.2681
 7033SOL     OW32731   4.257   2.813  13.262  0.5493 -0.0726  0.0394
 7033SOL    HW132732   4.185   2.759  13.227 -0.7313  1.6313  0.0648
 7033SOL    HW232733   4.293   2.824  13.174 -1.8280 -2.3540 -1.2165
 7034SOL     OW32734   4.517   3.907   8.642  0.0087  0.4880  0.2073
 7034SOL    HW132735   4.534   3.980   8.582  0.9943  0.1279  0.0632
 7034SOL    HW232736   4.513   3.961   8.721  1.5086  1.7070 -0.5490
 7035SOL     OW32737   1.060   3.328  14.338 -0.2062  0.3655 -0.6490
 7035SOL    HW132738   1.081   3.243  14.301 -0.4458  0.6977 -1.5523
 7035SOL    HW232739   1.146   3.368  14.353  0.2169 -0.7970 -0.0118
 7036SOL     OW32740   3.625   2.731   8.327 -0.1308  0.0387  1.3580
 7036SOL    HW132741   3.619   2.823   8.353 -0.2299  0.3032  0.4081
 7036SOL    HW232742   3.596   2.699   8.412 -3.7940 -1.4673 -0.4863
 7037SOL     OW32743   2.090   3.727   0.166  0.1900 -0.1801 -0.1429
 7037SOL    HW132744   2.126   3.746   0.079 -0.9875 -1.8999 -1.0129
 7037SOL    HW232745   2.074   3.633   0.172 -2.8972  0.3428 -0.2960
 7038SOL     OW32746   4.098   4.595   7.475 -0.2087 -0.4422 -0.0731
 7038SOL    HW132747   4.028   4.553   7.525  0.8538 -1.3007  0.6884
 7038SOL    HW232748   4.047   4.639   7.407  0.5242  1.7617  0.7995
 7039SOL     OW32749   2.780   1.908   7.144  0.0599  0.3644  0.3751
 7039SOL    HW132750   2.712   1.848   7.113  1.6754 -0.0174 -2.3628
 7039SOL    HW232751   2.801   1.972   7.076  4.3078  0.2513  1.6116
 7040SOL     OW32752   3.476   3.668   3.469 -0.3736  0.0577 -0.1327
 7040SOL    HW132753   3.436   3.745   3.429 -1.8048 -0.7509 -0.2403
 7040SOL    HW232754   3.550   3.650   3.411  0.1894 -0.7199  0.8198
 7041SOL     OW32755   3.216   1.440   1.025  0.2860 -0.1934 -0.4015
 7041SOL    HW132756   3.239   1.352   0.995 -1.6127 -0.9793  0.4569
 7041SOL    HW232757   3.140   1.451   0.968 -0.8063 -0.6332  0.9732
 7042SOL     OW32758   3.288   1.039   1.436 -0.5181  0.6575  0.0838
 7042SOL    HW132759   3.274   1.120   1.484 -0.1435  1.7599 -1.6506
 7042SOL    HW232760   3.198   1.008   1.436  0.7026 -2.9567 -1.4665
 7043SOL     OW32761   1.605   2.370   3.012  0.0889 -0.0974  0.3215
 7043SOL    HW132762   1.548   2.392   3.085  0.4507 -1.2184  0.9385
 7043SOL    HW232763   1.644   2.455   2.992 -0.9365 -0.5924 -3.7416
 7044SOL     OW32764   1.865   1.719   2.946 -0.5056 -0.0716  0.2150
 7044SOL    HW132765   1.891   1.807   2.975  0.1406 -0.3573  0.5130
 7044SOL    HW232766   1.892   1.672   3.025 -0.7818  1.0461  0.9898
 7045SOL     OW32767   1.183   2.167   8.254  0.1400  0.3237 -0.0067
 7045SOL    HW132768   1.206   2.078   8.280 -1.3896 -0.3393 -0.8705
 7045SOL    HW232769   1.089   2.151   8.240  0.6774 -1.3771 -1.8007
 7046SOL     OW32770   0.719   2.217  13.282  0.0109 -0.8816 -0.0135
 7046SOL    HW132771   0.676   2.200  13.366 -1.2653  0.7191 -0.3300
 7046SOL    HW232772   0.810   2.231  13.307 -0.2582  0.9880 -0.0562
 7047SOL     OW32773   2.410   0.327   7.514 -0.0490 -0.1342 -0.6748
 7047SOL    HW132774   2.370   0.382   7.446  0.3335  1.7466  0.6289
 7047SOL    HW232775   2.499   0.359   7.506  0.0808  0.2375  2.4899
 7048SOL     OW32776   1.426   4.354  16.047  0.0509 -0.1961 -0.9088
 7048SOL    HW132777   1.467   4.415  15.986 -0.6844  1.2784  0.0890
 7048SOL    HW232778   1.490   4.367  16.117 -3.3140  1.3829  1.8251
 7049SOL     OW32779   2.884   2.046   3.019 -1.0559 -0.0803  0.0418
 7049SOL    HW132780   2.905   2.139   3.010 -1.1821 -0.0126  0.4795
 7049SOL    HW232781   2.894   2.008   2.931 -0.8537 -0.2577  0.1424
 7050SOL     OW32782   2.535   4.071   4.272 -0.0889 -0.1197 -0.0568
 7050SOL    HW132783   2.553   4.055   4.179 -1.6867  2.1482 -0.7367
 7050SOL    HW232784   2.622   4.073   4.313  0.1275 -2.2663 -0.3869
 7051SOL     OW32785   3.172   2.705   7.318  0.7039  0.3265 -0.0347
 7051SOL    HW132786   3.245   2.719   7.257  0.1739 -0.3133 -0.8299
 7051SOL    HW232787   3.194   2.618   7.351 -1.7504 -1.1847 -2.3175
 7052SOL     OW32788   3.869   4.417   8.987 -0.2661 -0.0492  0.0963
 7052SOL    HW132789   3.919   4.337   8.968 -0.1472 -0.2139  1.0858
 7052SOL    HW232790   3.861   4.412   9.082  1.1752  1.2569  0.2818
 7053SOL     OW32791   0.149   3.845   4.851  0.2258  0.0792  0.6822
 7053SOL    HW132792   0.163   3.920   4.908  1.7387 -0.3343  0.8613
 7053SOL    HW232793   0.219   3.869   4.790 -1.3189  0.0905 -1.0708
 7054SOL     OW32794   3.985   3.894   7.634  0.6843 -0.4040  0.3121
 7054SOL    HW132795   4.031   3.821   7.594  1.0923  1.0676 -1.8739
 7054SOL    HW232796   3.943   3.860   7.713  0.4126  0.7108  0.6486
 7055SOL     OW32797   2.982   1.932   5.460 -0.2506 -0.2410 -0.3333
 7055SOL    HW132798   3.036   1.875   5.515  0.2724  0.3090 -0.2860
 7055SOL    HW232799   3.052   1.966   5.405  0.1505  0.1982  0.4427
 7056SOL     OW32800   2.171   2.227   8.906 -0.0980 -0.2470 -0.1416
 7056SOL    HW132801   2.227   2.152   8.924 -2.3161 -1.6356  1.0720
 7056SOL    HW232802   2.198   2.295   8.968 -0.2020  1.2321 -1.7209
 7057SOL     OW32803   0.180   0.652   5.146  0.1786  0.0910 -0.4974
 7057SOL    HW132804   0.247   0.640   5.079 -0.2382 -0.9289 -0.7271
 7057SOL    HW232805   0.236   0.671   5.221 -2.0078 -1.8905  1.6330
 7058SOL     OW32806   0.984   0.137   8.290  0.1574 -0.6015 -0.6723
 7058SOL    HW132807   1.067   0.093   8.277  1.5441  1.5662  0.7993
 7058SOL    HW232808   1.009   0.196   8.361  1.6479 -0.6372 -1.1808
 7059SOL     OW32809   3.833   3.212  16.823 -0.3924 -0.2003  0.4125
 7059SOL    HW132810   3.764   3.254  16.772 -0.2586 -1.0630 -0.4917
 7059SOL    HW232811   3.902   3.210  16.757 -0.5922 -0.3379  0.2032
 7060SOL     OW32812   1.718   2.565   6.563  0.2911 -0.2331  0.2831
 7060SOL    HW132813   1.656   2.623   6.606 -1.3116 -1.6627 -0.0922
 7060SOL    HW232814   1.668   2.491   6.529  1.3489 -1.8915  2.3224
 7061SOL     OW32815   3.920   0.318  16.497  0.1941  0.6093 -0.2606
 7061SOL    HW132816   3.959   0.235  16.471  1.0438  1.7070 -2.5192
 7061SOL    HW232817   3.896   0.303  16.589  2.6377 -2.7251 -0.1777
 7062SOL     OW32818   0.849   3.383   3.497  0.2447  0.1465 -0.1784
 7062SOL    HW132819   0.768   3.366   3.448  0.5666 -1.4301 -0.1584
 7062SOL    HW232820   0.890   3.430   3.424 -0.9338  0.3622 -0.7093
 7063SOL     OW32821   4.698   1.241   4.966  0.0988  0.0919 -0.0563
 7063SOL    HW132822   4.689   1.324   4.919 -3.2803  0.5869  1.4323
 7063SOL    HW232823   4.626   1.194   4.925  0.2813 -0.7164  0.5460
 7064SOL     OW32824   3.583   1.961   1.742  0.5274  0.5951  0.6861
 7064SOL    HW132825   3.583   1.898   1.814 -0.8870  0.8387  0.9078
 7064SOL    HW232826   3.675   1.966   1.719 -0.1206  0.8971 -1.8645
 7065SOL     OW32827   0.175   2.604   6.691 -0.3351 -0.1023 -0.7786
 7065SOL    HW132828   0.127   2.528   6.659  2.5754 -1.8896 -0.8617
 7065SOL    HW232829   0.141   2.608   6.781 -0.9773 -1.1490 -0.9752
 7066SOL     OW32830   4.721   1.643   7.423 -0.4193  0.1322  0.1523
 7066SOL    HW132831   0.025   1.631   7.508 -1.6242  0.2351  0.7757
 7066SOL    HW232832   0.021   1.570   7.375 -1.3519 -0.5508  0.4234
 7067SOL     OW32833   0.557   2.096  17.307  0.8532  0.7234 -0.3711
 7067SOL    HW132834   0.599   2.176  17.275 -0.7519  1.3108 -1.0115
 7067SOL    HW232835   0.619   2.030  17.278  0.9310  1.2630 -1.4353
 7068SOL     OW32836   4.601   1.482   2.738 -0.2983 -0.3963  0.3164
 7068SOL    HW132837   4.526   1.490   2.797  1.4655  0.9937  2.3479
 7068SOL    HW232838   4.623   1.575   2.746 -0.3409 -0.4095  0.5942
 7069SOL     OW32839   0.419   0.049   2.782  0.6547 -0.3491  0.4931
 7069SOL    HW132840   0.370   0.120   2.741  0.2976 -0.0859  1.3650
 7069SOL    HW232841   0.358   4.717   2.763  1.5765 -0.6690 -1.2509
 7070SOL     OW32842   2.283   0.470   4.044 -0.1031 -0.8308 -0.2326
 7070SOL    HW132843   2.367   0.462   3.999 -0.0508  1.3463 -0.4968
 7070SOL    HW232844   2.227   0.410   3.993  0.0497 -0.6765 -0.5834
 7071SOL     OW32845   1.371   3.792   7.575  0.2865  0.5194  0.4260
 7071SOL    HW132846   1.414   3.723   7.524 -1.4870  2.0197 -3.0754
 7071SOL    HW232847   1.419   3.789   7.658  3.0314  0.3936 -1.1727
 7072SOL     OW32848   0.807   2.440   1.932  0.0908  0.2876 -0.8565
 7072SOL    HW132849   0.865   2.381   1.981  0.6089  0.3386 -1.4105
 7072SOL    HW232850   0.757   2.472   2.008 -0.2201 -1.0796 -0.4688
 7073SOL     OW32851   2.205   0.492   1.966 -0.0557  0.2859 -0.4049
 7073SOL    HW132852   2.147   0.568   1.972 -1.0986 -0.4965 -0.4571
 7073SOL    HW232853   2.167   0.431   2.029 -1.0507  1.6380  0.2960
 7074SOL     OW32854   1.335   0.202   7.456 -0.0360  0.1691 -0.3090
 7074SOL    HW132855   1.331   0.156   7.540 -2.8622 -0.1038 -0.5976
 7074SOL    HW232856   1.381   0.279   7.488 -0.5135  0.8979 -1.3752
 7075SOL     OW32857   1.349   2.622   5.376  0.4146  0.0287 -0.3033
 7075SOL    HW132858   1.342   2.701   5.323  1.0427 -0.6913 -1.4608
 7075SOL    HW232859   1.332   2.552   5.313  0.7493 -1.1099  0.8672
 7076SOL     OW32860   1.580   2.955  16.474  0.1505 -0.3089 -0.1943
 7076SOL    HW132861   1.618   2.873  16.506 -0.6774 -0.1971  1.0427
 7076SOL    HW232862   1.500   2.942  16.524  0.8056 -1.0629  0.6610
 7077SOL     OW32863   3.203   3.638   4.831  0.0609 -0.0595 -0.2156
 7077SOL    HW132864   3.222   3.594   4.914 -0.3220  0.5930  0.2137
 7077SOL    HW232865   3.285   3.608   4.793 -0.4128  0.1618 -1.4163
 7078SOL     OW32866   1.237   4.518   7.797 -0.6333 -0.0884 -0.2128
 7078SOL    HW132867   1.184   4.447   7.832 -1.6590  0.9999  0.4409
 7078SOL    HW232868   1.191   4.588   7.844  1.4526 -0.4516  2.4316
 7079SOL     OW32869   1.993   1.348  14.035 -0.3835  0.2734 -0.0448
 7079SOL    HW132870   1.905   1.367  14.067 -0.3319 -1.3938  1.1114
 7079SOL    HW232871   2.037   1.431  14.021 -3.7481  1.7621 -1.7000
 7080SOL     OW32872   0.014   3.795   9.706 -0.3526 -0.1947 -0.0151
 7080SOL    HW132873   0.051   3.724   9.759  1.2763  0.8485  0.2566
 7080SOL    HW232874   4.731   3.744   9.628  1.5263 -0.7820 -0.1550
 7081SOL     OW32875   1.387   2.395  12.058  0.0304  0.3951  0.2966
 7081SOL    HW132876   1.298   2.416  12.029  0.2324  0.6046 -0.1657
 7081SOL    HW232877   1.427   2.392  11.972 -1.4518 -2.2112 -0.3330
 7082SOL     OW32878   1.149   3.906   8.232  0.1232 -0.3136  0.0220
 7082SOL    HW132879   1.177   3.984   8.184  0.1031 -0.0990  0.3623
 7082SOL    HW232880   1.231   3.873   8.269  0.1755  0.1734  0.3416
 7083SOL     OW32881   4.558   2.959   2.679  0.2341  0.4218 -0.5221
 7083SOL    HW132882   4.603   2.960   2.763  2.1040  2.1753 -1.5500
 7083SOL    HW232883   4.620   2.987   2.612  0.0119 -0.0701 -0.9371
 7084SOL     OW32884   2.375   2.573   5.084 -0.7243 -0.0805 -0.0971
 7084SOL    HW132885   2.393   2.600   5.174 -0.7356  0.4968 -0.2736
 7084SOL    HW232886   2.461   2.587   5.045 -2.1151 -0.4222 -3.2869
 7085SOL     OW32887   2.443   2.513   2.522 -0.1079  0.1542  0.0467
 7085SOL    HW132888   2.395   2.431   2.535  0.1244 -0.1968 -1.3101
 7085SOL    HW232889   2.416   2.565   2.597  0.7650 -2.4218  2.1578
 7086SOL     OW32890   2.952   0.424   5.393  0.3286  0.6886 -0.5306
 7086SOL    HW132891   3.040   0.394   5.372 -0.3358  0.0774 -2.4988
 7086SOL    HW232892   2.935   0.455   5.304 -0.1262  0.2177 -0.6048
 7087SOL     OW32893   1.860   0.113   3.916  0.3800 -0.6353  0.1964
 7087SOL    HW132894   1.862   0.073   3.829 -0.5706  0.7264 -0.4530
 7087SOL    HW232895   1.791   0.179   3.909  1.2204  0.2355  0.0034
 7088SOL     OW32896   1.209   0.820  13.295 -0.3855  0.3170 -0.1394
 7088SOL    HW132897   1.198   0.762  13.371 -1.0121 -0.6090 -0.9489
 7088SOL    HW232898   1.273   0.876  13.340  0.0906 -0.6008  0.3315
 7089SOL     OW32899   1.580   1.097  15.478  0.6317 -1.0570  0.0707
 7089SOL    HW132900   1.663   1.124  15.516 -0.6084  2.9430 -0.1421
 7089SOL    HW232901   1.615   1.019  15.434  1.5780 -0.6365  0.0911
 7090SOL     OW32902   2.825   4.135   5.614 -0.2540  0.1083 -0.5188
 7090SOL    HW132903   2.883   4.085   5.556 -1.6856 -0.2517 -1.6311
 7090SOL    HW232904   2.888   4.157   5.683 -1.6291 -0.4409  0.9007
 7091SOL     OW32905   3.753   4.633   9.639 -0.0800 -0.2892  0.0580
 7091SOL    HW132906   3.726   4.563   9.699 -2.2191  1.9960  1.8068
 7091SOL    HW232907   3.692   4.699   9.672  0.8899  0.0917  1.0649
 7092SOL     OW32908   1.824   4.537   9.512 -0.0554 -0.2293  1.0017
 7092SOL    HW132909   1.896   4.484   9.478 -1.6378 -0.9320 -1.2455
 7092SOL    HW232910   1.789   4.486   9.585 -0.8843 -2.3724 -0.8981
 7093SOL     OW32911   1.712   1.841  10.695  0.2583  0.0862 -0.4645
 7093SOL    HW132912   1.755   1.780  10.635 -0.8246 -0.0620 -1.0901
 7093SOL    HW232913   1.629   1.795  10.706 -0.9928  2.5347  0.4984
 7094SOL     OW32914   0.907   4.592   4.990  0.1438 -0.3129  0.9666
 7094SOL    HW132915   0.983   4.540   4.964 -0.4166 -0.4218 -0.4565
 7094SOL    HW232916   0.879   4.636   4.910  3.2566  1.2999  0.7724
 7095SOL     OW32917   3.375   3.538  13.511 -0.1345 -0.6871  0.4284
 7095SOL    HW132918   3.358   3.624  13.548 -0.2422 -0.7351  0.4873
 7095SOL    HW232919   3.311   3.538  13.440  1.5183  1.5828 -1.0786
 7096SOL     OW32920   1.527   0.101   2.283 -0.3757  0.1710  0.0610
 7096SOL    HW132921   1.548   0.193   2.298 -0.7400  0.1660  0.5586
 7096SOL    HW232922   1.475   0.104   2.202 -0.6939 -0.7833  0.2286
 7097SOL     OW32923   2.938   3.403   6.614  0.1659  0.2711  0.2774
 7097SOL    HW132924   2.890   3.483   6.593  0.8198  0.2132 -1.5092
 7097SOL    HW232925   2.870   3.362   6.667  0.6102  0.0383  0.6631
 7098SOL     OW32926   0.269   1.329   4.481  0.8052 -0.3313  0.5426
 7098SOL    HW132927   0.295   1.245   4.443  0.4559 -0.3035  0.2399
 7098SOL    HW232928   0.326   1.331   4.557  1.4171  1.6003  0.0211
 7099SOL     OW32929   1.318   3.646  14.033 -0.3556  0.8250  0.1416
 7099SOL    HW132930   1.336   3.608  14.119  0.1250  0.6890 -0.0213
 7099SOL    HW232931   1.303   3.738  14.053 -0.7851  0.5266  1.2207
 7100SOL     OW32932   3.866   2.108   3.051 -0.0318  0.0117  0.1141
 7100SOL    HW132933   3.807   2.152   2.989  0.6329  0.5019 -0.1728
 7100SOL    HW232934   3.954   2.133   3.023  0.2091 -2.7703 -1.5800
 7101SOL     OW32935   2.395   0.549   9.868 -0.0310 -0.2600  0.1687
 7101SOL    HW132936   2.345   0.610   9.922 -0.5492  1.3848 -2.1578
 7101SOL    HW232937   2.400   0.471   9.923  1.5283  0.1861  0.6754
 7102SOL     OW32938   1.266   4.293   0.939  0.1877 -0.3870  0.7438
 7102SOL    HW132939   1.231   4.326   1.021  3.3629  0.9445  1.5711
 7102SOL    HW232940   1.359   4.286   0.961  0.5294  2.4219  0.1479
 7103SOL     OW32941   4.481   1.791  17.365  0.9601 -0.6302 -0.5139
 7103SOL    HW132942   4.409   1.853  17.380  1.3997 -0.1258 -0.5019
 7103SOL    HW232943   4.487   1.750  17.451 -1.7760  1.3890  0.6507
 7104SOL     OW32944   0.651   0.099   2.692 -0.3510  0.3045  0.4196
 7104SOL    HW132945   0.664   0.149   2.773  1.1113  1.0719 -0.2862
 7104SOL    HW232946   0.565   0.072   2.725  0.0925 -0.6267  0.8209
 7105SOL     OW32947   0.616   4.244   5.875 -0.0654  0.4577  0.4359
 7105SOL    HW132948   0.598   4.337   5.891 -5.6174 -0.3198 -1.2952
 7105SOL    HW232949   0.543   4.211   5.928  0.2098  0.9906  1.1472
 7106SOL     OW32950   1.723   4.526   6.628 -0.0221  0.3401 -0.4345
 7106SOL    HW132951   1.799   4.473   6.605  0.2790  0.2355  0.8218
 7106SOL    HW232952   1.780   4.597   6.656  0.1115 -0.7253  1.9744
 7107SOL     OW32953   0.099   1.756   7.040 -0.0246  0.0381  0.1380
 7107SOL    HW132954   0.182   1.741   7.086  0.2314  1.5577  0.1609
 7107SOL    HW232955   0.098   1.676   6.987  0.4810  0.9942 -1.2959
 7108SOL     OW32956   0.372   4.390  12.940  0.5279 -0.7493  0.2947
 7108SOL    HW132957   0.283   4.358  12.927  0.8778 -1.2885 -0.7380
 7108SOL    HW232958   0.379   4.452  12.868  1.1644 -0.3885  0.6623
 7109SOL     OW32959   4.602   2.326   3.882 -0.0778 -0.0507  0.4694
 7109SOL    HW132960   4.570   2.248   3.837  2.0785  0.5572 -2.0903
 7109SOL    HW232961   4.586   2.397   3.821  0.5748 -0.4719 -0.1889
 7110SOL     OW32962   0.311   0.575   9.355 -0.3662  0.4359 -0.2001
 7110SOL    HW132963   0.228   0.532   9.373 -1.1159  2.4480  1.0492
 7110SOL    HW232964   0.336   0.528   9.275  0.7448  0.8014 -0.0716
 7111SOL     OW32965   0.499   1.061   7.893 -0.6646  0.1121 -0.1275
 7111SOL    HW132966   0.500   1.151   7.925  1.0280  0.6632 -1.7122
 7111SOL    HW232967   0.409   1.047   7.864 -0.9973 -0.7334  1.3475
 7112SOL     OW32968   3.605   3.864   7.866 -0.0333  0.6220 -0.2516
 7112SOL    HW132969   3.561   3.946   7.845 -1.2854  0.4619  1.6909
 7112SOL    HW232970   3.680   3.900   7.912  0.1439 -0.5614  0.4026
 7113SOL     OW32971   3.861   3.972   6.588 -0.5195 -0.9975 -0.1521
 7113SOL    HW132972   3.812   4.031   6.530  0.1750 -3.4883 -3.2463
 7113SOL    HW232973   3.944   4.016   6.606 -0.7566 -0.6960  0.1960
 7114SOL     OW32974   1.317   4.248  15.804  0.2193 -0.0335 -0.2187
 7114SOL    HW132975   1.224   4.233  15.821  0.1756  1.4146  0.8277
 7114SOL    HW232976   1.348   4.258  15.894 -1.4597  1.5952  0.1652
 7115SOL     OW32977   0.380   3.392   6.758  0.1890  0.2454 -0.0015
 7115SOL    HW132978   0.461   3.420   6.800  0.9962 -0.7791 -0.8879
 7115SOL    HW232979   0.340   3.354   6.836  3.1859  0.7951  1.7730
 7116SOL     OW32980   4.659   2.697  12.297 -0.0682  0.5035  0.6089
 7116SOL    HW132981   4.699   2.747  12.226  0.3771 -0.3600  0.2467
 7116SOL    HW232982   4.653   2.619  12.243  3.1736  0.2863  0.5258
 7117SOL     OW32983   3.467   4.494  15.664 -0.3254  0.1544 -0.2466
 7117SOL    HW132984   3.541   4.434  15.672  0.1716  0.9485  1.1745
 7117SOL    HW232985   3.475   4.531  15.752  0.1472  0.2804 -0.3437
 7118SOL     OW32986   0.503   0.709   8.463  0.1255  1.1748 -0.3261
 7118SOL    HW132987   0.538   0.660   8.537 -0.3020 -2.6740 -2.6675
 7118SOL    HW232988   0.454   0.635   8.427  0.2297 -0.0258  1.9985
 7119SOL     OW32989   4.735   0.833   9.672  0.1183  0.4378 -0.3094
 7119SOL    HW132990   4.713   0.899   9.606  1.3100  0.1354 -1.0100
 7119SOL    HW232991   4.694   0.874   9.748  1.1875 -2.8832  2.0498
 7120SOL     OW32992   0.738   0.725  13.787 -0.2031 -0.1810  0.3699
 7120SOL    HW132993   0.803   0.779  13.832  0.4939 -0.6052 -0.1202
 7120SOL    HW232994   0.706   0.782  13.716  1.2083  0.0134 -0.1108
 7121SOL     OW32995   2.555   4.321  16.911 -0.1426 -0.1642 -0.2465
 7121SOL    HW132996   2.625   4.384  16.898 -0.6279 -0.0570 -2.3601
 7121SOL    HW232997   2.505   4.360  16.982  0.2188 -1.8053  0.9030
 7122SOL     OW32998   2.875   3.799   2.277  0.4410  0.1212  0.2261
 7122SOL    HW132999   2.801   3.829   2.330  1.4817  3.0994 -0.0209
 7122SOL    HW233000   2.826   3.729   2.232 -0.8008  0.8182  0.4892
 7123SOL     OW33001   1.623   2.873  17.433  0.0332  0.7646 -0.0771
 7123SOL    HW133002   1.610   2.966  17.419  0.7332  0.2765 -3.8928
 7123SOL    HW233003   1.683   2.875  17.508 -1.0512 -1.7737  0.8699
 7124SOL     OW33004   2.885   2.100   5.178 -0.5104  0.2097 -0.4347
 7124SOL    HW133005   2.923   2.107   5.090  0.3114 -1.5970 -0.2272
 7124SOL    HW233006   2.936   2.163   5.228  0.0620 -0.1718 -0.5408
 7125SOL     OW33007   1.594   1.723   2.311 -0.0009  0.1475 -0.0733
 7125SOL    HW133008   1.577   1.757   2.399  1.4325 -0.1196  0.3058
 7125SOL    HW233009   1.592   1.802   2.257 -0.3787  0.6081  0.6058
 7126SOL     OW33010   0.858   1.146   4.657  0.1878 -0.5440  0.0801
 7126SOL    HW133011   0.910   1.086   4.711  0.8840 -2.0189 -2.2802
 7126SOL    HW233012   0.893   1.229   4.691 -1.6907  0.9087 -1.5309
 7127SOL     OW33013   4.206   4.348   5.878  0.1744  0.4605  0.4876
 7127SOL    HW133014   4.231   4.381   5.792  2.6111  1.5474  1.6001
 7127SOL    HW233015   4.269   4.399   5.929 -0.0419  0.2663  0.9515
 7128SOL     OW33016   3.740   4.429   4.732  0.6329 -0.0016  0.1843
 7128SOL    HW133017   3.711   4.418   4.822  0.4650 -2.4673 -0.1836
 7128SOL    HW233018   3.805   4.360   4.723  3.1987  2.2708  1.2550
 7129SOL     OW33019   1.221   4.735   8.265  0.0051  0.1170  0.0953
 7129SOL    HW133020   1.243   0.000   8.358  0.0902  2.4716 -0.0410
 7129SOL    HW233021   1.297   0.044   8.233 -0.4150  1.2073  0.7318
 7130SOL     OW33022   0.653   1.822  10.617 -0.6397 -0.7023  0.7037
 7130SOL    HW133023   0.656   1.900  10.672 -0.3040 -0.2571  0.0575
 7130SOL    HW233024   0.627   1.757  10.682  0.0474  0.2268  1.9038
 7131SOL     OW33025   0.627   2.923   8.880 -0.4973  0.0020 -0.1553
 7131SOL    HW133026   0.718   2.941   8.859  0.3171 -1.7580  1.8358
 7131SOL    HW233027   0.638   2.847   8.938  1.9913 -0.6884 -1.5433
 7132SOL     OW33028   3.503   4.649  12.070  0.0271  0.1914 -0.1447
 7132SOL    HW133029   3.435   4.597  12.113 -0.1848 -0.8183 -1.6923
 7132SOL    HW233030   3.457   4.679  11.992 -2.2463 -0.8832  0.7700
 7133SOL     OW33031   2.781   2.736  11.345 -0.5652  0.0215  0.0969
 7133SOL    HW133032   2.858   2.679  11.350 -1.8096 -1.7667 -1.0467
 7133SOL    HW233033   2.766   2.774  11.431  0.2625  0.2290  0.1490
 7134SOL     OW33034   1.464   0.099   3.444  0.4097  0.3517 -0.0301
 7134SOL    HW133035   1.482   0.186   3.409  0.1308 -0.1762 -1.4836
 7134SOL    HW233036   1.391   0.069   3.391  1.9325  0.0361 -1.9547
 7135SOL     OW33037   3.310   3.223   7.234  0.2291  0.3292  0.0209
 7135SOL    HW133038   3.218   3.243   7.217  0.3885  0.6117 -0.5323
 7135SOL    HW233039   3.341   3.310   7.258 -0.7704  1.0634 -1.3806
 7136SOL     OW33040   1.011   4.553   3.352  0.1423 -0.1564 -0.1813
 7136SOL    HW133041   0.939   4.586   3.299  0.4957  1.0960  0.1179
 7136SOL    HW233042   1.084   4.589   3.303  0.7985 -1.0013  0.1754
 7137SOL     OW33043   1.166   2.210   6.903 -0.6190  0.6885 -0.4657
 7137SOL    HW133044   1.096   2.147   6.884  0.9144 -2.0880  3.1703
 7137SOL    HW233045   1.171   2.250   6.816  2.0423  1.8847  0.2419
 7138SOL     OW33046   1.517   2.167  16.211 -0.2630  0.2972 -0.3151
 7138SOL    HW133047   1.503   2.082  16.254  0.5930 -0.3187 -1.2492
 7138SOL    HW233048   1.520   2.152  16.116  0.4001  1.6456 -0.5052
 7139SOL     OW33049   2.590   2.721   2.667 -0.0912 -0.8065  0.3951
 7139SOL    HW133050   2.662   2.760   2.616 -1.8554 -0.5469 -1.8898
 7139SOL    HW233051   2.583   2.641   2.616  1.9843 -0.5388 -0.3269
 7140SOL     OW33052   0.823   2.987   7.727  0.3075 -0.0426 -0.2010
 7140SOL    HW133053   0.754   3.021   7.784 -1.0856 -0.1044 -1.8648
 7140SOL    HW233054   0.859   3.072   7.701  0.5238 -0.2783 -0.6680
 7141SOL     OW33055   0.304   2.111   5.662 -0.2490 -0.4211 -0.0303
 7141SOL    HW133056   0.394   2.137   5.646 -0.8450  0.4575 -1.8938
 7141SOL    HW233057   0.256   2.151   5.590  0.0037  1.2630  0.7446
 7142SOL     OW33058   0.471   2.207   4.076  0.1807 -0.5502  0.1798
 7142SOL    HW133059   0.471   2.278   4.012  0.6307 -1.3256 -0.6805
 7142SOL    HW233060   0.466   2.135   4.013  1.1305 -0.3436 -0.1217
 7143SOL     OW33061   2.485   1.876   4.626 -0.1573 -0.0216 -0.0772
 7143SOL    HW133062   2.518   1.791   4.654  0.9109  0.3160 -0.3111
 7143SOL    HW233063   2.500   1.937   4.699 -1.0574 -2.7099  2.3636
 7144SOL     OW33064   1.121   3.792  12.262 -0.1692  0.2529 -0.4860
 7144SOL    HW133065   1.172   3.798  12.182 -0.2492 -1.1461 -0.6380
 7144SOL    HW233066   1.035   3.777  12.222  0.5299 -3.2100 -0.6483
 7145SOL     OW33067   4.226   1.155  17.586 -0.0925  0.4136 -0.2714
 7145SOL    HW133068   4.314   1.148  17.625 -1.6441 -2.2863  2.7449
 7145SOL    HW233069   4.238   1.246  17.559 -1.1573 -0.3247 -3.2124
 7146SOL     OW33070   1.403   3.935   9.754  0.1245  0.4734 -0.1842
 7146SOL    HW133071   1.447   3.862   9.798 -0.9260  1.0355  1.7802
 7146SOL    HW233072   1.412   3.919   9.660 -0.3473 -0.7687 -0.0209
 7147SOL     OW33073   4.460   4.420   1.869  0.3967 -0.7491 -0.4709
 7147SOL    HW133074   4.459   4.489   1.803  0.1737  1.6185  1.9889
 7147SOL    HW233075   4.380   4.375   1.844  1.6413 -0.7380 -4.4648
 7148SOL     OW33076   1.539   0.067   4.369  0.2148 -0.1709  0.9200
 7148SOL    HW133077   1.549   0.151   4.325 -0.7495 -1.3093 -1.4700
 7148SOL    HW233078   1.483   0.029   4.302 -0.5934  0.3974  1.2770
 7149SOL     OW33079   3.593   4.604   2.421 -0.4808 -0.2008 -0.0933
 7149SOL    HW133080   3.528   4.547   2.463 -0.9005 -1.1813 -2.0687
 7149SOL    HW233081   3.616   4.565   2.337 -0.9894 -0.9113  0.0934
 7150SOL     OW33082   0.265   0.158   3.246 -0.0157 -0.7353  0.1942
 7150SOL    HW133083   0.259   0.073   3.289 -0.0723 -0.6429  0.3687
 7150SOL    HW233084   0.174   0.188   3.247 -0.7323 -2.8840 -1.1162
 7151SOL     OW33085   3.579   1.507   5.603  0.5378 -0.3732 -0.2782
 7151SOL    HW133086   3.534   1.513   5.687  3.4965 -0.2767  1.3210
 7151SOL    HW233087   3.497   1.519   5.556  0.6730  0.5331 -0.2844
 7152SOL     OW33088   3.617   2.646   4.886 -0.5870  0.7340  0.5101
 7152SOL    HW133089   3.704   2.607   4.875 -1.0752 -0.3069  0.3961
 7152SOL    HW233090   3.637   2.738   4.868 -0.8002  1.1597  2.4943
 7153SOL     OW33091   0.999   4.110   3.056 -0.4483  0.2067  0.3431
 7153SOL    HW133092   1.042   4.027   3.037 -2.3039 -0.9679  1.3378
 7153SOL    HW233093   0.930   4.072   3.110  1.0110 -1.4427  1.0350
 7154SOL     OW33094   3.731   4.617  14.479  0.2199 -0.2971  0.2960
 7154SOL    HW133095   3.703   4.709  14.476 -1.9165 -1.0590 -3.7183
 7154SOL    HW233096   3.745   4.604  14.573  0.7219 -1.7728  0.0098
 7155SOL     OW33097   2.127   1.938   5.730 -0.7357  0.2191 -0.0777
 7155SOL    HW133098   2.179   1.900   5.801 -1.0667  2.4214  1.3467
 7155SOL    HW233099   2.035   1.915   5.744 -0.7398  0.3118  0.0458
 7156SOL     OW33100   0.525   1.752  16.782 -0.1985 -0.6437  0.1073
 7156SOL    HW133101   0.449   1.776  16.729 -1.0580 -2.8183  0.3339
 7156SOL    HW233102   0.490   1.691  16.847 -0.2321 -0.1866  0.5178
 7157SOL     OW33103   2.015   1.866   5.204  0.3808 -0.4915 -0.2027
 7157SOL    HW133104   1.993   1.891   5.294 -1.9407  1.0551 -1.2082
 7157SOL    HW233105   1.935   1.820   5.180 -1.3173  1.2605  2.0333
 7158SOL     OW33106   2.621   3.657   9.981  0.0093  0.1624 -0.7186
 7158SOL    HW133107   2.707   3.615   9.974 -1.8907 -3.5394 -1.9548
 7158SOL    HW233108   2.616   3.689  10.071  0.5311  3.1462 -1.7491
 7159SOL     OW33109   2.331   3.327   4.013  0.2947 -0.5848  0.0514
 7159SOL    HW133110   2.361   3.321   4.104  1.3147 -0.8450 -0.2942
 7159SOL    HW233111   2.392   3.392   3.978 -0.3643 -0.3178 -0.5944
 7160SOL     OW33112   2.961   0.975   6.585  0.2563  0.2552 -0.1454
 7160SOL    HW133113   2.937   0.890   6.547  0.8229  0.1006 -0.1541
 7160SOL    HW233114   2.917   0.970   6.670  1.9824  1.4004  0.8247
 7161SOL     OW33115   4.135   1.083   8.538 -0.0674  0.5372 -0.4254
 7161SOL    HW133116   4.131   1.003   8.486  2.5692  0.6180 -0.7720
 7161SOL    HW233117   4.042   1.087   8.561  0.2727  0.8530  0.9005
 7162SOL     OW33118   1.725   0.486  17.388 -0.6217  0.0353 -0.0242
 7162SOL    HW133119   1.765   0.571  17.375 -2.4309  0.7800 -0.6480
 7162SOL    HW233120   1.705   0.457  17.299 -0.3756 -1.5895  0.4486
 7163SOL     OW33121   0.708   0.040  16.139  0.2631 -0.1536  0.0245
 7163SOL    HW133122   0.622   0.082  16.148 -0.4411 -1.2654 -1.6061
 7163SOL    HW233123   0.742   0.097  16.070  0.3373 -0.7765 -0.4514
 7164SOL     OW33124   2.306   3.755  13.968  0.4158 -0.5440 -0.0666
 7164SOL    HW133125   2.239   3.729  14.031 -2.2658  0.0012 -2.7115
 7164SOL    HW233126   2.272   3.729  13.883 -0.0026  0.9468 -0.3706
 7165SOL     OW33127   4.129   1.379   8.535 -0.4933 -0.4949 -0.4713
 7165SOL    HW133128   4.100   1.432   8.609  1.4502 -0.1168  0.0184
 7165SOL    HW233129   4.120   1.290   8.570  0.4958  0.0543  1.2197
 7166SOL     OW33130   4.412   3.802   0.666 -0.2710 -0.3083 -0.1787
 7166SOL    HW133131   4.415   3.713   0.702  1.9033 -0.6545 -1.2251
 7166SOL    HW233132   4.500   3.820   0.633  0.3958 -0.4267  1.4962
 7167SOL     OW33133   2.062   4.358   3.489  0.4791 -0.3360 -0.4541
 7167SOL    HW133134   2.151   4.348   3.524 -0.2585 -1.7991  1.0003
 7167SOL    HW233135   2.080   4.425   3.423  0.8656 -0.3957 -0.4083
 7168SOL     OW33136   4.249   2.110   1.581 -0.1675 -0.1477  0.3293
 7168SOL    HW133137   4.322   2.127   1.640 -0.2832  0.6633  0.2333
 7168SOL    HW233138   4.268   2.022   1.548 -1.3089  0.7087 -2.5847
 7169SOL     OW33139   0.790   3.129   6.890 -0.0317  0.1724  0.3757
 7169SOL    HW133140   0.878   3.093   6.902 -0.0002 -1.2107 -4.1504
 7169SOL    HW233141   0.791   3.155   6.798  0.1566  1.7674  0.8235
 7170SOL     OW33142   0.480   3.437   6.405 -0.3344  0.0015  0.3558
 7170SOL    HW133143   0.530   3.377   6.460  0.8276  0.0431 -0.6355
 7170SOL    HW233144   0.430   3.480   6.474  1.0918  0.9693  0.7977
 7171SOL     OW33145   1.730   1.169  12.940 -0.3573 -0.0870 -0.0299
 7171SOL    HW133146   1.662   1.199  12.880  0.0586 -0.7775 -0.8552
 7171SOL    HW233147   1.744   1.237  13.006  2.2832 -0.3728 -0.2622
 7172SOL     OW33148   0.121   2.477  14.541  0.2935  0.5592 -0.2409
 7172SOL    HW133149   0.043   2.428  14.567  0.2215  0.0707 -1.3617
 7172SOL    HW233150   0.176   2.472  14.619 -1.2891  0.1479  0.8327
 7173SOL     OW33151   4.242   1.233   5.324 -0.6794 -0.1624  0.0690
 7173SOL    HW133152   4.335   1.216   5.336 -0.1003  1.2232 -2.4632
 7173SOL    HW233153   4.225   1.234   5.230  0.6926 -1.4123 -0.1801
 7174SOL     OW33154   1.807   0.615   9.444  0.5673  0.0487  0.0784
 7174SOL    HW133155   1.874   0.672   9.480  1.0527 -0.4113 -0.1011
 7174SOL    HW233156   1.750   0.592   9.518 -1.6049  0.2004 -1.5265
 7175SOL     OW33157   3.285   0.276   1.295  0.1340  0.1309 -0.5170
 7175SOL    HW133158   3.370   0.247   1.263 -0.4730 -1.4349 -0.7081
 7175SOL    HW233159   3.307   0.364   1.326 -1.6398  0.3719  0.0266
 7176SOL     OW33160   2.295   1.807   2.481  0.1792  0.5518  0.1098
 7176SOL    HW133161   2.220   1.812   2.541  2.0060  1.2059  2.3358
 7176SOL    HW233162   2.347   1.743   2.530  2.2748  0.7478 -1.8668
 7177SOL     OW33163   1.575   3.982  13.239 -0.7889 -0.6889  0.1183
 7177SOL    HW133164   1.588   3.913  13.304 -0.2186 -1.8360 -1.2348
 7177SOL    HW233165   1.600   4.054  13.297  1.5143 -1.5678  0.2198
 7178SOL     OW33166   2.309   2.678   6.468  0.2929  0.5674  0.1753
 7178SOL    HW133167   2.245   2.744   6.494 -1.1733 -0.7214 -0.2001
 7178SOL    HW233168   2.265   2.662   6.385  0.4520  3.2915 -0.4348
 7179SOL     OW33169   4.168   1.280   1.483  0.1715  0.2689 -0.2049
 7179SOL    HW133170   4.259   1.292   1.456  0.5088  0.3883  0.9777
 7179SOL    HW233171   4.184   1.296   1.576 -2.1832 -0.6145  0.3543
 7180SOL     OW33172   0.613   2.308   2.631  0.5586  0.5400 -0.2695
 7180SOL    HW133173   0.588   2.391   2.672 -0.8703 -0.9307  1.8436
 7180SOL    HW233174   0.704   2.322   2.607  0.8889  1.8762  1.7644
 7181SOL     OW33175   2.934   1.359   8.952  0.4630  0.4904  0.3431
 7181SOL    HW133176   2.861   1.303   8.978  0.6044  0.6321  1.0314
 7181SOL    HW233177   3.010   1.308   8.980  2.0414  2.1665 -0.9426
 7182SOL     OW33178   1.210   2.778   4.138  0.5384  0.2724  0.3153
 7182SOL    HW133179   1.257   2.821   4.067 -0.6733 -1.1628 -1.3664
 7182SOL    HW233180   1.120   2.801   4.116  0.6144  1.9801  1.7477
 7183SOL     OW33181   3.047   2.802  15.219  1.0002  0.1704 -0.0318
 7183SOL    HW133182   3.008   2.855  15.149 -0.9608 -0.0632  0.8860
 7183SOL    HW233183   3.127   2.852  15.231  1.0596 -0.6316  2.8170
 7184SOL     OW33184   1.006   2.507   7.739 -0.1240 -0.0041  0.4679
 7184SOL    HW133185   0.951   2.484   7.664  2.1479 -2.5006 -0.4281
 7184SOL    HW233186   1.007   2.602   7.734  0.9307  0.0587  1.9355
 7185SOL     OW33187   4.366   4.677   3.220  0.1432 -0.3523  0.1466
 7185SOL    HW133188   4.452   4.700   3.185  0.4683  1.0306  1.8655
 7185SOL    HW233189   4.298   4.697   3.156  0.3386 -1.9457 -0.5663
 7186SOL     OW33190   2.015   4.035   4.164  0.0594  0.4206 -0.0451
 7186SOL    HW133191   1.940   4.079   4.124 -0.3736 -1.3434 -1.1901
 7186SOL    HW233192   2.004   4.042   4.259  0.8557  0.4360  0.0475
 7187SOL     OW33193   2.012   3.824   1.263  0.1850 -0.4721 -0.1383
 7187SOL    HW133194   1.944   3.847   1.200  2.4796  1.0585 -2.0906
 7187SOL    HW233195   2.091   3.849   1.214  1.1215 -1.4233  0.8706
 7188SOL     OW33196   0.059   2.970   5.840  0.1948  0.6286 -0.2927
 7188SOL    HW133197   4.705   2.958   5.856  0.3374  0.3915  0.3768
 7188SOL    HW233198   0.054   3.036   5.771  0.9396  0.6248 -0.3507
 7189SOL     OW33199   2.275   3.289   5.639  0.4577 -0.6498  0.0307
 7189SOL    HW133200   2.287   3.353   5.568  1.2208  0.7964  1.4807
 7189SOL    HW233201   2.211   3.321   5.701 -0.6442  1.0731 -1.9999
 7190SOL     OW33202   3.086   3.350   4.500 -0.0990  0.7517 -0.0531
 7190SOL    HW133203   3.160   3.327   4.444 -1.1547  0.3814 -1.2975
 7190SOL    HW233204   3.097   3.277   4.561  0.5224 -0.7456 -1.9601
 7191SOL     OW33205   1.726   3.332   4.130 -0.1386 -0.2829 -0.1749
 7191SOL    HW133206   1.822   3.339   4.133 -0.0710 -0.6834 -1.2963
 7191SOL    HW233207   1.722   3.264   4.196 -3.6274  2.4698  2.3976
 7192SOL     OW33208   2.671   2.657   6.978 -0.3423  0.3816  0.5875
 7192SOL    HW133209   2.726   2.647   7.055 -0.9093 -1.1182  0.7923
 7192SOL    HW233210   2.649   2.749   6.990 -0.4152  0.1764  1.9822
 7193SOL     OW33211   0.282   0.580   9.796  0.0645 -0.3604 -0.3090
 7193SOL    HW133212   0.362   0.551   9.753  0.6651  0.8460 -0.0117
 7193SOL    HW233213   0.283   0.520   9.870 -0.5228 -1.8807 -1.5390
 7194SOL     OW33214   3.056   3.146   7.182 -0.1975 -0.3399 -0.2503
 7194SOL    HW133215   3.042   3.145   7.276  1.2130  3.6748  0.0025
 7194SOL    HW233216   3.053   3.052   7.163  0.1861 -0.5760  0.8839
 7195SOL     OW33217   3.839   0.622   3.140 -0.2530 -0.7750  0.2508
 7195SOL    HW133218   3.754   0.581   3.125 -0.5922 -0.6205  1.7029
 7195SOL    HW233219   3.837   0.637   3.235  3.5599  0.4220  0.1323
 7196SOL     OW33220   3.282   3.970   5.357  0.1759  0.5690  1.3376
 7196SOL    HW133221   3.291   3.937   5.267  1.2571 -0.8248  1.9558
 7196SOL    HW233222   3.372   4.002   5.361  1.2895 -2.4712  0.1980
 7197SOL     OW33223   2.054   1.366   0.349  0.6980 -0.2218  0.3189
 7197SOL    HW133224   2.118   1.407   0.407  1.1751 -2.1024  1.1318
 7197SOL    HW233225   2.004   1.441   0.317 -1.7996 -1.5941  1.0329
 7198SOL     OW33226   1.359   3.378   4.995 -0.3739 -0.0408 -0.3956
 7198SOL    HW133227   1.298   3.365   5.068 -0.6816  1.8016 -0.3350
 7198SOL    HW233228   1.308   3.328   4.930  1.2344 -1.9002 -0.2396
 7199SOL     OW33229   0.155   4.670   2.503 -0.3140 -0.2621 -0.2198
 7199SOL    HW133230   0.129   4.610   2.432 -0.3989 -1.5405  0.8913
 7199SOL    HW233231   0.114   0.011   2.471  0.5578  0.3667  0.2512
 7200SOL     OW33232   3.177   1.446   4.124 -0.3480 -0.1104 -0.0184
 7200SOL    HW133233   3.192   1.377   4.189  1.8454 -0.6566 -1.0967
 7200SOL    HW233234   3.159   1.521   4.181  1.0280 -0.0590  0.3647
 7201SOL     OW33235   0.099   1.826  14.877 -0.3331 -0.6584  0.4135
 7201SOL    HW133236   0.016   1.805  14.921 -0.2870  0.3916  1.0004
 7201SOL    HW233237   0.077   1.900  14.819  0.9093 -0.1045  0.6592
 7202SOL     OW33238   0.520   0.228   7.625 -0.2080  0.2891  0.2117
 7202SOL    HW133239   0.515   0.323   7.626  1.1974  0.3364  3.1070
 7202SOL    HW233240   0.614   0.211   7.621  0.3487  2.9436  2.0023
 7203SOL     OW33241   4.218   3.456   8.388  0.3481 -0.0818  0.7666
 7203SOL    HW133242   4.250   3.526   8.445 -0.5667  0.0386  1.1360
 7203SOL    HW233243   4.295   3.400   8.382 -1.6211 -2.6436 -0.6138
 7204SOL     OW33244   1.616   3.332  15.274  0.0081 -0.0774  0.4538
 7204SOL    HW133245   1.618   3.246  15.316  1.6684 -1.6235 -2.7285
 7204SOL    HW233246   1.663   3.305  15.195  0.7731  1.5726  0.3542
 7205SOL     OW33247   3.555   1.730   7.919  0.3090 -0.1528 -0.1625
 7205SOL    HW133248   3.495   1.758   7.988 -0.5493  0.5616 -1.2051
 7205SOL    HW233249   3.511   1.745   7.835  1.2510  3.6688  0.0221
 7206SOL     OW33250   2.109   2.076  12.788  0.3574 -0.0211 -0.2987
 7206SOL    HW133251   2.184   2.129  12.813  0.0973 -0.4702  1.4541
 7206SOL    HW233252   2.056   2.135  12.734 -0.3071 -0.3052  0.0428
 7207SOL     OW33253   2.302   0.814   4.948 -0.0678  0.4692  0.1497
 7207SOL    HW133254   2.240   0.767   4.891  1.0853  0.2741 -0.9510
 7207SOL    HW233255   2.306   0.759   5.027 -0.7504  1.2872  0.7512
 7208SOL     OW33256   0.174   4.476   2.121  0.0509  1.0441 -0.3466
 7208SOL    HW133257   0.122   4.436   2.190 -3.6147  0.0326 -3.6819
 7208SOL    HW233258   0.119   4.477   2.043  0.2712 -1.0247 -0.5233
 7209SOL     OW33259   1.360   1.868   8.613 -0.1704  0.6108  0.0380
 7209SOL    HW133260   1.415   1.819   8.674 -0.6906  0.0925  0.0850
 7209SOL    HW233261   1.348   1.952   8.657 -0.0226  0.1296  0.9910
 7210SOL     OW33262   0.310   0.183  15.456  0.0815 -0.0511 -0.2022
 7210SOL    HW133263   0.277   0.258  15.505  0.8644 -0.3276  0.7576
 7210SOL    HW233264   0.397   0.184  15.495  0.6779  2.2437 -1.5930
 7211SOL     OW33265   2.756   3.981  16.974 -0.5001 -0.2564 -0.1999
 7211SOL    HW133266   2.745   4.013  16.885  0.6928 -1.5405 -0.8044
 7211SOL    HW233267   2.764   4.065  17.019  2.0254 -1.4545  1.5751
 7212SOL     OW33268   2.536   1.227   2.498  0.3340 -0.2980  0.3980
 7212SOL    HW133269   2.596   1.287   2.541 -0.4446  1.7501 -1.3620
 7212SOL    HW233270   2.459   1.284   2.490  1.3581  1.3153  2.0016
 7213SOL     OW33271   0.966   4.103   7.770 -0.0844 -0.5458  0.4465
 7213SOL    HW133272   0.937   4.040   7.836  2.8218 -3.5323 -1.1310
 7213SOL    HW233273   1.036   4.056   7.724  1.4433 -0.8051  3.0682
 7214SOL     OW33274   1.248   4.312  10.463 -0.1663 -0.1021  0.1633
 7214SOL    HW133275   1.206   4.375  10.521 -1.1753  0.6339 -1.3754
 7214SOL    HW233276   1.297   4.265  10.531 -2.5341 -2.4530  0.2317
 7215SOL     OW33277   3.709   3.001   0.204  0.2608  0.6983 -0.2132
 7215SOL    HW133278   3.727   3.093   0.218  2.5461  0.2337 -0.1635
 7215SOL    HW233279   3.754   2.965   0.280 -2.7814 -1.6263  0.5044
 7216SOL     OW33280   0.190   3.504   8.509 -0.3650  0.8809  0.5192
 7216SOL    HW133281   0.187   3.409   8.521  0.4029  0.8855  0.7079
 7216SOL    HW233282   0.278   3.518   8.474  0.0944 -1.4050  0.7685
 7217SOL     OW33283   1.143   0.768   3.871 -0.1968 -0.2300  0.1058
 7217SOL    HW133284   1.055   0.790   3.841 -0.9508 -2.2330  0.8435
 7217SOL    HW233285   1.154   0.838   3.935  1.0718  0.2571 -0.6490
 7218SOL     OW33286   4.205   0.162   7.925  0.5210 -0.0683 -0.0186
 7218SOL    HW133287   4.151   0.223   7.975 -1.4174 -0.6718 -1.3986
 7218SOL    HW233288   4.284   0.211   7.949  0.7688 -1.0302  1.1410
 7219SOL     OW33289   0.459   3.993  13.318 -0.2038  0.5159 -0.0155
 7219SOL    HW133290   0.406   3.956  13.388  0.2305 -0.2350 -0.0824
 7219SOL    HW233291   0.489   4.074  13.360 -1.3507  0.8021  0.2343
 7220SOL     OW33292   1.539   0.081   0.818 -0.0096  0.1790  0.1103
 7220SOL    HW133293   1.494   0.084   0.902 -0.9933 -1.7950 -0.3273
 7220SOL    HW233294   1.551   0.174   0.798 -2.0309  0.8179  1.8778
 7221SOL     OW33295   1.463   3.130   9.201  0.0255  0.0843 -0.0706
 7221SOL    HW133296   1.398   3.195   9.172 -0.0658  0.0000 -0.0535
 7221SOL    HW233297   1.413   3.051   9.181  1.2855 -0.0435 -2.6315
 7222SOL     OW33298   0.706   3.944   2.371  0.3003 -0.2761 -0.1696
 7222SOL    HW133299   0.719   3.911   2.282 -0.7619 -0.3804 -0.2848
 7222SOL    HW233300   0.670   4.032   2.354 -1.6591 -0.9053  0.7817
 7223SOL     OW33301   1.375   1.419  16.294 -0.4706 -0.0820  0.2372
 7223SOL    HW133302   1.453   1.472  16.275 -1.6415  0.8314 -2.0151
 7223SOL    HW233303   1.397   1.336  16.252 -0.4354 -0.1145  0.3185
 7224SOL     OW33304   4.721   4.422   7.501  0.4028 -0.0506 -0.3646
 7224SOL    HW133305   0.058   4.374   7.468  0.4042  0.7600 -1.5254
 7224SOL    HW233306   0.032   4.490   7.546 -3.6237  1.7587  1.3882
 7225SOL     OW33307   2.377   2.924   5.842 -0.9674  0.0271  0.1147
 7225SOL    HW133308   2.448   2.899   5.901 -0.9073  0.6212  0.2939
 7225SOL    HW233309   2.309   2.858   5.859 -1.9199  1.3104  1.3245
 7226SOL     OW33310   2.813   2.360   7.829 -0.3211 -0.0257 -0.0541
 7226SOL    HW133311   2.833   2.382   7.919  1.9902  1.3390 -0.9184
 7226SOL    HW233312   2.771   2.275   7.843  0.5853 -0.3570  0.6088
 7227SOL     OW33313   3.609   2.552  17.438  0.2444  0.3656  0.3203
 7227SOL    HW133314   3.552   2.558  17.515  1.1537  0.8063  0.9629
 7227SOL    HW233315   3.571   2.616  17.378  0.3369 -1.4712 -1.6894
 7228SOL     OW33316   3.636   2.120  16.733  0.9673  0.3854  0.1731
 7228SOL    HW133317   3.691   2.058  16.686  0.4761 -0.2393  0.4181
 7228SOL    HW233318   3.684   2.135  16.814  0.7552  0.8873  0.2077
 7229SOL     OW33319   2.538   0.259   5.299  0.2123 -0.3511 -1.2470
 7229SOL    HW133320   2.474   0.195   5.330  1.3609 -1.0067 -0.1877
 7229SOL    HW233321   2.562   0.209   5.222 -1.6389 -1.9763 -0.7652
 7230SOL     OW33322   1.294   1.542   8.696 -1.0809  0.3353  0.1885
 7230SOL    HW133323   1.386   1.568   8.689 -1.0734  0.1488 -0.3849
 7230SOL    HW233324   1.278   1.579   8.783 -0.9463  0.0444  0.3367
 7231SOL     OW33325   2.058   1.401   7.435  0.5830 -0.5298 -0.2156
 7231SOL    HW133326   2.142   1.398   7.481 -1.4319 -1.7799  3.3526
 7231SOL    HW233327   2.043   1.494   7.421 -0.7475 -0.5012  1.3915
 7232SOL     OW33328   1.471   4.483   5.232 -0.0467  0.1933 -0.2700
 7232SOL    HW133329   1.562   4.456   5.235  0.2701  1.2148 -0.8822
 7232SOL    HW233330   1.451   4.508   5.142 -3.4709  2.2277  1.0436
 7233SOL     OW33331   1.461   1.276   4.424 -0.0723 -0.2704 -0.0278
 7233SOL    HW133332   1.528   1.283   4.493  0.8455 -0.6636 -0.8871
 7233SOL    HW233333   1.518   1.260   4.349  1.6790  1.1370  1.0109
 7234SOL     OW33334   0.984   4.662   6.160 -0.3648  0.0339 -0.7182
 7234SOL    HW133335   1.063   4.632   6.115 -0.1374  0.4450 -0.5937
 7234SOL    HW233336   1.005   0.007   6.200  0.4753 -0.9565  0.8762
 7235SOL     OW33337   4.101   1.679  12.235  0.2705  0.4585 -0.4445
 7235SOL    HW133338   4.049   1.758  12.221 -2.7895 -1.2989  0.8135
 7235SOL    HW233339   4.032   1.615  12.253 -0.3072  0.9679 -0.8365
 7236SOL     OW33340   1.619   4.150   0.451 -0.2740  0.2467  0.2514
 7236SOL    HW133341   1.531   4.153   0.413 -1.0403 -2.8747  1.7034
 7236SOL    HW233342   1.603   4.079   0.513 -0.4745  1.1968  1.2860
 7237SOL     OW33343   1.262   4.345  11.016 -0.5706  0.2288 -0.3675
 7237SOL    HW133344   1.187   4.298  10.981  1.4335 -3.0027 -0.3111
 7237SOL    HW233345   1.291   4.387  10.935 -0.2626 -0.0215 -0.3883
 7238SOL     OW33346   4.456   0.756   6.400 -0.2839  0.3181 -0.1136
 7238SOL    HW133347   4.546   0.737   6.429 -0.6102 -0.8539  0.1037
 7238SOL    HW233348   4.419   0.669   6.412  2.3271 -1.0262 -1.8443
 7239SOL     OW33349   2.918   3.226   2.900 -0.1210  0.0200 -0.0699
 7239SOL    HW133350   2.893   3.267   2.817  3.4688 -0.0215 -1.1647
 7239SOL    HW233351   2.841   3.242   2.954  1.3777 -1.4973  2.5179
 7240SOL     OW33352   0.709   1.950  16.729  0.1125  0.7657 -0.4201
 7240SOL    HW133353   0.728   1.940  16.636  0.5929 -3.1866  0.1131
 7240SOL    HW233354   0.664   1.868  16.749 -2.6746  2.4346  0.1603
 7241SOL     OW33355   4.116   0.776   3.517 -0.2995 -0.4210  0.5309
 7241SOL    HW133356   4.151   0.701   3.564  1.2479 -1.2956 -2.0076
 7241SOL    HW233357   4.039   0.733   3.479 -0.6551  0.6135  0.0644
 7242SOL     OW33358   2.098   0.108   8.620 -0.2096 -0.4833  0.0620
 7242SOL    HW133359   2.142   0.185   8.583 -0.2486  0.1642  1.3673
 7242SOL    HW233360   2.086   0.144   8.708  0.9248  1.0887 -0.4217
 7243SOL     OW33361   2.044   1.815   2.696  0.1349 -0.0493 -0.2182
 7243SOL    HW133362   2.000   1.798   2.779 -0.4808  0.1044 -0.5171
 7243SOL    HW233363   2.046   1.725   2.661  0.7497  0.0225 -0.3761
 7244SOL     OW33364   1.619   0.684  11.861 -0.5265  0.2781  0.7047
 7244SOL    HW133365   1.688   0.749  11.847  0.6679 -0.9329  0.9850
 7244SOL    HW233366   1.542   0.714  11.812  1.4998  2.0429 -1.3566
 7245SOL     OW33367   1.587   2.338   4.722 -0.2273 -0.7493  0.5285
 7245SOL    HW133368   1.554   2.330   4.632 -1.0705 -0.1334  0.7892
 7245SOL    HW233369   1.676   2.307   4.709  0.2320  0.2917  1.2621
 7246SOL     OW33370   1.937   0.376   6.127 -0.1582  0.5672 -0.6177
 7246SOL    HW133371   1.917   0.449   6.069  1.5342  0.3108 -1.5362
 7246SOL    HW233372   1.965   0.306   6.068 -2.1032 -1.6551  1.1082
 7247SOL     OW33373   0.741   3.548   5.559 -0.3859  0.0859  0.1457
 7247SOL    HW133374   0.767   3.625   5.608 -0.3297 -0.8413  1.5649
 7247SOL    HW233375   0.713   3.491   5.631  0.1040  0.0632  0.3137
 7248SOL     OW33376   0.814   0.699  12.980  0.3613  0.2267 -0.5690
 7248SOL    HW133377   0.896   0.660  12.949  0.0927  0.5462 -1.6882
 7248SOL    HW233378   0.826   0.787  12.945 -1.9693 -0.0675 -2.0820
 7249SOL     OW33379   2.971   0.130   8.418 -0.3704 -0.2830  0.2102
 7249SOL    HW133380   3.050   0.091   8.457 -1.3372  0.0183  2.4496
 7249SOL    HW233381   3.005   0.156   8.333 -0.5067  0.2697  0.3263
 7250SOL     OW33382   2.058   2.924   3.267 -0.4745  0.0699  0.2276
 7250SOL    HW133383   2.152   2.934   3.280 -0.5971 -2.1619  2.7905
 7250SOL    HW233384   2.040   3.010   3.228 -2.2191 -0.9380 -1.1909
 7251SOL     OW33385   4.493   2.765   8.809 -0.3850 -0.0186  0.2177
 7251SOL    HW133386   4.530   2.707   8.742  0.6653  1.0030 -0.0760
 7251SOL    HW233387   4.421   2.713   8.845 -0.5636 -1.1079 -1.6810
 7252SOL     OW33388   3.431   2.986  11.241  0.2713  0.0314 -0.3177
 7252SOL    HW133389   3.468   3.074  11.239  0.7233 -0.0903  2.1215
 7252SOL    HW233390   3.510   2.932  11.236 -0.2799 -0.7125 -0.9668
 7253SOL     OW33391   3.751   3.109   5.112 -0.1011  0.1779 -0.0832
 7253SOL    HW133392   3.731   3.170   5.183 -1.7706 -1.1747  0.6072
 7253SOL    HW233393   3.784   3.030   5.155 -0.5030  0.9822  1.6938
 7254SOL     OW33394   0.304   0.617   8.896 -0.1285 -0.5018  0.4614
 7254SOL    HW133395   0.261   0.697   8.928  2.8951  1.0189  0.7611
 7254SOL    HW233396   0.396   0.644   8.898 -0.2111 -0.2941  1.4594
 7255SOL     OW33397   3.632   1.356   3.540 -0.4640 -0.2767  0.1421
 7255SOL    HW133398   3.647   1.449   3.556  1.5687 -0.7720  1.1433
 7255SOL    HW233399   3.650   1.310   3.622  1.2292  0.6697  0.2977
 7256SOL     OW33400   1.945   3.938   9.786  0.3383  0.4407  0.1611
 7256SOL    HW133401   2.036   3.909   9.778  0.2396  0.0554  0.4218
 7256SOL    HW233402   1.940   3.990   9.707 -1.2566  1.2968  0.8165
 7257SOL     OW33403   1.156   4.164   5.622 -0.0934  0.0260 -0.2868
 7257SOL    HW133404   1.202   4.200   5.546 -0.1451  1.0751  0.1871
 7257SOL    HW233405   1.068   4.145   5.588  0.2615  2.6008 -2.6620
 7258SOL     OW33406   1.013   3.086   8.135 -0.5924 -0.1827  0.1917
 7258SOL    HW133407   0.923   3.114   8.154  0.6379  2.0267  2.7999
 7258SOL    HW233408   1.012   3.004   8.183 -0.4774  0.2855  1.0026
 7259SOL     OW33409   3.029   2.703   6.213  0.4432  0.2900 -0.1843
 7259SOL    HW133410   2.940   2.695   6.178  0.8015 -1.0063 -0.7763
 7259SOL    HW233411   3.026   2.736   6.303 -2.8625  0.8037 -0.4961
 7260SOL     OW33412   1.726   1.508   2.004 -0.4011  0.1321 -0.4124
 7260SOL    HW133413   1.745   1.432   2.059 -1.6216  0.3111  0.2684
 7260SOL    HW233414   1.637   1.523   2.037 -0.0351  0.2074  0.5627
 7261SOL     OW33415   2.274   3.443  17.100 -0.4256 -0.3562 -0.1851
 7261SOL    HW133416   2.352   3.390  17.117 -1.3509 -2.1388 -1.5312
 7261SOL    HW233417   2.286   3.452  17.005 -1.2579 -2.3905 -0.4677
 7262SOL     OW33418   3.764   1.666   0.751 -0.1980  0.4097  0.1646
 7262SOL    HW133419   3.732   1.747   0.713  0.3634  0.8626  0.6572
 7262SOL    HW233420   3.849   1.655   0.707  1.2039  3.4620  2.0774
 7263SOL     OW33421   3.199   1.658  11.721  0.1682 -0.1120 -0.4008
 7263SOL    HW133422   3.235   1.737  11.681  0.2390  0.0926  0.0698
 7263SOL    HW233423   3.276   1.602  11.717  0.7431  0.5922  0.7998
 7264SOL     OW33424   1.789   2.903  11.106 -0.0589 -0.0774 -0.0070
 7264SOL    HW133425   1.873   2.859  11.097  0.3212  0.5893  0.3284
 7264SOL    HW233426   1.727   2.842  11.064  1.2527 -1.7520  0.5007
 7265SOL     OW33427   0.066   0.155   4.108 -0.4617  0.3793 -0.3730
 7265SOL    HW133428   0.101   0.207   4.180  1.5852  1.1947 -1.9762
 7265SOL    HW233429   4.732   0.209   4.079 -1.9142 -0.8327  1.0324
 7266SOL     OW33430   3.492   2.507   9.927 -0.1799 -0.8923 -0.3528
 7266SOL    HW133431   3.564   2.501   9.990  0.6815 -3.1226 -1.5650
 7266SOL    HW233432   3.416   2.519   9.984 -0.4370  0.3504 -0.9519
 7267SOL     OW33433   2.009   0.970   4.986 -0.2109 -0.3945  0.4383
 7267SOL    HW133434   2.055   0.979   4.903  0.6857  0.5974  1.0444
 7267SOL    HW233435   2.025   1.058   5.021  0.9966 -0.7582  0.8059
 7268SOL     OW33436   0.380   3.074   7.177 -0.2475  0.3420 -0.4079
 7268SOL    HW133437   0.463   3.108   7.145  0.6936 -2.8745 -1.4026
 7268SOL    HW233438   0.404   2.982   7.187  0.6062  0.7478  1.1753
 7269SOL     OW33439   1.506   2.715   4.048 -1.0157 -0.3570  0.0827
 7269SOL    HW133440   1.508   2.810   4.034 -0.9633 -0.5842 -1.4401
 7269SOL    HW233441   1.524   2.714   4.143 -2.7704 -2.6228  0.3882
 7270SOL     OW33442   3.313   4.122   5.856  0.2171 -0.5549  0.2963
 7270SOL    HW133443   3.403   4.155   5.856 -0.3486  1.0059  1.5089
 7270SOL    HW233444   3.276   4.156   5.937 -3.2160 -1.7642 -0.7520
 7271SOL     OW33445   4.186   2.366  16.050  0.5042  0.1186 -0.1019
 7271SOL    HW133446   4.204   2.453  16.017  2.1234 -1.1275 -2.4985
 7271SOL    HW233447   4.109   2.369  16.106  0.7275  2.4732  0.0670
 7272SOL     OW33448   2.117   3.000   2.668  0.0267  0.3091  0.1429
 7272SOL    HW133449   2.110   3.044   2.753  0.7340  0.7461 -0.0246
 7272SOL    HW233450   2.180   3.063   2.633 -0.2287  0.9696  0.8468
 7273SOL     OW33451   3.025   4.731  12.969 -0.2745 -0.3102  0.2299
 7273SOL    HW133452   3.115   0.025  12.968 -0.1305 -0.6631  1.3902
 7273SOL    HW233453   3.031   4.658  13.031  0.3832 -0.0655  0.4547
 7274SOL     OW33454   0.174   0.223   9.021  0.1113  0.0042 -0.2986
 7274SOL    HW133455   0.100   0.248   8.964  0.2640 -0.2884 -0.6293
 7274SOL    HW233456   0.221   0.157   8.970 -1.6506 -1.6215  0.1730
 7275SOL     OW33457   4.312   2.141   6.580  0.1793 -0.4266 -0.1827
 7275SOL    HW133458   4.398   2.105   6.603  0.3232 -0.8639 -1.4209
 7275SOL    HW233459   4.261   2.060   6.577 -3.2618  1.8411 -2.5263
 7276SOL     OW33460   1.678   2.119  13.835 -0.5248 -0.0557 -0.0203
 7276SOL    HW133461   1.648   2.210  13.824 -2.0338 -0.6982 -1.2689
 7276SOL    HW233462   1.599   2.068  13.814 -0.6130 -0.3906  1.1553
 7277SOL     OW33463   2.340   2.726  11.841 -0.6571  0.3563 -0.0113
 7277SOL    HW133464   2.401   2.658  11.870  0.4166  1.4562  0.3062
 7277SOL    HW233465   2.256   2.685  11.864 -0.7890 -0.2201 -1.5325
 7278SOL     OW33466   0.796   1.821  13.275 -0.6781 -0.3023 -0.0826
 7278SOL    HW133467   0.750   1.873  13.209 -0.5542 -0.4889 -0.3172
 7278SOL    HW233468   0.719   1.781  13.316 -0.2863  0.0588  0.9989
 7279SOL     OW33469   1.331   2.319   6.034  0.4648 -0.5933  0.7238
 7279SOL    HW133470   1.302   2.410   6.024 -0.0122 -0.8632 -0.3270
 7279SOL    HW233471   1.264   2.292   6.097  1.5242 -0.4201  1.9261
 7280SOL     OW33472   2.525   1.976   2.731 -0.7428 -0.0585  0.2475
 7280SOL    HW133473   2.530   1.886   2.763 -2.3906 -0.6876 -1.2240
 7280SOL    HW233474   2.437   1.973   2.769  0.1629  1.6040  2.4176
 7281SOL     OW33475   3.202   1.583   8.431  0.2609 -0.0238  0.0620
 7281SOL    HW133476   3.199   1.612   8.340  2.4264  0.0796  0.0189
 7281SOL    HW233477   3.242   1.496   8.420 -0.1849 -0.2581  0.2643
 7282SOL     OW33478   0.158   2.051   8.876  0.2497  0.1344 -0.3047
 7282SOL    HW133479   0.108   2.081   8.952 -1.8366 -2.7175 -0.5214
 7282SOL    HW233480   0.098   2.071   8.804 -0.3177 -0.4373  0.0087
 7283SOL     OW33481   0.105   3.405   4.126 -0.1073 -0.4329  0.3593
 7283SOL    HW133482   0.066   3.376   4.209 -0.0988 -2.2593 -0.2832
 7283SOL    HW233483   0.060   3.343   4.070  1.2092 -0.0964 -1.0593
 7284SOL     OW33484   1.157   3.279   1.881  0.4325  0.0570 -0.5134
 7284SOL    HW133485   1.079   3.229   1.907 -0.1825  2.7491  2.8040
 7284SOL    HW233486   1.179   3.247   1.793 -0.4182 -1.8796 -0.0198
 7285SOL     OW33487   3.231   2.357   8.009  0.2508 -0.4298 -0.5943
 7285SOL    HW133488   3.254   2.371   8.101  0.0232 -0.2129 -0.5708
 7285SOL    HW233489   3.209   2.448   7.987  1.2655 -0.0853 -0.1681
 7286SOL     OW33490   4.276   3.763   6.860  0.1858 -0.0524  0.0959
 7286SOL    HW133491   4.239   3.693   6.914  0.8612 -1.0771 -0.7888
 7286SOL    HW233492   4.318   3.717   6.787  1.6446 -3.1289  2.8988
 7287SOL     OW33493   0.799   3.592  16.112  0.2802  0.3420  0.2909
 7287SOL    HW133494   0.839   3.593  16.025 -0.8757 -3.6565 -0.2618
 7287SOL    HW233495   0.827   3.677  16.146  1.4025  0.1263 -0.0840
 7288SOL     OW33496   2.421   4.441  15.734 -0.2249  0.1071  0.7816
 7288SOL    HW133497   2.352   4.409  15.677  0.3668 -1.8169  1.1468
 7288SOL    HW233498   2.510   4.414  15.711  0.4828  1.1109  2.2274
 7289SOL     OW33499   4.203   2.666  13.938 -0.1101 -0.0154 -0.0906
 7289SOL    HW133500   4.161   2.751  13.950  0.7545  0.3464  0.3387
 7289SOL    HW233501   4.189   2.655  13.843  0.1949 -0.0064 -0.1360
 7290SOL     OW33502   3.958   4.342  17.656 -0.2089 -0.0804  0.0201
 7290SOL    HW133503   3.942   4.413  17.593 -1.7945  1.2136  1.8684
 7290SOL    HW233504   3.902   4.285  17.604 -0.8962 -0.3761  1.0769
 7291SOL     OW33505   2.794   0.964   7.335 -0.0246  0.1927  0.7335
 7291SOL    HW133506   2.864   1.024   7.311 -2.0613  2.3285  0.1757
 7291SOL    HW233507   2.849   0.902   7.384  0.5269 -1.0175 -1.4056
 7292SOL     OW33508   0.162   3.408   5.609  0.0630 -0.3063  0.1058
 7292SOL    HW133509   0.249   3.449   5.604  0.9294 -2.3644 -1.6547
 7292SOL    HW233510   0.149   3.383   5.518  0.6319  0.1847 -0.1125
 7293SOL     OW33511   4.247   3.259   6.520  0.2048 -0.1001  0.4089
 7293SOL    HW133512   4.192   3.181   6.508  2.6799 -1.8609  0.6284
 7293SOL    HW233513   4.322   3.241   6.465 -0.4655 -0.3118 -0.4296
 7294SOL     OW33514   4.027   2.743   4.983 -0.9322 -1.0872  0.3743
 7294SOL    HW133515   4.005   2.782   5.068  2.3851  2.2956 -0.3583
 7294SOL    HW233516   4.086   2.676   5.018 -0.0149  0.3071  1.4709
 7295SOL     OW33517   1.258   3.197   8.088  0.1594 -0.1677 -0.3444
 7295SOL    HW133518   1.186   3.137   8.107 -1.1310  0.5667 -3.0833
 7295SOL    HW233519   1.331   3.146   8.053  0.0881 -0.3667 -0.2070
 7296SOL     OW33520   0.974   4.204   5.194 -0.8497 -1.3042 -0.2663
 7296SOL    HW133521   0.899   4.249   5.232  1.8767  2.2394  0.9061
 7296SOL    HW233522   1.038   4.275   5.195  0.2230 -2.2730 -0.3569
 7297SOL     OW33523   1.919   1.050  16.582 -0.1171  0.1590  0.2160
 7297SOL    HW133524   1.983   1.117  16.556  0.3090 -0.3502 -0.0393
 7297SOL    HW233525   1.905   1.069  16.674  1.4575 -2.9517  1.0942
 7298SOL     OW33526   4.094   0.121   4.573  0.0802 -0.2442  0.9074
 7298SOL    HW133527   4.150   0.113   4.495  1.0764  2.8050  1.2993
 7298SOL    HW233528   4.069   0.214   4.572  0.0026 -0.2630  2.0083
 7299SOL     OW33529   0.931   3.116   4.874 -0.2801  0.0995 -0.6208
 7299SOL    HW133530   0.945   3.116   4.969  1.7055  1.7465 -0.9045
 7299SOL    HW233531   1.018   3.100   4.838 -0.7011 -2.0095 -0.6677
 7300SOL     OW33532   4.130   2.583  13.675 -0.1091 -0.1999 -0.5509
 7300SOL    HW133533   4.053   2.605  13.622 -0.4532 -1.1983 -0.4602
 7300SOL    HW233534   4.147   2.494  13.644  0.2078 -0.2027 -0.3687
 7301SOL     OW33535   1.072   1.149   2.668  0.2483  0.5952 -0.4403
 7301SOL    HW133536   1.035   1.178   2.585  1.3905  1.3409 -0.6843
 7301SOL    HW233537   1.068   1.230   2.718 -1.8845  0.0297  0.3083
 7302SOL     OW33538   0.340   3.612   6.079  0.4999 -0.3388 -0.0854
 7302SOL    HW133539   0.302   3.532   6.040 -1.1143  0.1917  0.4177
 7302SOL    HW233540   0.427   3.577   6.100 -0.8406 -2.5201  1.8030
 7303SOL     OW33541   2.837   2.113   4.577  0.0659  0.3842 -0.3016
 7303SOL    HW133542   2.905   2.179   4.589 -1.6206  2.1610 -0.5830
 7303SOL    HW233543   2.843   2.060   4.657  0.6352 -0.2113 -0.7408
 7304SOL     OW33544   1.324   4.646   4.766 -0.1906 -0.4269 -0.3152
 7304SOL    HW133545   1.270   4.567   4.758 -1.3927  0.5651 -1.9878
 7304SOL    HW233546   1.285   4.706   4.702  0.8838  1.3923  0.7441
 7305SOL     OW33547   1.130   3.491   4.470  0.4762 -0.3979  0.1168
 7305SOL    HW133548   1.201   3.544   4.506 -0.0724 -0.4247  1.2295
 7305SOL    HW233549   1.100   3.546   4.397 -0.7996 -0.7274  0.4051
 7306SOL     OW33550   1.031   4.098   4.789  0.5589  0.2119 -0.0357
 7306SOL    HW133551   1.117   4.138   4.801  0.2228  1.1839 -0.8553
 7306SOL    HW233552   1.038   4.050   4.706  0.8480 -0.0792  0.1570
 7307SOL     OW33553   3.394   2.514   3.921 -0.5675 -0.4126 -0.1466
 7307SOL    HW133554   3.389   2.608   3.938 -1.0567 -0.5577  0.5200
 7307SOL    HW233555   3.351   2.487   4.002  1.3302  0.1353  1.0448
 7308SOL     OW33556   3.265   2.222   8.647  0.1792 -0.2273 -0.7223
 7308SOL    HW133557   3.242   2.151   8.706 -0.9479 -2.6429 -4.0838
 7308SOL    HW233558   3.176   2.257   8.639  1.2277  2.1744 -1.9600
 7309SOL     OW33559   0.433   2.535   8.955  0.2359 -0.4903  0.5485
 7309SOL    HW133560   0.408   2.445   8.933  0.9421 -0.1383 -1.6476
 7309SOL    HW233561   0.346   2.562   8.985  1.1004  1.4659  1.2640
 7310SOL     OW33562   2.613   0.470  11.279  0.8588  0.2431 -0.2680
 7310SOL    HW133563   2.705   0.459  11.255  0.7653  0.3968 -0.6924
 7310SOL    HW233564   2.613   0.558  11.241  1.1462  1.3610  2.3704
 7311SOL     OW33565   4.228   3.502  10.152  0.8014 -0.1055 -0.0072
 7311SOL    HW133566   4.261   3.412  10.157  0.7569 -0.1517 -0.6355
 7311SOL    HW233567   4.219   3.505  10.057 -1.4890 -0.3341  0.2053
 7312SOL     OW33568   4.679   3.998  12.294 -0.5512 -0.1879 -0.3139
 7312SOL    HW133569   4.610   4.064  12.299 -0.0649  0.0940  2.9351
 7312SOL    HW233570   4.628   3.918  12.286  0.0041 -0.3981 -1.7290
 7313SOL     OW33571   1.089   0.227   1.550 -0.0011 -0.2628 -0.1603
 7313SOL    HW133572   1.131   0.260   1.471 -0.7062 -1.1897 -0.9212
 7313SOL    HW233573   1.077   0.137   1.520  2.3832 -0.3133 -0.9876
 7314SOL     OW33574   4.647   2.897  12.899 -0.3908  0.6827  0.0286
 7314SOL    HW133575   4.688   2.826  12.948 -0.6248  0.1608 -0.5214
 7314SOL    HW233576   4.694   2.972  12.935 -0.0862  0.8699 -0.7447
 7315SOL     OW33577   1.167   1.060  16.104  0.1957  0.8072  0.0973
 7315SOL    HW133578   1.260   1.038  16.102  0.0588  0.0052  2.0127
 7315SOL    HW233579   1.158   1.066  16.199 -0.2251 -1.9845  0.2228
 7316SOL     OW33580   1.966   3.023   9.507 -0.7270 -0.5492  0.4442
 7316SOL    HW133581   2.051   2.995   9.475 -0.1599  0.0468  1.4319
 7316SOL    HW233582   1.983   3.062   9.593 -0.7293 -0.3724  0.3657
 7317SOL     OW33583   1.443   0.101   1.989 -0.1185 -0.0488  0.5045
 7317SOL    HW133584   1.378   0.056   1.935  1.4671 -0.5915 -0.9506
 7317SOL    HW233585   1.523   0.055   1.963  0.0538  0.5902 -0.0847
 7318SOL     OW33586   2.848   0.732   9.184 -0.0668 -0.2586  0.1585
 7318SOL    HW133587   2.811   0.653   9.145 -1.1232  0.1884  0.2498
 7318SOL    HW233588   2.840   0.722   9.279  2.4950  3.6330  0.7856
 7319SOL     OW33589   4.263   1.410   9.219 -0.1418 -0.0676 -0.0779
 7319SOL    HW133590   4.296   1.499   9.227 -0.8071  0.0898  1.0400
 7319SOL    HW233591   4.191   1.415   9.283 -0.3927  0.0728 -0.3731
 7320SOL     OW33592   1.301   0.480   4.262 -0.2444  0.5641  0.7251
 7320SOL    HW133593   1.267   0.431   4.338 -0.0723 -2.7670 -1.3420
 7320SOL    HW233594   1.339   0.406   4.214  0.0122  1.1786 -0.0059
 7321SOL     OW33595   1.383   0.721   5.287 -0.3989  0.2450  0.3896
 7321SOL    HW133596   1.329   0.668   5.345 -2.6567  1.4237 -0.6448
 7321SOL    HW233597   1.329   0.799   5.298 -3.1252 -1.2235 -2.5483
 7322SOL     OW33598   4.585   2.876   0.580  0.4013 -0.2338  0.9029
 7322SOL    HW133599   4.639   2.799   0.560  0.3370  0.1974 -0.8888
 7322SOL    HW233600   4.603   2.923   0.499 -1.9885 -0.8485  0.0082
 7323SOL     OW33601   1.581   2.577   6.210 -0.0515  0.2141  0.1519
 7323SOL    HW133602   1.565   2.619   6.295 -2.5673  0.1471 -0.3085
 7323SOL    HW233603   1.668   2.544   6.232  0.0136  0.5933  0.4763
 7324SOL     OW33604   0.451   3.011   9.411 -0.2098 -0.0661  0.5001
 7324SOL    HW133605   0.532   2.993   9.363 -1.1022 -0.1353 -0.9844
 7324SOL    HW233606   0.480   3.093   9.451  0.2361 -0.0535  0.1503
 7325SOL     OW33607   0.588   3.837   3.873 -0.4618  0.1973 -0.7867
 7325SOL    HW133608   0.621   3.751   3.898 -0.3148  0.4932  0.0523
 7325SOL    HW233609   0.529   3.856   3.946  1.5389 -0.1520  0.8947
 7326SOL     OW33610   0.445   2.218   7.181 -0.3858 -0.4084  0.0432
 7326SOL    HW133611   0.386   2.279   7.223 -0.4075 -0.3054 -0.1381
 7326SOL    HW233612   0.518   2.238   7.240 -1.6740  2.5621  0.6044
 7327SOL     OW33613   4.439   1.318   1.194 -0.1937  0.3116  0.3570
 7327SOL    HW133614   4.399   1.232   1.180  1.9371 -0.3608 -1.6598
 7327SOL    HW233615   4.389   1.377   1.138  1.3649 -1.3574 -2.8002
 7328SOL     OW33616   4.031   2.008   6.950  0.3347  0.2411  0.4829
 7328SOL    HW133617   4.088   1.934   6.933  0.6485  0.0222  2.4586
 7328SOL    HW233618   4.057   2.052   7.031  1.3801  0.6419 -0.0766
 7329SOL     OW33619   2.323   3.744   8.975  0.1259  0.3315  0.0967
 7329SOL    HW133620   2.411   3.715   9.000  0.0160  0.1860  0.3122
 7329SOL    HW233621   2.344   3.773   8.886  1.5744  0.3447  0.4429
 7330SOL     OW33622   2.517   4.543   4.900 -0.0625 -0.5031  0.6431
 7330SOL    HW133623   2.536   4.602   4.828  1.8631 -0.1971  1.4023
 7330SOL    HW233624   2.546   4.464   4.855  2.0242 -1.1417  3.1066
 7331SOL     OW33625   3.422   2.297   3.339 -0.1759 -0.4466 -0.0290
 7331SOL    HW133626   3.470   2.328   3.263  2.2923  0.9165  2.0619
 7331SOL    HW233627   3.335   2.278   3.304 -1.0905  0.6761  1.5616
 7332SOL     OW33628   2.217   3.472   5.130 -0.0681  0.8030  0.1739
 7332SOL    HW133629   2.289   3.528   5.159  1.5307 -0.3817 -1.4669
 7332SOL    HW233630   2.247   3.416   5.058 -0.4233 -1.3228  1.6756
 7333SOL     OW33631   0.272   0.892   5.521  0.5120 -0.1157 -0.0065
 7333SOL    HW133632   0.194   0.854   5.561 -0.9914  1.7269 -1.1815
 7333SOL    HW233633   0.248   0.979   5.490 -0.0172 -0.2767 -0.0418
 7334SOL     OW33634   4.232   2.823  12.732 -0.1336 -0.0803  0.2850
 7334SOL    HW133635   4.246   2.866  12.648  1.6356 -0.0296  0.6187
 7334SOL    HW233636   4.268   2.735  12.724 -1.3370 -0.5767  0.2755
 7335SOL     OW33637   1.710   1.225   5.515  0.0712  0.1708 -0.2970
 7335SOL    HW133638   1.801   1.200   5.532  0.2092  0.9075  0.0540
 7335SOL    HW233639   1.678   1.170   5.444  0.2323 -1.0617  0.5881
 7336SOL     OW33640   4.338   3.199   7.624 -0.4807 -0.1267  0.2549
 7336SOL    HW133641   4.362   3.280   7.669  0.9822 -0.3741 -0.0534
 7336SOL    HW233642   4.373   3.224   7.538  0.0212  0.6306  0.6757
 7337SOL     OW33643   3.672   3.190   5.881 -0.7976  0.0787  0.8777
 7337SOL    HW133644   3.687   3.190   5.787 -0.2837 -3.1505  0.9496
 7337SOL    HW233645   3.692   3.283   5.891 -1.1535  0.3875 -1.2551
 7338SOL     OW33646   3.607   0.364   4.778  0.3515 -0.5236 -0.0119
 7338SOL    HW133647   3.519   0.390   4.803 -0.1841 -2.3932 -0.0086
 7338SOL    HW233648   3.620   0.419   4.700 -1.1743  0.2455  0.2734
 7339SOL     OW33649   2.275   4.553  16.865 -0.3010  0.5829 -0.5872
 7339SOL    HW133650   2.345   4.615  16.845  0.9041 -0.2908  0.9475
 7339SOL    HW233651   2.295   4.528  16.955 -1.6818  0.6122 -0.2694
 7340SOL     OW33652   2.021   1.941   2.106  0.3881 -0.5095 -0.2369
 7340SOL    HW133653   2.031   1.921   2.199  3.1694 -1.0695 -0.6752
 7340SOL    HW233654   1.960   1.871   2.085 -0.2930 -0.3148  1.0771
 7341SOL     OW33655   4.222   3.369   5.973  0.2149 -0.1394 -0.0770
 7341SOL    HW133656   4.174   3.441   5.932 -1.1794 -1.3401 -0.5232
 7341SOL    HW233657   4.150   3.310   5.994 -0.5574  1.0886  0.7715
 7342SOL     OW33658   0.196   2.629   6.951 -0.1853 -0.0199  0.1585
 7342SOL    HW133659   0.147   2.632   7.033 -0.0474 -1.8271  0.3084
 7342SOL    HW233660   0.274   2.596   6.995  0.4898  2.3067  0.6852
 7343SOL     OW33661   4.254   3.111   0.768  0.1148 -0.2955 -0.4400
 7343SOL    HW133662   4.207   3.094   0.850 -0.9403  0.5827 -0.8703
 7343SOL    HW233663   4.310   3.033   0.769  1.4056  0.6318  0.4594
 7344SOL     OW33664   4.215   2.721   5.787 -0.5554  0.2062 -0.1848
 7344SOL    HW133665   4.155   2.647   5.793  1.3315 -1.2418  0.6961
 7344SOL    HW233666   4.226   2.727   5.692 -2.5276 -0.6490 -0.4552
 7345SOL     OW33667   4.654   1.724   9.219 -0.2758  0.4212 -0.6642
 7345SOL    HW133668   4.717   1.728   9.291  0.9141 -0.6912 -1.6250
 7345SOL    HW233669   4.646   1.817   9.201 -2.1416  0.2188 -0.8386
 7346SOL     OW33670   1.872   4.406  15.162 -0.0738  0.5000  0.1521
 7346SOL    HW133671   1.877   4.479  15.101 -1.3600  0.6536  0.2384
 7346SOL    HW233672   1.787   4.365  15.148  0.5147 -0.8788  0.5698
 7347SOL     OW33673   0.718   1.343  17.580 -0.2432  0.0027 -0.0241
 7347SOL    HW133674   0.734   1.395  17.501  1.3775 -1.4909 -0.6615
 7347SOL    HW233675   0.623   1.336  17.592 -0.4525  2.3049 -0.3062
 7348SOL     OW33676   1.976   2.443   0.690  0.5347 -0.0479  0.0744
 7348SOL    HW133677   2.007   2.363   0.730  2.6928  0.8759  0.2576
 7348SOL    HW233678   1.915   2.478   0.754 -1.1671  0.1875 -1.6682
 7349SOL     OW33679   2.982   0.343   3.845 -0.0661 -0.3606 -0.0822
 7349SOL    HW133680   2.935   0.421   3.816  0.6363  0.7001  1.6577
 7349SOL    HW233681   2.976   0.293   3.764  1.0594  1.2761 -1.1814
 7350SOL     OW33682   3.164   3.598   0.047  0.4540  0.3302  0.0268
 7350SOL    HW133683   3.098   3.574   0.113  0.1640 -0.2382 -0.4695
 7350SOL    HW233684   3.132   3.688   0.031 -0.5157 -0.0029  0.0768
 7351SOL     OW33685   2.481   2.880   2.389 -0.0151  0.3253 -0.8761
 7351SOL    HW133686   2.407   2.822   2.371  0.2168 -0.6101  1.1496
 7351SOL    HW233687   2.441   2.960   2.356  1.6867  1.3173 -0.5234
 7352SOL     OW33688   2.305   3.355  10.672  0.0061 -0.5537  0.1137
 7352SOL    HW133689   2.222   3.324  10.708 -1.7397  1.5150 -2.1324
 7352SOL    HW233690   2.355   3.275  10.652  1.4366  0.6773 -1.3501
 7353SOL     OW33691   0.083   4.091  10.754 -0.0247 -0.1639  0.0546
 7353SOL    HW133692   0.109   4.176  10.788  0.6458  0.1956 -1.3339
 7353SOL    HW233693   0.139   4.078  10.677  2.3109 -2.7959  2.2189
 7354SOL     OW33694   3.349   0.681   1.588  0.3153 -0.6566  0.4267
 7354SOL    HW133695   3.262   0.717   1.606 -0.3430 -0.7540 -2.5310
 7354SOL    HW233696   3.414   0.751   1.601 -0.0127 -0.3775  0.5726
 7355SOL     OW33697   4.004   3.126   6.513  0.0177 -0.3858  0.0343
 7355SOL    HW133698   3.930   3.066   6.513  1.2347 -1.8883  1.8550
 7355SOL    HW233699   3.976   3.207   6.554  1.1583 -0.0104  0.0738
 7356SOL     OW33700   3.937   1.507   5.838  0.0891 -0.1085 -0.8727
 7356SOL    HW133701   3.977   1.426   5.869 -1.4855 -0.0218  1.3537
 7356SOL    HW233702   4.015   1.563   5.837 -0.5371  0.7618 -0.7004
 7357SOL     OW33703   1.606   1.096   5.874 -0.1112 -0.4184  0.3409
 7357SOL    HW133704   1.633   1.006   5.893  0.7401 -0.3937 -0.7632
 7357SOL    HW233705   1.684   1.127   5.828 -0.4114  0.1339  0.2067
 7358SOL     OW33706   0.031   2.225   9.133 -0.3982  0.0733  0.1304
 7358SOL    HW133707   0.091   2.294   9.160 -1.3915  0.6768  0.8054
 7358SOL    HW233708   4.693   2.276   9.106 -0.6659 -1.3167 -1.7465
 7359SOL     OW33709   3.726   2.160  16.968  0.2557  0.8346 -0.4513
 7359SOL    HW133710   3.739   2.208  17.050  0.0990  0.7655 -0.3860
 7359SOL    HW233711   3.691   2.078  17.002  3.3894 -0.7279 -0.9965
 7360SOL     OW33712   2.416   4.490   1.406 -0.1116 -0.1983 -0.2472
 7360SOL    HW133713   2.381   4.419   1.459  0.7862 -1.7614 -1.7400
 7360SOL    HW233714   2.502   4.456   1.379 -0.4138 -1.4003  0.3163
 7361SOL     OW33715   3.980   1.662   1.949  0.7767 -0.4740 -0.8907
 7361SOL    HW133716   3.968   1.614   2.031  1.3987  0.2350 -0.3782
 7361SOL    HW233717   3.998   1.596   1.882 -2.0512 -3.5533  1.3494
 7362SOL     OW33718   3.178   3.727   4.054  0.2672  0.8285 -0.3622
 7362SOL    HW133719   3.209   3.670   4.125 -0.7597  0.8114  0.0805
 7362SOL    HW233720   3.176   3.667   3.980  0.4556  0.9811 -0.4901
 7363SOL     OW33721   2.705   3.751   8.623  0.6341 -0.6077 -0.2698
 7363SOL    HW133722   2.781   3.809   8.619 -1.1425  1.7188 -0.0396
 7363SOL    HW233723   2.656   3.796   8.554  0.2232 -1.7127 -0.7024
 7364SOL     OW33724   4.583   3.236  10.632  0.1707 -0.4115 -0.5001
 7364SOL    HW133725   4.629   3.309  10.672 -0.0810 -1.9200  2.4895
 7364SOL    HW233726   4.630   3.225  10.549  3.7215  3.0444  1.0987
 7365SOL     OW33727   3.642   0.540   4.576 -0.0890 -0.6888  0.2528
 7365SOL    HW133728   3.558   0.583   4.566  0.7462  1.0090  0.5536
 7365SOL    HW233729   3.705   0.603   4.541 -1.5262 -0.1829 -1.3813
 7366SOL     OW33730   3.205   3.097   7.590  0.6827 -0.0803  0.0661
 7366SOL    HW133731   3.130   3.128   7.640  0.0567  1.1693 -1.6521
 7366SOL    HW233732   3.174   3.049   7.513 -2.5621  2.1903 -0.0217
 7367SOL     OW33733   2.209   3.682  11.680  0.1609 -0.4390 -0.0527
 7367SOL    HW133734   2.144   3.636  11.627  1.6067 -1.5821 -0.8232
 7367SOL    HW233735   2.165   3.712  11.760 -0.9720  1.3196 -1.3531
 7368SOL     OW33736   1.570   2.998  15.067  0.4940 -0.2484  0.4974
 7368SOL    HW133737   1.497   3.059  15.072  0.1340 -0.7131  0.8664
 7368SOL    HW233738   1.644   3.054  15.041  0.6650 -0.4440  0.5632
 7369SOL     OW33739   0.532   1.950  17.574  0.6979 -0.6951 -0.1415
 7369SOL    HW133740   0.537   1.856  17.557 -1.2233 -0.8554  0.1596
 7369SOL    HW233741   0.549   1.989  17.488  1.8079 -0.0906  0.3675
 7370SOL     OW33742   1.214   2.428   2.211 -0.4066 -0.0324  0.3977
 7370SOL    HW133743   1.278   2.492   2.179 -0.5416  0.8448  1.8888
 7370SOL    HW233744   1.257   2.359   2.263 -1.0065  0.9348  2.1810
 7371SOL     OW33745   0.150   2.969   6.846  0.4509  0.0809 -0.0158
 7371SOL    HW133746   0.144   2.916   6.926  1.1257 -0.5467 -0.3857
 7371SOL    HW233747   0.246   2.967   6.844  0.5723  4.3567  1.1172
 7372SOL     OW33748   3.962   3.594   4.489  0.1777 -0.7096 -0.0516
 7372SOL    HW133749   3.892   3.651   4.522  2.4011  0.5004  2.5450
 7372SOL    HW233750   4.000   3.571   4.574 -0.7683 -1.9437  0.0407
 7373SOL     OW33751   3.719   1.979   4.737 -0.0660  0.5414  0.0423
 7373SOL    HW133752   3.748   2.039   4.806 -0.9555  0.2171  0.6991
 7373SOL    HW233753   3.782   1.907   4.742 -0.0065  0.4886 -1.2806
 7374SOL     OW33754   3.341   2.169   1.292  0.4861  0.1979  1.1056
 7374SOL    HW133755   3.365   2.156   1.384 -1.6696 -1.8079  1.3671
 7374SOL    HW233756   3.405   2.116   1.245  0.3453  0.0670  1.0623
 7375SOL     OW33757   2.868   4.685  11.319 -0.1159  0.0808 -0.6869
 7375SOL    HW133758   2.811   4.691  11.395  2.3661  2.1342  0.9915
 7375SOL    HW233759   2.817   0.006  11.264 -1.0290 -0.3890 -0.3508
 7376SOL     OW33760   3.990   2.355   6.384 -0.2679 -0.2111  0.5885
 7376SOL    HW133761   3.989   2.260   6.367 -3.3179  0.3138 -2.3372
 7376SOL    HW233762   4.035   2.367   6.300  1.3438 -0.2541  1.4532
 7377SOL     OW33763   0.133   2.831  14.023  1.0379 -0.0304  0.0746
 7377SOL    HW133764   0.144   2.743  14.058 -1.3677  0.2998  1.6269
 7377SOL    HW233765   0.126   2.821  13.928  0.8521  0.6999  0.0086
 7378SOL     OW33766   3.612   0.816  11.823  0.5258  0.4134  0.2989
 7378SOL    HW133767   3.525   0.801  11.862  0.5448 -0.2465  0.0865
 7378SOL    HW233768   3.627   0.741  11.766  1.7854  0.0321  1.1527
 7379SOL     OW33769   1.327   2.543   4.274 -0.3639 -0.1625  0.5212
 7379SOL    HW133770   1.422   2.538   4.286 -0.0952 -0.5094 -1.6625
 7379SOL    HW233771   1.317   2.602   4.199 -1.1010 -1.0515 -0.0847
 7380SOL     OW33772   1.145   3.792  16.420  0.1011  0.0634  0.3041
 7380SOL    HW133773   1.200   3.784  16.497  1.3951  0.6612 -0.5557
 7380SOL    HW233774   1.143   3.887  16.405  0.5361 -0.3815 -2.6757
 7381SOL     OW33775   3.018   0.907   8.708  0.6140 -0.4538  0.4883
 7381SOL    HW133776   3.012   0.917   8.803 -0.6582 -1.8986  0.5584
 7381SOL    HW233777   2.953   0.971   8.679  0.3047 -0.3379  1.4139
 7382SOL     OW33778   4.412   1.291   1.802  0.5727 -0.4177 -0.1021
 7382SOL    HW133779   4.491   1.328   1.841  1.5274 -0.2212 -2.2071
 7382SOL    HW233780   4.372   1.248   1.877 -0.6875 -0.0952 -0.5943
 7383SOL     OW33781   3.660   2.365   8.296 -0.0452 -0.0080 -0.4401
 7383SOL    HW133782   3.614   2.285   8.321 -0.9480  0.8221  0.5160
 7383SOL    HW233783   3.749   2.331   8.311 -0.1614 -0.4124 -0.6689
 7384SOL     OW33784   0.402   3.988   4.256 -0.0201 -0.3987  0.0151
 7384SOL    HW133785   0.480   4.026   4.216 -0.1768 -1.0361 -0.8977
 7384SOL    HW233786   0.454   3.930   4.311  1.1995 -0.4629 -1.2018
 7385SOL     OW33787   3.884   2.659  13.575  0.1279  0.2806 -0.1378
 7385SOL    HW133788   3.815   2.609  13.532 -0.3217 -0.8751  1.9397
 7385SOL    HW233789   3.851   2.747  13.555  0.8012  1.0061  1.8545
 7386SOL     OW33790   2.764   2.711   4.436 -0.4949  0.4492  0.1024
 7386SOL    HW133791   2.683   2.690   4.391 -0.4172 -0.3994  0.3629
 7386SOL    HW233792   2.816   2.728   4.357  1.0632  0.9995  1.2249
 7387SOL     OW33793   2.611   2.006   1.430 -0.3232  0.3130  0.0694
 7387SOL    HW133794   2.577   2.069   1.367  0.7746  1.9527  1.1172
 7387SOL    HW233795   2.706   2.019   1.434 -0.1974 -0.6412  0.1233
 7388SOL     OW33796   2.653   4.364   1.526 -0.3149  0.2631  0.1156
 7388SOL    HW133797   2.704   4.285   1.506 -0.8598  0.3554 -1.6280
 7388SOL    HW233798   2.663   4.374   1.620  0.6021  0.7407 -0.0292
 7389SOL     OW33799   1.564   1.442   3.511  0.9688 -0.5194 -0.4986
 7389SOL    HW133800   1.506   1.366   3.515  0.2363  0.1256  1.0715
 7389SOL    HW233801   1.565   1.463   3.604 -0.4638 -0.3077 -0.5408
 7390SOL     OW33802   3.725   2.562   4.600  0.1762  0.2665  0.8138
 7390SOL    HW133803   3.771   2.522   4.674  0.9482 -0.6682 -0.1719
 7390SOL    HW233804   3.647   2.509   4.584  0.7278 -0.8288  1.7359
 7391SOL     OW33805   3.822   3.597  14.785  0.3651  0.1815 -0.5214
 7391SOL    HW133806   3.876   3.660  14.738  1.1113 -0.5883 -0.7059
 7391SOL    HW233807   3.863   3.590  14.871  0.1423  1.8961 -0.2711
 7392SOL     OW33808   1.878   3.562   7.413 -0.1678  0.3854 -0.1401
 7392SOL    HW133809   1.961   3.520   7.392  1.7059  2.6904  2.5995
 7392SOL    HW233810   1.886   3.628   7.345  1.0778 -0.9496 -1.2909
 7393SOL     OW33811   3.521   2.545   8.161 -0.3960  0.2295  0.2110
 7393SOL    HW133812   3.536   2.476   8.226 -0.7496  2.4317  2.6328
 7393SOL    HW233813   3.547   2.619   8.215  1.7834 -1.3748  1.3556
 7394SOL     OW33814   0.058   0.424   7.806 -0.0897  0.0914  0.2750
 7394SOL    HW133815   0.062   0.338   7.847 -0.7282  0.7940  1.7791
 7394SOL    HW233816   0.150   0.449   7.816  0.4741 -1.6305 -0.6697
 7395SOL     OW33817   4.380   3.779   3.436  0.5706 -0.2951 -0.8026
 7395SOL    HW133818   4.421   3.807   3.354  0.6441  1.1920 -0.2450
 7395SOL    HW233819   4.461   3.743   3.472  0.4447  0.0852 -0.1522
 7396SOL     OW33820   4.597   0.584   3.093 -0.8573  0.0653 -0.0039
 7396SOL    HW133821   4.520   0.533   3.067 -0.6163 -1.4197  2.2126
 7396SOL    HW233822   4.635   0.599   3.006  0.9424 -1.3980  0.5195
 7397SOL     OW33823   3.078   3.775   0.674  0.6075  0.1313  0.2042
 7397SOL    HW133824   3.041   3.855   0.637 -0.2027 -0.1555  0.3914
 7397SOL    HW233825   3.141   3.747   0.609  0.6273  0.3373  0.1345
 7398SOL     OW33826   3.196   1.184   8.684 -0.5261 -0.1802 -0.2856
 7398SOL    HW133827   3.147   1.243   8.626  0.9429  1.2248 -0.0993
 7398SOL    HW233828   3.158   1.100   8.658  0.2305 -0.0764 -1.7046
 7399SOL     OW33829   2.263   1.047   6.241  0.4575  0.2085  0.3199
 7399SOL    HW133830   2.318   1.123   6.260  0.6635 -0.6920  3.2516
 7399SOL    HW233831   2.315   0.973   6.210 -0.2481 -0.8631  1.6680
 7400SOL     OW33832   1.179   2.321   5.405 -0.0401 -0.1576  0.1037
 7400SOL    HW133833   1.230   2.342   5.484 -0.8915 -2.5904  1.2975
 7400SOL    HW233834   1.103   2.366   5.442  1.4709  2.3205  0.2469
 7401SOL     OW33835   4.166   1.665   0.705 -0.2138  0.2768  0.3039
 7401SOL    HW133836   4.223   1.666   0.628  0.4045 -0.2235  0.7595
 7401SOL    HW233837   4.126   1.752   0.695 -0.7299 -0.0141 -0.1836
 7402SOL     OW33838   2.737   1.411  13.093  0.3111 -0.1233 -0.1424
 7402SOL    HW133839   2.803   1.386  13.029 -0.7401  2.7141 -2.3377
 7402SOL    HW233840   2.659   1.370  13.055 -1.0984  0.4646  2.1087
 7403SOL     OW33841   0.323   3.330  10.787  0.4946  0.0235 -0.4090
 7403SOL    HW133842   0.291   3.253  10.739  1.7858 -0.8462  0.1414
 7403SOL    HW233843   0.257   3.337  10.856  0.0569 -0.0421 -0.8241
 7404SOL     OW33844   0.831   0.652   6.448  0.1139  0.5444  0.2098
 7404SOL    HW133845   0.761   0.623   6.390 -1.0802 -1.3555  2.5535
 7404SOL    HW233846   0.793   0.636   6.535 -0.6514  2.6212  0.2552
 7405SOL     OW33847   4.668   4.155   5.868 -0.0819  0.6259 -0.2964
 7405SOL    HW133848   4.597   4.104   5.830 -1.5098  2.7348 -0.4110
 7405SOL    HW233849   4.630   4.180   5.952 -0.8447  1.1005 -0.7827
 7406SOL     OW33850   0.790   2.477   0.311 -0.1256  0.0934 -0.1769
 7406SOL    HW133851   0.807   2.446   0.223 -1.1452  1.5292 -0.8841
 7406SOL    HW233852   0.725   2.411   0.335 -0.6376  1.1410  1.4017
 7407SOL     OW33853   1.985   4.570  17.131 -0.7237  0.2544  0.0338
 7407SOL    HW133854   1.983   4.635  17.060  2.3521  0.9658  0.5897
 7407SOL    HW233855   1.974   4.627  17.207 -5.2768 -1.5706  0.7677
 7408SOL     OW33856   0.337   4.435   3.437  0.4445 -0.0627  0.1252
 7408SOL    HW133857   0.311   4.348   3.469 -2.3264  1.0805  0.9444
 7408SOL    HW233858   0.319   4.430   3.343  1.8468 -0.7013 -0.1160
 7409SOL     OW33859   0.873   4.003   8.956 -0.3381 -0.0631 -0.0489
 7409SOL    HW133860   0.845   3.913   8.943 -0.5284  0.1985 -1.4389
 7409SOL    HW233861   0.795   4.049   8.985  0.6694  1.6626 -0.0219
 7410SOL     OW33862   1.531   4.275   1.339 -0.1202  0.0845 -0.2547
 7410SOL    HW133863   1.532   4.288   1.434  2.7169  1.0305 -0.4111
 7410SOL    HW233864   1.460   4.335   1.316 -0.7520 -2.1051 -3.9606
 7411SOL     OW33865   1.881   2.947   5.306  0.0646  0.4940  0.5981
 7411SOL    HW133866   1.837   3.029   5.284  2.7840  2.6134  2.9492
 7411SOL    HW233867   1.968   2.985   5.321  1.4093 -1.0179 -3.2902
 7412SOL     OW33868   1.003   0.998   2.396  0.2777 -0.2917 -0.0603
 7412SOL    HW133869   1.063   1.024   2.327  1.0235  0.7307  0.9683
 7412SOL    HW233870   0.941   1.071   2.397  0.5890 -0.0137 -2.0388
 7413SOL     OW33871   3.999   1.309   3.528 -0.3318 -0.1098 -0.2865
 7413SOL    HW133872   4.015   1.214   3.532 -4.1689 -0.7918 -1.3322
 7413SOL    HW233873   3.965   1.325   3.616  0.0361 -0.1211 -0.1428
 7414SOL     OW33874   4.167   2.094   0.139  0.4192  0.5247  0.0809
 7414SOL    HW133875   4.180   2.126   0.228 -2.6306  3.3274 -0.5034
 7414SOL    HW233876   4.136   2.177   0.102  0.8173 -0.4641 -2.4787
 7415SOL     OW33877   0.961   4.291  16.836 -0.3180  0.8894  0.2337
 7415SOL    HW133878   0.892   4.355  16.817  1.5975  2.1878 -2.5005
 7415SOL    HW233879   1.010   4.285  16.753 -0.6421  0.5983  0.0640
 7416SOL     OW33880   3.838   1.388  14.648  0.0206 -0.1721 -0.2641
 7416SOL    HW133881   3.745   1.409  14.640 -0.7161 -3.0487  0.6544
 7416SOL    HW233882   3.876   1.443  14.580 -1.4026  4.0479  2.4029
 7417SOL     OW33883   0.835   1.479   4.173 -0.3528  0.5092 -0.2787
 7417SOL    HW133884   0.923   1.444   4.185 -0.5079  0.1314 -0.2344
 7417SOL    HW233885   0.819   1.523   4.257  0.5027  0.7110 -0.2260
 7418SOL     OW33886   1.905   3.361   8.639 -0.6714  0.4372 -0.5062
 7418SOL    HW133887   1.839   3.335   8.703 -0.1932 -0.2351 -0.2771
 7418SOL    HW233888   1.987   3.347   8.688  0.3311  1.1393 -1.9621
 7419SOL     OW33889   3.384   1.943   2.462 -0.0930  0.0851  0.0633
 7419SOL    HW133890   3.297   1.949   2.500  0.2652 -0.0283  0.8957
 7419SOL    HW233891   3.376   1.851   2.436 -4.8212  0.3336  0.7249
 7420SOL     OW33892   0.459   3.222  13.298 -0.6210 -0.2440 -0.1643
 7420SOL    HW133893   0.405   3.143  13.307  0.0470 -0.6588  0.1790
 7420SOL    HW233894   0.469   3.225  13.203  0.7216 -0.7212 -0.0491
 7421SOL     OW33895   0.346   2.968   8.445  0.4627  0.6648 -0.5858
 7421SOL    HW133896   0.318   2.984   8.355 -0.1004 -2.1307 -0.8870
 7421SOL    HW233897   0.274   2.930   8.495 -1.7906  0.9961 -3.5797
 7422SOL     OW33898   0.080   3.177   7.920  0.0641  0.3232  0.1747
 7422SOL    HW133899   0.051   3.089   7.898  2.5092 -0.3158 -0.4362
 7422SOL    HW233900   4.732   3.215   7.932 -0.1932  0.2112 -1.3718
 7423SOL     OW33901   0.976   2.586   0.481 -0.4900  0.1417  0.0927
 7423SOL    HW133902   1.053   2.602   0.427 -0.8443 -0.9519 -0.7190
 7423SOL    HW233903   0.926   2.528   0.424 -0.3773 -2.0638  2.2656
 7424SOL     OW33904   4.147   1.198   4.008  0.3737 -0.3149 -0.2166
 7424SOL    HW133905   4.057   1.213   4.038  0.6711 -0.1722  0.5988
 7424SOL    HW233906   4.194   1.280   4.024 -0.3587 -0.1535  1.1026
 7425SOL     OW33907   3.485   3.666   2.143  0.1021  0.1649 -0.3356
 7425SOL    HW133908   3.536   3.586   2.144  1.6484  1.1690  1.1965
 7425SOL    HW233909   3.407   3.647   2.090 -1.1356 -0.7287  1.8217
 7426SOL     OW33910   1.458   4.581   3.937 -0.3030  0.2079 -0.3300
 7426SOL    HW133911   1.544   4.569   3.896 -0.4566 -2.1049  0.0580
 7426SOL    HW233912   1.413   4.509   3.893  0.5490 -1.6598  1.8881
 7427SOL     OW33913   0.696   2.650   0.514  0.3723  0.2908  0.0030
 7427SOL    HW133914   0.756   2.591   0.469 -0.0861  1.0909 -1.6175
 7427SOL    HW233915   0.637   2.690   0.450  0.4577  0.5483  0.0863
 7428SOL     OW33916   2.377   2.586   9.405  0.0951 -0.2915  0.6216
 7428SOL    HW133917   2.376   2.628   9.491 -0.5888 -2.4691  1.6515
 7428SOL    HW233918   2.283   2.576   9.391  0.3100  0.5113 -1.5189
 7429SOL     OW33919   3.912   0.992   8.863  0.2596  0.5977 -0.1759
 7429SOL    HW133920   3.913   0.958   8.953 -1.2738 -1.3884 -0.9184
 7429SOL    HW233921   3.960   0.924   8.816 -0.1175  1.1755 -1.4000
 7430SOL     OW33922   2.250   1.585   5.808  0.7816  0.1053 -0.1892
 7430SOL    HW133923   2.302   1.564   5.730 -0.6508  0.2666 -1.1892
 7430SOL    HW233924   2.175   1.531   5.783  0.1833 -0.4424  2.7815
 7431SOL     OW33925   4.024   2.639   7.738  0.2797 -0.0278  0.5835
 7431SOL    HW133926   4.004   2.615   7.648  1.2927  1.4575 -0.0446
 7431SOL    HW233927   3.932   2.644   7.764  0.3074 -2.5328  1.2482
 7432SOL     OW33928   3.126   3.597   3.737  0.1501  0.8472  0.2038
 7432SOL    HW133929   3.038   3.561   3.746  0.3654  0.8011  2.1627
 7432SOL    HW233930   3.135   3.579   3.643 -0.4019 -2.1842  0.7316
 7433SOL     OW33931   3.976   3.252   1.124  0.3269  0.5294 -0.0895
 7433SOL    HW133932   3.932   3.212   1.199 -0.4085  0.3465 -0.6186
 7433SOL    HW233933   4.025   3.174   1.098 -0.2961  0.3198 -0.6347
 7434SOL     OW33934   4.511   4.704   5.691 -0.6135  0.1179 -0.5800
 7434SOL    HW133935   4.578   4.662   5.745 -0.5605  1.2001  0.1958
 7434SOL    HW233936   4.558   0.028   5.636 -0.9995 -1.0164 -2.2121
 7435SOL     OW33937   1.091   2.172   2.716  0.6920  0.1137  0.0797
 7435SOL    HW133938   1.006   2.144   2.750 -0.1584  3.6798  0.9318
 7435SOL    HW233939   1.145   2.119   2.774 -0.8151  1.3640  2.6369
 7436SOL     OW33940   2.532   4.215   2.297 -0.0761 -0.2683  0.5287
 7436SOL    HW133941   2.528   4.145   2.362 -2.3401 -0.7959 -0.1622
 7436SOL    HW233942   2.572   4.183   2.216 -0.0146 -1.5951  1.0846
 7437SOL     OW33943   1.529   1.177   7.984 -0.2558 -0.2172 -0.1727
 7437SOL    HW133944   1.491   1.126   7.913  0.2753  0.2996 -0.8309
 7437SOL    HW233945   1.499   1.267   7.975 -1.4572 -0.6944 -0.8164
 7438SOL     OW33946   3.369   2.910   7.654  0.5025  0.7697 -0.6061
 7438SOL    HW133947   3.440   2.948   7.603  1.1726 -3.0884 -2.5702
 7438SOL    HW233948   3.300   2.973   7.635  0.4086  0.4241 -1.4091
 7439SOL     OW33949   1.203   3.313   5.222 -0.4317  0.1378  0.1281
 7439SOL    HW133950   1.125   3.365   5.241 -0.3980  0.4716 -0.6831
 7439SOL    HW233951   1.237   3.316   5.312  0.2004 -0.5466 -0.0898
 7440SOL     OW33952   0.711   1.556   3.624 -0.2482 -0.3687  0.2272
 7440SOL    HW133953   0.787   1.506   3.655 -0.0092 -1.9578 -2.9271
 7440SOL    HW233954   0.756   1.640   3.623 -0.0724 -0.4552  0.9643
 7441SOL     OW33955   3.569   2.395   6.592 -0.3456  0.4310 -0.1375
 7441SOL    HW133956   3.570   2.323   6.530  0.2427 -0.8573  1.3501
 7441SOL    HW233957   3.663   2.397   6.613  0.1132  0.1597 -2.1467
 7442SOL     OW33958   2.891   1.141   2.710  0.0521 -0.3494 -0.0226
 7442SOL    HW133959   2.925   1.103   2.791  1.8370 -0.7178 -0.9501
 7442SOL    HW233960   2.867   1.055   2.676  0.3185 -0.2828 -0.3821
 7443SOL     OW33961   0.882   1.073   1.582 -0.0856  0.0523  0.1717
 7443SOL    HW133962   0.861   1.152   1.631  0.4786 -0.6437  1.5258
 7443SOL    HW233963   0.832   1.003   1.624 -0.0858  0.7830  1.3943
 7444SOL     OW33964   0.229   2.604   1.942  0.3910  0.3071  0.4046
 7444SOL    HW133965   0.197   2.557   2.019  0.5620  0.5541  0.6268
 7444SOL    HW233966   0.167   2.677   1.939  0.5231  0.4979  2.2530
 7445SOL     OW33967   0.829   0.334   4.561  0.1686 -0.3212 -0.4623
 7445SOL    HW133968   0.899   0.400   4.561 -0.8674  0.7565  0.0153
 7445SOL    HW233969   0.770   0.379   4.621  1.1991  1.2162 -0.5919
 7446SOL     OW33970   2.494   4.114   4.703 -0.2007 -0.5123 -0.1110
 7446SOL    HW133971   2.513   4.041   4.645  0.2157  0.4790 -1.2284
 7446SOL    HW233972   2.399   4.123   4.691 -0.2613  0.2134  0.8543
 7447SOL     OW33973   4.511   0.474  14.513 -0.5822  0.3978  0.3766
 7447SOL    HW133974   4.586   0.471  14.573  0.2389 -1.9938 -0.7354
 7447SOL    HW233975   4.454   0.546  14.540  1.0336  2.5110 -1.8545
 7448SOL     OW33976   3.690   2.249   2.845 -0.0864 -0.1345 -0.8899
 7448SOL    HW133977   3.604   2.206   2.847  1.0247 -2.2769 -0.3085
 7448SOL    HW233978   3.685   2.296   2.762 -0.9199 -2.0551 -1.9247
 7449SOL     OW33979   3.745   4.137   8.515  0.2790 -0.3275  0.5281
 7449SOL    HW133980   3.718   4.183   8.436  0.1514 -3.9903 -1.5657
 7449SOL    HW233981   3.824   4.183   8.544 -2.2354  2.7959  2.5380
 7450SOL     OW33982   4.148   3.574   0.898  0.3108  0.2316 -0.3451
 7450SOL    HW133983   4.191   3.546   0.817  2.4797  1.5011  0.3577
 7450SOL    HW233984   4.222   3.622   0.935  0.3445 -1.2408  1.4967
 7451SOL     OW33985   4.546   1.077   5.992 -0.0893 -0.3965 -0.1146
 7451SOL    HW133986   4.471   1.020   5.978 -0.0038 -0.2215 -1.2998
 7451SOL    HW233987   4.583   1.072   5.904 -2.2059 -0.0124 -1.0227
 7452SOL     OW33988   1.726   3.477  11.090 -0.7560 -0.1289 -0.3028
 7452SOL    HW133989   1.808   3.448  11.130 -0.3370 -0.1164 -1.1533
 7452SOL    HW233990   1.704   3.548  11.151  2.8790 -0.1751  1.0429
 7453SOL     OW33991   3.681   3.145   7.249  0.1883  0.3277 -0.6194
 7453SOL    HW133992   3.616   3.187   7.193 -0.3330 -1.0013 -1.0126
 7453SOL    HW233993   3.726   3.223   7.283  0.8012  0.2294 -1.2155
 7454SOL     OW33994   1.198   0.281   2.019  0.1666 -0.1772 -0.2444
 7454SOL    HW133995   1.288   0.254   2.035  0.6600  1.7100  0.0828
 7454SOL    HW233996   1.201   0.375   2.002 -1.0656 -0.1391 -0.2709
 7455SOL     OW33997   0.705   1.893   5.102 -0.1687 -0.1719 -0.6116
 7455SOL    HW133998   0.662   1.866   5.183  1.3025 -2.2312 -0.5225
 7455SOL    HW233999   0.790   1.849   5.104  1.3800  2.7930 -1.0873
 7456SOL     OW34000   1.136   4.147   8.549  0.2319 -0.0403  0.5248
 7456SOL    HW134001   1.046   4.178   8.538 -0.0487 -1.1603 -0.3728
 7456SOL    HW234002   1.178   4.191   8.475 -0.6847 -1.4491 -0.8382
 7457SOL     OW34003   3.964   3.654  17.308  0.8143  0.0512  0.7534
 7457SOL    HW134004   3.987   3.566  17.277  0.5253  1.5519 -3.7329
 7457SOL    HW234005   3.912   3.690  17.236  1.1797  1.5256  1.2168
 7458SOL     OW34006   0.074   0.643   8.740 -0.5649  0.3011 -0.6204
 7458SOL    HW134007   0.052   0.729   8.775  0.3519  0.4784 -0.5007
 7458SOL    HW234008   0.148   0.615   8.793  0.3176 -0.7291 -2.3934
 7459SOL     OW34009   4.617   3.117  17.403 -0.2874  0.3682 -0.0103
 7459SOL    HW134010   4.639   3.186  17.466  0.3540 -0.8905  1.1602
 7459SOL    HW234011   4.528   3.136  17.376 -1.0491 -0.8421  1.5826
 7460SOL     OW34012   1.347   1.821  14.779  0.1845  0.5747 -0.2824
 7460SOL    HW134013   1.435   1.782  14.785  0.7504  1.8848  0.0475
 7460SOL    HW234014   1.365   1.899  14.833  0.2514 -0.5818  1.3630
 7461SOL     OW34015   2.685   3.256   2.727 -0.2221 -0.2465  0.5657
 7461SOL    HW134016   2.629   3.326   2.760 -0.7204 -0.2375 -0.2866
 7461SOL    HW234017   2.635   3.174   2.723 -1.2718  0.3707  1.0810
 7462SOL     OW34018   1.303   2.727   3.779  0.2892  0.4855 -0.2659
 7462SOL    HW134019   1.307   2.798   3.842  2.5348  1.1647 -1.1484
 7462SOL    HW234020   1.248   2.765   3.710 -0.6367 -0.7968 -0.2365
 7463SOL     OW34021   0.942   1.424   1.966  0.7164  0.2005  0.0161
 7463SOL    HW134022   0.996   1.476   2.025  1.0579 -1.5221  1.2263
 7463SOL    HW234023   0.853   1.443   1.996  1.3119  1.8697  0.7255
 7464SOL     OW34024   0.232   2.953   9.265 -0.3928 -0.9423 -0.5772
 7464SOL    HW134025   0.226   2.865   9.302 -0.9038 -0.6277  0.0885
 7464SOL    HW234026   0.312   2.981   9.310 -1.7472  0.4003  0.9807
 7465SOL     OW34027   3.038   2.711   6.524 -0.2037  0.0704  0.1229
 7465SOL    HW134028   3.104   2.684   6.588 -0.0458  0.0118 -0.0656
 7465SOL    HW234029   3.039   2.804   6.549 -0.9952  0.3844 -1.0303
 7466SOL     OW34030   1.062   1.903  14.763 -0.5306  0.1002 -0.2262
 7466SOL    HW134031   1.154   1.910  14.785 -0.9291 -0.6546  1.7038
 7466SOL    HW234032   1.018   1.977  14.805  0.3673  0.8949 -0.6753
 7467SOL     OW34033   2.747   0.226   2.740 -0.5169 -0.3213  0.4934
 7467SOL    HW134034   2.656   0.254   2.729 -0.7205 -1.3000 -0.3063
 7467SOL    HW234035   2.743   0.170   2.663 -0.5901 -0.1951  0.4063
 7468SOL     OW34036   0.613   2.142   8.218 -0.4738  0.3910 -0.1085
 7468SOL    HW134037   0.685   2.134   8.280 -1.9618  0.4363  1.6236
 7468SOL    HW234038   0.656   2.143   8.133 -1.4541 -0.0884 -0.6136
 7469SOL     OW34039   4.212   3.972  12.203  0.2112  0.2553 -0.2371
 7469SOL    HW134040   4.187   3.928  12.122  0.4114  0.7430 -0.5614
 7469SOL    HW234041   4.136   3.945  12.255 -0.5201  1.1710 -0.8284
 7470SOL     OW34042   3.134   0.075   8.841  0.0696 -0.0568  0.3625
 7470SOL    HW134043   3.085   0.153   8.868  0.5470  0.3935 -0.0694
 7470SOL    HW234044   3.225   0.102   8.829 -0.0015  0.7880  1.6968
 7471SOL     OW34045   1.650   1.008   1.059  0.3560 -0.2723 -0.0989
 7471SOL    HW134046   1.574   0.953   1.078 -1.2799  1.4254 -1.7670
 7471SOL    HW234047   1.651   0.997   0.964 -1.3577  0.9633 -0.2561
 7472SOL     OW34048   4.383   4.529   8.679  0.3513 -0.1011  0.0300
 7472SOL    HW134049   4.383   4.443   8.721  0.1988  0.1003  0.4465
 7472SOL    HW234050   4.290   4.545   8.659  0.4424 -1.2441 -1.2811
 7473SOL     OW34051   3.607   0.203   0.784  0.4255 -0.1895  0.0275
 7473SOL    HW134052   3.593   0.151   0.705  1.2229  1.6392 -1.3370
 7473SOL    HW234053   3.570   0.286   0.753  2.1076  0.1315 -1.1937
 7474SOL     OW34054   2.878   0.618   4.175  0.6118 -0.1172  0.8111
 7474SOL    HW134055   2.943   0.548   4.170 -0.5773 -1.1519  0.1495
 7474SOL    HW234056   2.805   0.565   4.207 -0.8121  0.4100 -1.5249
 7475SOL     OW34057   0.441   0.254   8.463  0.1429  0.5777  0.1435
 7475SOL    HW134058   0.513   0.247   8.526 -0.8128 -1.5387  1.0398
 7475SOL    HW234059   0.381   0.190   8.503 -0.5154  2.0866  1.5684
 7476SOL     OW34060   2.043   1.756  14.720 -0.1197  0.8449 -0.2057
 7476SOL    HW134061   2.125   1.757  14.769 -1.2699 -0.3130  1.7461
 7476SOL    HW234062   2.061   1.820  14.651  2.5292  0.5706  0.2452
 7477SOL     OW34063   3.895   0.341   4.334 -0.0387 -0.0351  0.0530
 7477SOL    HW134064   3.923   0.350   4.424 -1.1092  0.5822  0.3229
 7477SOL    HW234065   3.855   0.254   4.343 -0.4774  0.2817  1.1913
 7478SOL     OW34066   1.112   3.642   4.210  0.7788 -0.8477  0.1769
 7478SOL    HW134067   1.174   3.679   4.148 -0.1355  0.6906  0.1766
 7478SOL    HW234068   1.037   3.699   4.194  0.1561 -1.5318  0.6700
 7479SOL     OW34069   3.784   0.783   6.959 -0.2210  0.4636 -0.4152
 7479SOL    HW134070   3.863   0.730   6.968 -1.0867 -0.6863  0.4828
 7479SOL    HW234071   3.766   0.783   6.865 -0.5047  0.5296 -0.3611
 7480SOL     OW34072   2.661   0.267   8.829 -0.0173  0.0394  0.7125
 7480SOL    HW134073   2.630   0.213   8.756 -0.1362  1.6250 -0.4108
 7480SOL    HW234074   2.731   0.318   8.789 -0.2335  1.5867  2.3303
 7481SOL     OW34075   1.301   3.664  10.799 -0.0225  0.3897  0.1132
 7481SOL    HW134076   1.257   3.695  10.720 -1.0932  0.2785  0.6659
 7481SOL    HW234077   1.221   3.627  10.838 -0.9160 -2.3014 -4.3531
 7482SOL     OW34078   0.271   2.399   7.313 -0.0138  0.0010 -0.7152
 7482SOL    HW134079   0.248   2.437   7.398  0.8775  2.5034 -1.5779
 7482SOL    HW234080   0.188   2.407   7.267 -1.8691  0.4729  2.7130
 7483SOL     OW34081   0.066   3.743   4.106 -0.4128 -0.5575 -0.3073
 7483SOL    HW134082   4.724   3.779   4.069 -1.1908 -0.0338  1.9248
 7483SOL    HW234083   0.022   3.673   4.154 -1.7288  0.5960  0.1453
 7484SOL     OW34084   4.655   2.468  14.039 -0.3624 -0.0086 -0.4158
 7484SOL    HW134085   4.676   2.409  14.112 -0.7626  0.6163  0.1912
 7484SOL    HW234086   4.735   2.521  14.035 -0.1955 -0.2620 -0.4944
 7485SOL     OW34087   3.229   4.262  15.720 -1.0029 -0.1506 -0.5334
 7485SOL    HW134088   3.242   4.355  15.739  2.2574 -0.9101  1.0326
 7485SOL    HW234089   3.317   4.234  15.695  1.0431  3.4284  2.5661
 7486SOL     OW34090   3.911   0.011   3.394  0.5092 -0.0298 -0.0960
 7486SOL    HW134091   3.999   4.712   3.402  0.5681  0.6330  2.3823
 7486SOL    HW234092   3.864   4.668   3.407  0.7514  0.0207  1.0525
 7487SOL     OW34093   2.277   2.337   7.445  0.2399 -0.0343  0.1923
 7487SOL    HW134094   2.293   2.295   7.529  0.0785 -1.1241 -0.3205
 7487SOL    HW234095   2.207   2.400   7.464  1.5368  0.8391  2.0158
 7488SOL     OW34096   2.301   0.480  11.483 -0.4456  0.1172 -0.5212
 7488SOL    HW134097   2.320   0.502  11.575  3.4513 -0.9334 -1.0679
 7488SOL    HW234098   2.379   0.426  11.470 -1.3806 -1.4831  0.6311
 7489SOL     OW34099   0.797   2.069  12.930 -0.0327 -0.1426 -0.5236
 7489SOL    HW134100   0.755   2.037  13.010  0.4757 -0.6406 -0.4474
 7489SOL    HW234101   0.874   2.012  12.938  0.5315  0.9430  1.8482
 7490SOL     OW34102   1.866   1.836  17.416 -0.2849  0.2408  0.5865
 7490SOL    HW134103   1.837   1.927  17.412  0.7522  0.4646 -1.6950
 7490SOL    HW234104   1.875   1.816  17.323  0.5830 -0.5431  0.8360
 7491SOL     OW34105   3.855   0.483   4.847  0.1175  0.3193 -0.0908
 7491SOL    HW134106   3.770   0.439   4.839  2.3520 -4.7348  3.3727
 7491SOL    HW234107   3.882   0.461   4.936 -1.2447  0.2118  0.2978
 7492SOL     OW34108   1.098   3.719  10.625 -0.2022 -0.3978  0.1256
 7492SOL    HW134109   1.034   3.695  10.693 -0.9797  1.1013 -0.0915
 7492SOL    HW234110   1.046   3.698  10.547  3.0538 -0.3513 -2.0188
 7493SOL     OW34111   1.823   2.938   8.161 -0.3799 -0.0769 -0.0939
 7493SOL    HW134112   1.890   2.999   8.129 -0.7474 -0.4920 -1.6806
 7493SOL    HW234113   1.777   2.998   8.220 -0.2651 -0.8378  0.7659
 7494SOL     OW34114   4.231   1.685   5.283 -0.4621 -0.4493 -0.0875
 7494SOL    HW134115   4.163   1.626   5.316 -0.7646 -0.6381 -1.0515
 7494SOL    HW234116   4.312   1.654   5.324 -1.1057 -2.2664 -0.1648
 7495SOL     OW34117   3.517   3.994   7.408 -0.2070 -0.6123 -0.0645
 7495SOL    HW134118   3.523   3.951   7.323  0.8855  0.7687 -0.6883
 7495SOL    HW234119   3.572   3.935   7.460  0.3027 -1.0464 -1.1145
 7496SOL     OW34120   2.945   2.401  10.323 -0.0614  0.0824  1.0337
 7496SOL    HW134121   2.850   2.408  10.333 -0.3746  1.5623 -2.8383
 7496SOL    HW234122   2.966   2.483  10.367 -1.9003  1.3087 -0.3790
 7497SOL     OW34123   4.322   1.262   3.297  0.4114  0.5225  0.1652
 7497SOL    HW134124   4.233   1.245   3.266  1.3839 -0.5480 -2.0255
 7497SOL    HW234125   4.336   1.187   3.355  4.0239 -0.4757 -2.0309
 7498SOL     OW34126   4.347   3.335   0.919  0.2159 -0.3087  0.1526
 7498SOL    HW134127   4.430   3.301   0.954  1.4809  0.7589 -1.8197
 7498SOL    HW234128   4.304   3.259   0.880  0.0823  0.6285 -1.5224
 7499SOL     OW34129   3.405   2.773   5.870 -0.3138 -1.0150  0.2706
 7499SOL    HW134130   3.392   2.861   5.833  2.7413 -1.1294 -1.0741
 7499SOL    HW234131   3.451   2.779   5.954 -0.9442 -0.5400  0.5815
 7500SOL     OW34132   3.557   3.928   2.157  0.1861  0.0416 -0.5869
 7500SOL    HW134133   3.536   3.843   2.117 -2.1238  0.3632 -0.0450
 7500SOL    HW234134   3.511   3.917   2.240  2.0950  0.1629  0.4962
 7501SOL     OW34135   3.791   0.620   8.756  0.3735 -0.0416  0.4329
 7501SOL    HW134136   3.768   0.536   8.715 -2.5907  0.2506  1.5101
 7501SOL    HW234137   3.808   0.595   8.847  0.4204 -0.7859  0.2206
 7502SOL     OW34138   0.284   3.796  15.052 -0.0899 -0.0992 -0.9898
 7502SOL    HW134139   0.329   3.712  15.038  1.5517  0.4521  0.8789
 7502SOL    HW234140   0.295   3.837  14.967 -1.1158 -0.3425 -1.2328
 7503SOL     OW34141   0.989   3.203   7.657 -0.8250 -0.1673 -0.0020
 7503SOL    HW134142   1.027   3.274   7.606 -0.3800 -0.7911 -0.5437
 7503SOL    HW234143   1.046   3.207   7.734 -1.7006  0.3292  0.6267
 7504SOL     OW34144   1.673   3.812   2.063 -0.0625  0.5448 -0.4332
 7504SOL    HW134145   1.617   3.782   2.135  0.9336  0.2796  0.2219
 7504SOL    HW234146   1.684   3.736   2.006  2.8914  0.8753 -0.2983
 7505SOL     OW34147   3.182   0.958   2.003  0.0223  0.6987 -0.0938
 7505SOL    HW134148   3.094   0.957   2.042 -0.1660 -1.9120 -0.5819
 7505SOL    HW234149   3.212   1.035   2.051  0.4774  0.9067 -0.7208
 7506SOL     OW34150   4.449   2.618   1.663 -0.3879  0.3156  0.7904
 7506SOL    HW134151   4.434   2.712   1.647 -0.2025  0.3976  1.1054
 7506SOL    HW234152   4.479   2.618   1.754  0.3493 -0.7275  0.5420
 7507SOL     OW34153   1.073   1.026  15.851 -0.1994  0.0183  0.0284
 7507SOL    HW134154   1.129   1.075  15.792 -1.1355 -1.2033 -1.8727
 7507SOL    HW234155   1.104   1.050  15.938 -0.3628  2.8666 -0.7036
 7508SOL     OW34156   4.571   2.511  10.335 -0.0403  0.0816  0.7871
 7508SOL    HW134157   4.504   2.561  10.382  0.6899 -0.1355  2.0779
 7508SOL    HW234158   4.529   2.424  10.334 -1.2621  0.6937 -0.4125
 7509SOL     OW34159   0.334   1.656   1.824 -0.3665  0.2723 -0.2063
 7509SOL    HW134160   0.276   1.730   1.809 -0.6250  0.3159  0.9977
 7509SOL    HW234161   0.301   1.601   1.895  2.3580 -2.4095 -0.9935
 7510SOL     OW34162   2.229   0.245   4.851  0.4210  0.4131  0.2672
 7510SOL    HW134163   2.277   0.322   4.819 -1.3424  1.0840 -0.7619
 7510SOL    HW234164   2.227   0.197   4.768  1.9276  2.4118 -0.9179
 7511SOL     OW34165   4.449   1.583   1.422 -0.5533  0.2441 -0.1863
 7511SOL    HW134166   4.461   1.498   1.380  0.7803  0.1363  0.4100
 7511SOL    HW234167   4.540   1.612   1.426 -0.2235 -0.6553 -1.2277
 7512SOL     OW34168   2.575   4.135   5.764 -0.2376 -0.1177 -0.0368
 7512SOL    HW134169   2.650   4.146   5.823  0.4244  0.1737 -0.9391
 7512SOL    HW234170   2.624   4.129   5.682 -1.1716  0.2401 -0.6240
 7513SOL     OW34171   1.817   1.258   7.451  0.0987  0.2906 -0.0445
 7513SOL    HW134172   1.905   1.230   7.474  0.7978  1.5420 -1.2114
 7513SOL    HW234173   1.827   1.341   7.405  2.9215 -0.0398 -0.0179
 7514SOL     OW34174   1.845   1.070  15.561  0.4663  0.0977 -0.4832
 7514SOL    HW134175   1.836   1.159  15.594 -0.4367 -0.1216 -0.1415
 7514SOL    HW234176   1.912   1.036  15.621 -1.9325 -2.9342  0.5068
 7515SOL     OW34177   0.345   0.504   3.569  0.0931  0.0154 -0.2711
 7515SOL    HW134178   0.371   0.581   3.620  0.3713  0.9209 -1.7564
 7515SOL    HW234179   0.307   0.555   3.497 -0.9484 -0.2755  0.0703
 7516SOL     OW34180   4.571   4.131  10.010 -0.0183  0.0955 -0.3265
 7516SOL    HW134181   4.659   4.095  10.015  0.3086  0.7228 -1.4536
 7516SOL    HW234182   4.584   4.203  10.072  0.3578 -1.4885  1.4407
 7517SOL     OW34183   3.377   4.253   8.506  0.3596 -0.1810  0.0957
 7517SOL    HW134184   3.381   4.342   8.470 -2.1287 -0.4184 -0.7761
 7517SOL    HW234185   3.335   4.211   8.430 -2.7737  2.0897  0.5913
 7518SOL     OW34186   2.970   3.753   4.303 -0.3027 -0.6242 -0.2207
 7518SOL    HW134187   3.002   3.745   4.213 -2.6987 -2.8075 -0.8745
 7518SOL    HW234188   2.931   3.666   4.309 -1.8611  0.1507  1.1439
 7519SOL     OW34189   2.561   1.625  13.910  0.5108 -0.4414  0.0372
 7519SOL    HW134190   2.470   1.614  13.883  0.3477 -0.1455  0.4674
 7519SOL    HW234191   2.597   1.540  13.887 -1.2502 -1.4073  0.8563
 7520SOL     OW34192   1.725   4.523   3.885  0.8458  1.2923 -0.5260
 7520SOL    HW134193   1.785   4.519   3.811 -2.0122 -1.0872 -2.7115
 7520SOL    HW234194   1.752   4.436   3.914  0.0717  0.9567 -0.8148
 7521SOL     OW34195   1.830   4.404   7.052 -0.1763 -0.0520  0.3288
 7521SOL    HW134196   1.912   4.372   7.014 -0.8230  0.0026 -1.1306
 7521SOL    HW234197   1.826   4.482   6.996  0.8807 -0.0468  0.2567
 7522SOL     OW34198   4.148   2.245   7.715  0.2902  0.3381 -0.5322
 7522SOL    HW134199   4.225   2.200   7.751 -1.1952 -2.2896 -0.6222
 7522SOL    HW234200   4.079   2.195   7.759 -0.7353  0.6502 -1.7950
 7523SOL     OW34201   2.759   3.413   4.591  0.5145  0.0383 -0.3736
 7523SOL    HW134202   2.708   3.347   4.638 -1.5769  2.4164  0.7055
 7523SOL    HW234203   2.823   3.443   4.656 -0.1199 -0.1733  0.3405
 7524SOL     OW34204   2.911   0.664   8.316  0.2273 -0.1383 -1.0356
 7524SOL    HW134205   2.853   0.727   8.273 -1.0204  0.3780  1.4491
 7524SOL    HW234206   2.998   0.685   8.281  0.9767 -2.0848 -0.3569
 7525SOL     OW34207   3.234   2.897   3.131 -0.7644  0.6406  0.2452
 7525SOL    HW134208   3.180   2.822   3.156  2.2134 -1.5758  0.1118
 7525SOL    HW234209   3.179   2.975   3.131 -0.7340  0.6630 -0.0099
 7526SOL     OW34210   0.889   3.967   1.519  0.2793  0.0380  0.2243
 7526SOL    HW134211   0.821   3.958   1.452 -0.6700 -0.9673  1.3338
 7526SOL    HW234212   0.836   3.953   1.597  1.7644 -0.4412  1.1279
 7527SOL     OW34213   4.425   3.976   8.073 -0.1898  0.0068 -0.3677
 7527SOL    HW134214   4.488   4.046   8.087 -0.8384  0.5557 -0.1651
 7527SOL    HW234215   4.451   3.957   7.983 -1.3556  0.7356 -0.8565
 7528SOL     OW34216   0.667   0.580   6.963  0.2767  0.0252  0.6856
 7528SOL    HW134217   0.625   0.590   7.049 -1.5179 -0.2237 -0.1503
 7528SOL    HW234218   0.636   0.493   6.938  2.3749 -0.2457 -0.9518
 7529SOL     OW34219   4.618   4.070   4.140 -0.7332 -0.5083  0.1286
 7529SOL    HW134220   4.595   4.163   4.137  0.9533 -0.1529 -2.2071
 7529SOL    HW234221   4.709   4.085   4.166 -0.8212  1.6150 -0.7737
 7530SOL     OW34222   2.407   4.085   3.543  0.0571  0.4543 -0.8868
 7530SOL    HW134223   2.502   4.102   3.545  0.6345 -3.0428  0.6938
 7530SOL    HW234224   2.375   4.162   3.495  1.7844  0.5466 -1.9255
 7531SOL     OW34225   3.016   2.451  16.710 -0.8828 -0.4999  0.0728
 7531SOL    HW134226   2.940   2.433  16.655 -0.6818  1.2709 -0.7707
 7531SOL    HW234227   3.050   2.537  16.684 -0.9391 -0.6460 -0.4672
 7532SOL     OW34228   2.479   0.566   8.922  0.7693  0.0798 -0.5246
 7532SOL    HW134229   2.412   0.615   8.969  2.0139  1.3020 -0.0072
 7532SOL    HW234230   2.541   0.545   8.992  0.4345 -2.4733 -1.0088
 7533SOL     OW34231   0.536   0.421   7.221 -0.4524 -0.2339 -0.1885
 7533SOL    HW134232   0.549   0.329   7.199 -0.0327  0.1390 -1.4983
 7533SOL    HW234233   0.617   0.444   7.265 -1.9194  0.5116  2.1274
 7534SOL     OW34234   0.390   1.758   7.147 -0.3531 -0.3526 -0.2305
 7534SOL    HW134235   0.453   1.704   7.195 -2.9728 -0.8147  2.7258
 7534SOL    HW234236   0.375   1.810   7.226 -0.2035 -0.5457 -0.0728
 7535SOL     OW34237   3.564   2.781   5.621  0.3381 -0.3866  0.3673
 7535SOL    HW134238   3.493   2.820   5.672 -3.6864 -1.4854 -4.4957
 7535SOL    HW234239   3.539   2.801   5.531 -1.0252 -0.9856  0.6144
 7536SOL     OW34240   2.119   3.648   6.418 -0.1179 -0.3174  0.4486
 7536SOL    HW134241   2.099   3.736   6.449  2.2035  0.7593 -1.1188
 7536SOL    HW234242   2.147   3.597   6.494 -1.0775 -2.0625 -0.3619
 7537SOL     OW34243   2.987   2.284   8.638  0.0265 -0.1085  0.1721
 7537SOL    HW134244   2.906   2.323   8.669  0.4527  1.0679 -0.2119
 7537SOL    HW234245   2.964   2.239   8.556  0.6078 -1.0184  0.5072
 7538SOL     OW34246   4.211   3.275   3.607 -0.1770 -0.6694  0.1081
 7538SOL    HW134247   4.280   3.316   3.554 -0.4889 -1.8490 -1.2070
 7538SOL    HW234248   4.227   3.184   3.581 -1.8107 -0.5636 -1.2284
 7539SOL     OW34249   4.665   1.958   3.800 -0.3004 -0.2926 -0.2950
 7539SOL    HW134250   4.690   2.016   3.728 -1.6369 -0.5890 -0.9920
 7539SOL    HW234251   4.573   1.983   3.796 -0.1452  0.3506  0.1279
 7540SOL     OW34252   0.162   1.506  16.506  0.0131  0.2092  0.0633
 7540SOL    HW134253   0.118   1.543  16.582  0.9396  0.5978  0.4054
 7540SOL    HW234254   0.184   1.424  16.549 -0.0549 -1.5516 -3.2239
 7541SOL     OW34255   4.646   4.151   1.775  0.7246  0.3870  0.0113
 7541SOL    HW134256   4.556   4.145   1.741 -0.3906 -0.1683  3.0191
 7541SOL    HW234257   4.686   4.072   1.739  1.9612  1.0596 -0.0921
 7542SOL     OW34258   1.544   0.631  11.014  0.0463  0.0595 -0.1474
 7542SOL    HW134259   1.542   0.547  10.967 -1.6522 -0.0650  0.1461
 7542SOL    HW234260   1.469   0.677  10.977 -0.7627 -0.2753  1.0655
 7543SOL     OW34261   3.827   0.130   6.923  0.5651  0.0397  0.0859
 7543SOL    HW134262   3.733   0.149   6.924 -0.0200 -2.7289 -1.6939
 7543SOL    HW234263   3.825   0.072   6.847  0.2606  0.0401  0.0943
 7544SOL     OW34264   0.797   2.690  11.218 -0.3001  0.0720  0.2931
 7544SOL    HW134265   0.823   2.712  11.128 -0.6911  0.3231  0.2394
 7544SOL    HW234266   0.837   2.756  11.274 -0.3431 -0.1783  0.6184
 7545SOL     OW34267   4.138   4.085   9.028 -0.0095  0.0704  0.1871
 7545SOL    HW134268   4.142   4.179   9.007  1.0035 -0.5010 -2.1391
 7545SOL    HW234269   4.066   4.088   9.091  1.5727 -1.5335  2.0621
 7546SOL     OW34270   4.563   2.494  15.514 -0.1780 -0.3343 -0.6057
 7546SOL    HW134271   4.507   2.421  15.487  0.6276 -0.2663 -2.4626
 7546SOL    HW234272   4.637   2.478  15.455 -0.2260 -1.6009 -0.3175
 7547SOL     OW34273   4.022   0.863  16.077  0.1093 -0.0179 -0.8217
 7547SOL    HW134274   3.981   0.827  16.156 -1.1577  0.4043 -1.2991
 7547SOL    HW234275   3.953   0.848  16.014  0.6988 -1.4057 -1.1415
 7548SOL     OW34276   3.710   4.287  15.384  0.2845 -0.2116 -0.4406
 7548SOL    HW134277   3.720   4.296  15.289  2.9451  0.8664 -0.0603
 7548SOL    HW234278   3.755   4.369  15.406  1.0575 -0.4351 -1.1902
 7549SOL     OW34279   2.872   0.002   0.160  0.2311 -0.7908 -0.3010
 7549SOL    HW134280   2.927   0.064   0.209 -1.5277  0.4927  0.0319
 7549SOL    HW234281   2.919   4.662   0.186 -0.0924 -1.0010 -0.3589
 7550SOL     OW34282   0.410   2.193  11.737  0.2722  0.0712  0.2551
 7550SOL    HW134283   0.410   2.119  11.676  0.2188  1.2714 -1.1811
 7550SOL    HW234284   0.321   2.228  11.727 -1.0623 -3.2325  0.5376
 7551SOL     OW34285   4.355   0.531  10.336  0.8349  0.1852  0.1603
 7551SOL    HW134286   4.400   0.502  10.256 -0.7706 -0.6172 -0.4413
 7551SOL    HW234287   4.310   0.452  10.364 -1.7439  0.6906 -2.5800
 7552SOL     OW34288   0.880   0.999   5.609  0.2158  0.0814 -0.3460
 7552SOL    HW134289   0.952   0.943   5.637  0.7783  2.1672  2.4052
 7552SOL    HW234290   0.809   0.953   5.654 -0.8864  0.9763 -1.1575
 7553SOL     OW34291   0.223   2.090  12.838  0.0493  0.1059  0.0680
 7553SOL    HW134292   0.296   2.129  12.888  0.2769  0.6262 -0.6647
 7553SOL    HW234293   0.145   2.128  12.877  1.2559  1.1703  1.4627
 7554SOL     OW34294   2.007   2.710   3.476  0.3883  0.2036 -0.5717
 7554SOL    HW134295   1.987   2.619   3.455 -1.4459  0.9608 -2.0585
 7554SOL    HW234296   1.936   2.740   3.533  0.3127 -2.3985  0.7031
 7555SOL     OW34297   3.639   4.387   7.703 -0.1814 -0.7113  0.2117
 7555SOL    HW134298   3.609   4.466   7.659  1.0520 -0.2760  0.1610
 7555SOL    HW234299   3.599   4.327   7.640  1.4053 -2.6545  1.0478
 7556SOL     OW34300   0.539   1.581   4.249  0.1121  0.3891  0.2329
 7556SOL    HW134301   0.625   1.622   4.250 -0.2470  1.1507  0.3775
 7556SOL    HW234302   0.551   1.486   4.249  1.2553  0.5430  0.6904
 7557SOL     OW34303   1.997   0.773   2.162  0.1331 -0.3029 -0.2871
 7557SOL    HW134304   1.912   0.785   2.203  0.6803  0.2170  0.7128
 7557SOL    HW234305   1.975   0.749   2.072 -1.6636 -3.2551  0.9569
 7558SOL     OW34306   1.294   0.410  15.465  0.0065 -0.0456  0.0391
 7558SOL    HW134307   1.268   0.431  15.375  0.2167 -1.9750 -0.4711
 7558SOL    HW234308   1.256   0.479  15.519 -0.6417  0.8175 -1.5219
 7559SOL     OW34309   0.118   0.826   6.836  0.0557  0.2676  0.7377
 7559SOL    HW134310   0.088   0.916   6.819 -1.9597 -0.7421 -1.1417
 7559SOL    HW234311   0.042   0.803   6.890 -0.4637 -0.6077 -0.3668
 7560SOL     OW34312   4.497   3.963   5.765 -0.5718 -0.1640 -0.1633
 7560SOL    HW134313   4.546   3.894   5.811 -1.3819  0.2468  1.3381
 7560SOL    HW234314   4.412   3.965   5.810  0.8576  0.8634  2.5381
 7561SOL     OW34315   2.264   4.029   1.739 -0.2265  0.1086 -0.1981
 7561SOL    HW134316   2.243   3.965   1.671  1.4029 -0.5481 -0.0944
 7561SOL    HW234317   2.173   4.040   1.766  0.0191 -1.2231  1.1607
 7562SOL     OW34318   4.488   3.679   4.589 -0.2236  0.2479  0.2266
 7562SOL    HW134319   4.458   3.710   4.674 -1.1963  3.2589 -1.2018
 7562SOL    HW234320   4.580   3.702   4.602  0.2148 -1.0560 -0.5582
 7563SOL     OW34321   2.593   2.184   2.240  0.5337 -0.5505  0.1242
 7563SOL    HW134322   2.582   2.279   2.246  0.9296 -0.6054  1.8312
 7563SOL    HW234323   2.601   2.172   2.335  0.5528 -1.4006  0.0104
 7564SOL     OW34324   1.877   2.538   8.108  0.0434 -0.3868  0.1585
 7564SOL    HW134325   1.909   2.489   8.032 -2.1409 -1.5186 -0.0090
 7564SOL    HW234326   1.954   2.584   8.141 -0.4149 -0.1987  0.9599
 7565SOL     OW34327   0.515   1.911   6.657  0.0611  0.3968  0.5998
 7565SOL    HW134328   0.439   1.855   6.642 -0.4885  0.6150  2.6499
 7565SOL    HW234329   0.529   1.900   6.751  0.5228  2.9089  0.8370
 7566SOL     OW34330   4.165   2.613   9.170 -0.3821  0.5729  0.1496
 7566SOL    HW134331   4.113   2.676   9.221  1.0918  0.9752  1.1461
 7566SOL    HW234332   4.111   2.536   9.186 -0.8157  0.8000 -0.2065
 7567SOL     OW34333   2.983   3.600  12.764 -0.1401 -0.2104 -0.2403
 7567SOL    HW134334   2.946   3.517  12.734 -0.4168  0.0982 -0.7439
 7567SOL    HW234335   2.908   3.657  12.748 -0.7133 -0.2763  2.1713
 7568SOL     OW34336   4.648   3.478   6.620  0.2121 -0.0086 -0.1332
 7568SOL    HW134337   4.680   3.472   6.710  1.2242  0.1190 -0.4824
 7568SOL    HW234338   4.707   3.423   6.568 -0.4256 -2.9827  2.3188
 7569SOL     OW34339   0.974   3.712   9.222 -0.1240 -0.2088 -0.4612
 7569SOL    HW134340   0.997   3.704   9.315  0.7405 -2.8990 -0.9072
 7569SOL    HW234341   1.013   3.635   9.181  0.2867 -1.6875  2.6915
 7570SOL     OW34342   2.251   0.283   6.129 -0.9133 -0.0230  0.5971
 7570SOL    HW134343   2.314   0.322   6.190 -0.2678  0.1370 -0.1847
 7570SOL    HW234344   2.204   0.360   6.099  0.0504  1.3033  2.4747
 7571SOL     OW34345   1.084   0.742   4.187 -0.0439 -0.0841  0.4269
 7571SOL    HW134346   1.115   0.772   4.273  0.6372 -0.6991  0.3969
 7571SOL    HW234347   0.992   0.718   4.200 -0.7746  2.4666 -0.0933
 7572SOL     OW34348   2.334   1.081   9.657  0.2060  0.4215  0.2386
 7572SOL    HW134349   2.340   1.009   9.594 -1.1246  0.5241 -0.0023
 7572SOL    HW234350   2.428   1.094   9.662  0.3559  0.2120 -2.1960
 7573SOL     OW34351   4.517   0.664   4.408  0.0081  0.6462  0.4983
 7573SOL    HW134352   4.608   0.694   4.416 -0.1714  1.2404  0.2675
 7573SOL    HW234353   4.493   0.668   4.316  1.8076  0.7648  0.0279
 7574SOL     OW34354   0.179   2.295   0.730  0.3235 -0.4464 -0.0686
 7574SOL    HW134355   0.166   2.264   0.640  0.6286  2.2921 -1.0707
 7574SOL    HW234356   0.228   2.377   0.728  2.6775 -1.8363  1.3428
 7575SOL     OW34357   2.939   2.422   1.883 -0.1080 -0.4874 -0.7966
 7575SOL    HW134358   2.942   2.486   1.954 -1.3541 -2.8046  1.3357
 7575SOL    HW234359   2.905   2.469   1.806 -1.7871 -1.2119 -0.5088
 7576SOL     OW34360   0.866   3.722   6.896  0.5889 -0.6395 -0.4991
 7576SOL    HW134361   0.876   3.794   6.833 -0.9007 -0.5382 -0.6083
 7576SOL    HW234362   0.843   3.763   6.980 -1.1267  1.2803 -1.9112
 7577SOL     OW34363   4.672   3.125   8.951  0.2177  0.3479 -0.0683
 7577SOL    HW134364   4.611   3.073   9.004 -1.3016  0.5806 -1.5902
 7577SOL    HW234365   4.647   3.101   8.861  2.5122 -0.1469 -0.5554
 7578SOL     OW34366   2.220   2.389   4.400 -0.1578  0.5624 -0.1236
 7578SOL    HW134367   2.315   2.399   4.406  0.0332  0.1440 -2.2356
 7578SOL    HW234368   2.212   2.301   4.435 -2.0621 -0.0086 -1.9751
 7579SOL     OW34369   0.066   4.644  13.750  0.4064 -0.3094  0.0476
 7579SOL    HW134370   0.158   4.657  13.773  0.2088  0.2652  0.5027
 7579SOL    HW234371   0.064   4.715  13.686 -0.4308  0.2228  0.6795
 7580SOL     OW34372   3.977   0.433   5.090  0.0041 -0.3403  0.5628
 7580SOL    HW134373   4.061   0.430   5.136 -0.2715 -0.9123  1.0222
 7580SOL    HW234374   3.932   0.356   5.125  0.1813  0.0614  1.6966
 7581SOL     OW34375   1.413   0.968  16.103 -0.7355  0.4601  0.0018
 7581SOL    HW134376   1.455   0.900  16.051 -0.0663  0.1711  0.9132
 7581SOL    HW234377   1.443   0.944  16.191 -0.1232 -1.1368 -0.6527
 7582SOL     OW34378   2.101   2.640   5.599  0.3717  0.3502 -0.5347
 7582SOL    HW134379   2.129   2.575   5.664 -0.2216 -0.9075 -1.5487
 7582SOL    HW234380   2.067   2.698   5.667 -1.4818  0.1924 -1.3367
 7583SOL     OW34381   3.939   1.979   2.578 -0.6194 -0.3477  0.0310
 7583SOL    HW134382   4.019   1.936   2.607 -2.6069 -3.0734  1.4926
 7583SOL    HW234383   3.961   2.072   2.587 -1.0628 -0.3625  1.2608
 7584SOL     OW34384   1.971   1.586   3.166  0.4662 -0.2147  0.0574
 7584SOL    HW134385   2.027   1.630   3.230  0.4657  0.1650 -0.1996
 7584SOL    HW234386   1.921   1.535   3.228 -0.7163  1.1227  0.1997
 7585SOL     OW34387   4.594   1.112   9.249 -0.1460  0.0959  0.1235
 7585SOL    HW134388   4.651   1.039   9.227  0.5923 -0.1223  2.8340
 7585SOL    HW234389   4.594   1.104   9.344 -2.7342  1.4718  0.2510
 7586SOL     OW34390   0.410   1.048  16.766  0.4533 -0.2206  0.8939
 7586SOL    HW134391   0.489   1.008  16.730 -0.1346  0.7412 -1.4492
 7586SOL    HW234392   0.363   0.965  16.780  0.4819 -0.3861  0.0003
 7587SOL     OW34393   1.629   2.581   1.950  0.3036  0.1573 -0.4235
 7587SOL    HW134394   1.672   2.522   2.011 -1.1972 -2.1704 -1.6292
 7587SOL    HW234395   1.565   2.625   2.006  1.6524  3.0800 -1.1712
 7588SOL     OW34396   0.810   2.188   3.426  0.3294 -0.4951 -0.0641
 7588SOL    HW134397   0.869   2.221   3.358 -2.0232  1.4239 -1.1829
 7588SOL    HW234398   0.764   2.266   3.456 -0.3411 -1.7632  2.1617
 7589SOL     OW34399   1.611   2.266   8.239 -0.1813  0.7916  0.8126
 7589SOL    HW134400   1.628   2.231   8.151  1.9995 -1.8972  2.3050
 7589SOL    HW234401   1.525   2.305   8.228  0.3302  2.3244  2.3673
 7590SOL     OW34402   4.214   0.922   4.837 -0.2145  0.2008 -0.2685
 7590SOL    HW134403   4.193   0.979   4.763  0.4244  0.2258 -0.4295
 7590SOL    HW234404   4.139   0.862   4.828  1.2513 -1.5452 -0.9448
 7591SOL     OW34405   1.811   0.163  14.073 -0.2160 -0.3373  0.0238
 7591SOL    HW134406   1.770   0.216  14.141 -0.4565 -1.8425  1.0623
 7591SOL    HW234407   1.862   0.110  14.134 -0.5726  0.5585  1.1052
 7592SOL     OW34408   4.190   4.547   7.043 -0.0037  0.1404  0.2980
 7592SOL    HW134409   4.105   4.574   7.008  0.9746  1.7123 -0.9293
 7592SOL    HW234410   4.202   4.611   7.113  2.3002  0.8315 -0.6980
 7593SOL     OW34411   2.755   3.540   7.468  0.9257 -0.0437  0.0797
 7593SOL    HW134412   2.783   3.454   7.437  0.2065 -0.0711 -0.4931
 7593SOL    HW234413   2.778   3.590   7.389  2.3682  1.2141  1.3172
 7594SOL     OW34414   1.738   1.657   8.486  0.0140 -0.0805  0.9279
 7594SOL    HW134415   1.707   1.725   8.428  2.7968  0.2916 -0.0897
 7594SOL    HW234416   1.780   1.714   8.550 -1.8296  0.9491  1.2182
 7595SOL     OW34417   1.687   0.896  15.846  0.6672 -0.2389 -0.7332
 7595SOL    HW134418   1.765   0.938  15.881 -0.2911  0.4271  0.5852
 7595SOL    HW234419   1.657   0.848  15.923 -0.6602  1.2621 -0.3169
 7596SOL     OW34420   1.255   2.156  11.781 -0.4277 -0.2375 -0.1724
 7596SOL    HW134421   1.222   2.071  11.752 -0.6675  0.3292 -1.5478
 7596SOL    HW234422   1.253   2.140  11.876  1.0006 -1.4407 -0.3329
 7597SOL     OW34423   0.072   2.104   3.621  0.3399 -0.3809 -0.1234
 7597SOL    HW134424   0.127   2.026   3.633  0.6401 -0.5243 -2.4390
 7597SOL    HW234425   0.068   2.106   3.526 -0.0555  0.7763 -0.0821
 7598SOL     OW34426   4.177   2.051   4.896  0.8299  0.2217 -0.1563
 7598SOL    HW134427   4.211   1.965   4.923  1.4736 -0.1080 -2.0265
 7598SOL    HW234428   4.109   2.076   4.959 -1.2264 -2.1859 -1.4064
 7599SOL     OW34429   1.077   1.590   2.132 -0.0681 -0.0095  0.1011
 7599SOL    HW134430   1.164   1.565   2.100  0.1377  0.0681  0.6034
 7599SOL    HW234431   1.107   1.654   2.196 -0.5427 -0.5386  0.8500
 7600SOL     OW34432   1.746   3.025   6.002 -0.1768  0.1815 -0.0027
 7600SOL    HW134433   1.700   3.108   6.009  1.0231  1.0017 -1.7826
 7600SOL    HW234434   1.751   2.999   5.910  1.5460 -1.5049  0.5502
 7601SOL     OW34435   4.378   2.872   0.749 -0.1277 -0.2962 -0.4869
 7601SOL    HW134436   4.463   2.865   0.706  0.0046  0.1270 -0.2998
 7601SOL    HW234437   4.374   2.787   0.792  0.0274  1.1872  2.5261
 7602SOL     OW34438   4.574   0.946   1.614  0.0976 -0.0549  0.0409
 7602SOL    HW134439   4.506   0.880   1.627 -0.1773  0.4699  1.2329
 7602SOL    HW234440   4.533   0.997   1.543  0.4404  0.6041  0.3172
 7603SOL     OW34441   3.591   4.330  10.399 -0.1475  0.4451 -0.0349
 7603SOL    HW134442   3.510   4.380  10.403  0.4296  1.3499  0.2898
 7603SOL    HW234443   3.577   4.257  10.460  0.5720  2.0180  1.9832
 7604SOL     OW34444   3.728   1.177   8.756  0.6404 -0.0736  0.4140
 7604SOL    HW134445   3.788   1.155   8.686 -0.7864 -1.2075 -0.4391
 7604SOL    HW234446   3.745   1.110   8.823 -2.8679 -0.8869  0.5297
 7605SOL     OW34447   2.629   2.741   1.346  0.4414  0.2834 -0.6282
 7605SOL    HW134448   2.721   2.763   1.356  0.0637  1.3418  0.4188
 7605SOL    HW234449   2.619   2.783   1.260 -0.6109 -1.7452 -1.5078
 7606SOL     OW34450   2.537   2.436   3.010  0.2392 -0.0092 -0.2012
 7606SOL    HW134451   2.474   2.376   2.969 -2.4881  2.2702  0.6516
 7606SOL    HW234452   2.616   2.383   3.003 -1.0229 -1.9127 -0.1105
 7607SOL     OW34453   4.194   0.575   1.499 -0.8009 -0.7683 -0.2288
 7607SOL    HW134454   4.179   0.556   1.592  1.0988  1.2343  0.4826
 7607SOL    HW234455   4.192   0.488   1.460 -1.0814 -1.3399  1.0732
 7608SOL     OW34456   0.131   3.836   7.690  0.4124  0.1761 -0.4082
 7608SOL    HW134457   0.091   3.862   7.773  1.0874  1.1861 -0.4126
 7608SOL    HW234458   0.113   3.741   7.690  3.4032 -0.3658 -0.5843
 7609SOL     OW34459   0.554   2.989   7.504  0.6347 -0.4786 -0.0537
 7609SOL    HW134460   0.609   3.056   7.464 -1.6909  1.1260 -0.6212
 7609SOL    HW234461   0.609   2.915   7.529 -0.6241 -0.9196  1.4346
 7610SOL     OW34462   0.825   1.828   3.674  0.5815  0.1734  0.5471
 7610SOL    HW134463   0.861   1.909   3.638  0.1802  0.2745  0.3795
 7610SOL    HW234464   0.906   1.788   3.707 -1.0055 -4.2656 -0.8825
 7611SOL     OW34465   0.773   4.563   4.244  0.5024 -0.2786  0.2578
 7611SOL    HW134466   0.743   4.650   4.273  2.4731  0.0713  1.2536
 7611SOL    HW234467   0.686   4.526   4.232 -0.2861  0.8047  2.5408
 7612SOL     OW34468   1.497   2.144  11.506  0.5117 -0.1758  0.1135
 7612SOL    HW134469   1.577   2.096  11.482  0.2303 -1.0693  0.9981
 7612SOL    HW234470   1.539   2.229  11.522  2.1066 -0.8106 -0.5947
 7613SOL     OW34471   4.553   3.390   5.087 -0.1419  0.2771 -0.4548
 7613SOL    HW134472   4.582   3.376   4.997  0.9091 -1.1119  0.0995
 7613SOL    HW234473   4.558   3.486   5.094  1.2985  0.0565  1.6039
 7614SOL     OW34474   4.447   2.084   6.272 -0.3980  0.6333 -0.8041
 7614SOL    HW134475   4.385   2.120   6.209  2.4347  1.1942 -3.2436
 7614SOL    HW234476   4.455   2.148   6.344  0.4205  1.5369 -1.6942
 7615SOL     OW34477   1.629   0.436   8.141  0.4715  0.1121  0.1733
 7615SOL    HW134478   1.671   0.380   8.206  0.6279  1.0452  0.8659
 7615SOL    HW234479   1.654   0.527   8.155  2.0064 -0.2350 -0.3362
 7616SOL     OW34480   0.951   2.018   7.288 -0.4154 -0.1227  0.1060
 7616SOL    HW134481   0.935   2.067   7.369 -0.6153 -2.0399  1.2143
 7616SOL    HW234482   0.927   2.079   7.218 -1.0567  0.9853  1.2900
 7617SOL     OW34483   0.019   3.164  14.469 -1.2481  0.0795  0.5605
 7617SOL    HW134484   0.035   3.249  14.427 -0.6817 -1.0005 -1.3817
 7617SOL    HW234485   0.009   3.106  14.394  0.0921  1.4020 -0.6352
 7618SOL     OW34486   2.708   1.923  12.047  0.6637  0.1064 -0.3712
 7618SOL    HW134487   2.669   1.837  12.032 -1.3055  0.9955 -0.3807
 7618SOL    HW234488   2.788   1.922  11.993  1.2818 -1.6437  0.6036
 7619SOL     OW34489   4.091   3.057   5.253 -0.3955 -0.6791  0.5323
 7619SOL    HW134490   4.041   2.979   5.279 -0.7069 -0.3783  0.8285
 7619SOL    HW234491   4.090   3.089   5.343 -1.5099 -0.2875  0.3771
 7620SOL     OW34492   2.077   0.441   6.900 -0.1648  0.6593 -0.4040
 7620SOL    HW134493   2.125   0.512   6.944  1.3350 -1.2170  0.9702
 7620SOL    HW234494   1.983   0.457   6.908 -0.4023 -0.3131 -1.3116
 7621SOL     OW34495   3.301   0.547  14.006  0.2071 -0.2726  0.3535
 7621SOL    HW134496   3.227   0.608  13.997  0.4252 -0.4383 -2.4969
 7621SOL    HW234497   3.372   0.607  13.984  0.8228 -0.8183  0.8416
 7622SOL     OW34498   1.734   4.261   8.103 -0.1267 -0.0810  0.2826
 7622SOL    HW134499   1.779   4.201   8.043  0.1860 -1.1238  1.5778
 7622SOL    HW234500   1.762   4.345   8.066 -0.7251  0.1254  0.2842
 7623SOL     OW34501   3.678   3.436   7.472  0.4998  0.2345 -0.5401
 7623SOL    HW134502   3.656   3.441   7.565  1.2565 -3.1493 -0.1760
 7623SOL    HW234503   3.617   3.498   7.432  0.4934 -0.8267 -2.2020
 7624SOL     OW34504   1.480   2.377   6.733  0.1993 -0.3474  0.1352
 7624SOL    HW134505   1.398   2.328   6.742  0.8310 -1.4032  0.2185
 7624SOL    HW234506   1.511   2.355   6.645 -1.2509 -2.1393  0.0579
 7625SOL     OW34507   4.316   1.509   2.436  0.2263 -0.2865  0.1015
 7625SOL    HW134508   4.220   1.509   2.437  0.2363  0.5554  1.6650
 7625SOL    HW234509   4.329   1.462   2.518  0.4640  0.5146  0.5273
 7626SOL     OW34510   4.407   3.680  17.276 -0.1389 -0.0706 -0.0663
 7626SOL    HW134511   4.361   3.600  17.301 -1.0147 -0.4251 -2.8434
 7626SOL    HW234512   4.439   3.662  17.188  0.9592  0.5255  0.2137
 7627SOL     OW34513   3.042   2.145  11.771 -0.1328 -0.2850 -0.6121
 7627SOL    HW134514   3.019   2.089  11.696 -0.9807 -1.1690  0.2917
 7627SOL    HW234515   2.970   2.208  11.770  1.4104  1.4749 -0.1924
 7628SOL     OW34516   1.848   4.045   0.768 -0.2833  0.5392  0.3156
 7628SOL    HW134517   1.934   4.056   0.808  0.4827 -0.0913 -1.1494
 7628SOL    HW234518   1.818   4.135   0.755  0.0883  0.6050 -0.0970
 7629SOL     OW34519   3.291   1.225   9.428  0.2173  0.6899  0.3106
 7629SOL    HW134520   3.364   1.167   9.407 -0.1720  0.5588 -0.6975
 7629SOL    HW234521   3.267   1.196   9.516  0.7732 -1.9584 -0.4122
 7630SOL     OW34522   2.260   2.973  11.827 -0.1091  0.5837 -0.9989
 7630SOL    HW134523   2.305   2.890  11.811 -2.3720 -0.9005  0.2803
 7630SOL    HW234524   2.214   2.949  11.907  1.4286 -0.2452 -0.3628
 7631SOL     OW34525   3.858   1.152   5.648 -0.0732  0.3990 -0.1089
 7631SOL    HW134526   3.802   1.224   5.619 -1.5976 -1.3955 -1.5861
 7631SOL    HW234527   3.941   1.166   5.603  0.2373 -1.1024 -0.0025
 7632SOL     OW34528   3.207   4.165  15.986  0.3473  0.3506  0.4097
 7632SOL    HW134529   3.218   4.071  15.971  1.9609  0.5135  0.5453
 7632SOL    HW234530   3.209   4.195  15.895 -0.1560  2.0157  0.9392
 7633SOL     OW34531   0.753   1.095   2.095 -0.1683 -0.2252 -0.2007
 7633SOL    HW134532   0.822   1.126   2.037 -0.1979 -0.7842 -0.5418
 7633SOL    HW234533   0.719   1.173   2.138  0.6283  0.0748 -0.1313
 7634SOL     OW34534   0.511   0.051   5.111 -0.2495 -0.2198 -0.2370
 7634SOL    HW134535   0.453   4.724   5.073  0.2624 -0.2283 -0.9953
 7634SOL    HW234536   0.456   0.123   5.142  1.8804  0.1424  2.7630
 7635SOL     OW34537   1.570   3.834  10.548 -0.1946 -0.5096  0.1155
 7635SOL    HW134538   1.475   3.849  10.541  0.3125  2.5718  0.0717
 7635SOL    HW234539   1.575   3.852  10.642  4.1314 -0.5413 -0.1096
 7636SOL     OW34540   3.302   4.123  11.047 -0.0559  0.0688 -0.0594
 7636SOL    HW134541   3.370   4.126  10.979 -0.6579 -2.1976 -0.7663
 7636SOL    HW234542   3.222   4.128  10.995  0.9706  0.6867 -1.5821
 7637SOL     OW34543   2.469   3.821   0.094  0.5076 -0.2773  0.4634
 7637SOL    HW134544   2.441   3.780   0.012 -0.2022  1.5156 -0.1929
 7637SOL    HW234545   2.427   3.907   0.093  1.1191  0.0352  2.2999
 7638SOL     OW34546   0.636   1.405   7.694  0.2339  0.0825  0.4979
 7638SOL    HW134547   0.720   1.361   7.704 -0.2399 -1.4157 -1.8301
 7638SOL    HW234548   0.591   1.336   7.644 -2.5929  0.5446  2.4179
 7639SOL     OW34549   4.602   1.494   4.096  0.5258 -0.1667 -0.3416
 7639SOL    HW134550   4.685   1.539   4.109  0.0857  0.8092 -0.8459
 7639SOL    HW234551   4.563   1.550   4.029 -0.1139  0.6170  0.6828
 7640SOL     OW34552   4.069   4.235   0.254  0.2234  0.2506  0.2170
 7640SOL    HW134553   3.997   4.269   0.308 -0.6227 -1.9030  0.4654
 7640SOL    HW234554   4.037   4.265   0.169 -0.5949  0.9571  0.7801
 7641SOL     OW34555   3.873   4.411   5.336 -0.0754 -0.3666 -0.0533
 7641SOL    HW134556   3.946   4.468   5.314 -0.0763 -0.4565 -0.2878
 7641SOL    HW234557   3.800   4.470   5.354  1.0214  0.3060  2.1925
 7642SOL     OW34558   2.185   1.859   0.632  0.1196  0.0765 -0.0769
 7642SOL    HW134559   2.142   1.820   0.708 -0.5903  0.4984 -0.2643
 7642SOL    HW234560   2.275   1.863   0.664  0.2468  0.3818 -0.4644
 7643SOL     OW34561   4.368   2.623   6.578  0.5018  0.0530 -0.3409
 7643SOL    HW134562   4.313   2.558   6.534 -1.1244  2.1583 -1.4118
 7643SOL    HW234563   4.331   2.626   6.667  1.6980  0.5992  0.1387
 7644SOL     OW34564   0.459   3.416   7.925 -0.3883  0.1626 -0.7142
 7644SOL    HW134565   0.451   3.409   7.830 -3.0249  1.8234 -0.6344
 7644SOL    HW234566   0.552   3.435   7.935  0.2533 -2.1846 -2.0714
 7645SOL     OW34567   2.808   2.950   3.961  0.3732  0.4854 -0.2357
 7645SOL    HW134568   2.893   2.940   4.005 -1.4559 -3.1953  2.4473
 7645SOL    HW234569   2.834   2.998   3.882 -1.1754  1.0331 -0.4152
 7646SOL     OW34570   3.740   2.130  12.891  0.0174  0.1801 -1.3170
 7646SOL    HW134571   3.755   2.196  12.823  0.6609  0.3094 -1.0565
 7646SOL    HW234572   3.647   2.128  12.911  0.0585  1.6272 -0.9450
 7647SOL     OW34573   1.085   3.912   6.616  0.4127  0.2820  0.3930
 7647SOL    HW134574   1.086   3.994   6.665  0.1881  0.0370  0.8029
 7647SOL    HW234575   1.121   3.935   6.530  0.7979 -1.9721 -0.0627
 7648SOL     OW34576   0.864   2.254  11.816  0.0838 -0.2526 -0.3184
 7648SOL    HW134577   0.946   2.288  11.781  0.5078 -0.1921  0.7131
 7648SOL    HW234578   0.842   2.297  11.899 -1.3811 -0.2674 -0.7026
 7649SOL     OW34579   2.728   4.532  15.925  0.1617 -0.3532 -0.3666
 7649SOL    HW134580   2.760   4.467  15.862  0.4020 -0.5121 -0.0777
 7649SOL    HW234581   2.807   4.585  15.938 -1.8946  2.9452 -1.3655
 7650SOL     OW34582   0.148   4.240  12.944 -0.3629  0.1212  0.4977
 7650SOL    HW134583   0.085   4.294  12.992 -1.0216 -0.5006  0.3404
 7650SOL    HW234584   0.086   4.175  12.911 -2.4935  1.1241  2.4663
 7651SOL     OW34585   1.656   0.649   7.735 -0.5595 -0.0365  0.0821
 7651SOL    HW134586   1.747   0.659   7.708 -1.1977 -1.0796 -2.4865
 7651SOL    HW234587   1.626   0.739   7.719  1.8969  0.4313 -1.9282
 7652SOL     OW34588   3.943   1.544   2.928 -0.1971 -0.1804  0.5816
 7652SOL    HW134589   3.925   1.601   3.002 -0.2182  1.6619 -0.8549
 7652SOL    HW234590   3.898   1.463   2.952  0.7249 -0.4930  1.2514
 7653SOL     OW34591   4.287   2.456   2.086  0.3476  0.1157 -0.3133
 7653SOL    HW134592   4.341   2.477   2.162  3.6547 -2.4022 -2.0006
 7653SOL    HW234593   4.283   2.540   2.040  1.1679 -0.1502 -0.8614
 7654SOL     OW34594   3.603   1.422   2.841 -0.2652  0.0663  0.5647
 7654SOL    HW134595   3.566   1.454   2.759  2.0644  0.6549 -0.2608
 7654SOL    HW234596   3.617   1.333   2.806 -2.8454 -0.5585  1.1112
 7655SOL     OW34597   2.380   1.166  11.467  0.6848  0.2983 -0.1977
 7655SOL    HW134598   2.414   1.216  11.393 -0.4213  1.5935  0.1529
 7655SOL    HW234599   2.392   1.235  11.533  0.1201 -1.4035  1.6555
 7656SOL     OW34600   2.009   4.517   2.182 -0.0985  0.1779 -0.0138
 7656SOL    HW134601   1.949   4.591   2.186  1.6174  1.5985 -0.7525
 7656SOL    HW234602   2.021   4.493   2.090  0.2403  1.3526 -0.2754
 7657SOL     OW34603   3.972   3.950  15.578  0.2249  0.2506  0.4454
 7657SOL    HW134604   4.066   3.971  15.585 -0.3035  2.4451  0.7831
 7657SOL    HW234605   3.963   3.883  15.645  1.7617 -0.8774 -0.4667
 7658SOL     OW34606   4.491   4.295   2.452 -0.3355  0.5020 -0.2617
 7658SOL    HW134607   4.439   4.274   2.529  0.3539  0.8128  0.2917
 7658SOL    HW234608   4.427   4.349   2.406 -1.6623 -1.3295 -0.5906
 7659SOL     OW34609   2.999   3.558  12.445 -0.7260  0.1206 -0.2304
 7659SOL    HW134610   2.961   3.641  12.415  0.8768  0.2239 -1.9602
 7659SOL    HW234611   3.049   3.587  12.521  0.0099 -1.6017 -0.0763
 7660SOL     OW34612   4.057   0.825   4.132  1.0332 -0.3313  0.4446
 7660SOL    HW134613   4.145   0.840   4.099  0.1724  1.5758 -0.9888
 7660SOL    HW234614   4.070   0.760   4.201 -0.1367  0.6757  1.6023
 7661SOL     OW34615   0.510   3.667   2.440  0.0469 -0.1107  0.0985
 7661SOL    HW134616   0.431   3.713   2.412 -0.1433 -0.6148 -0.1914
 7661SOL    HW234617   0.578   3.726   2.409 -1.0293  0.6450 -0.8490
 7662SOL     OW34618   3.006   3.626   1.512  0.0192  0.2809 -0.1281
 7662SOL    HW134619   2.948   3.626   1.588 -0.7297  0.9172 -0.7041
 7662SOL    HW234620   3.047   3.706   1.543  0.8605 -0.3559  0.3962
 7663SOL     OW34621   0.425   2.741   0.930  0.1112 -0.1355  0.0699
 7663SOL    HW134622   0.491   2.791   0.978 -0.9410  1.5212 -0.2144
 7663SOL    HW234623   0.357   2.808   0.940  0.6645  0.3630  0.5244
 7664SOL     OW34624   0.127   2.293   3.962  0.4720 -0.3333  0.0504
 7664SOL    HW134625   0.049   2.293   3.907 -0.2537  0.2213  1.1101
 7664SOL    HW234626   0.197   2.311   3.899 -0.7325  3.8393 -0.0483
 7665SOL     OW34627   3.385   4.101  16.665 -0.2927 -0.5258 -0.2994
 7665SOL    HW134628   3.420   4.040  16.730  2.1396  1.9275  0.6827
 7665SOL    HW234629   3.436   4.181  16.662 -0.9620 -0.1368 -1.2684
 7666SOL     OW34630   3.437   4.191   7.613 -0.5514  0.0275 -0.3290
 7666SOL    HW134631   3.400   4.112   7.572  1.8500 -1.7496  0.9019
 7666SOL    HW234632   3.526   4.163   7.634 -0.7143  0.4060  0.8772
 7667SOL     OW34633   3.892   2.553  12.107  0.1734 -0.0762 -0.2850
 7667SOL    HW134634   3.894   2.644  12.075  0.3784 -1.1450 -3.3666
 7667SOL    HW234635   3.969   2.519  12.060  1.4416  0.2108  1.5932
 7668SOL     OW34636   3.574   1.568   4.769 -0.3763  0.1042  0.8691
 7668SOL    HW134637   3.581   1.499   4.835 -0.2061  0.8365  1.6099
 7668SOL    HW234638   3.663   1.569   4.734 -0.8361 -0.8908 -0.3883
 7669SOL     OW34639   4.650   4.468   5.813  0.4691 -0.2697 -0.0398
 7669SOL    HW134640   4.690   4.390   5.776  2.6216  1.4702 -1.3269
 7669SOL    HW234641   4.562   4.435   5.832  0.2458  1.0966  1.4106
 7670SOL     OW34642   1.713   1.307  16.369 -0.0352 -0.0913 -0.2288
 7670SOL    HW134643   1.688   1.294  16.461 -1.0329  1.1865 -0.3261
 7670SOL    HW234644   1.642   1.260  16.327 -0.9632  1.2167 -0.1256
 7671SOL     OW34645   1.674   1.756   3.510 -0.1304 -0.3413 -0.5476
 7671SOL    HW134646   1.696   1.790   3.597 -1.1034 -1.5354  0.1699
 7671SOL    HW234647   1.669   1.834   3.455  2.9866  1.6344  1.9133
 7672SOL     OW34648   1.614   0.855   1.946 -0.0129 -0.1295 -0.0031
 7672SOL    HW134649   1.640   0.767   1.922 -0.9542 -0.5497  0.5280
 7672SOL    HW234650   1.632   0.890   1.859  0.8339  1.1228  0.6807
 7673SOL     OW34651   4.458   1.197  15.266  0.4543 -0.2110 -0.3348
 7673SOL    HW134652   4.472   1.254  15.190 -0.0682  0.0696 -0.2199
 7673SOL    HW234653   4.363   1.188  15.267  0.3659  0.3127 -2.8003
 7674SOL     OW34654   1.663   2.495   0.054  0.1088  0.4345  0.3886
 7674SOL    HW134655   1.698   2.574   0.096 -1.0592  0.8573  0.5625
 7674SOL    HW234656   1.729   2.438   0.094 -0.8063 -2.0291 -1.5999
 7675SOL     OW34657   3.362   0.849  16.242 -0.0478 -0.3607 -0.5419
 7675SOL    HW134658   3.326   0.931  16.277  1.1479 -0.0761  0.0251
 7675SOL    HW234659   3.446   0.879  16.206 -0.4694  2.0241  0.4604
 7676SOL     OW34660   4.020   0.662  10.503 -0.2422  0.1422 -0.3573
 7676SOL    HW134661   3.965   0.584  10.504 -0.1539  0.0544 -2.3362
 7676SOL    HW234662   3.962   0.726  10.545  1.6960  0.6071  1.5761
 7677SOL     OW34663   2.626   4.626   6.810 -0.0588  0.3758  0.4518
 7677SOL    HW134664   2.627   4.590   6.898  1.5732  1.3287  0.8259
 7677SOL    HW234665   2.687   4.567   6.765  1.7058 -0.5394  4.0431
 7678SOL     OW34666   0.606   3.871  14.764 -0.3170 -0.3724  0.2157
 7678SOL    HW134667   0.683   3.918  14.795  1.4563 -2.9085 -0.3052
 7678SOL    HW234668   0.646   3.816  14.696  1.7779  1.1707  0.2074
 7679SOL     OW34669   0.822   0.781   9.563 -0.4947 -0.4557  0.3196
 7679SOL    HW134670   0.895   0.829   9.601 -0.2399  1.2022 -2.2171
 7679SOL    HW234671   0.830   0.698   9.609  1.1849 -0.4526  0.0102
 7680SOL     OW34672   4.158   1.757   1.699  0.2031 -0.0094 -0.6402
 7680SOL    HW134673   4.187   1.820   1.765 -1.1454  0.9369 -0.9576
 7680SOL    HW234674   4.147   1.673   1.744  1.7561  0.5424  0.7433
 7681SOL     OW34675   3.759   0.554   4.182 -0.5478 -0.0071  0.1277
 7681SOL    HW134676   3.843   0.534   4.141 -0.9912 -0.8975 -0.3208
 7681SOL    HW234677   3.758   0.482   4.245 -2.6128  0.4787  0.6806
 7682SOL     OW34678   2.467   0.806  13.179 -0.0032 -0.0436 -0.3224
 7682SOL    HW134679   2.540   0.829  13.237  0.5965 -1.4803 -0.5099
 7682SOL    HW234680   2.500   0.789  13.091  1.4455 -2.0695  0.6150
 7683SOL     OW34681   2.780   0.188   6.384 -0.0003 -0.6736  0.3848
 7683SOL    HW134682   2.739   0.174   6.299 -0.7914  1.3881  0.4244
 7683SOL    HW234683   2.820   0.273   6.363  1.0368 -1.5773 -1.3151
 7684SOL     OW34684   0.149   3.905   3.300 -0.3340  0.2394  0.5862
 7684SOL    HW134685   0.084   3.973   3.318 -1.3610 -0.9521  1.4135
 7684SOL    HW234686   0.090   3.849   3.250  2.0752 -1.0829 -0.7294
 7685SOL     OW34687   4.103   2.600   0.853 -0.6989 -0.3849  0.3716
 7685SOL    HW134688   4.186   2.587   0.898  0.3948  4.3034 -0.3051
 7685SOL    HW234689   4.098   2.695   0.841  1.3030 -0.3671 -0.3504
 7686SOL     OW34690   3.097   3.650   5.871  0.2831  0.4832 -0.2140
 7686SOL    HW134691   3.106   3.690   5.784  0.1423  2.2933  0.6102
 7686SOL    HW234692   3.185   3.613   5.876 -0.5923 -1.5562  0.1859
 7687SOL     OW34693   3.684   2.296   3.681  0.2993 -0.0181 -0.3810
 7687SOL    HW134694   3.681   2.386   3.648 -0.5754  0.1919  0.2380
 7687SOL    HW234695   3.637   2.240   3.619  0.1638  0.1559 -0.4349
 7688SOL     OW34696   0.597   0.230   2.448  0.6126 -0.2294  0.3497
 7688SOL    HW134697   0.559   0.298   2.505  1.7820  1.4773 -0.9013
 7688SOL    HW234698   0.632   0.174   2.517  0.1321 -0.1675  0.6484
 7689SOL     OW34699   3.036   4.479   6.886 -0.0209  0.3775 -0.5916
 7689SOL    HW134700   3.014   4.394   6.925 -1.0023  1.2161  0.6689
 7689SOL    HW234701   2.952   4.522   6.903 -0.9866 -1.4901 -0.6632
 7690SOL     OW34702   0.464   2.265   9.486 -0.0610 -0.0896  0.5281
 7690SOL    HW134703   0.505   2.181   9.503 -0.2113  0.1681  2.1819
 7690SOL    HW234704   0.454   2.306   9.572 -1.0534  1.3297 -0.2572
 7691SOL     OW34705   2.600   3.941   4.898  0.0487 -0.8952 -0.5636
 7691SOL    HW134706   2.570   4.007   4.835 -1.7464 -0.9580  0.2291
 7691SOL    HW234707   2.696   3.951   4.897  0.0590 -1.0709 -1.3091
 7692SOL     OW34708   0.897   2.092   8.405  0.2246  0.0239  0.5499
 7692SOL    HW134709   0.845   2.017   8.378 -1.3066  0.6914  1.6895
 7692SOL    HW234710   0.966   2.043   8.450 -0.0111  0.2245  1.1250
 7693SOL     OW34711   1.953   0.312   1.508  0.3325 -0.1354 -0.1627
 7693SOL    HW134712   1.969   0.366   1.586  0.4702 -0.3266 -0.0600
 7693SOL    HW234713   1.861   0.291   1.521  0.3759  0.4768  1.1263
 7694SOL     OW34714   4.643   3.039  11.718 -0.3563  0.6811 -0.5549
 7694SOL    HW134715   4.559   3.029  11.672 -0.6475  1.9617 -0.3158
 7694SOL    HW234716   4.616   3.087  11.796 -0.1539 -2.1683  1.2553
 7695SOL     OW34717   4.655   4.082   9.487 -0.1436  0.0006 -0.1821
 7695SOL    HW134718   4.679   4.170   9.515  1.8369 -1.1573  1.7256
 7695SOL    HW234719   4.590   4.052   9.551 -0.1495  2.2987  0.8613
 7696SOL     OW34720   4.411   2.372  10.902 -0.1677 -0.2728 -0.4606
 7696SOL    HW134721   4.495   2.382  10.948 -0.5687 -2.4381  0.7400
 7696SOL    HW234722   4.361   2.446  10.937 -1.4241 -0.2063 -2.3994
 7697SOL     OW34723   0.541   1.550   2.327 -0.0819 -0.2680 -0.0371
 7697SOL    HW134724   0.552   1.637   2.287  1.8595 -0.4439  0.1136
 7697SOL    HW234725   0.558   1.567   2.420  0.2721 -1.0560  0.0427
 7698SOL     OW34726   4.311   0.469   2.572 -0.3788  0.3160  0.1287
 7698SOL    HW134727   4.327   0.398   2.510  0.8330  1.9975 -1.5038
 7698SOL    HW234728   4.402   0.481   2.602 -0.6190  0.0494  0.9540
 7699SOL     OW34729   1.791   3.810   4.245  0.4679 -0.3247  0.1372
 7699SOL    HW134730   1.852   3.744   4.278  0.2848 -0.3626  0.4073
 7699SOL    HW234731   1.802   3.816   4.150 -1.2268 -0.3558 -0.0583
 7700SOL     OW34732   0.048   0.786   8.473  0.6168  0.4889 -0.1319
 7700SOL    HW134733   0.080   0.874   8.492 -0.4509  0.8836 -0.1679
 7700SOL    HW234734   0.055   0.743   8.559  0.4018 -1.2829 -1.0058
 7701SOL     OW34735   2.873   3.910   5.281 -0.5930  0.1748  0.2657
 7701SOL    HW134736   2.813   3.964   5.229 -0.1741  0.1594 -0.2334
 7701SOL    HW234737   2.905   3.977   5.341  1.7219 -1.6222  1.0609
 7702SOL     OW34738   1.092   1.691  10.269  0.0422  0.2186 -0.0412
 7702SOL    HW134739   1.165   1.750  10.253  1.0580 -1.2707 -0.8879
 7702SOL    HW234740   1.023   1.748  10.236 -0.9119 -0.7112  0.3286
 7703SOL     OW34741   3.984   1.109   7.574 -0.1123 -0.7154 -0.2064
 7703SOL    HW134742   4.024   1.192   7.600 -0.6568 -0.0688 -1.4529
 7703SOL    HW234743   4.057   1.057   7.540 -1.1502 -0.6912 -2.4407
 7704SOL     OW34744   2.998   4.711   4.047  0.1023  0.2229  0.7257
 7704SOL    HW134745   2.999   4.622   4.082  0.5963 -0.1334 -0.1772
 7704SOL    HW234746   3.068   4.690   3.985  0.0514  1.6071  0.1940
 7705SOL     OW34747   1.983   0.206  17.146  0.4751 -0.2668  0.9247
 7705SOL    HW134748   2.036   0.162  17.212  1.9546  1.2782  0.7748
 7705SOL    HW234749   1.982   0.295  17.183 -0.1816  0.9140 -1.9249
 7706SOL     OW34750   3.499   2.527   6.352 -0.0911 -0.2762  0.2499
 7706SOL    HW134751   3.485   2.517   6.446  0.5610  0.4734  0.4288
 7706SOL    HW234752   3.593   2.513   6.342  0.0592  1.2656 -0.5503
 7707SOL     OW34753   3.104   2.467  16.967 -1.2275  0.0438 -0.1252
 7707SOL    HW134754   3.099   2.474  16.872 -0.1203  3.5053  0.0739
 7707SOL    HW234755   3.034   2.403  16.982  0.1982 -1.4436  0.1989
 7708SOL     OW34756   3.716   3.599   0.146 -0.5888 -0.2118  0.3499
 7708SOL    HW134757   3.621   3.594   0.139 -0.3981  2.0167 -4.0770
 7708SOL    HW234758   3.747   3.630   0.060  0.7751 -0.0523  0.8941
 7709SOL     OW34759   1.896   1.994   2.469  0.5356 -0.3903  0.3421
 7709SOL    HW134760   1.976   2.047   2.465 -0.4798  0.9907 -1.4893
 7709SOL    HW234761   1.932   1.913   2.507 -0.2819 -0.8612  0.1216
 7710SOL     OW34762   2.743   3.996   3.523  0.0324 -0.4407  0.6733
 7710SOL    HW134763   2.834   3.986   3.499 -0.4856 -1.2345 -0.9346
 7710SOL    HW234764   2.728   3.928   3.589 -2.7903 -1.6822 -1.2417
 7711SOL     OW34765   3.332   3.885   3.243 -0.8389  0.4504 -0.3490
 7711SOL    HW134766   3.255   3.829   3.251 -0.2332 -0.1720  1.1158
 7711SOL    HW234767   3.328   3.930   3.327  2.0253 -0.1078  0.0934
 7712SOL     OW34768   0.207   0.288  13.777 -0.6000  0.7130 -0.1717
 7712SOL    HW134769   0.281   0.253  13.727 -0.5713  1.8297 -0.9195
 7712SOL    HW234770   0.230   0.251  13.862 -2.4164  1.7684  0.7699
 7713SOL     OW34771   3.152   2.657   2.007  0.4602  0.6439  0.3510
 7713SOL    HW134772   3.077   2.699   2.049  0.1968  0.0525  0.4745
 7713SOL    HW234773   3.160   2.575   2.054 -0.0380  1.5545  1.9979
 7714SOL     OW34774   0.025   3.916  13.124  0.6528 -0.4456  0.0985
 7714SOL    HW134775   0.030   3.960  13.039 -0.6680  1.0467  0.7805
 7714SOL    HW234776   0.075   3.981  13.173 -0.8480 -0.3183  1.4461
 7715SOL     OW34777   2.856   0.263   4.097  0.4525 -0.5275  0.2904
 7715SOL    HW134778   2.865   0.250   4.002  0.7451  0.5394  0.1668
 7715SOL    HW234779   2.765   0.284   4.114  0.6518  0.0089  0.6880
 7716SOL     OW34780   1.579   1.101   4.823 -0.1236 -0.4690 -0.2310
 7716SOL    HW134781   1.640   1.145   4.765  1.4664 -0.8859  1.1285
 7716SOL    HW234782   1.620   1.020   4.852  3.2849  0.4678 -2.5650
 7717SOL     OW34783   3.311   3.318   5.634  0.5339 -0.1521  0.0551
 7717SOL    HW134784   3.281   3.324   5.724 -1.9666  1.1113 -0.8679
 7717SOL    HW234785   3.383   3.381   5.640 -1.1248  1.5822  1.5352
 7718SOL     OW34786   3.998   0.324   7.000  0.3110  0.6734  0.2330
 7718SOL    HW134787   3.946   0.256   6.957  1.2920 -0.0423  0.1986
 7718SOL    HW234788   4.087   0.291   6.986  0.4452  1.3825 -0.6120
 7719SOL     OW34789   0.562   1.917   7.503 -0.5591 -0.6161 -0.6532
 7719SOL    HW134790   0.640   1.879   7.463 -0.8780 -0.6595 -1.2293
 7719SOL    HW234791   0.533   1.848   7.562 -2.5047  1.1321  0.4296
 7720SOL     OW34792   1.346   3.948   7.142  0.1083 -0.5364 -0.6441
 7720SOL    HW134793   1.419   4.008   7.124 -0.0758 -0.4990 -1.2682
 7720SOL    HW234794   1.319   3.971   7.231  2.2386 -2.1845  0.4198
 7721SOL     OW34795   0.021   1.983   7.795 -0.0449  0.8822  0.3104
 7721SOL    HW134796   4.707   2.060   7.771  1.0659  1.0709 -1.5229
 7721SOL    HW234797   0.031   1.992   7.890  1.3093 -2.9447  0.5277
 7722SOL     OW34798   3.501   2.469   0.712 -0.3215  0.0254  0.0316
 7722SOL    HW134799   3.444   2.392   0.708 -0.1869 -0.0537 -0.4049
 7722SOL    HW234800   3.554   2.445   0.789  0.4338  1.6095  0.0014
 7723SOL     OW34801   0.750   0.198   4.177  0.1347 -0.2500 -0.6842
 7723SOL    HW134802   0.690   0.124   4.168 -0.0908 -0.0692 -0.6620
 7723SOL    HW234803   0.771   0.190   4.270  0.4141  2.9616 -0.4681
 7724SOL     OW34804   4.547   2.400   5.260 -0.1222  0.5371  0.0827
 7724SOL    HW134805   4.605   2.409   5.184  0.8317  0.3364  0.7989
 7724SOL    HW234806   4.536   2.493   5.281  0.9078  0.7726 -0.4102
 7725SOL     OW34807   3.654   3.420   7.739  0.9378 -0.1931 -0.4715
 7725SOL    HW134808   3.703   3.384   7.812  0.3466 -2.2366 -1.0823
 7725SOL    HW234809   3.581   3.359   7.733  1.2321 -0.7356  1.6044
 7726SOL     OW34810   1.180   0.376   6.621  0.1103  0.2559  0.2412
 7726SOL    HW134811   1.143   0.288   6.618 -0.2524  0.3912  0.7375
 7726SOL    HW234812   1.116   0.424   6.567 -2.0027 -0.6463  1.9307
 7727SOL     OW34813   0.224   3.232   8.593 -0.2683  0.1515 -0.0298
 7727SOL    HW134814   0.220   3.259   8.685 -2.4523 -0.2099 -0.0067
 7727SOL    HW234815   0.200   3.139   8.600  3.2902 -0.7569 -0.2186
 7728SOL     OW34816   4.241   3.946   4.954  0.2382 -0.5517 -0.3623
 7728SOL    HW134817   4.240   3.974   5.046  1.3352 -2.1418  0.1196
 7728SOL    HW234818   4.245   4.030   4.908 -0.3604 -1.8066 -2.6535
 7729SOL     OW34819   1.981   1.642   1.375  0.6176  0.0410 -0.0522
 7729SOL    HW134820   1.892   1.677   1.378  0.3979 -0.6805  1.8165
 7729SOL    HW234821   2.005   1.641   1.467  0.8278 -0.3454 -0.1101
 7730SOL     OW34822   3.297   4.384   4.228 -0.7694 -0.2005  0.0431
 7730SOL    HW134823   3.277   4.290   4.238  2.9432 -1.0607 -0.6908
 7730SOL    HW234824   3.272   4.414   4.316 -2.2260 -2.6991  0.5116
 7731SOL     OW34825   4.181   1.816   2.937 -0.0440 -0.2813  0.0992
 7731SOL    HW134826   4.109   1.774   2.984  1.3316 -2.2727  0.4321
 7731SOL    HW234827   4.169   1.764   2.858  0.4703  0.2654 -0.3335
 7732SOL     OW34828   1.913   4.168   3.016 -0.2696 -0.3653 -0.0135
 7732SOL    HW134829   1.854   4.240   3.037  2.5653  1.5061  1.5439
 7732SOL    HW234830   1.896   4.169   2.922  3.0445  1.1352 -0.5961
 7733SOL     OW34831   0.617   4.265   7.377 -0.4243  0.3330  0.0578
 7733SOL    HW134832   0.558   4.235   7.446  0.6923 -2.9838 -0.4070
 7733SOL    HW234833   0.605   4.360   7.374 -2.7250 -0.0609 -3.0892
 7734SOL     OW34834   1.468   0.555   2.754  0.0819  0.4325  0.4424
 7734SOL    HW134835   1.475   0.465   2.722  2.6395  0.6598  0.3746
 7734SOL    HW234836   1.514   0.598   2.682  0.8487  1.7457  1.7281
 7735SOL     OW34837   4.157   2.979   3.382  0.4598  0.1959  0.2672
 7735SOL    HW134838   4.213   3.008   3.310  1.2885 -0.4670  0.6451
 7735SOL    HW234839   4.229   2.936   3.427 -0.2441 -1.1126  0.1569
 7736SOL     OW34840   4.373   0.551   5.459 -0.3288  0.2547 -0.0539
 7736SOL    HW134841   4.439   0.493   5.421  0.8180  1.3984  0.1653
 7736SOL    HW234842   4.379   0.620   5.392 -1.3121 -1.6376 -2.0862
 7737SOL     OW34843   2.368   4.343   7.805  0.6158 -0.3012  0.4152
 7737SOL    HW134844   2.294   4.403   7.795  0.3212 -0.2240  2.9565
 7737SOL    HW234845   2.401   4.336   7.716 -1.3407  0.2841 -0.3567
 7738SOL     OW34846   0.204   2.951  16.249  0.1884 -0.3057 -0.0337
 7738SOL    HW134847   0.205   2.969  16.343 -2.4165  0.3839 -0.1469
 7738SOL    HW234848   0.299   2.942  16.237  0.3424  1.0905  0.0950
 7739SOL     OW34849   0.552   2.141  13.477 -0.0475 -0.9200 -0.2360
 7739SOL    HW134850   0.544   2.202  13.550 -0.1953 -1.6484  0.3597
 7739SOL    HW234851   0.465   2.148  13.436  0.2760  0.1286 -0.7383
 7740SOL     OW34852   0.505   3.702   0.799 -0.0356  0.0492  0.2120
 7740SOL    HW134853   0.547   3.626   0.758 -0.5092  0.0226 -0.2221
 7740SOL    HW234854   0.572   3.770   0.792  0.9786 -1.0156 -0.5390
 7741SOL     OW34855   1.871   2.188   9.035  0.2752  0.4001 -0.1437
 7741SOL    HW134856   1.801   2.165   9.096  1.4007  1.8506  1.6880
 7741SOL    HW234857   1.938   2.121   9.048  0.6616  0.5588 -1.3322
 7742SOL     OW34858   2.138   2.822  11.351  0.1987  0.0972  0.0978
 7742SOL    HW134859   2.082   2.748  11.374  0.0791 -0.2776 -1.4113
 7742SOL    HW234860   2.218   2.774  11.331  2.0762  2.6713  1.3725
 7743SOL     OW34861   2.023   2.101  17.563  0.2577  0.0211 -0.1596
 7743SOL    HW134862   2.042   2.032  17.626 -3.4746 -1.8874 -1.1253
 7743SOL    HW234863   2.080   2.075  17.491  0.7069  0.2247  0.1267
 7744SOL     OW34864   1.443   2.740   4.795  0.5636  0.6411  0.5500
 7744SOL    HW134865   1.359   2.700   4.813  0.3364  0.5020 -0.8050
 7744SOL    HW234866   1.448   2.827   4.834 -0.8434  0.8283  0.2889
 7745SOL     OW34867   0.823   0.196   6.725  0.7204 -0.7219 -0.1518
 7745SOL    HW134868   0.808   0.253   6.650 -0.3630  1.4106  1.6809
 7745SOL    HW234869   0.747   0.139   6.714  0.2918  0.0427 -1.0933
 7746SOL     OW34870   2.826   4.722   4.379 -0.4314  0.1010  0.0428
 7746SOL    HW134871   2.872   4.640   4.393  1.7003  1.1483 -0.7299
 7746SOL    HW234872   2.826   4.730   4.284 -0.3409  0.1398  0.0450
 7747SOL     OW34873   1.293   3.117   6.534 -0.3348  0.0430 -0.3697
 7747SOL    HW134874   1.259   3.132   6.623  1.4185 -0.2669  0.3537
 7747SOL    HW234875   1.235   3.051   6.497  0.7646 -1.3383  0.3726
 7748SOL     OW34876   3.628   3.076  15.580 -0.6727 -1.0406 -0.1103
 7748SOL    HW134877   3.665   3.038  15.500  0.2833  0.2465 -0.2823
 7748SOL    HW234878   3.706   3.091  15.634 -1.9656 -1.0702  1.7553
 7749SOL     OW34879   2.184   2.788   0.709  0.0791 -0.0466  0.1356
 7749SOL    HW134880   2.181   2.884   0.703  0.8121  0.1445  3.1735
 7749SOL    HW234881   2.091   2.770   0.698  0.0911 -0.1806  0.2615
 7750SOL     OW34882   1.170   3.190   8.461 -0.1809  0.0884 -0.0433
 7750SOL    HW134883   1.191   3.112   8.513 -0.5958  0.3389  0.5063
 7750SOL    HW234884   1.118   3.159   8.386 -0.9009 -1.2308  1.0015
 7751SOL     OW34885   1.150   1.841   7.320  0.2708 -0.4175 -0.0653
 7751SOL    HW134886   1.136   1.844   7.415  0.4441 -1.7911 -0.0001
 7751SOL    HW234887   1.098   1.917   7.296 -0.5052 -0.5965  1.0412
 7752SOL     OW34888   4.212   0.434   3.332 -0.1246  0.4536 -0.5897
 7752SOL    HW134889   4.197   0.344   3.302  1.4001  0.3948 -1.1897
 7752SOL    HW234890   4.222   0.466   3.242 -2.7750 -1.5854 -1.6125
 7753SOL     OW34891   2.877   4.551   5.046  0.0492 -0.0563 -0.3037
 7753SOL    HW134892   2.865   4.568   4.953 -1.2534  0.0284 -0.1297
 7753SOL    HW234893   2.907   4.637   5.077  3.8643 -0.8255 -1.8784
 7754SOL     OW34894   2.519   0.136   8.628  0.5738 -0.0599 -0.5306
 7754SOL    HW134895   2.602   0.140   8.581  1.1079  0.3342  0.4464
 7754SOL    HW234896   2.457   0.120   8.557 -0.3286 -0.8717  0.4363
 7755SOL     OW34897   2.027   3.131   6.341 -0.2672 -0.2690 -0.7826
 7755SOL    HW134898   2.080   3.162   6.268  0.9238  1.4569  0.8369
 7755SOL    HW234899   1.945   3.180   6.333 -1.3941 -1.8886  0.7708
 7756SOL     OW34900   0.484   2.100   2.812 -0.2949 -0.3298 -0.0961
 7756SOL    HW134901   0.404   2.061   2.778  0.0344 -0.8574 -0.2712
 7756SOL    HW234902   0.514   2.153   2.738 -0.1691 -0.8580 -0.4242
 7757SOL     OW34903   0.188   1.724   3.430  0.2954  0.5059  0.0757
 7757SOL    HW134904   0.215   1.641   3.471  0.5301  0.7368  0.3886
 7757SOL    HW234905   0.093   1.723   3.439  0.1637 -0.3372 -1.3085
 7758SOL     OW34906   2.381   2.811   5.558 -1.0077  0.0594  0.1463
 7758SOL    HW134907   2.369   2.906   5.550 -2.5673 -0.2012 -0.6097
 7758SOL    HW234908   2.356   2.797   5.650 -1.9322  1.6321  0.1487
 7759SOL     OW34909   1.380   2.507   3.464 -0.6267  0.2676 -0.0412
 7759SOL    HW134910   1.451   2.536   3.406  0.1932 -0.8900  0.3807
 7759SOL    HW234911   1.308   2.563   3.435 -0.1213 -0.7861 -3.3253
 7760SOL     OW34912   4.475   2.804   6.160 -0.0675 -0.4542  0.5977
 7760SOL    HW134913   4.473   2.855   6.079  2.3074  0.4371  1.1154
 7760SOL    HW234914   4.570   2.796   6.166 -0.1108 -1.4735 -0.0726
 7761SOL     OW34915   1.335   3.170   8.887 -0.4558 -0.2104  0.1988
 7761SOL    HW134916   1.422   3.181   8.925 -0.9020  0.8544  0.8821
 7761SOL    HW234917   1.328   3.238   8.820  0.0370 -0.8652 -0.5150
 7762SOL     OW34918   4.285   1.251   4.318  0.1305 -0.2784  0.0300
 7762SOL    HW134919   4.323   1.241   4.231  0.1044  0.1849 -0.0321
 7762SOL    HW234920   4.316   1.176   4.369 -2.9318 -1.4527  0.1662
 7763SOL     OW34921   4.620   1.252   7.678 -0.0698  0.0937  0.7362
 7763SOL    HW134922   4.575   1.323   7.634  1.2367 -0.1349 -0.9554
 7763SOL    HW234923   4.710   1.274   7.653 -0.3513 -0.1911 -0.4805
 7764SOL     OW34924   0.315   0.709   5.953  0.1810  0.1220 -0.0949
 7764SOL    HW134925   0.234   0.730   6.000 -0.6386 -3.0729 -0.0790
 7764SOL    HW234926   0.337   0.782   5.896 -0.0307  0.7302  0.6002
 7765SOL     OW34927   4.521   1.448   4.549 -0.0572 -0.1073  0.3148
 7765SOL    HW134928   4.565   1.388   4.490  1.1181  1.2903 -0.2364
 7765SOL    HW234929   4.540   1.528   4.501  2.9368 -0.9013  0.1462
 7766SOL     OW34930   2.956   4.660   9.064 -0.1263 -0.4716  0.2629
 7766SOL    HW134931   2.937   4.591   9.000 -2.2219  2.6913 -2.5308
 7766SOL    HW234932   3.021   4.705   9.011 -2.4622  0.3940 -1.8511
 7767SOL     OW34933   1.532   1.615   6.063 -0.0050 -0.5738  0.1789
 7767SOL    HW134934   1.607   1.595   6.007 -0.6557 -1.2828 -0.4346
 7767SOL    HW234935   1.549   1.682   6.129 -2.7848  0.6858 -0.3684
 7768SOL     OW34936   0.922   0.770   2.532 -0.9297  0.1087 -0.1194
 7768SOL    HW134937   0.934   0.855   2.489 -0.4364  0.4073  0.6153
 7768SOL    HW234938   0.897   0.716   2.457  2.1063 -1.1602 -0.1915
 7769SOL     OW34939   0.186   2.362  16.934 -0.8006 -0.3874  0.1414
 7769SOL    HW134940   0.170   2.444  16.886  3.0149  0.0569 -0.3811
 7769SOL    HW234941   0.195   2.401  17.021 -0.8638 -0.0422 -0.0061
 7770SOL     OW34942   2.810   0.656  13.349  0.4125  0.7019 -0.1663
 7770SOL    HW134943   2.741   0.699  13.400 -0.6714 -0.0117 -1.0409
 7770SOL    HW234944   2.862   0.727  13.311 -0.0641  1.0331 -0.2005
 7771SOL     OW34945   2.254   1.962   5.058 -0.1510 -0.2018 -0.3711
 7771SOL    HW134946   2.317   1.952   5.130  0.0977  0.0248 -0.5550
 7771SOL    HW234947   2.167   1.947   5.096  0.2347 -1.1451  0.1403
 7772SOL     OW34948   1.046   4.689   3.856  0.0360 -0.3831 -0.4452
 7772SOL    HW134949   1.036   4.668   3.763 -2.8028  0.3620 -0.3108
 7772SOL    HW234950   0.982   4.630   3.895 -0.6517  0.3966 -0.3763
 7773SOL     OW34951   2.121   1.256   8.666  0.1740  0.3242 -0.4664
 7773SOL    HW134952   2.045   1.304   8.699 -0.3804 -1.8483  1.3715
 7773SOL    HW234953   2.181   1.323   8.698 -0.7296  0.6593  0.5317
 7774SOL     OW34954   4.422   2.628   8.057  0.0608  0.3736  0.5687
 7774SOL    HW134955   4.509   2.638   8.019 -0.3172  1.8869  0.1047
 7774SOL    HW234956   4.422   2.703   8.115  0.6129  0.9369 -0.1641
 7775SOL     OW34957   3.219   2.610   2.952  0.6927  0.2262  0.2002
 7775SOL    HW134958   3.291   2.667   2.929  2.4660 -1.4209  1.6057
 7775SOL    HW234959   3.238   2.534   2.897  0.3486 -0.2675  0.7478
 7776SOL     OW34960   1.431   4.527   2.482  0.0510 -0.4888  0.2997
 7776SOL    HW134961   1.351   4.525   2.428  1.3765  0.5375 -1.7041
 7776SOL    HW234962   1.428   4.616   2.515 -2.3015 -0.4578 -0.0108
 7777SOL     OW34963   3.895   0.223  14.759  0.1566 -0.2087 -0.4427
 7777SOL    HW134964   3.882   0.134  14.728  0.0783  0.3364 -1.9534
 7777SOL    HW234965   3.903   0.266  14.674 -0.4409  0.0611 -0.3611
 7778SOL     OW34966   4.706   2.763  14.826 -0.7309 -0.5536 -0.5711
 7778SOL    HW134967   0.044   2.767  14.769 -0.6639 -0.2360 -0.4618
 7778SOL    HW234968   4.657   2.705  14.768  1.0912 -0.8924 -1.7516
 7779SOL     OW34969   0.558   3.064  11.947 -0.6262 -0.4621  1.2426
 7779SOL    HW134970   0.626   3.035  11.886 -1.0399 -3.3931  2.1644
 7779SOL    HW234971   0.553   3.002  12.019  0.2441 -0.5820  1.1923
 7780SOL     OW34972   0.690   2.309  17.180 -0.0980  0.2215 -0.2374
 7780SOL    HW134973   0.771   2.358  17.187  1.1159 -1.5015 -2.0864
 7780SOL    HW234974   0.676   2.313  17.085  1.4224  2.8265 -0.3439
 7781SOL     OW34975   2.336   3.974  16.530 -0.4422 -0.1795  0.0089
 7781SOL    HW134976   2.350   4.050  16.587 -0.0056  0.8891 -1.4975
 7781SOL    HW234977   2.265   4.012  16.478  1.3240  1.0205 -1.5750
 7782SOL     OW34978   3.904   3.023   1.605  0.0565  0.1096 -0.5031
 7782SOL    HW134979   3.935   3.111   1.626  0.7800 -0.4572  0.7683
 7782SOL    HW234980   3.937   2.971   1.678 -1.0956  0.8217  0.5307
 7783SOL     OW34981   2.861   3.537   1.724  0.2688  0.6402  0.0858
 7783SOL    HW134982   2.885   3.445   1.735  0.1151  0.7816  1.5970
 7783SOL    HW234983   2.767   3.528   1.704  0.0651  2.2078  0.3323
 7784SOL     OW34984   2.300   1.918   9.809  0.1593 -0.1421 -0.1371
 7784SOL    HW134985   2.293   1.845   9.748  0.6275 -1.3304  1.2213
 7784SOL    HW234986   2.309   1.869   9.891  1.3460  0.7907  0.2938
 7785SOL     OW34987   3.556   2.917  17.484  0.3120 -0.2185 -0.2305
 7785SOL    HW134988   3.565   2.859  17.408  0.1072  0.5497 -0.8373
 7785SOL    HW234989   3.551   2.997  17.432 -2.8077 -1.7692 -2.3870
 7786SOL     OW34990   1.580   3.308   8.471 -0.3579  0.1287  0.0648
 7786SOL    HW134991   1.516   3.344   8.533 -1.0667  0.0279 -0.6138
 7786SOL    HW234992   1.633   3.260   8.535 -0.9458  1.1656  1.3544
 7787SOL     OW34993   1.310   1.030   9.150 -0.1424 -0.1207 -0.2723
 7787SOL    HW134994   1.314   0.940   9.120 -0.7744 -0.3669  0.3982
 7787SOL    HW234995   1.225   1.032   9.193 -0.2149  0.2538 -0.4314
 7788SOL     OW34996   1.167   3.750   2.693 -0.1174  0.0924 -0.0590
 7788SOL    HW134997   1.150   3.669   2.646  1.4583 -0.3830  0.1875
 7788SOL    HW234998   1.125   3.817   2.639 -0.6363 -0.3676 -0.2210
 7789SOL     OW34999   0.308   2.867  12.071  0.1734 -0.0115 -0.5167
 7789SOL    HW135000   0.363   2.797  12.036 -0.7802 -0.0486 -1.9551
 7789SOL    HW235001   0.365   2.921  12.126 -2.0088 -0.0186  1.7114
 7790SOL     OW35002   2.322   4.710  12.649 -0.1152 -0.0676  0.0339
 7790SOL    HW135003   2.252   4.652  12.619  0.4818 -0.7273 -0.0552
 7790SOL    HW235004   2.270   0.027  12.708 -0.8471 -3.0639  2.2340
 7791SOL     OW35005   3.267   1.564  15.844  0.3076 -0.2330 -0.3055
 7791SOL    HW135006   3.190   1.565  15.787  2.0258  3.2996 -2.5711
 7791SOL    HW235007   3.331   1.629  15.815  0.5262  0.2870  1.3522
 7792SOL     OW35008   2.923   2.437  15.492 -0.5040 -0.1282  0.6835
 7792SOL    HW135009   2.942   2.528  15.517  1.8555  0.0835 -1.8687
 7792SOL    HW235010   2.852   2.457  15.431 -0.7098 -1.2892  0.5546
 7793SOL     OW35011   1.985   2.706   6.613  0.5112  0.3158 -0.3652
 7793SOL    HW135012   1.919   2.734   6.549 -1.1096  0.4818  1.3730
 7793SOL    HW235013   1.928   2.694   6.689  1.4068 -1.7897 -0.0300
 7794SOL     OW35014   1.112   4.066  10.409 -0.1025  0.2474 -0.0895
 7794SOL    HW135015   1.136   4.154  10.436 -1.2236  0.1846  1.1250
 7794SOL    HW235016   1.042   4.049  10.472 -0.3615 -0.8756 -0.6677
 7795SOL     OW35017   4.370   2.773  12.990 -0.6015 -0.0176 -0.4660
 7795SOL    HW135018   4.321   2.789  12.909 -2.3440 -0.5581  0.4694
 7795SOL    HW235019   4.463   2.774  12.967  0.3187 -1.4860  3.2070
 7796SOL     OW35020   3.143   1.991  12.047 -0.0617 -0.1364 -0.4009
 7796SOL    HW135021   3.131   1.912  11.995 -2.2497 -0.0300 -0.0903
 7796SOL    HW235022   3.232   1.975  12.080 -1.4772  0.3243  3.7234
 7797SOL     OW35023   0.366   0.449  10.040 -0.4636  0.7013 -0.1684
 7797SOL    HW135024   0.355   0.370  10.092 -0.3905  0.2324 -0.8560
 7797SOL    HW235025   0.460   0.462  10.031 -0.1976 -2.2174 -1.4713
 7798SOL     OW35026   3.615   0.520  15.550 -0.1420  0.0910  0.3032
 7798SOL    HW135027   3.595   0.472  15.469  0.8024  0.6782 -0.2703
 7798SOL    HW235028   3.687   0.468  15.584  0.2429  0.2163 -0.3102
 7799SOL     OW35029   3.605   0.451   9.019  0.2503 -0.2322 -0.1260
 7799SOL    HW135030   3.691   0.492   9.027  0.8916 -2.0754  2.3945
 7799SOL    HW235031   3.540   0.520   9.026 -0.6353 -0.8713 -2.0926
 7800SOL     OW35032   0.651   1.356   1.677  0.3505  0.2128  0.7608
 7800SOL    HW135033   0.584   1.339   1.743  1.8174 -2.0991  1.6659
 7800SOL    HW235034   0.616   1.441   1.650  0.5524  0.4030  1.0991
 7801SOL     OW35035   3.730   3.843   7.518  0.5109 -0.0960 -0.4543
 7801SOL    HW135036   3.808   3.866   7.467 -0.4171  2.6237 -0.6623
 7801SOL    HW235037   3.759   3.780   7.584  0.3190  1.2730  0.9202
 7802SOL     OW35038   3.209   4.066   1.273 -0.2061 -0.2142 -0.2473
 7802SOL    HW135039   3.131   4.051   1.218  1.4626  0.0278 -2.7019
 7802SOL    HW235040   3.244   3.977   1.265  0.4955  0.2707 -2.6727
 7803SOL     OW35041   3.573   0.655   5.163  0.4726 -0.7323 -0.5384
 7803SOL    HW135042   3.652   0.678   5.114  1.0583  0.5179  0.9894
 7803SOL    HW235043   3.617   0.673   5.246  0.0453 -0.8169 -0.2995
 7804SOL     OW35044   1.157   2.760   7.127 -0.0953 -0.0436 -0.4655
 7804SOL    HW135045   1.233   2.807   7.160  0.0562 -0.6843  0.1024
 7804SOL    HW235046   1.166   2.674   7.168  2.0934 -0.0625 -0.9959
 7805SOL     OW35047   1.511   0.268  15.596  0.1500 -0.3776 -0.3499
 7805SOL    HW135048   1.491   0.301  15.683 -1.1819 -2.2585  0.0446
 7805SOL    HW235049   1.441   0.309  15.545  0.1415  0.2935  0.2099
 7806SOL     OW35050   0.878   3.697   1.393 -0.2547  0.2150 -0.0120
 7806SOL    HW135051   0.962   3.668   1.357  0.6626 -0.0423  2.3130
 7806SOL    HW235052   0.872   3.767   1.328 -0.8042 -0.8094 -1.0742
 7807SOL     OW35053   1.570   2.262   5.920 -0.2615  0.6505  0.0907
 7807SOL    HW135054   1.522   2.231   5.844 -0.2268  1.1062 -0.1203
 7807SOL    HW235055   1.499   2.296   5.974 -0.8483 -1.4967  0.6579
 7808SOL     OW35056   0.637   3.408   5.758  0.0807  0.5156 -0.3800
 7808SOL    HW135057   0.664   3.433   5.846 -2.1473 -1.6507  0.9303
 7808SOL    HW235058   0.605   3.318   5.758 -1.3425  1.0095 -0.8317
 7809SOL     OW35059   3.122   0.248   7.175 -0.0185  0.3971  0.0393
 7809SOL    HW135060   3.176   0.296   7.112 -0.0317 -0.0478 -0.3096
 7809SOL    HW235061   3.160   0.161   7.162  0.6655  0.5027  1.2269
 7810SOL     OW35062   2.732   4.324   6.460 -0.0675 -0.4038  0.4068
 7810SOL    HW135063   2.767   4.410   6.483 -0.6978  0.5628 -2.3512
 7810SOL    HW235064   2.641   4.328   6.490  0.4737  2.4914  1.6994
 7811SOL     OW35065   2.569   0.006   7.619  0.3815 -0.1329 -0.1252
 7811SOL    HW135066   2.550   0.056   7.698  0.0877  0.5752 -0.6365
 7811SOL    HW235067   2.617   0.072   7.569  2.4328 -1.0721  0.6052
 7812SOL     OW35068   0.315   2.596   2.530 -0.6132 -0.1007 -0.1714
 7812SOL    HW135069   0.245   2.659   2.547  0.3567  0.4267  1.8959
 7812SOL    HW235070   0.289   2.523   2.587 -1.0960  0.2818  0.1021
 7813SOL     OW35071   1.885   3.913   0.217  0.0040  0.5463  0.0068
 7813SOL    HW135072   1.929   3.842   0.168 -0.7733 -0.3946  0.6748
 7813SOL    HW235073   1.924   3.906   0.304  0.2188  1.2074 -0.0355
 7814SOL     OW35074   0.241   1.637   8.999 -0.2851  0.1881  0.2593
 7814SOL    HW135075   0.304   1.702   8.967  0.3067  0.2394  1.5142
 7814SOL    HW235076   0.224   1.582   8.923 -1.8581 -0.3604  1.0013
 7815SOL     OW35077   0.798   1.827   7.713  0.3676  0.2344 -0.4005
 7815SOL    HW135078   0.793   1.820   7.808  3.0734 -0.1928 -0.3017
 7815SOL    HW235079   0.737   1.764   7.674  0.8999 -0.2653 -0.4161
 7816SOL     OW35080   0.711   4.413   9.442  0.2469 -0.1980  0.1826
 7816SOL    HW135081   0.708   4.387   9.534  2.2425  0.0343  0.3156
 7816SOL    HW235082   0.702   4.327   9.401  0.6157  0.3913 -1.1398
 7817SOL     OW35083   4.131   4.581  16.036  0.5314  0.0383 -0.5113
 7817SOL    HW135084   4.105   4.518  15.969 -2.4261 -1.3311  1.9411
 7817SOL    HW235085   4.179   4.643  15.981  0.2899 -0.1084 -0.8879
 7818SOL     OW35086   2.695   2.226   8.573 -0.1421 -0.1351  0.0840
 7818SOL    HW135087   2.622   2.283   8.549  0.3407  0.3286 -0.2737
 7818SOL    HW235088   2.652   2.176   8.643  2.2613 -1.8039  0.3457
 7819SOL     OW35089   0.206   1.498   2.615 -0.0862  0.0792  0.6331
 7819SOL    HW135090   0.299   1.477   2.619 -0.1610 -0.8644 -2.8830
 7819SOL    HW235091   0.184   1.429   2.553  0.2990  1.4828 -1.0443
 7820SOL     OW35092   0.159   1.738   4.573 -0.4185 -0.1887  0.0150
 7820SOL    HW135093   0.162   1.830   4.546  0.2985 -0.0248  0.6464
 7820SOL    HW235094   0.232   1.708   4.520 -1.0915  1.1093 -1.6598
 7821SOL     OW35095   1.782   1.682   6.387 -0.1847  0.2750  0.1259
 7821SOL    HW135096   1.740   1.679   6.473  1.2308  1.5697  0.8398
 7821SOL    HW235097   1.750   1.603   6.343 -2.2670  0.6279  0.9777
 7822SOL     OW35098   4.450   0.418   5.816 -0.0902 -0.2171  0.0315
 7822SOL    HW135099   4.395   0.428   5.894 -0.2079  0.6438 -0.1599
 7822SOL    HW235100   4.451   0.508   5.783 -0.5997 -0.6702 -1.2359
 7823SOL     OW35101   4.129   2.500  10.801  0.2113  0.0777 -0.0209
 7823SOL    HW135102   4.185   2.477  10.727  1.1595 -0.2144  0.7912
 7823SOL    HW235103   4.081   2.577  10.773  1.1608  1.1251  1.2379
 7824SOL     OW35104   4.418   2.267   5.678  0.0377 -0.7880 -0.0961
 7824SOL    HW135105   4.455   2.208   5.612 -0.2265 -1.6121  0.4897
 7824SOL    HW235106   4.326   2.262   5.651 -0.9564  0.9881  3.0195
 7825SOL     OW35107   0.197   3.608  11.711  0.1181 -0.1556 -0.0358
 7825SOL    HW135108   0.199   3.687  11.657  0.8726  0.5446  1.0289
 7825SOL    HW235109   0.184   3.545  11.640  1.8007  0.7981 -1.1779
 7826SOL     OW35110   1.444   1.688   1.277  0.6450 -0.2726  0.0095
 7826SOL    HW135111   1.485   1.628   1.339 -1.6948  1.2005  2.9653
 7826SOL    HW235112   1.441   1.762   1.338  0.4035  0.3574 -0.7625
 7827SOL     OW35113   0.750   0.570   7.834 -0.4879  0.0593  0.4313
 7827SOL    HW135114   0.741   0.657   7.875  0.5316  1.0216 -1.3838
 7827SOL    HW235115   0.759   0.588   7.740 -3.0461 -1.0476 -0.0031
 7828SOL     OW35116   3.383   0.246   2.925 -0.0217 -0.5402 -0.2156
 7828SOL    HW135117   3.320   0.231   2.854 -0.1103  1.0110 -0.4587
 7828SOL    HW235118   3.459   0.260   2.869 -0.1911 -1.2880 -0.6431
 7829SOL     OW35119   0.029   4.095   4.502  0.0521  0.0684  0.1522
 7829SOL    HW135120   4.700   4.109   4.568  0.6606  0.7536  0.6320
 7829SOL    HW235121   0.008   4.177   4.456  0.7595  0.4888  0.5733
 7830SOL     OW35122   1.145   4.443  10.663  0.0883 -0.5412  0.2616
 7830SOL    HW135123   1.233   4.453  10.699 -0.5751 -1.1220  2.0581
 7830SOL    HW235124   1.103   4.384  10.726 -0.7959  0.5183  0.6650
 7831SOL     OW35125   2.809   1.980   5.699 -0.1037 -0.8192  0.2696
 7831SOL    HW135126   2.864   1.917   5.746  1.5565  1.0298  0.7975
 7831SOL    HW235127   2.849   1.971   5.612 -0.0380  1.9577  0.0208
 7832SOL     OW35128   1.702   2.567   5.680  0.1127  0.1396 -0.1227
 7832SOL    HW135129   1.660   2.612   5.607  0.7264 -0.1140 -0.6271
 7832SOL    HW235130   1.626   2.546   5.736  2.4018 -2.6487  1.9809
 7833SOL     OW35131   4.219   2.846  14.222  0.2145  0.3513 -0.1188
 7833SOL    HW135132   4.151   2.864  14.158 -1.1961 -1.3104  0.9218
 7833SOL    HW235133   4.261   2.780  14.167 -0.0934  0.7427 -0.8130
 7834SOL     OW35134   2.328   1.427   2.445  0.1191 -0.1966  0.3645
 7834SOL    HW135135   2.264   1.359   2.468 -0.7095  0.2465 -0.6212
 7834SOL    HW235136   2.314   1.437   2.350  0.3436  0.5033  0.4052
 7835SOL     OW35137   2.412   3.416   8.834  0.4490  0.0747  0.5049
 7835SOL    HW135138   2.321   3.442   8.843  0.6820  0.9888  0.2687
 7835SOL    HW235139   2.426   3.469   8.756 -1.9950 -1.2680 -0.8285
 7836SOL     OW35140   0.310   1.036   4.475  0.2499  0.1136  0.0482
 7836SOL    HW135141   0.372   0.986   4.528  2.3949  1.2661 -1.3722
 7836SOL    HW235142   0.362   1.064   4.400  1.1879  0.0522  0.6612
 7837SOL     OW35143   3.038   3.634   7.283  0.2096 -0.4176 -0.1883
 7837SOL    HW135144   3.062   3.649   7.191  1.7718 -1.2325  0.0863
 7837SOL    HW235145   2.948   3.666   7.287  1.1286  2.1659 -0.4000
 7838SOL     OW35146   1.319   4.481   1.391 -0.5131 -0.0998  0.1509
 7838SOL    HW135147   1.306   4.518   1.303 -0.7840  0.3716  0.3910
 7838SOL    HW235148   1.387   4.535   1.430 -0.5418  0.5993 -0.7656
 7839SOL     OW35149   3.528   4.235   7.286 -0.6693 -0.1519 -0.2690
 7839SOL    HW135150   3.511   4.164   7.349 -0.7573  2.0062  2.1353
 7839SOL    HW235151   3.614   4.265   7.313  0.0812 -1.5019 -1.1228
 7840SOL     OW35152   1.714   3.182   3.392 -0.0993  0.0617 -0.0497
 7840SOL    HW135153   1.687   3.157   3.481  1.6511 -0.1032  0.4380
 7840SOL    HW235154   1.809   3.180   3.405 -0.0771  1.6680  0.0237
 7841SOL     OW35155   0.498   2.519   8.464  0.2868  0.1185  0.4138
 7841SOL    HW135156   0.522   2.604   8.428 -2.2841  0.6052 -0.1792
 7841SOL    HW235157   0.503   2.541   8.557  1.7124  1.7066 -0.0428
 7842SOL     OW35158   1.272   0.279  16.089  0.1423  0.3720 -0.0690
 7842SOL    HW135159   1.222   0.274  16.008 -1.1833 -1.2924  0.8315
 7842SOL    HW235160   1.202   0.251  16.148  0.7638  0.7933  0.8829
 7843SOL     OW35161   3.952   1.662   7.287  0.1528 -0.0894  0.0601
 7843SOL    HW135162   3.864   1.686   7.258  0.1085 -0.7455 -0.3502
 7843SOL    HW235163   3.988   1.750   7.283  2.6581 -1.0428  1.6238
 7844SOL     OW35164   1.639   4.076   7.341  0.5144 -0.4343  0.6019
 7844SOL    HW135165   1.690   4.025   7.404  1.8094 -0.5250 -0.5421
 7844SOL    HW235166   1.669   4.165   7.355 -0.1052  0.0686 -1.2967
 7845SOL     OW35167   1.890   4.010   5.004 -0.5173 -0.4103  0.1782
 7845SOL    HW135168   1.907   3.952   5.078  1.4089 -0.3691 -0.2311
 7845SOL    HW235169   1.937   3.968   4.932  0.2058  1.3835 -0.3887
 7846SOL     OW35170   1.570   1.689   7.051 -0.2625 -0.2272  0.0401
 7846SOL    HW135171   1.664   1.673   7.037 -0.3424 -1.2198  0.6690
 7846SOL    HW235172   1.559   1.746   6.975  0.2909 -0.2964 -0.0967
 7847SOL     OW35173   0.631   2.783  15.045  0.8403  0.5101  0.6774
 7847SOL    HW135174   0.542   2.817  15.032  0.2645 -1.4426 -0.6337
 7847SOL    HW235175   0.614   2.734  15.125 -1.2921 -1.0593 -0.7142
 7848SOL     OW35176   2.941   2.741   7.803  0.8533 -0.2451  0.0736
 7848SOL    HW135177   2.951   2.813   7.865 -0.9273 -0.8836  1.1065
 7848SOL    HW235178   2.848   2.744   7.782  0.3030 -0.8597  2.4871
 7849SOL     OW35179   1.294   3.815   6.194 -0.3548  0.4822  0.3986
 7849SOL    HW135180   1.247   3.881   6.245 -0.5227  0.8901 -0.2784
 7849SOL    HW235181   1.371   3.817   6.251  0.2040  0.1066 -0.3398
 7850SOL     OW35182   3.149   2.719  16.652  0.3199  0.1316  0.4587
 7850SOL    HW135183   3.132   2.684  16.564 -2.0284  2.2381  0.0843
 7850SOL    HW235184   3.098   2.799  16.652  1.2980  0.7543 -0.4899
 7851SOL     OW35185   1.854   2.752   9.641  0.0977  0.7173 -0.0040
 7851SOL    HW135186   1.781   2.747   9.702  1.4515 -2.1610  1.3788
 7851SOL    HW235187   1.815   2.802   9.569 -4.5508 -2.5511  0.2592
 7852SOL     OW35188   1.475   0.375   7.632  0.2396  0.0858 -0.4031
 7852SOL    HW135189   1.497   0.364   7.725  0.2482 -0.3799 -0.4611
 7852SOL    HW235190   1.417   0.450   7.643  0.5441  0.7092 -2.9063
 7853SOL     OW35191   4.569   0.261   4.916 -0.2749  0.1327  0.4738
 7853SOL    HW135192   4.554   0.347   4.878 -0.1182  0.1550  0.4604
 7853SOL    HW235193   4.482   0.228   4.938 -0.2102 -1.1604 -1.2000
 7854SOL     OW35194   0.619   0.278   8.677  0.3605 -0.2535 -0.0179
 7854SOL    HW135195   0.702   0.310   8.713  0.9600  0.2500 -1.8530
 7854SOL    HW235196   0.571   0.247   8.754  0.9461 -0.8301  0.1242
 7855SOL     OW35197   2.640   4.314   4.828  0.1957 -0.5066 -0.1431
 7855SOL    HW135198   2.615   4.261   4.753 -0.7390 -1.2208  0.6682
 7855SOL    HW235199   2.613   4.260   4.902  1.6252  1.3942  1.7701
 7856SOL     OW35200   3.191   3.429  12.258 -0.5790 -0.3426  0.1580
 7856SOL    HW135201   3.124   3.459  12.319  0.6897 -1.2186  1.9702
 7856SOL    HW235202   3.157   3.462  12.175 -1.9748  2.0285  1.6765
 7857SOL     OW35203   0.237   3.157   5.971 -0.1221 -0.0997  0.1835
 7857SOL    HW135204   0.263   3.233   6.023  1.4031 -0.2349 -0.3847
 7857SOL    HW235205   0.155   3.179   5.927  0.4504 -0.1310 -0.8903
 7858SOL     OW35206   1.931   2.481   4.778 -0.0170 -0.0192 -0.2390
 7858SOL    HW135207   1.920   2.480   4.873 -1.2596  2.9264 -0.3435
 7858SOL    HW235208   2.025   2.496   4.777 -0.0841  0.3881 -0.6024
 7859SOL     OW35209   3.917   3.308   7.421 -0.0393 -0.4309  0.4113
 7859SOL    HW135210   3.906   3.215   7.442 -3.9892  0.1550  0.9928
 7859SOL    HW235211   3.852   3.349   7.479  0.1711 -0.5429  0.7285
 7860SOL     OW35212   4.125   3.979   3.048  0.4348 -0.3518 -0.3232
 7860SOL    HW135213   4.071   4.058   3.052  0.5853 -0.2848  0.3172
 7860SOL    HW235214   4.099   3.960   2.958  0.1065 -0.7789 -0.1349
 7861SOL     OW35215   1.537   4.038   9.048 -0.5894 -0.6925  0.3120
 7861SOL    HW135216   1.475   4.093   9.000  0.2638 -0.9233 -1.0498
 7861SOL    HW235217   1.490   4.019   9.130 -3.0166  0.3933 -0.8332
 7862SOL     OW35218   4.517   2.927   5.907  0.2192  0.5677  0.3411
 7862SOL    HW135219   4.482   2.894   5.825  1.8520  3.3478 -1.4556
 7862SOL    HW235220   4.468   3.008   5.920  0.7433  0.8029  0.8919
 7863SOL     OW35221   3.502   4.454   4.067  0.0363  0.6980  0.6334
 7863SOL    HW135222   3.430   4.406   4.107 -0.1990  0.6187  0.1202
 7863SOL    HW235223   3.483   4.466   3.974  3.1421 -1.0357 -0.2207
 7864SOL     OW35224   2.330   0.178  15.387  0.3890 -0.8921 -0.0467
 7864SOL    HW135225   2.413   0.226  15.390 -0.5094  0.5294  1.6065
 7864SOL    HW235226   2.278   0.236  15.442  0.1646  0.8933 -2.1371
 7865SOL     OW35227   4.180   3.211   1.812  0.1728  0.0290 -0.5202
 7865SOL    HW135228   4.145   3.240   1.897 -1.5891 -1.1664 -0.8304
 7865SOL    HW235229   4.149   3.280   1.753  0.0077  2.0424  1.8924
 7866SOL     OW35230   2.602   1.259   8.678 -0.4254  0.4125  0.6394
 7866SOL    HW135231   2.524   1.312   8.696  1.4453  3.0165  1.0866
 7866SOL    HW235232   2.665   1.323   8.713  0.6538  0.1905 -0.8842
 7867SOL     OW35233   1.382   2.403  16.156  0.5849 -0.2032 -0.5051
 7867SOL    HW135234   1.288   2.396  16.167  0.7978 -4.1403 -1.1559
 7867SOL    HW235235   1.408   2.318  16.191  1.6152 -0.0097 -0.7900
 7868SOL     OW35236   0.583   3.058   6.638  0.2772 -0.1402  0.6358
 7868SOL    HW135237   0.639   3.126   6.599  0.0533  0.1072  0.7455
 7868SOL    HW235238   0.643   2.983   6.637 -0.8303 -0.9792 -1.3880
 7869SOL     OW35239   2.355   1.836  10.851  0.1544  0.2107  0.2815
 7869SOL    HW135240   2.427   1.813  10.794  0.0558 -0.2332  0.3367
 7869SOL    HW235241   2.331   1.927  10.835  1.2646  0.7816  1.8491
 7870SOL     OW35242   4.415   3.310  10.354 -0.1480  0.3608 -0.1503
 7870SOL    HW135243   4.498   3.263  10.358 -2.6881 -4.1019  0.4187
 7870SOL    HW235244   4.447   3.398  10.337  0.1817  0.1163 -0.7842
 7871SOL     OW35245   2.166   4.080   0.319 -0.6562 -0.2486  0.2743
 7871SOL    HW135246   2.132   4.010   0.375 -1.0751  0.2114  0.5950
 7871SOL    HW235247   2.164   4.156   0.376 -1.1624 -0.7345  0.9134
 7872SOL     OW35248   0.196   3.204   2.366 -0.0932  0.5220 -0.5696
 7872SOL    HW135249   0.101   3.199   2.356  0.0488 -0.3974 -1.4962
 7872SOL    HW235250   0.192   3.290   2.408 -3.1097  0.1344 -0.1006
 7873SOL     OW35251   1.506   4.309   8.287 -0.4021 -0.0910 -0.1077
 7873SOL    HW135252   1.564   4.281   8.216  1.4793  3.5664 -0.0076
 7873SOL    HW235253   1.434   4.340   8.233  0.4332  2.8074  0.4638
 7874SOL     OW35254   3.710   3.700   0.811 -0.0801  0.3308  0.5350
 7874SOL    HW135255   3.750   3.629   0.861  2.5047  0.9966 -0.6078
 7874SOL    HW235256   3.788   3.729   0.765 -0.0323 -1.0414 -0.2412
 7875SOL     OW35257   2.448   3.124   1.320  0.7357  0.8057  0.1445
 7875SOL    HW135258   2.458   3.070   1.398  1.0495 -1.2251 -1.3001
 7875SOL    HW235259   2.354   3.114   1.303  0.7632  0.3540  0.2614
 7876SOL     OW35260   0.920   4.714   2.906 -0.7754  0.5241 -0.0407
 7876SOL    HW135261   0.972   4.659   2.846 -0.6059 -0.8120  1.3405
 7876SOL    HW235262   0.832   4.679   2.889 -0.1029 -0.8165 -0.8302
 7877SOL     OW35263   3.617   0.956  12.517 -0.5351  0.4607 -1.0860
 7877SOL    HW135264   3.663   0.873  12.503  2.1927  1.8616 -0.5148
 7877SOL    HW235265   3.617   0.967  12.612  2.5695 -3.4904 -0.6303
 7878SOL     OW35266   2.163   0.261   3.143  0.2706  0.9950 -0.1635
 7878SOL    HW135267   2.248   0.289   3.178  1.0346 -0.6000 -0.6890
 7878SOL    HW235268   2.175   0.177   3.098 -1.7358  0.4898  0.2308
 7879SOL     OW35269   0.638   3.237   5.219 -0.1115  0.4542 -0.1316
 7879SOL    HW135270   0.605   3.213   5.132 -0.3507  1.2922 -0.2671
 7879SOL    HW235271   0.732   3.224   5.207 -0.1327  1.4370 -1.3483
 7880SOL     OW35272   3.092   3.986   6.269  1.0997 -0.1432  0.1441
 7880SOL    HW135273   3.045   3.951   6.193  2.1175 -0.1130 -0.4907
 7880SOL    HW235274   3.172   3.934   6.278  1.6932  0.9780  1.3294
 7881SOL     OW35275   0.436   1.643   4.743 -0.4094  0.5252  0.1936
 7881SOL    HW135276   0.437   1.570   4.681  0.0190  0.9322 -0.2797
 7881SOL    HW235277   0.373   1.619   4.811 -0.9658 -0.5090 -0.6880
 7882SOL     OW35278   0.034   2.090   2.773 -0.0209  0.0649  0.4667
 7882SOL    HW135279   4.680   2.102   2.757  0.6038  1.3492 -2.1859
 7882SOL    HW235280   0.037   2.084   2.869 -1.9114 -0.8787  0.4558
 7883SOL     OW35281   2.653   2.946   6.953 -0.6939  0.5091  0.0569
 7883SOL    HW135282   2.676   3.038   6.966 -2.7607  1.0421 -0.0425
 7883SOL    HW235283   2.569   2.942   6.999 -1.2155 -0.9170 -1.0351
 7884SOL     OW35284   2.060   1.528   5.330  0.6011 -0.6754 -0.3060
 7884SOL    HW135285   1.965   1.528   5.318  0.4623  1.4696  0.8814
 7884SOL    HW235286   2.077   1.576   5.249 -0.7062  0.2450 -0.0410
 7885SOL     OW35287   4.609   2.298   9.604  0.3019  0.4065 -0.6402
 7885SOL    HW135288   4.525   2.252   9.605  1.3780 -1.5436  1.8141
 7885SOL    HW235289   4.663   2.245   9.663  1.0716  0.8265 -0.9733
 7886SOL     OW35290   4.414   2.811  13.484 -0.3509  0.5013  0.3287
 7886SOL    HW135291   4.353   2.794  13.412 -0.0382 -0.4186  0.2730
 7886SOL    HW235292   4.468   2.882  13.450  0.5918 -0.7401 -0.7871
 7887SOL     OW35293   3.555   0.965   6.315  0.4906  0.3225 -0.0199
 7887SOL    HW135294   3.572   1.059   6.315 -0.5659  0.5233 -3.3283
 7887SOL    HW235295   3.470   0.960   6.359 -0.9196  1.7908 -2.5537
 7888SOL     OW35296   1.284   1.678   9.052 -0.2724  0.0776  0.3205
 7888SOL    HW135297   1.247   1.709   8.970 -2.1676  1.1080  1.5724
 7888SOL    HW235298   1.237   1.595   9.056  0.0015 -0.0777  0.3537
 7889SOL     OW35299   1.097   1.736   8.860 -0.0485 -0.0997  0.6218
 7889SOL    HW135300   1.055   1.717   8.777  1.2062 -0.8313  0.1494
 7889SOL    HW235301   1.118   1.830   8.857 -0.0203  0.0161  4.3261
 7890SOL     OW35302   2.309   0.035   8.810 -0.6150  0.1929 -0.5082
 7890SOL    HW135303   2.382   0.089   8.839 -0.5494 -0.4738  0.5827
 7890SOL    HW235304   2.286   0.097   8.741 -0.4939 -0.2985 -0.9870
 7891SOL     OW35305   4.148   0.605   8.194 -0.4217  0.2164  0.0154
 7891SOL    HW135306   4.154   0.635   8.284 -2.0085  0.9657 -0.1370
 7891SOL    HW235307   4.097   0.674   8.151 -2.0032  0.1030  1.7119
 7892SOL     OW35308   4.328   4.615   6.129  0.2892 -0.0710  0.1538
 7892SOL    HW135309   4.353   4.524   6.113  0.4037 -0.1075  0.5499
 7892SOL    HW235310   4.410   4.652   6.161  0.5928 -0.9311  0.3574
 7893SOL     OW35311   2.433   0.845   6.169 -0.6683 -0.5270  0.0814
 7893SOL    HW135312   2.442   0.750   6.159  0.5618 -0.5986  1.7802
 7893SOL    HW235313   2.508   0.866   6.226 -0.7842 -2.1474  0.8295
 7894SOL     OW35314   3.569   4.439   3.529  0.0601  0.3648  0.1003
 7894SOL    HW135315   3.490   4.417   3.479 -0.6927 -0.3227  1.6080
 7894SOL    HW235316   3.541   4.426   3.619  1.0017  0.0913  0.3539
 7895SOL     OW35317   4.217   0.102   4.340 -0.0698 -0.5509 -0.0870
 7895SOL    HW135318   4.297   0.145   4.371 -1.2169  0.2573  1.7310
 7895SOL    HW235319   4.196   0.165   4.271 -2.6123 -2.0441 -0.6539
 7896SOL     OW35320   3.523   3.476   8.485  0.0230 -0.4666  0.0295
 7896SOL    HW135321   3.607   3.517   8.466  1.0200 -1.8667  1.4228
 7896SOL    HW235322   3.467   3.517   8.418  0.2806 -0.4993 -0.2068
 7897SOL     OW35323   2.195   3.432   7.921 -0.4804 -0.2547 -0.0113
 7897SOL    HW135324   2.152   3.489   7.858  1.6113 -1.5958 -2.6575
 7897SOL    HW235325   2.127   3.434   7.988  1.2765  0.8898  1.7511
 7898SOL     OW35326   2.110   1.197  12.957 -0.2715 -0.3752  0.1129
 7898SOL    HW135327   2.149   1.250  13.027 -1.2910  1.3445 -0.6234
 7898SOL    HW235328   2.126   1.245  12.876  0.0332 -1.6931 -0.6097
 7899SOL     OW35329   0.267   4.419   9.100  0.3322  0.5947  0.2144
 7899SOL    HW135330   0.343   4.424   9.158  0.9459  1.0859 -0.6429
 7899SOL    HW235331   0.215   4.343   9.128 -1.2577  1.2846 -0.8899
 7900SOL     OW35332   0.883   4.136  10.589 -0.2931 -0.0415  0.3670
 7900SOL    HW135333   0.871   4.080  10.666 -0.0285  1.6892  1.6729
 7900SOL    HW235334   0.792   4.163  10.575  0.5446  3.1073  0.9976
 7901SOL     OW35335   2.262   3.391   2.423  0.0358  0.2302  0.0516
 7901SOL    HW135336   2.316   3.462   2.457 -0.3012  1.1110 -1.2892
 7901SOL    HW235337   2.210   3.446   2.364 -0.1358  0.7335  0.6659
 7902SOL     OW35338   3.554   0.645   9.817  0.0990 -0.0975 -0.7361
 7902SOL    HW135339   3.476   0.678   9.862  0.7430 -0.7646  0.8476
 7902SOL    HW235340   3.613   0.620   9.887 -0.1412  2.6172  0.4644
 7903SOL     OW35341   0.454   4.079   6.426 -0.2355 -0.3017  0.1296
 7903SOL    HW135342   0.394   4.065   6.499 -0.6165 -0.9214 -0.2988
 7903SOL    HW235343   0.409   4.150   6.380 -0.0935 -0.8338 -0.8375
 7904SOL     OW35344   1.867   3.930  10.642  0.2567 -0.1753 -0.2446
 7904SOL    HW135345   1.866   3.880  10.724  2.5583 -0.5536 -0.4531
 7904SOL    HW235346   1.950   3.914  10.597  0.3975 -0.1862  0.0150
 7905SOL     OW35347   0.908   4.141   5.497  0.4051  0.0551  0.4188
 7905SOL    HW135348   0.886   4.228   5.465 -1.1007 -0.3696  0.3226
 7905SOL    HW235349   0.839   4.136   5.563  0.0370 -0.1341  0.0125
 7906SOL     OW35350   2.776   4.301   7.753  0.3495  0.4230  0.1978
 7906SOL    HW135351   2.855   4.278   7.704  0.6231  1.1015  0.3199
 7906SOL    HW235352   2.823   4.328   7.831  1.2287 -2.0127  0.4971
 7907SOL     OW35353   0.600   1.040   1.874 -0.5629  0.5339  0.3505
 7907SOL    HW135354   0.631   1.054   1.963  0.1372 -1.8013  0.4891
 7907SOL    HW235355   0.580   0.946   1.877 -2.0619  0.8413 -0.2317
 7908SOL     OW35356   3.557   2.259   0.422 -0.4183 -0.4758  0.2876
 7908SOL    HW135357   3.503   2.321   0.471 -0.0413  0.0482  0.0490
 7908SOL    HW235358   3.573   2.313   0.344  1.6319 -1.8225 -0.2241
 7909SOL     OW35359   2.095   3.090   2.905  0.0240  0.6813  0.6074
 7909SOL    HW135360   2.127   3.007   2.941  1.1821  0.5821 -0.6585
 7909SOL    HW235361   2.077   3.128   2.991 -2.6917  2.6005 -0.8070
 7910SOL     OW35362   4.531   4.295  16.283  0.0681  0.2655 -0.0853
 7910SOL    HW135363   4.597   4.303  16.215 -0.5308  0.9648 -0.5885
 7910SOL    HW235364   4.588   4.261  16.353 -0.0414  1.0563  0.3896
 7911SOL     OW35365   1.856   1.013   3.493 -0.6125 -0.1088 -0.1809
 7911SOL    HW135366   1.878   1.099   3.530  0.4669 -0.3899 -0.1621
 7911SOL    HW235367   1.899   1.026   3.408 -2.0654  0.2714 -0.8556
 7912SOL     OW35368   1.972   0.304  10.039 -0.0739 -0.1050 -0.2515
 7912SOL    HW135369   1.922   0.224  10.054  1.5169 -0.8074  1.3451
 7912SOL    HW235370   1.908   0.350   9.984  0.3599 -0.3556 -0.9685
 7913SOL     OW35371   1.204   3.585   8.490  0.1867 -0.4930  0.2517
 7913SOL    HW135372   1.293   3.613   8.512 -0.7813  1.0239  2.3119
 7913SOL    HW235373   1.222   3.534   8.411  0.0269  1.9396 -1.3609
 7914SOL     OW35374   0.002   3.551   1.839 -0.0686 -0.3812 -0.5912
 7914SOL    HW135375   4.681   3.598   1.897  0.0012  0.3224 -1.0873
 7914SOL    HW235376   4.684   3.560   1.763 -0.8448  0.5890  0.0978
 7915SOL     OW35377   4.454   0.327   1.252 -0.2638 -0.7200 -0.4977
 7915SOL    HW135378   4.416   0.252   1.206 -2.3182 -0.7505  1.2716
 7915SOL    HW235379   4.542   0.336   1.214 -0.0613  0.3653  0.2416
 7916SOL     OW35380   0.652   0.895   5.852  0.3229  0.0764  0.0454
 7916SOL    HW135381   0.594   0.886   5.776 -0.5186  1.0603  0.5769
 7916SOL    HW235382   0.653   0.990   5.850 -0.7082  0.0917  0.0957
 7917SOL     OW35383   4.012   3.205   5.994 -0.1161 -0.4090 -0.0918
 7917SOL    HW135384   4.002   3.133   6.057  0.4380  0.0894  0.5557
 7917SOL    HW235385   3.922   3.234   5.976  0.2512 -0.5204 -2.0804
 7918SOL     OW35386   2.740   2.679   6.283 -0.4824  0.4365 -0.5363
 7918SOL    HW135387   2.649   2.695   6.261  0.3525  4.2911 -1.1573
 7918SOL    HW235388   2.738   2.687   6.379 -0.2455  1.5646 -0.6219
 7919SOL     OW35389   3.611   1.522   9.394  0.2235 -0.3764  0.1773
 7919SOL    HW135390   3.528   1.530   9.346 -1.4015 -1.6008  2.7850
 7919SOL    HW235391   3.581   1.519   9.485 -1.8496  2.6280 -0.3972
 7920SOL     OW35392   4.437   2.541  11.842 -0.5625  0.4028 -0.6931
 7920SOL    HW135393   4.354   2.504  11.813 -1.2652  0.4068  1.3498
 7920SOL    HW235394   4.471   2.596  11.771  0.1093  1.2488  0.2785
 7921SOL     OW35395   4.688   0.651   6.489  0.1048 -0.5848 -0.3532
 7921SOL    HW135396   0.033   0.643   6.443 -1.4008 -1.2279 -2.9762
 7921SOL    HW235397   4.717   0.618   6.574 -0.9012 -2.1991 -0.6351
 7922SOL     OW35398   1.842   0.848  11.052  0.7100 -0.1643 -0.1814
 7922SOL    HW135399   1.881   0.918  11.104 -1.8746  0.8056  0.4197
 7922SOL    HW235400   1.763   0.836  11.105  1.4998 -1.1451  0.7727
 7923SOL     OW35401   2.798   3.912   4.097 -0.4122 -0.0235 -0.1888
 7923SOL    HW135402   2.762   3.830   4.130 -0.0116  0.5003  1.5506
 7923SOL    HW235403   2.733   3.945   4.035  0.5386 -0.6298 -1.5246
 7924SOL     OW35404   4.414   1.984  17.034  0.4586 -0.0407  0.1268
 7924SOL    HW135405   4.341   1.968  16.973  0.0903 -4.8564  1.8569
 7924SOL    HW235406   4.457   2.044  16.973  2.0745 -1.1934  0.1629
 7925SOL     OW35407   0.448   3.172   3.960  0.4196  0.2446 -0.5677
 7925SOL    HW135408   0.467   3.257   3.920 -0.4630  0.9122  0.4521
 7925SOL    HW235409   0.471   3.203   4.048  0.6081 -0.7826 -0.2470
 7926SOL     OW35410   3.565   0.147   5.207 -0.0507  0.1836  0.4668
 7926SOL    HW135411   3.577   0.068   5.154  0.4525  0.2008  0.5552
 7926SOL    HW235412   3.483   0.132   5.254 -0.7411 -0.5976 -0.9863
 7927SOL     OW35413   0.959   4.127   5.840 -0.7514  0.2901  0.1641
 7927SOL    HW135414   1.050   4.149   5.821 -0.4849  0.4244  1.5936
 7927SOL    HW235415   0.915   4.204   5.805  0.4024  0.7135 -0.3375
 7928SOL     OW35416   1.829   3.897  16.432 -0.4566  0.4596  0.4190
 7928SOL    HW135417   1.739   3.913  16.406 -0.3849  0.5451  0.2195
 7928SOL    HW235418   1.825   3.809  16.468  2.6813 -0.3113 -1.0781
 7929SOL     OW35419   2.338   2.028   8.927 -0.2348  0.1011 -0.1843
 7929SOL    HW135420   2.389   2.029   9.007 -2.2356  1.1797  1.0738
 7929SOL    HW235421   2.411   2.029   8.865  1.2973 -1.8122  1.6274
 7930SOL     OW35422   2.791   1.095  11.856 -0.0585  0.7944  0.0890
 7930SOL    HW135423   2.765   1.125  11.769  0.0846  4.0292  1.1874
 7930SOL    HW235424   2.722   1.028  11.862  0.2953  0.2735 -1.5163
 7931SOL     OW35425   0.996   0.460   5.160  0.3295  0.5491 -0.2084
 7931SOL    HW135426   1.071   0.520   5.153  0.5838  0.1188 -1.2917
 7931SOL    HW235427   1.019   0.396   5.092  1.5493  0.7060  0.0474
 7932SOL     OW35428   4.736   4.134   3.310  0.5266 -0.1810 -0.1870
 7932SOL    HW135429   4.682   4.178   3.244  1.1303 -0.7423 -1.0537
 7932SOL    HW235430   4.686   4.155   3.389 -2.1059  1.4389 -2.3105
 7933SOL     OW35431   4.333   2.970   8.664  0.2071 -0.2650  0.2603
 7933SOL    HW135432   4.369   2.922   8.738  0.2212 -2.8405 -1.4041
 7933SOL    HW235433   4.343   2.916   8.585  2.4585  0.7666 -0.1495
 7934SOL     OW35434   4.279   0.312  16.492  0.3265 -0.0965  0.2829
 7934SOL    HW135435   4.288   0.303  16.397 -0.6287 -1.9163  0.3818
 7934SOL    HW235436   4.283   0.219  16.512 -3.2682 -0.3829 -0.3843
 7935SOL     OW35437   3.045   0.427  10.088 -0.3160 -0.0306 -0.1541
 7935SOL    HW135438   3.100   0.353  10.113 -0.7150 -0.5827 -0.9047
 7935SOL    HW235439   2.969   0.393  10.040 -1.3310  1.4285  0.4368
 7936SOL     OW35440   0.663   0.051   6.574 -0.6537  0.3588  0.8402
 7936SOL    HW135441   0.679   0.038   6.481 -1.1547  1.2699  0.6258
 7936SOL    HW235442   0.602   4.720   6.599  0.3236 -0.5323  0.7344
 7937SOL     OW35443   1.334   2.164   8.663  0.4721  0.2986  0.0075
 7937SOL    HW135444   1.421   2.184   8.700 -0.0978 -1.1693  2.1391
 7937SOL    HW235445   1.338   2.220   8.585  0.8046 -1.3242 -1.1404
 7938SOL     OW35446   1.667   3.056   1.751  0.1031 -0.9766 -0.0697
 7938SOL    HW135447   1.629   2.969   1.756  0.2798 -1.0040  0.7837
 7938SOL    HW235448   1.675   3.075   1.657 -0.9876  0.0903  0.0501
 7939SOL     OW35449   1.245   3.715   6.706  0.2288  0.0419 -0.6046
 7939SOL    HW135450   1.196   3.777   6.652 -0.3268 -0.7299 -0.9913
 7939SOL    HW235451   1.304   3.784   6.734 -0.6040 -0.1383  1.6239
 7940SOL     OW35452   0.989   0.666   2.192  0.1973  0.1485 -0.6867
 7940SOL    HW135453   0.932   0.601   2.233  2.2090 -0.8046  0.5573
 7940SOL    HW235454   0.938   0.747   2.199 -2.5737 -1.7310  0.9117
 7941SOL     OW35455   3.371   3.761  10.368  0.0530 -0.0921 -0.1691
 7941SOL    HW135456   3.454   3.741  10.411  0.1578 -1.0833 -0.8392
 7941SOL    HW235457   3.389   3.740  10.276 -0.7964  3.0441 -1.0494
 7942SOL     OW35458   2.032   4.218   4.358 -0.3283 -0.0278  0.1015
 7942SOL    HW135459   1.997   4.271   4.287  1.2653 -1.7973 -1.9878
 7942SOL    HW235460   2.055   4.284   4.425  0.1518 -1.7756  1.6564
 7943SOL     OW35461   3.044   3.585  10.359 -0.1687  0.5550 -0.6760
 7943SOL    HW135462   3.077   3.539  10.282 -0.3014 -1.2752  0.3449
 7943SOL    HW235463   2.989   3.517  10.398  1.1155  1.4770  2.7324
 7944SOL     OW35464   4.399   3.934   0.923  0.7377 -0.2283  0.4723
 7944SOL    HW135465   4.317   3.972   0.953  0.7466 -0.8859  1.3315
 7944SOL    HW235466   4.367   3.882   0.849 -1.1555  2.5485 -0.6634
 7945SOL     OW35467   1.868   3.613   5.396  0.4107  0.1294 -0.0276
 7945SOL    HW135468   1.784   3.578   5.366  0.2763  1.6831 -1.4062
 7945SOL    HW235469   1.914   3.633   5.315  1.8136  0.6695  0.9144
 7946SOL     OW35470   3.678   0.386  17.695 -0.9861  0.3603  0.9949
 7946SOL    HW135471   3.651   0.462  17.747 -1.9666  0.6378  0.0739
 7946SOL    HW235472   3.597   0.368  17.647 -0.6141 -1.1465  0.9203
 7947SOL     OW35473   1.686   3.586  11.340  0.7292 -0.2998 -0.2665
 7947SOL    HW135474   1.750   3.635  11.392  0.6394 -0.7986  0.3126
 7947SOL    HW235475   1.698   3.494  11.363 -0.4848 -0.0408  1.3350
 7948SOL     OW35476   0.489   3.773   1.434  0.4412 -0.1356  0.3301
 7948SOL    HW135477   0.446   3.744   1.353 -0.7180 -0.8680  1.2039
 7948SOL    HW235478   0.490   3.866   1.413  2.0558 -0.0498  0.8205
 7949SOL     OW35479   3.680   0.806   1.385 -0.6371 -0.4717  0.5061
 7949SOL    HW135480   3.737   0.857   1.443  1.7456 -0.6216 -1.7097
 7949SOL    HW235481   3.654   0.734   1.443 -2.4359 -0.0248  0.2523
 7950SOL     OW35482   0.048   4.600   9.109 -0.1677  0.6829  0.0040
 7950SOL    HW135483   0.126   4.546   9.094 -1.0140  0.1059 -2.3269
 7950SOL    HW235484   0.085   4.663   9.172  1.4289 -1.5642  1.3194
 7951SOL     OW35485   0.602   0.384  13.548  0.3301  0.3943 -0.0573
 7951SOL    HW135486   0.679   0.428  13.514  0.2626  1.1096  0.7148
 7951SOL    HW235487   0.562   0.462  13.586  1.4556  0.5985  0.7045
 7952SOL     OW35488   4.510   1.632   7.069 -0.0697  0.3175  0.0172
 7952SOL    HW135489   4.605   1.618   7.069 -0.1386 -0.1980 -1.0777
 7952SOL    HW235490   4.499   1.688   7.146  1.3794 -0.9768  1.1586
 7953SOL     OW35491   1.099   3.149   3.322  0.4612  0.5501 -0.5038
 7953SOL    HW135492   1.035   3.085   3.353 -1.8863  2.5225 -1.2805
 7953SOL    HW235493   1.111   3.212   3.393 -2.4312 -0.1728  0.6146
 7954SOL     OW35494   4.575   2.793   9.430  0.4216 -0.5117 -0.3281
 7954SOL    HW135495   4.604   2.853   9.361 -1.0220 -1.2694 -1.5667
 7954SOL    HW235496   4.523   2.735   9.375 -1.3660 -0.2771  1.1356
 7955SOL     OW35497   4.163   2.992   8.000 -0.6357 -0.2685  0.3435
 7955SOL    HW135498   4.197   2.945   8.076 -0.6834 -1.5225 -0.4059
 7955SOL    HW235499   4.094   3.048   8.034  1.4718  3.3142 -1.2020
 7956SOL     OW35500   0.499   1.560   3.891  0.4506 -0.6079  0.0771
 7956SOL    HW135501   0.488   1.533   3.799 -1.6918 -0.2286  0.2345
 7956SOL    HW235502   0.585   1.603   3.893  1.1227 -1.8200 -2.0441
 7957SOL     OW35503   2.097   2.654   7.196 -0.1441 -0.2157  0.4705
 7957SOL    HW135504   2.104   2.579   7.136 -1.3320 -0.0469  0.1203
 7957SOL    HW235505   2.008   2.681   7.172  0.5154 -0.0001 -1.7394
 7958SOL     OW35506   1.637   1.298  15.959 -0.9971  0.4931  0.7169
 7958SOL    HW135507   1.605   1.239  15.891  1.8931  0.9523 -1.0632
 7958SOL    HW235508   1.583   1.372  15.932 -0.5896  0.2316 -0.8330
 7959SOL     OW35509   1.708   0.539   4.374  0.2375 -0.5644  0.3991
 7959SOL    HW135510   1.653   0.479   4.324  2.3128 -2.7702  0.7939
 7959SOL    HW235511   1.717   0.621   4.325  0.3382 -1.2932 -0.8098
 7960SOL     OW35512   1.287   3.310   5.504 -0.9881 -0.3570 -0.0274
 7960SOL    HW135513   1.354   3.315   5.572 -2.3125 -0.9699  1.3389
 7960SOL    HW235514   1.238   3.386   5.538 -1.1025 -0.0760 -0.8253
 7961SOL     OW35515   1.649   3.921   0.599  0.0083  0.3769  0.3262
 7961SOL    HW135516   1.725   3.956   0.646  0.3633  1.6529 -1.1783
 7961SOL    HW235517   1.688   3.855   0.542  2.5551  2.8667 -0.8558
 7962SOL     OW35518   3.959   2.121   1.747  0.5989 -0.1345  0.5557
 7962SOL    HW135519   3.924   2.068   1.819 -2.3905  0.6486 -0.3030
 7962SOL    HW235520   4.049   2.146   1.764 -0.2150  2.5390  0.9540
 7963SOL     OW35521   4.470   0.926  12.279 -0.7111 -0.1644 -0.0149
 7963SOL    HW135522   4.507   0.838  12.274  0.1918  0.2617 -0.9569
 7963SOL    HW235523   4.530   0.976  12.334  1.3003  0.0632 -2.4210
 7964SOL     OW35524   1.382   4.506   2.092 -0.2516 -0.4481  0.2880
 7964SOL    HW135525   1.399   4.550   2.008 -0.4672  0.5066  0.7498
 7964SOL    HW235526   1.467   4.468   2.114  1.0620  1.6117 -1.3255
 7965SOL     OW35527   3.691   2.368   5.056  0.1228  0.1673 -0.5151
 7965SOL    HW135528   3.602   2.377   5.021  0.1724  1.3139 -0.3367
 7965SOL    HW235529   3.677   2.409   5.141 -3.1230 -1.6979 -0.1300
 7966SOL     OW35530   1.488   0.009   1.074 -0.2377 -0.3862 -0.4344
 7966SOL    HW135531   1.411   4.701   1.044 -1.2016  2.8377 -2.9812
 7966SOL    HW235532   1.547   4.678   1.101  1.5842  1.7059  1.0965
 7967SOL     OW35533   2.238   0.980   3.706 -0.5373  0.9473 -0.9708
 7967SOL    HW135534   2.174   1.008   3.771  1.1238  1.2266  0.5566
 7967SOL    HW235535   2.316   0.995   3.759 -1.8866  2.3363  0.6058
 7968SOL     OW35536   1.504   3.456   4.050 -0.4964 -0.0659  0.1492
 7968SOL    HW135537   1.567   3.488   3.986 -0.5195 -1.4596 -0.5766
 7968SOL    HW235538   1.554   3.382   4.084 -0.1359  1.8083  3.7129
 7969SOL     OW35539   0.196   1.564   4.895 -0.2753 -0.5772 -0.6293
 7969SOL    HW135540   0.180   1.658   4.884 -1.5078 -0.5639  1.1905
 7969SOL    HW235541   0.120   1.523   4.855 -1.4012  0.3674  0.5256
 7970SOL     OW35542   3.607   2.206   8.632  0.0263 -0.7607  0.0587
 7970SOL    HW135543   3.562   2.160   8.703  1.4616 -0.9524  0.8296
 7970SOL    HW235544   3.548   2.192   8.558 -2.2379  0.1781  1.6964
 7971SOL     OW35545   4.380   0.781   4.616 -0.0190  1.3633  0.1952
 7971SOL    HW135546   4.427   0.742   4.543 -0.8741  0.8239 -0.0716
 7971SOL    HW235547   4.452   0.841   4.634  0.3646  1.2197 -0.8631
 7972SOL     OW35548   0.324   0.718   6.969 -0.1894  0.4635 -0.5225
 7972SOL    HW135549   0.300   0.734   7.061  1.8083  1.3841 -0.1630
 7972SOL    HW235550   0.269   0.780   6.921  0.3561  0.0010 -1.7187
 7973SOL     OW35551   0.249   4.086   5.303  0.5969  0.4694 -0.0044
 7973SOL    HW135552   0.290   4.007   5.339 -0.5542 -0.1305  0.0063
 7973SOL    HW235553   0.319   4.152   5.301  1.6205 -0.6934 -2.4164
 7974SOL     OW35554   1.265   2.083  14.871 -0.1539  0.4701 -0.0393
 7974SOL    HW135555   1.193   2.133  14.910 -0.5515  0.7357 -1.1392
 7974SOL    HW235556   1.331   2.073  14.941 -1.4395 -2.5788  0.7320
 7975SOL     OW35557   4.406   4.427   4.592 -0.4641  0.9152 -0.7380
 7975SOL    HW135558   4.318   4.402   4.620 -0.2489  0.5062 -0.4308
 7975SOL    HW235559   4.384   4.483   4.518 -1.6251  0.0823 -1.0265
 7976SOL     OW35560   0.818   4.722   2.518  0.1281  0.3795  0.3791
 7976SOL    HW135561   0.757   4.730   2.591  0.7940  0.3092  0.9402
 7976SOL    HW235562   0.878   0.054   2.537  0.1572  0.0751  1.4284
 7977SOL     OW35563   1.078   1.085   4.856  0.0588  0.3687  0.4736
 7977SOL    HW135564   1.078   1.180   4.847  0.6717  0.1988 -1.2518
 7977SOL    HW235565   1.167   1.072   4.888  0.3374 -1.8542 -1.2766
 7978SOL     OW35566   1.363   2.707   5.654 -0.0804 -0.5122 -1.3136
 7978SOL    HW135567   1.365   2.661   5.570 -1.7467  1.3059 -2.3616
 7978SOL    HW235568   1.271   2.732   5.662  0.6671  1.7534  0.2955
 7979SOL     OW35569   0.597   0.731   9.704 -0.7571  0.6075  0.5486
 7979SOL    HW135570   0.579   0.803   9.764  0.1764  0.1755  1.3591
 7979SOL    HW235571   0.680   0.756   9.663 -1.1554  0.7417 -0.1618
 7980SOL     OW35572   4.269   4.616  12.494  0.1497  0.4858  0.6480
 7980SOL    HW135573   4.206   4.621  12.566 -1.5841 -0.7778 -0.7599
 7980SOL    HW235574   4.251   4.699  12.451 -1.1439  0.1314  0.5266
 7981SOL     OW35575   3.094   1.818   7.155  0.4989  0.2267  0.3576
 7981SOL    HW135576   3.014   1.864   7.181 -0.9245 -1.2332 -1.4371
 7981SOL    HW235577   3.157   1.889   7.149 -1.0940  1.6006  0.0135
 7982SOL     OW35578   3.500   4.574   6.391  0.0012  0.1042 -0.2418
 7982SOL    HW135579   3.495   4.664   6.359 -0.5986 -0.2485 -1.1493
 7982SOL    HW235580   3.549   4.589   6.472 -1.9931 -0.4906  1.0716
 7983SOL     OW35581   2.304   2.474   0.634 -0.0657  0.1185  0.0949
 7983SOL    HW135582   2.221   2.522   0.636  0.4768  1.0589 -0.5567
 7983SOL    HW235583   2.275   2.383   0.643  5.0142 -1.3579  1.7687
 7984SOL     OW35584   0.435   1.030   2.647 -0.1892  0.4331  0.1178
 7984SOL    HW135585   0.510   0.971   2.658 -0.0263  0.2915 -1.6533
 7984SOL    HW235586   0.428   1.052   2.740 -1.6152  1.0748 -0.1385
 7985SOL     OW35587   0.097   2.179   4.208 -0.4433 -0.5876 -0.7200
 7985SOL    HW135588   0.116   2.227   4.127  1.5648 -3.5449 -2.0270
 7985SOL    HW235589   0.069   2.095   4.170  1.1348 -1.1116 -0.7079
 7986SOL     OW35590   0.623   0.415   3.907 -0.2546 -0.2172  0.2832
 7986SOL    HW135591   0.611   0.427   4.001  3.0626  1.0521  0.5376
 7986SOL    HW235592   0.664   0.495   3.874  1.4541 -0.9458  0.6258
 7987SOL     OW35593   1.117   2.371   8.666  0.6302  0.2829  0.1930
 7987SOL    HW135594   1.035   2.340   8.628  0.3439 -0.2399  1.2551
 7987SOL    HW235595   1.164   2.288   8.654  2.6844  1.5266 -0.4244
 7988SOL     OW35596   3.674   1.082   6.603 -0.7430 -0.0388 -0.3264
 7988SOL    HW135597   3.627   1.155   6.562  1.1834  1.8234  0.7783
 7988SOL    HW235598   3.758   1.088   6.557 -0.5076  0.9204  0.2255
 7989SOL     OW35599   3.796   2.999   8.128 -0.0699 -0.3102 -0.3176
 7989SOL    HW135600   3.809   2.912   8.092  1.1272 -0.7735  1.2648
 7989SOL    HW235601   3.882   3.012   8.168 -0.2283 -0.7460  0.1605
 7990SOL     OW35602   0.590   3.055   2.787 -0.3593 -0.5285  0.8170
 7990SOL    HW135603   0.608   3.143   2.818 -1.3202 -0.6905  1.8195
 7990SOL    HW235604   0.661   3.044   2.724  0.5656  1.7992  1.4562
 7991SOL     OW35605   2.438   0.057   8.371  0.1204  0.7230 -0.2622
 7991SOL    HW135606   2.416   4.703   8.365  0.1764  0.5244  2.9948
 7991SOL    HW235607   2.397   0.082   8.288  1.5656 -1.3879 -1.6125
 7992SOL     OW35608   1.642   2.475   7.484  0.2395 -0.5472 -0.7917
 7992SOL    HW135609   1.681   2.443   7.565 -2.2484 -0.2986  0.4833
 7992SOL    HW235610   1.621   2.391   7.442 -2.7787 -0.2140  0.0378
 7993SOL     OW35611   1.516   0.398   5.084 -0.5081 -0.0144  0.3673
 7993SOL    HW135612   1.607   0.417   5.062 -1.3123 -0.1899 -3.1348
 7993SOL    HW235613   1.517   0.351   5.168 -1.1038  1.5989  1.2640
 7994SOL     OW35614   4.168   1.157   8.257  0.5647  0.3250  0.2830
 7994SOL    HW135615   4.157   1.195   8.344  0.2820 -2.7670  1.5927
 7994SOL    HW235616   4.128   1.070   8.259  0.0563  0.5680  0.6314
 7995SOL     OW35617   1.647   3.136   8.267  0.6782  0.7537  0.0728
 7995SOL    HW135618   1.575   3.077   8.287  1.8905 -0.9053 -0.4538
 7995SOL    HW235619   1.636   3.197   8.340  0.1558  0.4850  0.2205
 7996SOL     OW35620   3.945   0.004   9.155  0.2063  0.4596  0.1141
 7996SOL    HW135621   3.969   4.694   9.234 -0.2941  0.4922  0.2869
 7996SOL    HW235622   3.900   0.077   9.199  0.3426  1.5147 -1.5235
 7997SOL     OW35623   2.415   0.360   9.149 -0.2107  0.2710  0.4098
 7997SOL    HW135624   2.321   0.349   9.138 -0.3573  2.5901 -0.5102
 7997SOL    HW235625   2.443   0.268   9.149  1.1531  0.7012 -1.2400
 7998SOL     OW35626   0.838   2.920   2.176 -0.3667 -0.2201 -0.2411
 7998SOL    HW135627   0.769   2.894   2.237 -0.2690 -0.5959 -0.2871
 7998SOL    HW235628   0.809   2.881   2.094  0.0411 -0.7569 -0.1363
 7999SOL     OW35629   4.597   3.812   1.901  0.2410 -0.3353 -0.7475
 7999SOL    HW135630   4.599   3.809   1.805  1.2534  1.5031 -0.7830
 7999SOL    HW235631   4.528   3.876   1.919  0.5699  0.3505 -1.9504
 8000SOL     OW35632   1.588   1.912   2.127  0.3221  0.3166 -0.1977
 8000SOL    HW135633   1.502   1.885   2.094  0.3425  1.7020 -1.3807
 8000SOL    HW235634   1.590   2.008   2.131 -1.9543  0.3697 -0.3833
 8001SOL     OW35635   3.474   2.380  11.956 -0.0091  0.2698  0.2046
 8001SOL    HW135636   3.459   2.356  12.047  0.0617  0.3040  0.2262
 8001SOL    HW235637   3.498   2.472  11.968 -1.8758  0.7987 -0.0974
 8002SOL     OW35638   3.117   4.014   2.887 -0.5519 -0.0443 -0.1435
 8002SOL    HW135639   3.082   4.096   2.923  2.2218  0.3379  1.6387
 8002SOL    HW235640   3.096   3.954   2.958  0.2991 -0.2572 -0.0728
 8003SOL     OW35641   0.086   0.723   9.195 -0.1660  0.0924 -0.5962
 8003SOL    HW135642   0.134   0.806   9.195 -3.4709  2.0106  0.7859
 8003SOL    HW235643   0.001   0.736   9.236 -0.6373 -2.4374 -0.8014
 8004SOL     OW35644   2.413   0.044   5.421  0.3844  0.0341  1.0285
 8004SOL    HW135645   2.388   0.039   5.513 -2.5185  1.0299  0.2742
 8004SOL    HW235646   2.472   4.707   5.417 -0.2362 -0.3769 -0.1417
 8005SOL     OW35647   3.798   2.410  13.485  0.0307 -0.2287  0.1889
 8005SOL    HW135648   3.735   2.387  13.417  0.6962  1.1674 -0.8824
 8005SOL    HW235649   3.848   2.329  13.492 -1.0056 -0.9062 -0.2389
 8006SOL     OW35650   1.687   2.594   2.911 -0.0339 -0.2776  0.4971
 8006SOL    HW135651   1.636   2.663   2.868 -1.2570  0.1253  2.6066
 8006SOL    HW235652   1.776   2.630   2.911  0.1982 -0.8461  1.8002
 8007SOL     OW35653   1.775   2.182   7.713  0.2069 -0.0097 -0.0518
 8007SOL    HW135654   1.814   2.238   7.646 -1.0305  1.4627  0.4570
 8007SOL    HW235655   1.798   2.093   7.688  0.4179  0.8044 -2.6888
 8008SOL     OW35656   3.503   2.940   3.854 -0.4221  0.3361  0.0904
 8008SOL    HW135657   3.539   2.868   3.803 -1.6428 -1.8676  2.3312
 8008SOL    HW235658   3.508   3.011   3.790  1.2044 -0.6132 -0.8347
 8009SOL     OW35659   3.264   0.438   9.449 -0.3135 -0.2234 -0.4331
 8009SOL    HW135660   3.191   0.490   9.481 -0.8078  0.1154 -2.0900
 8009SOL    HW235661   3.256   0.357   9.499 -0.9130  0.6889  0.9333
 8010SOL     OW35662   4.416   4.024   6.937  0.0310 -0.1868  0.2991
 8010SOL    HW135663   4.462   3.972   7.003  1.0775  1.2263  0.6788
 8010SOL    HW235664   4.375   3.950   6.891 -0.6041  0.9034 -0.8655
 8011SOL     OW35665   0.957   4.420  15.233  0.3635 -0.0995  0.1314
 8011SOL    HW135666   1.021   4.461  15.291  2.4828 -2.6688 -0.3862
 8011SOL    HW235667   1.017   4.387  15.165 -0.0752  0.1214 -0.3627
 8012SOL     OW35668   1.827   0.756   4.600 -0.1722  0.1619 -0.0560
 8012SOL    HW135669   1.853   0.664   4.589 -1.1487 -0.2478  1.1454
 8012SOL    HW235670   1.914   0.796   4.606 -0.6383  0.5647  3.4813
 8013SOL     OW35671   3.287   1.295  13.746 -0.2763 -0.2840 -0.3609
 8013SOL    HW135672   3.194   1.276  13.762 -0.4465  1.3549  0.6163
 8013SOL    HW235673   3.327   1.274  13.830 -2.3979 -2.3274  0.1467
 8014SOL     OW35674   3.479   2.265   4.102  0.1792 -0.1147 -0.2268
 8014SOL    HW135675   3.432   2.349   4.104 -1.1639 -0.8857  0.5150
 8014SOL    HW235676   3.498   2.265   4.196 -1.3080 -1.3819  0.0799
 8015SOL     OW35677   3.325   0.953   7.121  0.5569 -0.2900  0.4254
 8015SOL    HW135678   3.415   0.920   7.132  0.3023 -0.5645  1.6862
 8015SOL    HW235679   3.297   0.962   7.212  0.8933  0.7346  0.4234
 8016SOL     OW35680   0.804   1.155  16.751  0.2483  0.3606  0.3836
 8016SOL    HW135681   0.785   1.198  16.668  1.2630  1.0548  0.5127
 8016SOL    HW235682   0.870   1.214  16.786 -0.8072  0.7472  1.7327
 8017SOL     OW35683   1.847   2.531   6.320  0.3622  0.2179 -0.5720
 8017SOL    HW135684   1.820   2.546   6.411  0.0374 -0.6499 -0.5175
 8017SOL    HW235685   1.864   2.437   6.329  0.9055  0.3521 -0.2033
 8018SOL     OW35686   1.379   1.408   6.352  0.0015  0.0073  0.3075
 8018SOL    HW135687   1.383   1.379   6.443 -0.4020  3.3789  1.3646
 8018SOL    HW235688   1.330   1.489   6.361  1.2232  0.9799 -1.6273
 8019SOL     OW35689   2.467   3.727  15.990 -0.0732 -0.2701 -0.1685
 8019SOL    HW135690   2.559   3.737  15.966 -0.2247  1.8103  0.1282
 8019SOL    HW235691   2.427   3.792  15.933  1.1264  0.6354  0.0118
 8020SOL     OW35692   0.708   0.028   9.017 -0.3265  0.0467  0.6635
 8020SOL    HW135693   0.645   0.003   9.084  0.8752  3.0424  2.9475
 8020SOL    HW235694   0.722   0.120   9.042  3.1621 -0.7749  1.7167
 8021SOL     OW35695   2.006   1.965   9.144 -0.2876 -0.2656 -0.3467
 8021SOL    HW135696   2.073   2.025   9.175 -0.3918 -1.1690  1.5980
 8021SOL    HW235697   2.055   1.893   9.103 -1.3715 -1.8239  1.0936
 8022SOL     OW35698   2.948   1.158   9.285 -0.7588  0.3303  0.4057
 8022SOL    HW135699   2.952   1.165   9.380  0.7456 -1.4561  0.4902
 8022SOL    HW235700   2.859   1.125   9.277  0.1746 -2.1502  0.1673
 8023SOL     OW35701   2.277   0.726   5.772  0.2498 -0.1872  0.8636
 8023SOL    HW135702   2.263   0.820   5.783 -0.7562 -0.1127 -1.1125
 8023SOL    HW235703   2.341   0.725   5.701 -2.1375 -0.9765 -1.2715
 8024SOL     OW35704   3.556   0.353  14.671 -0.0075 -0.1399 -0.8087
 8024SOL    HW135705   3.629   0.414  14.669 -0.6191  0.5858 -0.9851
 8024SOL    HW235706   3.497   0.389  14.605 -1.5338  1.1789  1.2842
 8025SOL     OW35707   1.654   3.674   3.390  0.5160 -0.8319 -0.3812
 8025SOL    HW135708   1.659   3.761   3.430  0.0730 -0.2882 -1.5044
 8025SOL    HW235709   1.591   3.703   3.324  0.2136 -4.3375 -1.6541
 8026SOL     OW35710   3.463   3.218   7.673  0.3325 -0.4956  0.2239
 8026SOL    HW135711   3.376   3.197   7.637 -0.2658  0.6296  0.9959
 8026SOL    HW235712   3.528   3.185   7.611 -0.8269 -0.8215 -0.8331
 8027SOL     OW35713   1.813   2.977   8.658  0.1926 -0.1792 -0.1416
 8027SOL    HW135714   1.844   2.905   8.713 -1.0635 -1.4856 -1.1365
 8027SOL    HW235715   1.877   2.982   8.587 -0.3982  2.1079 -0.5111
 8028SOL     OW35716   3.569   2.685   3.345 -0.3958  0.2425  0.4052
 8028SOL    HW135717   3.654   2.729   3.336 -1.0901  1.0961 -1.9830
 8028SOL    HW235718   3.559   2.676   3.250 -0.9323 -3.3792  0.8037
 8029SOL     OW35719   1.306   1.383   7.704 -0.3120 -0.0895 -0.1915
 8029SOL    HW135720   1.275   1.364   7.615  2.6194 -1.4306 -0.9190
 8029SOL    HW235721   1.246   1.455   7.723  2.3970  1.3391  2.7567
 8030SOL     OW35722   3.928   1.982  14.521  0.0115 -0.7137  0.0961
 8030SOL    HW135723   3.888   2.069  14.525 -0.5964 -0.9337 -0.9367
 8030SOL    HW235724   3.852   1.948  14.473  0.6549 -0.3223 -1.1921
 8031SOL     OW35725   4.564   1.049   0.485 -0.1237 -0.1860 -0.3017
 8031SOL    HW135726   4.633   0.983   0.473 -0.8792 -1.1752  0.9132
 8031SOL    HW235727   4.557   1.045   0.580 -1.4999  0.0375 -0.3946
 8032SOL     OW35728   2.105   0.315   5.776  0.0212  0.1250 -0.2681
 8032SOL    HW135729   2.097   0.343   5.685 -0.3031 -0.0522 -0.2925
 8032SOL    HW235730   2.087   0.222   5.767 -1.1486  0.2361  0.9412
 8033SOL     OW35731   0.298   2.374   2.923  0.1666 -0.2487 -0.2746
 8033SOL    HW135732   0.283   2.362   2.829  1.7179  1.0904 -0.6869
 8033SOL    HW235733   0.388   2.407   2.923  0.6702 -1.6292  1.9232
 8034SOL     OW35734   4.362   2.059  14.494  0.2939 -0.5988  0.2335
 8034SOL    HW135735   4.333   1.968  14.488 -1.4212 -0.2131  2.8137
 8034SOL    HW235736   4.428   2.063  14.425  0.9591 -0.5635  0.8688
 8035SOL     OW35737   0.729   2.117   4.948  0.2411 -0.0652 -0.2078
 8035SOL    HW135738   0.810   2.103   4.900 -0.4971  0.6796 -1.6574
 8035SOL    HW235739   0.718   2.036   4.998  0.3274 -0.4886 -0.8733
 8036SOL     OW35740   3.064   1.564   4.571 -0.1959  0.3972 -0.7009
 8036SOL    HW135741   3.066   1.548   4.476  0.2634  3.2132 -1.1538
 8036SOL    HW235742   3.153   1.593   4.589 -0.6649  1.5915 -0.3030
 8037SOL     OW35743   1.683   1.107   8.212 -0.1958  0.2355 -0.1916
 8037SOL    HW135744   1.661   1.134   8.123 -1.8401  0.5032  0.3000
 8037SOL    HW235745   1.593   1.117   8.243  0.1967  1.2539  0.6172
 8038SOL     OW35746   3.732   4.164   5.663  0.1368 -0.0451 -0.8965
 8038SOL    HW135747   3.819   4.150   5.624  0.8813  1.4738  0.2270
 8038SOL    HW235748   3.724   4.098   5.732  1.9913  0.8659  0.1847
 8039SOL     OW35749   4.728   3.769   4.642 -0.3998 -0.0599 -0.2558
 8039SOL    HW135750   0.064   3.722   4.604  0.0218  1.8749 -1.8301
 8039SOL    HW235751   0.031   3.790   4.726  0.5739  0.4720 -0.8745
 8040SOL     OW35752   1.934   2.243  14.230  0.1187  0.4925  0.2585
 8040SOL    HW135753   1.902   2.159  14.196  0.4347  0.7422 -0.6763
 8040SOL    HW235754   1.965   2.286  14.150  0.7014 -1.2701 -0.4601
 8041SOL     OW35755   3.104   4.465  15.538 -0.0192  0.2711  0.3354
 8041SOL    HW135756   3.138   4.518  15.610  2.7253  0.2698 -0.9782
 8041SOL    HW235757   3.142   4.380  15.559  0.4600 -0.1962 -2.4734
 8042SOL     OW35758   2.398   4.495   2.680  0.7029 -0.5410  0.2689
 8042SOL    HW135759   2.407   4.431   2.610 -0.7385  0.6435 -0.9947
 8042SOL    HW235760   2.321   4.547   2.655  1.2006  0.2660  0.4056
 8043SOL     OW35761   2.718   1.016   7.807 -0.6293  0.3013  0.2060
 8043SOL    HW135762   2.742   1.017   7.900 -2.1730  1.7737  0.5955
 8043SOL    HW235763   2.801   1.002   7.761 -0.8831  2.7446 -1.0370
 8044SOL     OW35764   4.671   3.672   3.772  0.1775  0.4439  0.0322
 8044SOL    HW135765   4.606   3.723   3.821  0.9130 -0.1098  1.5798
 8044SOL    HW235766   4.624   3.592   3.750 -0.8602  0.5784  1.7531
 8045SOL     OW35767   1.338   4.263   5.402 -0.3217 -0.0923  0.0399
 8045SOL    HW135768   1.388   4.266   5.483 -3.2815  1.2110  1.8187
 8045SOL    HW235769   1.404   4.287   5.337  0.7083 -0.0259  1.1157
 8046SOL     OW35770   0.502   2.588  16.751  0.0360  0.1102 -0.0550
 8046SOL    HW135771   0.574   2.561  16.694  0.4405  0.5660  0.2407
 8046SOL    HW235772   0.548   2.640  16.817 -0.0662 -0.1862  0.2450
 8047SOL     OW35773   0.285   2.953   5.275  0.3197 -0.0669  0.7387
 8047SOL    HW135774   0.319   2.958   5.186  1.6304  0.6928  1.2762
 8047SOL    HW235775   0.364   2.953   5.330  0.4685  0.5766  0.5244
 8048SOL     OW35776   0.581   1.603   5.038  0.0724  0.4068  0.1116
 8048SOL    HW135777   0.636   1.609   5.116  2.0070 -0.0345 -1.2032
 8048SOL    HW235778   0.512   1.670   5.043 -2.5270 -2.3002  0.4416
 8049SOL     OW35779   4.028   0.487   3.521  0.3270 -0.1196  0.2462
 8049SOL    HW135780   3.972   0.413   3.498  1.4340 -0.8997  0.0155
 8049SOL    HW235781   4.105   0.479   3.464 -1.1309 -2.5075 -1.3626
 8050SOL     OW35782   1.942   1.505   9.038 -0.0424 -0.2343 -0.2251
 8050SOL    HW135783   1.856   1.485   9.074 -0.6748 -1.3764 -2.4158
 8050SOL    HW235784   1.929   1.581   8.981 -0.7219 -0.4869 -0.4098
 8051SOL     OW35785   0.585   1.836   4.825 -0.7761  0.0225 -0.3253
 8051SOL    HW135786   0.639   1.806   4.897 -1.0922 -2.2481 -1.0560
 8051SOL    HW235787   0.544   1.756   4.792 -3.3672  0.7741  1.0210
 8052SOL     OW35788   0.155   1.336  16.009 -0.6024  0.6993  0.6154
 8052SOL    HW135789   0.196   1.422  15.998  1.7770 -0.6681 -1.2013
 8052SOL    HW235790   0.184   1.324  16.099 -0.0290  0.2738  0.3786
 8053SOL     OW35791   0.964   0.460   6.283 -0.1560 -0.1369  0.1728
 8053SOL    HW135792   0.948   0.542   6.331 -1.3571 -0.6895  0.7171
 8053SOL    HW235793   0.894   0.461   6.218  0.5182  1.7032 -0.5181
 8054SOL     OW35794   1.984   4.135   9.567 -0.7678  0.2081 -0.0813
 8054SOL    HW135795   1.971   4.215   9.516  0.3806  0.0725 -0.5776
 8054SOL    HW235796   2.051   4.088   9.518 -2.0724 -1.3791 -0.3306
 8055SOL     OW35797   0.587   3.810   5.874  0.2163 -0.1747 -0.7460
 8055SOL    HW135798   0.602   3.847   5.787  2.4557  0.3633 -0.1385
 8055SOL    HW235799   0.659   3.850   5.923 -2.0640  1.7481  1.0226
 8056SOL     OW35800   3.518   3.830   3.910  0.1985 -0.1563  0.1237
 8056SOL    HW135801   3.598   3.831   3.964 -0.5575  2.3205  1.2053
 8056SOL    HW235802   3.491   3.738   3.908  2.9259 -0.9807  0.6252
 8057SOL     OW35803   1.681   2.553   8.507 -0.0865  0.6598  0.1942
 8057SOL    HW135804   1.725   2.475   8.474 -0.0327  1.0774 -0.7358
 8057SOL    HW235805   1.742   2.625   8.491  0.6218  0.0244  0.0502
 8058SOL     OW35806   3.841   2.421  17.372 -0.6820 -0.0139 -0.5247
 8058SOL    HW135807   3.902   2.495  17.370  0.7615 -1.1650  0.2605
 8058SOL    HW235808   3.760   2.464  17.398 -1.0766 -1.4297  0.5866
 8059SOL     OW35809   2.863   0.726   1.421  0.2586 -0.5006  0.0241
 8059SOL    HW135810   2.823   0.639   1.413  1.3663 -0.8581 -1.6879
 8059SOL    HW235811   2.779   0.771   1.426  0.6512  0.5091 -2.5746
 8060SOL     OW35812   3.991   4.697   1.418 -0.2858  0.1115  0.1036
 8060SOL    HW135813   3.937   4.653   1.484  0.6162 -0.5068  0.4338
 8060SOL    HW235814   4.042   4.624   1.385  1.6510  1.4150  0.2021
 8061SOL     OW35815   4.287   1.526   4.326 -0.3429  0.1969 -0.7692
 8061SOL    HW135816   4.320   1.436   4.317  1.1731  0.5747  1.0361
 8061SOL    HW235817   4.250   1.535   4.414 -1.7484  0.6032 -1.4043
 8062SOL     OW35818   1.120   3.971  15.674  0.0645 -0.0103 -0.2961
 8062SOL    HW135819   1.060   4.036  15.636 -1.3219 -1.4384 -0.5717
 8062SOL    HW235820   1.082   3.971  15.762 -0.6630 -1.6304 -0.6102
 8063SOL     OW35821   2.165   0.362   9.362  0.4877 -0.5774 -0.3839
 8063SOL    HW135822   2.260   0.364   9.349  0.3962  3.1174 -0.3273
 8063SOL    HW235823   2.158   0.341   9.455 -1.6522 -1.5826 -0.7704
 8064SOL     OW35824   0.511   1.362  12.114  0.9601 -0.0436 -0.3276
 8064SOL    HW135825   0.548   1.374  12.201 -2.6363  0.5982  1.1237
 8064SOL    HW235826   0.594   1.346  12.070  0.2627  1.0623 -2.0634
 8065SOL     OW35827   4.217   1.489  15.022 -0.3733  0.1125 -0.3128
 8065SOL    HW135828   4.172   1.461  14.942  0.3339  0.7344 -0.9281
 8065SOL    HW235829   4.282   1.419  15.034  0.0651  0.3364 -1.3738
 8066SOL     OW35830   2.238   1.535   3.786  0.2006 -0.6024 -0.4941
 8066SOL    HW135831   2.270   1.500   3.703  0.8370  0.5511 -0.7431
 8066SOL    HW235832   2.144   1.531   3.769  0.1872 -3.8479  0.3926
 8067SOL     OW35833   2.130   0.662   8.766 -0.2052 -0.8518  0.3710
 8067SOL    HW135834   2.216   0.672   8.725  0.2087 -0.9749  1.2078
 8067SOL    HW235835   2.105   0.572   8.746  1.6079 -1.2149 -0.2825
 8068SOL     OW35836   4.300   0.908  17.419  0.0827 -0.2849 -0.7144
 8068SOL    HW135837   4.235   0.849  17.457 -1.5656  0.9933 -1.5660
 8068SOL    HW235838   4.281   0.990  17.465  1.6488  0.9329 -2.2828
 8069SOL     OW35839   0.455   2.507   9.277 -0.2572  0.4973 -0.5445
 8069SOL    HW135840   0.479   2.475   9.364  1.0944  0.7856 -0.8055
 8069SOL    HW235841   0.541   2.523   9.240 -0.0383  0.4009 -0.0795
 8070SOL     OW35842   4.724   0.143   2.425 -0.1754 -0.4784  0.2310
 8070SOL    HW135843   4.641   0.130   2.379  0.1929 -0.4072 -0.4693
 8070SOL    HW235844   4.694   0.166   2.512  1.5078 -0.4589  0.8065
 8071SOL     OW35845   4.545   3.039  15.436  0.5690 -0.8068  0.2166
 8071SOL    HW135846   4.580   3.040  15.347  0.2710  0.9739  0.1186
 8071SOL    HW235847   4.617   3.067  15.493  0.4022 -1.0636  0.5514
 8072SOL     OW35848   4.240   0.771   2.030  0.8849  0.1371  0.0082
 8072SOL    HW135849   4.290   0.778   2.112  1.5332  2.4237 -0.6100
 8072SOL    HW235850   4.212   0.861   2.016 -0.9802 -0.5226 -0.5613
 8073SOL     OW35851   4.257   1.995  14.042 -0.1077 -0.7205 -0.3784
 8073SOL    HW135852   4.189   1.957  14.097 -0.4222 -0.2049 -0.4091
 8073SOL    HW235853   4.222   2.084  14.049 -0.8936 -1.3064  3.2896
 8074SOL     OW35854   4.022   4.350   6.900  0.1806 -0.4581  0.6404
 8074SOL    HW135855   3.984   4.421   6.951 -0.7439 -1.5443  1.4481
 8074SOL    HW235856   4.107   4.391   6.883 -0.4382  0.5015 -0.1495
 8075SOL     OW35857   0.895   0.302   3.881 -0.3746  0.2843  0.1932
 8075SOL    HW135858   0.842   0.380   3.866 -0.4433  0.1398 -0.3003
 8075SOL    HW235859   0.941   0.312   3.965  2.1338 -0.3545 -1.0995
 8076SOL     OW35860   2.419   1.036  14.482 -0.2405  0.2389 -0.4720
 8076SOL    HW135861   2.474   0.983  14.424 -3.2902 -1.5840 -1.6882
 8076SOL    HW235862   2.353   0.970  14.504  1.3764 -1.4632 -0.7117
 8077SOL     OW35863   1.039   2.811   5.129 -0.0714 -0.3256  0.2869
 8077SOL    HW135864   1.050   2.903   5.102  2.2052 -0.5790  0.4161
 8077SOL    HW235865   1.126   2.781   5.154 -1.0395 -1.1554  2.5999
 8078SOL     OW35866   1.933   0.426   8.583  0.0700 -0.2828 -0.1339
 8078SOL    HW135867   1.879   0.403   8.659 -0.8191  0.7379 -0.4426
 8078SOL    HW235868   2.001   0.360   8.587  0.2266 -0.1288 -0.2368
 8079SOL     OW35869   4.349   2.253   6.865  0.7057 -0.3929 -0.1703
 8079SOL    HW135870   4.386   2.260   6.777 -2.4310 -0.9558 -1.5291
 8079SOL    HW235871   4.262   2.221   6.844 -0.0164  2.0339 -0.8129
 8080SOL     OW35872   4.603   4.353   4.161  0.2961  0.1416 -0.3025
 8080SOL    HW135873   4.534   4.412   4.130  1.0666  1.5331  0.6230
 8080SOL    HW235874   4.676   4.398   4.118  2.3735 -2.1580  0.8349
 8081SOL     OW35875   1.934   1.731   4.321 -0.5239 -0.2268  0.0240
 8081SOL    HW135876   2.018   1.737   4.366 -0.3764  0.9715 -0.4099
 8081SOL    HW235877   1.962   1.733   4.230 -1.0796 -3.3472 -0.2268
 8082SOL     OW35878   4.409   1.718   0.972  0.4457  0.2641  0.1997
 8082SOL    HW135879   4.398   1.804   0.932 -3.7824 -0.0706  0.6960
 8082SOL    HW235880   4.473   1.681   0.912  0.5218  0.4934  0.1398
 8083SOL     OW35881   2.976   3.103   3.776 -0.0652 -0.3405  0.3060
 8083SOL    HW135882   3.040   3.042   3.739  1.3040  0.5748  1.1877
 8083SOL    HW235883   3.029   3.183   3.778 -1.9901  0.8885  1.5924
 8084SOL     OW35884   0.160   0.011   1.882  0.2007 -0.5105  0.1723
 8084SOL    HW135885   0.237   4.697   1.903 -0.5007 -1.1983  0.9786
 8084SOL    HW235886   0.190   0.102   1.881  0.2129 -0.5398 -2.6405
 8085SOL     OW35887   3.369   3.293   6.296  0.2281  0.3202 -0.5383
 8085SOL    HW135888   3.328   3.210   6.270  0.0312  0.0663  0.5922
 8085SOL    HW235889   3.404   3.282   6.384  1.0269 -1.6510 -1.0835
 8086SOL     OW35890   0.167   1.663  13.020  0.2973  0.6026  0.4523
 8086SOL    HW135891   0.078   1.641  13.045  0.5412 -1.4291 -0.4957
 8086SOL    HW235892   0.209   1.579  13.001 -1.7523 -0.8844  2.5133
 8087SOL     OW35893   4.585   1.083  12.463  1.0674 -0.0924  0.1803
 8087SOL    HW135894   4.663   1.137  12.445  0.3633  0.9416  0.2301
 8087SOL    HW235895   4.532   1.142  12.516  1.7067  0.8799 -0.2505
 8088SOL     OW35896   2.104   3.048   4.185 -0.4992  0.2119  0.1308
 8088SOL    HW135897   2.141   3.086   4.264  1.9189 -1.2211 -0.2988
 8088SOL    HW235898   2.043   2.988   4.227  0.0183 -0.5006 -0.1287
 8089SOL     OW35899   1.297   1.328   3.857 -0.3771 -0.2301  0.2158
 8089SOL    HW135900   1.338   1.387   3.920 -2.4571 -0.7960  2.1390
 8089SOL    HW235901   1.370   1.302   3.801  0.6199 -0.4413  1.6166
 8090SOL     OW35902   0.806   1.035   7.882  0.0059 -0.1901 -0.0019
 8090SOL    HW135903   0.794   1.015   7.975  2.2442  0.8967  0.5325
 8090SOL    HW235904   0.723   1.011   7.842 -0.0091 -1.7936  0.9594
 8091SOL     OW35905   3.582   1.754   1.916 -0.3227  0.1692 -0.4880
 8091SOL    HW135906   3.602   1.773   2.007 -3.7083  0.3049  0.2168
 8091SOL    HW235907   3.529   1.674   1.921 -2.4553  1.6954  1.2077
 8092SOL     OW35908   4.513   3.332   2.056  0.3801 -0.0384 -0.8080
 8092SOL    HW135909   4.440   3.376   2.012  0.2982 -0.3579 -0.9901
 8092SOL    HW235910   4.518   3.373   2.142 -0.3609  2.3381 -1.8962
 8093SOL     OW35911   4.584   2.392   7.524 -0.3548 -0.0284 -0.0614
 8093SOL    HW135912   4.570   2.468   7.468 -4.8776 -0.9068 -0.1770
 8093SOL    HW235913   4.614   2.334   7.454 -2.3263  0.2732 -1.1458
 8094SOL     OW35914   2.528   4.724   9.417  0.2766 -0.5115  0.3291
 8094SOL    HW135915   2.574   0.033   9.486 -0.5213  2.1844 -1.0005
 8094SOL    HW235916   2.565   4.636   9.412 -0.1730 -0.6619 -0.3608
 8095SOL     OW35917   1.262   2.762   2.478  0.2716  0.5311 -0.0030
 8095SOL    HW135918   1.321   2.814   2.533 -1.1409 -0.9230  2.8936
 8095SOL    HW235919   1.246   2.825   2.408 -0.8066  0.2153 -0.0379
 8096SOL     OW35920   0.525   3.039   1.306  0.4064 -0.0936 -0.3615
 8096SOL    HW135921   0.526   3.133   1.324  0.4196  0.0651 -1.2228
 8096SOL    HW235922   0.608   3.019   1.349 -0.3841  2.2822  2.2398
 8097SOL     OW35923   0.963   0.807   4.591  0.2065 -0.3713 -0.0047
 8097SOL    HW135924   0.917   0.795   4.508  0.1077 -0.2209  0.0283
 8097SOL    HW235925   1.052   0.816   4.559 -0.1077 -1.4007 -1.1738
 8098SOL     OW35926   0.141   3.734  12.258  0.1372 -0.0640  0.4997
 8098SOL    HW135927   0.153   3.728  12.163 -1.3825  2.0891  0.1621
 8098SOL    HW235928   0.054   3.696  12.272 -0.1415  0.6781  0.7588
 8099SOL     OW35929   3.041   1.359   1.782 -0.1497  0.0595  0.1635
 8099SOL    HW135930   2.949   1.385   1.776  0.1424  0.6468 -1.7296
 8099SOL    HW235931   3.066   1.425   1.847 -1.8631  0.4854  0.3927
 8100SOL     OW35932   2.234   4.108   4.604 -0.0595  0.3171  0.0768
 8100SOL    HW135933   2.168   4.170   4.637  0.3997  0.8810 -0.0577
 8100SOL    HW235934   2.190   4.049   4.544 -0.7328 -0.0054  0.8884
 8101SOL     OW35935   1.025   2.663  11.668 -0.2454 -0.7169 -0.1618
 8101SOL    HW135936   1.043   2.571  11.649 -2.2533 -1.2314  0.3936
 8101SOL    HW235937   1.023   2.665  11.764  0.8713 -0.3031 -0.1433
 8102SOL     OW35938   2.226   0.286   7.703  0.0463 -0.5166 -0.4570
 8102SOL    HW135939   2.309   0.295   7.657 -0.0293  2.5678  0.0013
 8102SOL    HW235940   2.188   0.218   7.648  1.3155 -1.0079 -0.7243
 8103SOL     OW35941   0.573   2.777   8.436 -0.1562 -0.1985  0.3038
 8103SOL    HW135942   0.657   2.810   8.468 -1.1554  1.1542  1.5763
 8103SOL    HW235943   0.526   2.858   8.458 -0.9945 -0.7200  0.4298
 8104SOL     OW35944   4.138   2.866   8.299 -1.4822 -0.4971  0.2737
 8104SOL    HW135945   4.093   2.900   8.376  1.4118  2.8072  0.5046
 8104SOL    HW235946   4.111   2.774   8.301  0.5732 -1.0197  2.8485
 8105SOL     OW35947   4.175   1.720   2.184  0.5112 -0.1751 -0.2571
 8105SOL    HW135948   4.216   1.641   2.149 -0.8087 -1.0109  0.0773
 8105SOL    HW235949   4.111   1.686   2.247 -0.7118  0.8024 -0.9753
 8106SOL     OW35950   4.500   4.285  11.551 -0.2894 -0.6754 -0.4601
 8106SOL    HW135951   4.425   4.344  11.558  0.8747  0.5059  2.4797
 8106SOL    HW235952   4.479   4.207  11.602 -1.7313  1.0300  1.5829
 8107SOL     OW35953   1.453   3.837  15.215 -0.2191  0.4553 -0.2184
 8107SOL    HW135954   1.523   3.775  15.237 -0.1662  0.7285  0.3923
 8107SOL    HW235955   1.384   3.805  15.274 -1.1248  1.2942 -0.8351
 8108SOL     OW35956   4.456   2.630   3.654  0.1500 -1.1476  0.6593
 8108SOL    HW135957   4.527   2.574   3.686  0.9322 -0.4917  0.0526
 8108SOL    HW235958   4.503   2.707   3.622  2.7163 -3.0203 -0.0783
 8109SOL     OW35959   0.455   4.542   2.954 -0.2911 -0.1506  0.1873
 8109SOL    HW135960   0.399   4.570   2.882  0.1127 -0.0853 -0.0958
 8109SOL    HW235961   0.541   4.530   2.915  0.8046  1.4576  2.1171
 8110SOL     OW35962   0.545   3.888   1.091  0.2054  0.2200 -0.5953
 8110SOL    HW135963   0.499   3.819   1.137  0.4076  0.6833  0.3066
 8110SOL    HW235964   0.468   3.919   1.042  0.5452 -0.8328 -1.7699
 8111SOL     OW35965   1.442   0.490   6.932  0.0816 -0.2260  0.5048
 8111SOL    HW135966   1.501   0.433   6.884 -0.2578 -0.4503  0.3552
 8111SOL    HW235967   1.360   0.440   6.931 -0.9528  1.3355  3.9231
 8112SOL     OW35968   0.200   4.026   5.030 -0.5581  0.0285  0.4025
 8112SOL    HW135969   0.183   4.116   5.057  1.7859  0.5747  0.0597
 8112SOL    HW235970   0.254   3.998   5.103 -3.4152 -1.6008  1.9041
 8113SOL     OW35971   1.007   2.397   6.240 -0.5783 -0.1249  0.5535
 8113SOL    HW135972   0.984   2.422   6.150  1.7714  1.8480  0.5147
 8113SOL    HW235973   0.918   2.381   6.273 -1.3755  1.7029 -0.6756
 8114SOL     OW35974   1.249   2.261   6.584  0.0148  0.1699 -0.4797
 8114SOL    HW135975   1.208   2.345   6.561 -0.5468 -0.5012 -1.9303
 8114SOL    HW235976   1.183   2.201   6.549 -0.2295 -0.6190  1.3123
 8115SOL     OW35977   2.770   1.694   8.155 -0.6483 -0.6524  0.4402
 8115SOL    HW135978   2.752   1.755   8.227  1.0648  2.0095 -1.3973
 8115SOL    HW235979   2.758   1.741   8.073  1.5466  0.5703  0.8424
 8116SOL     OW35980   2.839   1.238   1.576 -0.2461 -0.0506 -0.0406
 8116SOL    HW135981   2.925   1.228   1.616  1.2083 -0.9587 -3.3413
 8116SOL    HW235982   2.868   1.277   1.493  1.2327  0.0621  0.5357
 8117SOL     OW35983   0.962   1.362   7.294  0.3013  0.2849 -0.1738
 8117SOL    HW135984   0.995   1.313   7.219  0.1222 -1.4381  0.8522
 8117SOL    HW235985   0.872   1.375   7.266 -0.9798 -0.8921  3.3396
 8118SOL     OW35986   1.424   1.263   2.860 -0.2054  0.6141 -0.1167
 8118SOL    HW135987   1.489   1.199   2.830 -1.2889 -1.0254  1.0141
 8118SOL    HW235988   1.434   1.249   2.954 -0.8593  1.9705  0.1642
 8119SOL     OW35989   4.382   3.002   7.306  0.3126 -0.0236 -0.1685
 8119SOL    HW135990   4.397   3.009   7.212 -0.8058  1.4337 -0.2551
 8119SOL    HW235991   4.437   3.072   7.341 -1.7125  1.1878  0.6506
 8120SOL     OW35992   0.032   2.025  17.233 -0.2731  0.1285  0.0775
 8120SOL    HW135993   0.087   2.039  17.311  0.3910 -2.3800  0.0373
 8120SOL    HW235994   0.010   2.115  17.208  0.1015 -0.1309 -1.1518
 8121SOL     OW35995   1.272   4.197   4.873 -0.7377  0.7973 -0.6547
 8121SOL    HW135996   1.367   4.202   4.857 -0.4620 -2.0952  0.1341
 8121SOL    HW235997   1.267   4.150   4.956  2.0027 -0.4696 -1.2014
 8122SOL     OW35998   1.212   2.520   7.292  0.2836 -0.6083 -0.2403
 8122SOL    HW135999   1.304   2.497   7.273  0.5368  0.0165  0.2603
 8122SOL    HW236000   1.179   2.443   7.246 -2.1522 -0.6765  1.6592
 8123SOL     OW36001   2.787   2.274   6.304 -0.2727  0.4370  0.8753
 8123SOL    HW136002   2.720   2.316   6.251  0.3360 -0.1441 -0.3522
 8123SOL    HW236003   2.853   2.341   6.323  0.3442  0.2299 -0.5169
 8124SOL     OW36004   2.986   2.133   1.968 -0.1456 -0.1031  0.2670
 8124SOL    HW136005   3.052   2.192   1.930  0.0286  0.5834  1.6227
 8124SOL    HW236006   2.916   2.157   1.907  0.7185  0.7251 -0.4186
 8125SOL     OW36007   3.773   1.174  16.685 -0.5425 -0.1193 -0.1625
 8125SOL    HW136008   3.805   1.258  16.651 -1.9826  0.6881  0.4640
 8125SOL    HW236009   3.712   1.148  16.615  0.2148 -1.9779 -0.1213
 8126SOL     OW36010   2.876   2.859   4.769 -0.2510 -0.0239  0.2775
 8126SOL    HW136011   2.784   2.887   4.772 -0.0578  0.5144  1.2300
 8126SOL    HW236012   2.897   2.870   4.862 -0.2435 -1.0467  0.4046
 8127SOL     OW36013   2.934   0.715   2.139  0.1420  0.4925  0.6683
 8127SOL    HW136014   2.881   0.643   2.174  0.1633 -0.1402 -0.5973
 8127SOL    HW236015   3.015   0.674   2.111  1.6268  3.1761  1.0116
 8128SOL     OW36016   1.253   0.823   9.541  0.2479  0.0107 -0.2199
 8128SOL    HW136017   1.289   0.909   9.563 -0.0363  0.2949 -0.8816
 8128SOL    HW236018   1.258   0.776   9.625 -1.1419 -1.3067 -0.8688
 8129SOL     OW36019   0.094   2.806  13.703  0.4677 -0.6681  0.1292
 8129SOL    HW136020   0.136   2.892  13.700 -0.9727  0.0141 -0.2819
 8129SOL    HW236021   4.739   2.820  13.699  0.4724 -0.3418  1.0759
 8130SOL     OW36022   2.760   2.459  15.245 -0.0282 -0.2986  0.1565
 8130SOL    HW136023   2.776   2.437  15.153  0.8630  2.7737 -0.4434
 8130SOL    HW236024   2.781   2.551  15.259 -0.0212 -0.4549  1.1547
 8131SOL     OW36025   1.373   4.619  12.343 -0.4485  0.7348  0.1014
 8131SOL    HW136026   1.319   4.575  12.277  2.4399 -2.0665 -0.3971
 8131SOL    HW236027   1.454   4.568  12.338  0.0920  1.4153  1.9722
 8132SOL     OW36028   3.023   2.550   4.212  0.6715  0.0774  0.0464
 8132SOL    HW136029   2.979   2.586   4.135 -0.6045 -0.8849  0.3040
 8132SOL    HW236030   3.051   2.631   4.253 -0.2379  0.5670 -0.2827
 8133SOL     OW36031   3.544   3.336   4.528 -0.6027 -0.1097  0.4355
 8133SOL    HW136032   3.530   3.242   4.529  0.7613 -0.3314 -0.2641
 8133SOL    HW236033   3.617   3.340   4.589 -0.2181 -1.0941  0.0402
 8134SOL     OW36034   0.351   0.405   2.899 -1.0252  0.2897  0.1423
 8134SOL    HW136035   0.416   0.474   2.914  1.3495 -1.9696  0.2865
 8134SOL    HW236036   0.396   0.337   2.949 -5.0008 -3.0763 -0.8991
 8135SOL     OW36037   4.125   4.651  12.038 -0.8713  0.2310  0.0971
 8135SOL    HW136038   4.109   0.001  12.069  0.2370  0.8363 -1.0642
 8135SOL    HW236039   4.136   4.603  12.120 -2.2294  0.7026  0.5597
 8136SOL     OW36040   3.177   3.461   1.177  0.0715  0.1143 -0.1036
 8136SOL    HW136041   3.169   3.453   1.272  0.9798 -0.6918 -0.1099
 8136SOL    HW236042   3.149   3.548   1.148 -0.2126  0.1265  0.2006
 8137SOL     OW36043   1.666   3.099  10.945 -0.5418  0.2200 -0.3958
 8137SOL    HW136044   1.744   3.153  10.948  0.3498 -1.0672 -0.3852
 8137SOL    HW236045   1.699   3.021  10.989 -1.0827  0.0487 -0.2915
 8138SOL     OW36046   3.884   2.187   7.854 -0.5483 -0.2161 -0.2950
 8138SOL    HW136047   3.909   2.112   7.907  0.0917  0.7135  0.7234
 8138SOL    HW236048   3.900   2.260   7.913  0.4443  0.1387 -0.9982
 8139SOL     OW36049   4.671   4.401  13.054 -0.5445  0.1466  0.5389
 8139SOL    HW136050   4.591   4.452  13.043 -0.4476  0.3361  0.7294
 8139SOL    HW236051   4.695   4.427  13.143 -2.2786 -0.8242  1.2923
 8140SOL     OW36052   4.396   3.204   2.530  0.3984  0.0791 -0.2138
 8140SOL    HW136053   4.474   3.249   2.562  0.8161  0.0292 -1.1698
 8140SOL    HW236054   4.351   3.184   2.612  0.1405 -1.2293 -0.6737
 8141SOL     OW36055   0.403   4.128   9.636 -0.2723  0.1395 -0.0442
 8141SOL    HW136056   0.329   4.110   9.578 -0.9896  2.7023  0.1012
 8141SOL    HW236057   0.468   4.067   9.600  1.2242  0.1382  2.6723
 8142SOL     OW36058   3.172   0.152   9.996  0.3980 -0.3344  0.2911
 8142SOL    HW136059   3.258   0.115   9.979  0.6441  0.0669  0.6968
 8142SOL    HW236060   3.115   0.080   9.968  2.6536 -1.8083 -0.4699
 8143SOL     OW36061   1.629   4.736  13.998 -0.5540  0.4755  0.1827
 8143SOL    HW136062   1.671   0.030  14.077  0.1136 -0.3996  0.1975
 8143SOL    HW236063   1.618   0.082  13.956 -0.1862  1.0916  1.3378
 8144SOL     OW36064   2.821   2.218   3.405  0.2980 -0.3957  0.3590
 8144SOL    HW136065   2.884   2.154   3.371  2.0523  1.3588  0.2707
 8144SOL    HW236066   2.841   2.297   3.355 -1.9873  0.3067  0.5624
 8145SOL     OW36067   3.409   0.297   6.178  0.0240 -0.2705 -0.0833
 8145SOL    HW136068   3.333   0.340   6.138  0.0719  0.0880  0.2098
 8145SOL    HW236069   3.482   0.347   6.141  0.0774 -0.1212  0.2274
 8146SOL     OW36070   1.584   0.280   4.207  0.1357  0.4208 -0.2645
 8146SOL    HW136071   1.662   0.280   4.151  0.8155 -0.5753  0.6847
 8146SOL    HW236072   1.520   0.265   4.138 -0.5145  0.7542  0.2701
 8147SOL     OW36073   0.919   4.039   4.103 -0.3650 -1.4306 -0.2076
 8147SOL    HW136074   0.985   4.058   4.169 -0.1034  0.6455 -1.0595
 8147SOL    HW236075   0.951   4.107   4.044  1.8189 -0.3583  2.2349
 8148SOL     OW36076   1.722   2.838   7.848  0.3407 -0.1618 -0.7875
 8148SOL    HW136077   1.748   2.753   7.813  0.7094 -0.5707  0.4895
 8148SOL    HW236078   1.696   2.812   7.936  3.0089 -1.5690 -0.4348
 8149SOL     OW36079   0.992   0.993  16.912 -0.0326 -0.0222  0.0237
 8149SOL    HW136080   0.985   0.901  16.886  0.6549 -0.4429  1.3515
 8149SOL    HW236081   0.919   1.031  16.862 -0.1433  2.9457  2.4869
 8150SOL     OW36082   1.942   2.995  14.200 -0.0953  0.3272  0.6016
 8150SOL    HW136083   1.914   2.921  14.253  0.4720 -0.5674 -0.3293
 8150SOL    HW236084   2.017   3.034  14.244  1.3467  1.7434 -3.0933
 8151SOL     OW36085   3.469   2.976   0.547 -0.0190 -0.1271  0.5742
 8151SOL    HW136086   3.460   2.994   0.454  0.9863 -0.7401  0.3494
 8151SOL    HW236087   3.382   2.949   0.576  0.0778  0.9207  1.8275
 8152SOL     OW36088   0.194   1.365  14.882  0.0088 -0.1416  0.0908
 8152SOL    HW136089   0.201   1.272  14.903 -0.3317 -0.3174 -0.5653
 8152SOL    HW236090   0.188   1.362  14.787  1.2121 -3.0975  0.1358
 8153SOL     OW36091   0.861   3.517   7.301  0.0517  0.1777  0.1209
 8153SOL    HW136092   0.877   3.442   7.244  0.5764  2.4585 -2.6952
 8153SOL    HW236093   0.868   3.588   7.237  0.2996 -0.5796 -0.6921
 8154SOL     OW36094   1.965   1.106   5.513  0.2034  0.0819 -0.0233
 8154SOL    HW136095   2.045   1.097   5.461 -0.9072 -3.9770 -1.0046
 8154SOL    HW236096   1.970   1.026   5.566  1.2497  0.0221 -0.1968
 8155SOL     OW36097   1.937   1.575  12.251 -0.0984 -0.4724  0.2349
 8155SOL    HW136098   1.845   1.584  12.227 -0.0326 -3.3402 -1.0223
 8155SOL    HW236099   1.934   1.566  12.346 -0.1121  2.1888  0.5052
 8156SOL     OW36100   1.921   2.895   3.898 -0.5043 -0.0421 -0.3313
 8156SOL    HW136101   1.937   2.981   3.936  0.4802 -1.3338  2.1659
 8156SOL    HW236102   1.973   2.895   3.817 -0.6248  1.6676 -0.4050
 8157SOL     OW36103   1.588   0.320   6.111  0.0045  0.4384 -0.1164
 8157SOL    HW136104   1.679   0.342   6.090 -0.3402  1.3444 -0.6549
 8157SOL    HW236105   1.582   0.225   6.124 -2.6929  0.4413 -1.2191
 8158SOL     OW36106   2.130   0.625  13.881 -0.6145  0.1121  0.4874
 8158SOL    HW136107   2.223   0.606  13.889 -0.6077  0.1520  0.5028
 8158SOL    HW236108   2.101   0.610  13.971 -1.7806 -3.1976 -0.4435
 8159SOL     OW36109   1.734   1.584   9.244  0.4886  0.2503 -0.3886
 8159SOL    HW136110   1.753   1.670   9.207  0.2007  1.0173  1.2441
 8159SOL    HW236111   1.639   1.598   9.245  0.5081  0.3096  0.4144
 8160SOL     OW36112   0.461   2.456  12.119 -0.0308 -0.0062  0.6645
 8160SOL    HW136113   0.501   2.410  12.045  0.6285 -1.1415  1.7174
 8160SOL    HW236114   0.526   2.522  12.141  2.2526 -1.4382 -1.7313
 8161SOL     OW36115   3.613   3.422   2.039 -0.2192 -0.1697 -0.1515
 8161SOL    HW136116   3.581   3.359   2.104  1.6267 -1.2071 -0.2668
 8161SOL    HW236117   3.692   3.445   2.088 -0.4701  0.7169 -0.1479
 8162SOL     OW36118   2.947   2.059   4.228  0.3922 -0.1232  0.4048
 8162SOL    HW136119   2.996   2.082   4.306  0.4740  0.1652  0.2688
 8162SOL    HW236120   3.009   2.092   4.163 -1.1584 -0.6434 -1.3515
 8163SOL     OW36121   2.118   2.856   3.705  0.7517 -0.0027  0.2628
 8163SOL    HW136122   2.164   2.791   3.758  1.0446  1.5657  1.9419
 8163SOL    HW236123   2.104   2.807   3.624 -1.0696  0.3784  0.3417
 8164SOL     OW36124   1.248   2.757   8.345 -0.5035  0.3069 -0.6137
 8164SOL    HW136125   1.308   2.694   8.384 -0.5679  1.4814  1.3964
 8164SOL    HW236126   1.300   2.826   8.303 -1.2175  1.6972  0.7848
 8165SOL     OW36127   1.387   0.530  14.582  0.3728  0.0876  0.2998
 8165SOL    HW136128   1.336   0.529  14.663  0.5224  0.1307  0.3953
 8165SOL    HW236129   1.367   0.620  14.557  0.1730 -0.1008 -0.2230
 8166SOL     OW36130   2.923   4.426   7.329 -0.4917  0.2702 -0.0269
 8166SOL    HW136131   2.893   4.464   7.411 -0.0848  0.3698  0.0760
 8166SOL    HW236132   2.844   4.402   7.280 -0.6474  0.1772  0.2688
 8167SOL     OW36133   0.481   4.294   4.771 -0.7143  0.3440  0.3175
 8167SOL    HW136134   0.485   4.199   4.780 -3.2944  0.2814  0.8899
 8167SOL    HW236135   0.574   4.311   4.764 -1.0432  2.0470  0.1187
 8168SOL     OW36136   2.008   2.870   4.795 -0.1317 -0.8442  0.2938
 8168SOL    HW136137   2.038   2.960   4.809  1.0933 -0.9174 -1.7092
 8168SOL    HW236138   2.043   2.833   4.876 -0.1028 -0.3596  0.4968
 8169SOL     OW36139   0.786   0.515   2.367 -0.2382 -0.0946 -0.1578
 8169SOL    HW136140   0.757   0.447   2.306 -0.3322  0.6992 -0.9780
 8169SOL    HW236141   0.700   0.546   2.396 -0.5629 -0.1772 -1.0523
 8170SOL     OW36142   2.864   4.330   4.116 -0.2022 -0.4266  0.2921
 8170SOL    HW136143   2.807   4.262   4.081  1.4602 -2.4480  1.4943
 8170SOL    HW236144   2.810   4.368   4.185 -1.8589  0.8692 -1.7242
 8171SOL     OW36145   1.926   4.086  10.340  0.5799  0.0693  0.5442
 8171SOL    HW136146   1.983   4.058  10.411  0.9047 -0.7375 -0.0379
 8171SOL    HW236147   1.887   4.163  10.381  0.6088 -0.9683  2.5104
 8172SOL     OW36148   1.065   2.018   5.016  0.0934 -0.3952  0.1573
 8172SOL    HW136149   1.076   2.112   5.032 -0.8743 -0.2039 -0.2883
 8172SOL    HW236150   1.036   2.035   4.926  0.5875 -0.3372  0.0050
 8173SOL     OW36151   2.555   4.327  13.738 -0.0447 -0.2404  0.7381
 8173SOL    HW136152   2.612   4.337  13.814 -2.1156  1.3031  2.1023
 8173SOL    HW236153   2.496   4.262  13.777 -1.3008 -0.8435 -2.1600
 8174SOL     OW36154   2.926   2.853  16.708 -0.3944  0.4331  0.0341
 8174SOL    HW136155   2.896   2.941  16.730 -1.0742  0.6306 -1.7434
 8174SOL    HW236156   2.874   2.849  16.628  0.4545 -0.0892 -0.4882
 8175SOL     OW36157   1.321   2.905   9.117 -0.4570 -0.1446 -0.7416
 8175SOL    HW136158   1.303   2.824   9.165  0.0443 -0.2618 -0.7544
 8175SOL    HW236159   1.248   2.897   9.056 -1.7140  1.7354  0.4736
 8176SOL     OW36160   1.209   4.340   2.360 -1.0726  0.3523  0.0041
 8176SOL    HW136161   1.191   4.433   2.348  0.3597  0.6186 -0.0828
 8176SOL    HW236162   1.127   4.298   2.383 -0.1522 -1.8985 -0.8193
 8177SOL     OW36163   4.200   0.070   8.225  0.5125 -0.9450 -0.2469
 8177SOL    HW136164   4.274   0.013   8.205  0.0069 -2.4491  2.1850
 8177SOL    HW236165   4.182   0.046   8.316  0.7203  2.6729  0.7629
 8178SOL     OW36166   1.318   3.745  16.625  0.9325 -0.1216 -0.0818
 8178SOL    HW136167   1.346   3.678  16.687  2.0022  1.7419  1.4710
 8178SOL    HW236168   1.382   3.733  16.554  2.1623  0.2847  0.9480
 8179SOL     OW36169   3.440   1.122  16.212  0.0078 -0.3551  0.4831
 8179SOL    HW136170   3.462   1.209  16.178 -1.2729 -0.6830 -1.1992
 8179SOL    HW236171   3.496   1.067  16.157 -0.5252 -1.6174  1.2177
 8180SOL     OW36172   4.150   3.509   0.375  0.6101 -0.9290  0.3656
 8180SOL    HW136173   4.151   3.415   0.356 -1.8624 -0.6183 -1.3281
 8180SOL    HW236174   4.094   3.533   0.301 -2.3865 -2.1112  2.2434
 8181SOL     OW36175   0.093   1.275   5.667 -0.0310  0.1567 -0.1884
 8181SOL    HW136176   0.038   1.352   5.653  1.0118  0.6553 -1.6361
 8181SOL    HW236177   0.177   1.314   5.693  0.4658  0.5500 -2.3789
 8182SOL     OW36178   3.682   2.915   2.254  0.3078 -0.5235  0.2710
 8182SOL    HW136179   3.706   2.843   2.197 -1.5370 -1.2690  0.4331
 8182SOL    HW236180   3.748   2.916   2.324  0.0059 -1.2428  0.5655
 8183SOL     OW36181   3.173   2.667   7.695  0.0221  0.0328 -0.3669
 8183SOL    HW136182   3.216   2.749   7.673 -0.0248  0.1549 -0.0031
 8183SOL    HW236183   3.088   2.689   7.733 -0.2290 -2.0977  0.3292
 8184SOL     OW36184   1.892   3.063   7.825  0.2285 -0.4941 -0.2944
 8184SOL    HW136185   1.848   2.980   7.844  1.7868 -1.0102  1.0526
 8184SOL    HW236186   1.841   3.129   7.870  1.5235 -0.9019  1.7523
 8185SOL     OW36187   0.685   0.789  14.091  0.1347 -0.3913  0.1586
 8185SOL    HW136188   0.641   0.774  14.175 -0.3389 -1.8856 -0.3651
 8185SOL    HW236189   0.616   0.771  14.027 -3.5071  0.9767  3.6480
 8186SOL     OW36190   4.229   2.463  17.534 -0.3664  0.0426 -0.0672
 8186SOL    HW136191   4.179   2.535  17.497 -1.6735 -0.6754  0.2894
 8186SOL    HW236192   4.262   2.414  17.458  1.5289  0.6071  0.4032
 8187SOL     OW36193   4.693   2.003   5.695  0.7023  0.5115  0.7652
 8187SOL    HW136194   4.732   1.951   5.625 -0.4147  0.9405 -0.1761
 8187SOL    HW236195   4.687   2.092   5.659 -2.7352  0.1820  0.5477
 8188SOL     OW36196   2.697   2.093  13.254 -0.0352 -0.0565 -0.2436
 8188SOL    HW136197   2.603   2.076  13.247  0.0510 -1.7895  2.7502
 8188SOL    HW236198   2.731   2.005  13.267  0.3060  0.2696  1.0809
 8189SOL     OW36199   1.893   1.877   5.457 -0.3088  0.1076 -0.3720
 8189SOL    HW136200   1.826   1.811   5.476  0.7011 -0.1197  2.3273
 8189SOL    HW236201   1.848   1.960   5.474  0.2447  0.3231  0.0165
 8190SOL     OW36202   3.849   1.020   1.853  0.1988  0.7522  0.0955
 8190SOL    HW136203   3.820   0.992   1.766  0.4643 -0.4789  0.4076
 8190SOL    HW236204   3.853   1.115   1.845  0.9504  0.6562 -0.5945
 8191SOL     OW36205   3.298   4.346   9.885  0.0061 -0.0902  0.1243
 8191SOL    HW136206   3.268   4.429   9.848 -2.2728  0.2165  2.6719
 8191SOL    HW236207   3.372   4.373   9.939  0.7085 -2.6248  0.4434
 8192SOL     OW36208   2.823   1.697   1.940  0.0509 -0.4638  0.1825
 8192SOL    HW136209   2.780   1.696   2.025  0.3682  1.5469  0.3774
 8192SOL    HW236210   2.807   1.607   1.913  0.4218 -0.8386  1.2336
 8193SOL     OW36211   2.490   0.009   4.714  0.4496  0.1109  0.0006
 8193SOL    HW136212   2.559   0.074   4.697  0.5581 -0.2865 -1.1099
 8193SOL    HW236213   2.425   0.036   4.649 -0.7053  0.0717  1.1401
 8194SOL     OW36214   4.607   0.922   7.477  0.3376  0.1854 -0.6305
 8194SOL    HW136215   4.560   0.921   7.561 -1.9776  0.4289 -1.9071
 8194SOL    HW236216   4.691   0.927   7.521  0.1624  0.4253 -0.3204
 8195SOL     OW36217   3.073   4.026  15.626 -0.2175 -0.2864 -0.1921
 8195SOL    HW136218   3.118   4.104  15.658  0.9150 -0.5301 -1.2001
 8195SOL    HW236219   3.104   4.023  15.536  3.2400  0.5123  0.9663
 8196SOL     OW36220   4.500   3.897   3.223 -0.1924  0.0460 -0.6225
 8196SOL    HW136221   4.414   3.900   3.181 -0.2186 -0.6181 -0.6101
 8196SOL    HW236222   4.556   3.907   3.146 -1.4400  0.3420 -1.4957
 8197SOL     OW36223   2.089   2.951   6.783  0.0026  0.1885 -0.2519
 8197SOL    HW136224   2.078   2.856   6.772  0.6836  0.4110 -3.0868
 8197SOL    HW236225   2.097   2.956   6.878  0.9803  0.3357 -0.3438
 8198SOL     OW36226   4.639   1.732   3.467  0.0601 -0.3020 -0.6998
 8198SOL    HW136227   4.641   1.655   3.525 -1.1712  0.8117  0.8527
 8198SOL    HW236228   4.560   1.777   3.497  1.2682  1.2960  0.1194
 8199SOL     OW36229   2.266   1.035   2.229 -0.2272  0.0250  0.1607
 8199SOL    HW136230   2.228   0.948   2.242  0.4204 -0.1794  0.7014
 8199SOL    HW236231   2.198   1.070   2.171 -0.3782 -0.0091  0.3195
 8200SOL     OW36232   3.123   3.669   6.197  0.1649 -0.0188  0.7780
 8200SOL    HW136233   3.086   3.679   6.110 -0.1277 -2.4681  0.6299
 8200SOL    HW236234   3.202   3.723   6.198 -0.7180  1.2819  0.1210
 8201SOL     OW36235   0.853   4.576   7.595  0.4263  0.2729  0.3167
 8201SOL    HW136236   0.913   4.572   7.520  1.3899  3.4530  0.9116
 8201SOL    HW236237   0.812   4.489   7.595 -2.5059  1.6423 -2.6561
 8202SOL     OW36238   3.110   2.652   3.825 -0.7205  0.4843  0.0825
 8202SOL    HW136239   3.016   2.635   3.830 -0.5316 -0.4836  0.3342
 8202SOL    HW236240   3.136   2.586   3.761 -3.1688  1.1389 -1.5715
 8203SOL     OW36241   2.167   0.558   7.604 -0.1855 -0.2043  0.3382
 8203SOL    HW136242   2.196   0.567   7.513 -0.7130  0.5045  0.2453
 8203SOL    HW236243   2.144   0.465   7.602 -1.5525  0.1676 -1.8970
 8204SOL     OW36244   1.832   1.611  14.769 -0.3924 -0.2268  0.1790
 8204SOL    HW136245   1.851   1.591  14.861  0.7876  1.4354  0.3004
 8204SOL    HW236246   1.914   1.653  14.744 -1.5087  0.9327 -1.4892
 8205SOL     OW36247   1.461   3.813   3.756 -0.2220 -0.2455  0.1277
 8205SOL    HW136248   1.525   3.796   3.826  1.0069 -0.1416 -0.9706
 8205SOL    HW236249   1.528   3.857   3.703 -0.1445  2.8054  2.7394
 8206SOL     OW36250   1.934   4.539   3.702  1.0746  0.1937 -0.1083
 8206SOL    HW136251   1.980   4.455   3.692 -0.5650 -0.4195 -2.5686
 8206SOL    HW236252   1.928   4.571   3.612  3.4028  1.9106  0.3276
 8207SOL     OW36253   2.203   3.989   1.128  0.0446  0.0075  0.0107
 8207SOL    HW136254   2.157   4.064   1.092 -1.6895 -1.0940 -0.0708
 8207SOL    HW236255   2.216   4.017   1.218  2.8938 -0.2079 -0.3198
 8208SOL     OW36256   4.210   2.661   4.128  0.0982  0.0185  0.9945
 8208SOL    HW136257   4.228   2.701   4.043  2.1659 -1.5550  0.6775
 8208SOL    HW236258   4.118   2.644   4.107  0.3541  0.8592 -0.8308
 8209SOL     OW36259   3.224   3.149   1.550 -0.5851  0.2233 -0.4143
 8209SOL    HW136260   3.218   3.152   1.645  1.9939  0.9356 -0.2582
 8209SOL    HW236261   3.152   3.210   1.532  0.7985  1.3803 -2.0093
 8210SOL     OW36262   4.449   1.732   2.437 -0.2375 -0.1520  0.5960
 8210SOL    HW136263   4.505   1.691   2.503 -0.2629 -1.6423 -0.3076
 8210SOL    HW236264   4.395   1.656   2.414  0.9989 -0.9148  0.2114
 8211SOL     OW36265   0.956   2.074   5.988 -0.1067  0.6040  0.5225
 8211SOL    HW136266   0.926   2.048   6.074  1.6919  1.9996  1.5819
 8211SOL    HW236267   1.045   2.039   5.984  0.0601  0.8908  1.7719
 8212SOL     OW36268   2.904   3.302   5.434  0.0958 -0.3664  0.1254
 8212SOL    HW136269   2.898   3.377   5.493  0.3870  1.0155 -1.6052
 8212SOL    HW236270   2.982   3.256   5.465 -0.3375 -0.8766  0.4568
 8213SOL     OW36271   0.257   2.042   9.565 -0.8979 -0.4325 -0.8177
 8213SOL    HW136272   0.188   2.051   9.631 -1.6139 -2.5919 -1.2658
 8213SOL    HW236273   0.209   2.069   9.487 -0.0906  1.3929 -0.6975
 8214SOL     OW36274   3.946   0.679  10.182 -0.0552 -0.2716 -0.0100
 8214SOL    HW136275   3.889   0.698  10.256 -0.8242  0.1875 -0.7194
 8214SOL    HW236276   4.013   0.625  10.224 -0.3311 -0.0045  0.7609
 8215SOL     OW36277   3.331   0.086   3.795 -0.4212  0.2791 -0.1681
 8215SOL    HW136278   3.371   0.173   3.788  1.0373 -0.1363  2.8004
 8215SOL    HW236279   3.260   0.095   3.732 -1.3873  0.8098  0.9923
 8216SOL     OW36280   2.502   3.642  12.538  0.1738  0.0016 -0.1560
 8216SOL    HW136281   2.443   3.568  12.525  0.0450  0.3705 -1.7515
 8216SOL    HW236282   2.460   3.670  12.618  1.1586  0.3084  0.2568
 8217SOL     OW36283   3.567   0.396   8.129 -0.4749 -0.1122  0.3057
 8217SOL    HW136284   3.574   0.490   8.112 -0.4799 -0.5920 -2.2713
 8217SOL    HW236285   3.480   0.369   8.099  0.4210 -3.1813  0.4367
 8218SOL     OW36286   4.312   1.109   8.747 -0.1555  0.3806 -0.3119
 8218SOL    HW136287   4.300   1.031   8.801 -0.5822  0.0253 -0.9105
 8218SOL    HW236288   4.265   1.086   8.666 -1.1992 -1.5614  0.8455
 8219SOL     OW36289   0.300   0.230   4.740  0.1730  0.3455  0.1199
 8219SOL    HW136290   0.268   0.217   4.829 -1.5006 -0.3579 -0.5917
 8219SOL    HW236291   0.217   0.220   4.695  1.3058  0.3580 -1.9743
 8220SOL     OW36292   0.893   2.918   8.848 -0.4531 -0.0687 -0.2226
 8220SOL    HW136293   0.957   2.854   8.818 -0.0635  2.1251 -3.9950
 8220SOL    HW236294   0.953   2.967   8.905 -1.2588  0.8063 -0.1254
 8221SOL     OW36295   4.101   2.098   6.285 -0.1794  0.1508 -0.1186
 8221SOL    HW136296   4.014   2.083   6.321 -0.5991  1.9884 -0.3965
 8221SOL    HW236297   4.153   2.034   6.334  0.3749  0.3786 -0.4046
 8222SOL     OW36298   2.213   2.217   3.778  0.5281 -0.1333 -0.4818
 8222SOL    HW136299   2.141   2.280   3.766 -1.5983 -2.3609  0.5699
 8222SOL    HW236300   2.173   2.147   3.829  0.5643  0.6280  0.5780
 8223SOL     OW36301   4.659   1.169   3.344  0.3909  0.1250  0.6985
 8223SOL    HW136302   4.640   1.092   3.291 -0.4183 -0.3446  1.6601
 8223SOL    HW236303   0.005   1.147   3.383  0.2933  0.3614  1.0538
 8224SOL     OW36304   1.889   3.842   6.264  0.3662  0.0924  0.3463
 8224SOL    HW136305   1.876   3.765   6.209  2.4513  0.4424 -0.6313
 8224SOL    HW236306   1.850   3.823   6.350 -3.5702 -0.3641 -1.5717
 8225SOL     OW36307   0.792   2.970   4.688  0.4143 -0.4696 -0.1021
 8225SOL    HW136308   0.832   3.034   4.747  1.0645 -0.6506 -0.3439
 8225SOL    HW236309   0.870   2.914   4.683  1.7452  1.1109  2.3695
 8226SOL     OW36310   2.724   3.549   3.267  0.2381  0.4534  0.4582
 8226SOL    HW136311   2.630   3.536   3.272  0.9444 -3.5375  3.5396
 8226SOL    HW236312   2.747   3.505   3.349  4.7233  1.5960 -0.1477
 8227SOL     OW36313   2.755   0.117  17.681  0.4534 -0.4735  0.4006
 8227SOL    HW136314   2.786   0.078   0.010  1.7839  1.1311  0.6519
 8227SOL    HW236315   2.815   0.070  17.623  1.5468 -0.6452  1.6691
 8228SOL     OW36316   2.511   0.911   3.107 -0.2940  0.1743  0.6613
 8228SOL    HW136317   2.593   0.959   3.094  0.5832 -1.5931 -0.2332
 8228SOL    HW236318   2.452   0.945   3.040 -1.8210  0.0369  1.9403
 8229SOL     OW36319   1.917   2.715   5.832  0.4928 -0.2178 -0.2854
 8229SOL    HW136320   1.880   2.731   5.919  1.8038 -0.3391  0.2882
 8229SOL    HW236321   1.852   2.647   5.814 -0.0623 -0.1488  1.4609
 8230SOL     OW36322   0.478   1.446   2.625 -0.0098  0.1249 -0.0224
 8230SOL    HW136323   0.524   1.368   2.594  1.7558  2.3492 -3.0021
 8230SOL    HW236324   0.556   1.499   2.641 -0.2095 -0.2183  2.0789
 8231SOL     OW36325   0.320   1.939   4.261  0.0026 -0.0901 -0.7663
 8231SOL    HW136326   0.229   1.963   4.276  0.5071  1.8780 -0.7853
 8231SOL    HW236327   0.306   1.919   4.168 -0.9037  0.5997 -0.7791
 8232SOL     OW36328   1.773   4.555   5.705 -0.4807 -0.6251  0.1746
 8232SOL    HW136329   1.830   4.544   5.781  0.5216 -2.8106 -0.9077
 8232SOL    HW236330   1.836   4.607   5.654 -0.2690 -0.1976  0.8728
 8233SOL     OW36331   3.442   3.536   4.757 -0.1416  0.6146 -0.1075
 8233SOL    HW136332   3.449   3.445   4.784 -2.3739 -0.2803 -2.5441
 8233SOL    HW236333   3.460   3.509   4.667  0.1752  2.1081 -0.4948
 8234SOL     OW36334   2.016   1.538   4.716  0.0207 -0.2709  0.0580
 8234SOL    HW136335   2.107   1.509   4.717 -0.6810 -2.3495  1.9818
 8234SOL    HW236336   2.023   1.619   4.766 -0.2023 -0.7390  0.8494
 8235SOL     OW36337   0.700   4.205   9.253 -0.3128  0.2207 -0.0158
 8235SOL    HW136338   0.653   4.134   9.209 -2.1275 -0.9940  3.9184
 8235SOL    HW236339   0.741   4.259   9.185 -1.9660 -0.5253 -1.6296
 8236SOL     OW36340   4.152   1.097  15.084  0.5066 -0.0740 -0.0715
 8236SOL    HW136341   4.071   1.064  15.046  0.2472  0.9256 -0.3772
 8236SOL    HW236342   4.199   1.122  15.004  4.2765 -1.1634  1.7723
 8237SOL     OW36343   3.928   4.438   9.519 -0.2544 -0.1622  0.4276
 8237SOL    HW136344   3.890   4.358   9.556  0.1263  0.4505  2.1749
 8237SOL    HW236345   3.871   4.506   9.556  0.6821  1.1558 -0.5305
 8238SOL     OW36346   3.434   0.550   2.256 -0.2743  0.1350 -0.0820
 8238SOL    HW136347   3.504   0.512   2.203  0.7181  1.2552  0.4332
 8238SOL    HW236348   3.477   0.581   2.336 -1.1347 -0.1813  0.5089
 8239SOL     OW36349   2.598   2.546   1.725  0.4072  0.0457  0.4596
 8239SOL    HW136350   2.637   2.594   1.799  1.6188  3.0243 -2.1265
 8239SOL    HW236351   2.662   2.574   1.660  0.5620 -0.8843  0.2218
 8240SOL     OW36352   3.612   3.858   7.183  0.3054  0.6032  0.5224
 8240SOL    HW136353   3.618   3.928   7.118  1.3222 -0.8389 -0.9258
 8240SOL    HW236354   3.642   3.786   7.128  1.8912  1.0102  0.8605
 8241SOL     OW36355   2.861   0.640   5.852 -0.4391 -0.4434  0.0538
 8241SOL    HW136356   2.860   0.641   5.756 -0.4019  0.0602  0.0590
 8241SOL    HW236357   2.820   0.557   5.876 -2.1159  0.1933 -0.5989
 8242SOL     OW36358   0.283   0.987   1.886  0.5387  0.0089  0.5832
 8242SOL    HW136359   0.199   0.944   1.867  0.0280  0.0649  2.7747
 8242SOL    HW236360   0.262   1.069   1.931  0.6094  0.3211  0.0473
 8243SOL     OW36361   3.325   4.598   8.670 -0.4282 -0.6547  0.5544
 8243SOL    HW136362   3.382   4.608   8.747  0.7911 -0.0399 -0.4391
 8243SOL    HW236363   3.394   4.568   8.611 -0.5834 -1.3377  0.7196
 8244SOL     OW36364   2.716   2.850  11.615  0.3287  0.4552 -0.2036
 8244SOL    HW136365   2.696   2.942  11.595 -2.0416  0.0761  0.4121
 8244SOL    HW236366   2.707   2.871  11.708  0.5140  1.5114 -0.4251
 8245SOL     OW36367   1.734   0.390   9.897  0.0821  0.0344 -0.3885
 8245SOL    HW136368   1.655   0.337   9.886  0.4386 -0.5863  0.0239
 8245SOL    HW236369   1.713   0.479   9.869  0.9431  0.6890  1.0383
 8246SOL     OW36370   2.946   0.552   3.069 -0.1967 -0.0102 -1.2180
 8246SOL    HW136371   2.981   0.623   3.016  1.0358  0.2067 -0.1075
 8246SOL    HW236372   2.932   0.486   3.001  2.5381 -2.8277  0.9221
 8247SOL     OW36373   4.077   0.893   3.080 -0.2758 -0.2585 -0.0141
 8247SOL    HW136374   3.985   0.916   3.093 -0.4161 -0.3812 -0.7908
 8247SOL    HW236375   4.072   0.802   3.050  0.9824 -0.1078 -0.6715
 8248SOL     OW36376   1.557   3.174   3.651 -0.0278  0.6099 -0.1009
 8248SOL    HW136377   1.522   3.249   3.699 -1.7139 -0.1333 -0.2053
 8248SOL    HW236378   1.609   3.134   3.720 -1.1180 -0.5868  0.0141
 8249SOL     OW36379   2.495   3.973  14.067 -0.1661  0.7283 -0.7047
 8249SOL    HW136380   2.446   4.055  14.070  2.0189  2.0633 -1.6375
 8249SOL    HW236381   2.434   3.916  14.018  0.7630 -1.3887  0.5920
 8250SOL     OW36382   0.228   0.713  11.296 -0.9311 -0.0634  0.4444
 8250SOL    HW136383   0.197   0.694  11.208  1.2673  2.2128 -0.8155
 8250SOL    HW236384   0.290   0.782  11.275  1.0534 -1.9889 -0.0775
 8251SOL     OW36385   2.516   3.657  15.382 -0.3521  0.6058  0.3503
 8251SOL    HW136386   2.573   3.586  15.355 -2.2313 -0.4670 -0.8561
 8251SOL    HW236387   2.481   3.623  15.465  0.0736 -1.6443 -0.4029
 8252SOL     OW36388   2.386   3.387  13.443  0.0872 -0.2125  0.3007
 8252SOL    HW136389   2.450   3.337  13.493  0.4571  0.4035  0.4392
 8252SOL    HW236390   2.440   3.390  13.364 -0.2044  0.5981  0.1390
 8253SOL     OW36391   1.429   1.674   7.475  0.2538  0.3486 -0.6664
 8253SOL    HW136392   1.400   1.593   7.517  2.0522 -0.3741 -0.8397
 8253SOL    HW236393   1.376   1.735   7.526 -0.5114 -0.2113 -0.7789
 8254SOL     OW36394   3.499   2.234   7.222  0.3640  0.1026 -0.4862
 8254SOL    HW136395   3.470   2.196   7.305  2.4275  0.1411  0.2540
 8254SOL    HW236396   3.571   2.175   7.199  1.0561  0.2859  1.1458
 8255SOL     OW36397   4.508   3.648  16.950 -0.0862 -0.1243  0.4086
 8255SOL    HW136398   4.444   3.719  16.942 -0.6146 -0.6893 -0.3376
 8255SOL    HW236399   4.545   3.628  16.864  2.4508  1.6168  1.0718
 8256SOL     OW36400   4.352   3.998   4.084 -0.0076 -0.3180 -0.5119
 8256SOL    HW136401   4.444   4.012   4.108 -0.1981  1.2455 -0.6839
 8256SOL    HW236402   4.347   3.905   4.105  2.6629 -0.6659 -1.3983
 8257SOL     OW36403   0.299   1.787  16.647  0.5235  0.4382 -0.1543
 8257SOL    HW136404   0.229   1.799  16.583 -0.6513 -2.5747  0.6194
 8257SOL    HW236405   0.256   1.810  16.729 -2.0698  1.6392 -1.8351
 8258SOL     OW36406   3.498   4.294   0.009 -0.1274 -0.2857  0.4420
 8258SOL    HW136407   3.489   4.226   0.076 -0.9390  0.3497  0.9778
 8258SOL    HW236408   3.560   4.357   0.045 -1.2585  1.5412 -0.8357
 8259SOL     OW36409   0.271   3.743  10.437 -0.0500  0.3305 -0.4887
 8259SOL    HW136410   0.329   3.677  10.474 -1.7204  0.1993  1.9246
 8259SOL    HW236411   0.190   3.710  10.476  0.3700  0.4948  0.5088
 8260SOL     OW36412   2.214   2.868   2.978 -0.0140 -0.1696  0.9028
 8260SOL    HW136413   2.276   2.813   2.930  0.8820  2.1932 -0.6190
 8260SOL    HW236414   2.231   2.842   3.069  0.7587  1.3354  1.1940
 8261SOL     OW36415   0.405   3.519   5.618  0.1638 -0.0071 -0.1230
 8261SOL    HW136416   0.470   3.481   5.677 -0.6245 -0.4453  0.4643
 8261SOL    HW236417   0.384   3.601   5.663  0.7171 -1.2107  2.3171
 8262SOL     OW36418   3.975   3.842   6.346 -0.0575 -0.2460 -0.1276
 8262SOL    HW136419   3.904   3.893   6.387  0.0089  0.2112 -0.5788
 8262SOL    HW236420   3.932   3.757   6.341 -0.1457 -0.2689  0.9368
 8263SOL     OW36421   3.757   2.541   6.224  0.0125 -0.0930 -0.0450
 8263SOL    HW136422   3.747   2.473   6.157  2.4812 -0.4283 -0.0597
 8263SOL    HW236423   3.852   2.538   6.225  0.0499  1.0832 -0.7319
 8264SOL     OW36424   1.065   3.994   5.339  0.3909 -0.3372 -0.0574
 8264SOL    HW136425   1.049   4.069   5.282 -3.7096 -0.6558  0.6608
 8264SOL    HW236426   1.005   4.017   5.410  2.9724  0.0244  2.0200
 8265SOL     OW36427   2.412   0.106   2.767 -0.2428 -0.8609 -0.4603
 8265SOL    HW136428   2.419   0.199   2.787  3.8258 -1.4102  0.5772
 8265SOL    HW236429   2.317   0.094   2.770 -0.4038  0.5158 -0.0993
 8266SOL     OW36430   0.949   0.115   9.372 -0.3306 -0.0838  0.3062
 8266SOL    HW136431   0.866   0.138   9.414 -0.5490 -0.5176  0.1069
 8266SOL    HW236432   0.932   0.024   9.346 -0.0443  0.0525 -0.3498
 8267SOL     OW36433   0.793   3.765   6.419  0.0180  0.4043 -0.2010
 8267SOL    HW136434   0.700   3.755   6.401 -0.0143 -1.5640  1.0600
 8267SOL    HW236435   0.804   3.828   6.490 -0.5591  0.4402 -0.1431
 8268SOL     OW36436   2.803   4.102   6.600  0.1099 -0.1164 -0.5873
 8268SOL    HW136437   2.825   4.033   6.537  0.0775  0.6709 -1.4653
 8268SOL    HW236438   2.789   4.182   6.549 -0.2260  1.0013  1.2223
 8269SOL     OW36439   3.061   4.305   4.572 -0.1919 -0.2747 -0.8178
 8269SOL    HW136440   3.083   4.287   4.663  0.1550 -0.1330 -0.8732
 8269SOL    HW236441   3.061   4.215   4.540  2.7571 -1.3672  2.2194
 8270SOL     OW36442   4.293   2.037   2.810  0.2958 -0.7088  0.0346
 8270SOL    HW136443   4.213   2.043   2.757  1.7484  2.5454 -1.8028
 8270SOL    HW236444   4.272   1.964   2.868  0.6690 -1.8918 -1.3400
 8271SOL     OW36445   3.793   1.732   8.914 -0.0340 -0.0922  0.3709
 8271SOL    HW136446   3.867   1.706   8.969 -1.0140  1.5127  2.4742
 8271SOL    HW236447   3.773   1.666   8.847 -0.2372  0.5438 -0.1913
 8272SOL     OW36448   2.851   4.717   7.968 -0.2029 -0.0420  0.0337
 8272SOL    HW136449   2.867   4.633   7.926 -0.7769  0.0936 -0.4560
 8272SOL    HW236450   2.871   4.679   8.054 -0.0773 -1.6577 -0.7126
 8273SOL     OW36451   4.537   1.777   6.646  0.2217  0.3412  0.3489
 8273SOL    HW136452   4.521   1.871   6.660 -0.4601  0.4959 -1.4676
 8273SOL    HW236453   4.461   1.742   6.693  0.4327  0.2259  0.6061
 8274SOL     OW36454   2.050   0.362   5.525  0.3149 -0.4725  0.0901
 8274SOL    HW136455   2.062   0.268   5.535  1.8361  0.1955  4.2002
 8274SOL    HW236456   2.017   0.367   5.435  0.2762  0.6616  0.1622
 8275SOL     OW36457   4.633   3.348   2.561 -0.3870  0.0618 -0.1139
 8275SOL    HW136458   4.708   3.318   2.613 -1.5936 -2.2813  0.2984
 8275SOL    HW236459   4.592   3.407   2.624 -0.1675 -0.9750  0.9863
 8276SOL     OW36460   3.243   3.392  14.527  0.7244  0.6136  0.5640
 8276SOL    HW136461   3.207   3.303  14.528 -0.1313  0.9128 -1.7555
 8276SOL    HW236462   3.173   3.430  14.474  0.5280 -0.3693  0.1129
 8277SOL     OW36463   3.265   2.185   6.377 -0.0437  0.1453 -0.2652
 8277SOL    HW136464   3.249   2.251   6.444 -0.0624 -0.2608  0.1281
 8277SOL    HW236465   3.296   2.229   6.298 -0.1898  0.6375 -0.0482
 8278SOL     OW36466   0.257   1.300  14.631  0.1329 -0.8919 -0.1468
 8278SOL    HW136467   0.265   1.310  14.536  1.6126  0.2243  0.0970
 8278SOL    HW236468   0.269   1.205  14.627  0.8381 -0.8174  0.1582
 8279SOL     OW36469   0.536   3.204   0.641  0.0076 -0.1659  0.5863
 8279SOL    HW136470   0.455   3.163   0.671 -1.2799  1.7872 -0.1642
 8279SOL    HW236471   0.597   3.132   0.627 -0.0553 -0.0132 -0.4713
 8280SOL     OW36472   1.181   0.194   8.985  0.1995  0.5817 -0.4755
 8280SOL    HW136473   1.102   0.236   8.953  0.7363  0.9683 -1.2905
 8280SOL    HW236474   1.143   0.160   9.066 -0.9221 -1.6429 -1.9487
 8281SOL     OW36475   2.065   0.474   9.668 -0.3210 -0.6017  0.4897
 8281SOL    HW136476   2.013   0.394   9.665 -1.6722  0.4224 -2.6048
 8281SOL    HW236477   2.128   0.455   9.738  0.2382  0.7955  0.3660
 8282SOL     OW36478   0.294   4.648  14.031 -0.1101 -0.3602  0.0021
 8282SOL    HW136479   0.345   4.667  13.952 -1.7391  0.6966 -0.7918
 8282SOL    HW236480   0.330   4.712  14.092 -2.6183  1.9196 -0.9185
 8283SOL     OW36481   2.736   3.111   7.805 -0.6243 -0.0103 -0.0230
 8283SOL    HW136482   2.730   3.016   7.792 -0.0220  0.3745 -2.9883
 8283SOL    HW236483   2.643   3.131   7.810 -0.9682 -1.5385 -0.2179
 8284SOL     OW36484   1.108   1.655  17.642  0.2975  0.1801  0.4934
 8284SOL    HW136485   1.024   1.695  17.622  0.4135 -0.1073 -0.5544
 8284SOL    HW236486   1.151   1.734  17.609 -0.2537  0.5149  0.5788
 8285SOL     OW36487   1.976   1.972   3.320 -0.3906  0.0266 -0.0095
 8285SOL    HW136488   1.994   1.879   3.326 -0.0975  0.1105  0.4150
 8285SOL    HW236489   2.016   2.003   3.402 -0.6945  0.0832  0.1200
 8286SOL     OW36490   4.535   1.776  14.892 -0.2340 -0.3066 -0.1342
 8286SOL    HW136491   4.440   1.779  14.906 -0.2541 -0.8715 -0.1585
 8286SOL    HW236492   4.532   1.792  14.798  1.0062  0.2546 -0.0788
 8287SOL     OW36493   1.433   1.148   8.365  0.3655 -0.0852 -0.5265
 8287SOL    HW136494   1.432   1.083   8.435  1.9905  0.2372 -0.1885
 8287SOL    HW236495   1.435   1.233   8.409  0.0942  0.1570 -0.9817
 8288SOL     OW36496   2.114   2.637   2.421 -0.4433 -0.6275  0.0496
 8288SOL    HW136497   2.138   2.548   2.396 -0.7098 -0.3444 -1.1910
 8288SOL    HW236498   2.018   2.631   2.421 -0.5466  1.0003 -2.4548
 8289SOL     OW36499   0.275   4.278   5.879  0.1143  0.1311 -0.1974
 8289SOL    HW136500   0.310   4.332   5.949 -0.1687  0.1213 -0.0476
 8289SOL    HW236501   0.225   4.342   5.829  0.8935 -0.0311 -1.1777
 8290SOL     OW36502   2.329   2.269   2.542  0.0978  0.2778  0.0195
 8290SOL    HW136503   2.252   2.230   2.502  0.1195 -0.8942  1.0965
 8290SOL    HW236504   2.401   2.208   2.529  0.3856  0.2006  1.8689
 8291SOL     OW36505   4.546   1.817  15.156 -0.9266  0.4077  0.2249
 8291SOL    HW136506   4.550   1.806  15.061  1.5177 -1.3873  0.5321
 8291SOL    HW236507   4.527   1.730  15.193 -1.0261  0.1700 -0.3793
 8292SOL     OW36508   4.066   1.345   6.820  0.5160 -0.4127  0.2924
 8292SOL    HW136509   4.153   1.366   6.787  0.3720 -0.0583  0.1460
 8292SOL    HW236510   4.012   1.348   6.741  2.6524  1.0987 -1.0861
 8293SOL     OW36511   2.849   1.198   5.233  0.1678  0.0252  0.4680
 8293SOL    HW136512   2.919   1.183   5.297  3.1462 -1.4655 -3.1698
 8293SOL    HW236513   2.781   1.171   5.294 -0.0915  0.1180  0.2193
 8294SOL     OW36514   0.768   1.867  12.189 -0.4505 -0.0427 -0.3193
 8294SOL    HW136515   0.754   1.933  12.122  0.6251 -0.1367 -0.6314
 8294SOL    HW236516   0.719   1.895  12.266  0.1412 -0.1224  0.0838
 8295SOL     OW36517   1.000   2.693   6.317 -0.0157  1.0756 -0.4085
 8295SOL    HW136518   0.915   2.737   6.325  0.1227  1.1411  0.6832
 8295SOL    HW236519   0.980   2.636   6.242  0.4098  0.3019  0.0632
 8296SOL     OW36520   2.399   3.373  10.980 -0.2285  0.1046  0.0500
 8296SOL    HW136521   2.405   3.412  10.893  1.7930 -0.4239 -0.0597
 8296SOL    HW236522   2.492   3.354  10.994 -0.6725  0.1091  3.0903
 8297SOL     OW36523   0.455   1.254  17.594 -0.2727 -0.1241  0.3500
 8297SOL    HW136524   0.412   1.283  17.675  1.2116 -1.2613  1.5446
 8297SOL    HW236525   0.419   1.165  17.589 -0.3306 -0.1199  0.7021
 8298SOL     OW36526   0.354   1.790   7.849  0.2059 -0.2375 -0.7661
 8298SOL    HW136527   0.335   1.884   7.853 -0.6558 -0.4313 -0.3817
 8298SOL    HW236528   0.418   1.781   7.779  2.9321  0.6236  1.6109
 8299SOL     OW36529   4.343   0.282   6.663 -0.3780 -0.4701  0.3529
 8299SOL    HW136530   4.261   0.254   6.624 -0.5185 -1.7722  1.5667
 8299SOL    HW236531   4.377   0.203   6.706  0.6062  0.4897  1.3172
 8300SOL     OW36532   4.711   1.700  12.181  0.1495  0.5851 -0.0358
 8300SOL    HW136533   0.059   1.741  12.179 -0.3117  1.5158 -1.2067
 8300SOL    HW236534   4.661   1.755  12.242  1.7837  0.7797  1.1089
 8301SOL     OW36535   2.942   1.630   7.819 -0.7656 -0.0359 -0.4889
 8301SOL    HW136536   3.013   1.571   7.844 -0.4554  1.0057  1.0580
 8301SOL    HW236537   2.867   1.571   7.806 -0.7653 -0.0900 -0.2453
 8302SOL     OW36538   0.967   1.223  17.629  0.3343 -0.1340  0.5757
 8302SOL    HW136539   1.004   1.244  17.543 -0.4876 -2.2935 -0.3199
 8302SOL    HW236540   0.882   1.267  17.625  0.1305 -0.6516 -0.8258
 8303SOL     OW36541   4.705   0.511   5.054  0.4133 -0.0842 -0.0415
 8303SOL    HW136542   0.039   0.557   5.094 -0.2782 -1.3099  2.6185
 8303SOL    HW236543   4.732   0.503   4.962 -1.4165 -0.3023 -0.5653
 8304SOL     OW36544   1.663   3.173   6.874 -0.6864  0.2366 -0.3312
 8304SOL    HW136545   1.606   3.109   6.917  1.7110 -0.8669  1.2026
 8304SOL    HW236546   1.695   3.115   6.805 -2.7164 -1.4756  0.1673
 8305SOL     OW36547   3.729   0.810   1.125  0.0286  0.0243  0.4607
 8305SOL    HW136548   3.753   0.718   1.110  2.6658  1.1846 -2.3871
 8305SOL    HW236549   3.713   0.802   1.219 -1.0405 -0.0086  0.2807
 8306SOL     OW36550   0.239   1.204   2.020  0.6339 -0.0930  0.7575
 8306SOL    HW136551   0.234   1.299   2.031  1.2887  0.3634 -2.7458
 8306SOL    HW236552   0.207   1.166   2.102  0.8637 -1.0921  0.3886
 8307SOL     OW36553   3.030   2.169   5.905  0.0205 -0.4026 -0.6846
 8307SOL    HW136554   3.002   2.195   5.993 -1.2369 -2.1158 -0.5878
 8307SOL    HW236555   2.991   2.241   5.856  0.2599  1.2018  1.4882
 8308SOL     OW36556   1.402   3.752   3.187  0.2389 -0.0810  0.4561
 8308SOL    HW136557   1.386   3.702   3.107  1.0541 -0.2209  0.3810
 8308SOL    HW236558   1.329   3.814   3.188  1.3842  1.2695 -0.3646
 8309SOL     OW36559   0.857   2.552   6.635  0.0588  0.1151 -1.0097
 8309SOL    HW136560   0.769   2.522   6.612  0.4464 -1.6242 -0.2402
 8309SOL    HW236561   0.839   2.638   6.672 -0.4776 -0.6237  0.4995
 8310SOL     OW36562   3.298   0.119   6.868 -0.1715 -0.9934  0.5968
 8310SOL    HW136563   3.289   0.047   6.806  1.3563  0.8861 -1.8413
 8310SOL    HW236564   3.208   0.127   6.900 -0.1392  1.0704  0.1915
 8311SOL     OW36565   4.404   1.767   1.608  0.4382 -0.0790 -0.2030
 8311SOL    HW136566   4.402   1.691   1.550  2.2148  0.1678 -0.5675
 8311SOL    HW236567   4.310   1.774   1.628  0.4622  4.0550 -1.5669
 8312SOL     OW36568   1.535   0.335   4.741 -0.7480 -0.5925 -0.1234
 8312SOL    HW136569   1.619   0.289   4.745 -1.0357 -1.0584  0.5832
 8312SOL    HW236570   1.567   0.425   4.740  0.3371 -0.9557  1.9942
 8313SOL     OW36571   1.397   0.045   5.151  0.1011  0.1970 -0.6286
 8313SOL    HW136572   1.423   4.714   5.091 -0.8575 -1.0307  0.3700
 8313SOL    HW236573   1.302   0.045   5.161  0.0917  1.1253 -0.7268
 8314SOL     OW36574   1.355   1.746   6.627 -0.2673 -0.2883 -0.5121
 8314SOL    HW136575   1.330   1.727   6.536  0.4197  0.0818 -0.7794
 8314SOL    HW236576   1.269   1.761   6.665 -1.1494 -1.8410 -1.9060
 8315SOL     OW36577   2.335   0.987   0.309 -0.5255 -0.0929  0.3254
 8315SOL    HW136578   2.323   0.993   0.404  0.4475 -1.7967  0.5457
 8315SOL    HW236579   2.335   0.893   0.292  0.3068 -0.2651  1.2560
 8316SOL     OW36580   2.187   1.622   4.417  0.7367 -0.4370  0.1689
 8316SOL    HW136581   2.213   1.709   4.446 -0.3594  0.0942 -0.4379
 8316SOL    HW236582   2.194   1.564   4.492 -0.2082 -0.2270  0.4176
 8317SOL     OW36583   1.781   3.444   1.620  0.2437 -0.9905 -0.6112
 8317SOL    HW136584   1.756   3.365   1.573  1.1008 -0.6567 -1.6207
 8317SOL    HW236585   1.695   3.487   1.620  1.8432  2.1651 -2.4740
 8318SOL     OW36586   3.804   1.227   4.684  0.5883 -0.0186 -0.5632
 8318SOL    HW136587   3.751   1.243   4.762  0.1581 -1.1356 -0.6227
 8318SOL    HW236588   3.791   1.315   4.648  0.2210 -0.0943 -0.6180
 8319SOL     OW36589   0.997   1.811   3.317  0.2260 -0.1452  0.5784
 8319SOL    HW136590   0.924   1.868   3.292  0.5691  0.1823  0.3262
 8319SOL    HW236591   1.076   1.829   3.266  0.6908  0.4221  1.4988
 8320SOL     OW36592   0.653   2.350   6.834  0.2620 -0.4177  0.6403
 8320SOL    HW136593   0.594   2.280   6.862  0.1751  0.0048  1.5293
 8320SOL    HW236594   0.716   2.297   6.786 -0.1925 -0.4731  0.0909
 8321SOL     OW36595   4.049   0.663   2.951  0.0426 -0.6212  0.2099
 8321SOL    HW136596   3.993   0.622   3.018  0.6185 -0.4678  0.7830
 8321SOL    HW236597   4.081   0.585   2.906  1.5559  0.3409 -0.3550
 8322SOL     OW36598   3.377   4.323   8.851  0.1040 -0.1114 -0.5496
 8322SOL    HW136599   3.440   4.393   8.868 -0.5280  0.2856  0.1484
 8322SOL    HW236600   3.414   4.299   8.766 -2.6982 -0.1016 -1.7667
 8323SOL     OW36601   0.062   1.518   9.763  0.1180 -0.5051  0.2826
 8323SOL    HW136602   0.120   1.564   9.703 -0.6112  0.8065  0.5676
 8323SOL    HW236603   0.108   1.486   9.841 -0.0454  2.6966  1.6817
 8324SOL     OW36604   0.184   4.320  11.244 -0.7382 -0.5151 -0.1905
 8324SOL    HW136605   0.144   4.406  11.235  0.9443  0.1888 -0.8687
 8324SOL    HW236606   0.103   4.285  11.281  0.4602 -2.0109  0.9922
 8325SOL     OW36607   0.081   1.606  14.608 -0.6935  0.4152 -0.6725
 8325SOL    HW136608   0.138   1.649  14.672  1.1239 -0.0957 -1.9606
 8325SOL    HW236609   0.151   1.576  14.551  0.0874  1.1056 -0.0670
 8326SOL     OW36610   0.693   0.040   3.961  0.4243  0.2265  0.0775
 8326SOL    HW136611   0.766   4.726   3.929 -0.7630 -0.4512 -1.5151
 8326SOL    HW236612   0.726   0.122   3.997  0.5325 -0.6989  2.1152
 8327SOL     OW36613   4.444   0.583  14.292 -0.1168 -0.4110  0.2435
 8327SOL    HW136614   4.466   0.531  14.370  2.9291  0.0688 -0.3061
 8327SOL    HW236615   4.400   0.514  14.242 -0.1318  0.7020 -1.2769
 8328SOL     OW36616   1.469   0.654   7.142 -0.1338  0.4758  0.4017
 8328SOL    HW136617   1.461   0.583   7.079  0.9785  1.6994 -1.1023
 8328SOL    HW236618   1.510   0.608   7.216  0.4980 -0.5694 -0.5991
 8329SOL     OW36619   3.614   2.783  11.331 -0.0495 -0.8963 -0.3238
 8329SOL    HW136620   3.637   2.702  11.286  2.9621  0.0443 -0.4645
 8329SOL    HW236621   3.554   2.769  11.404  1.8185 -3.5773  0.6924
 8330SOL     OW36622   3.296   0.657   2.714 -0.7564  0.0133  0.5923
 8330SOL    HW136623   3.252   0.576   2.685 -1.0693  0.5756 -0.5338
 8330SOL    HW236624   3.232   0.723   2.740  3.0572  4.3886 -1.0674
 8331SOL     OW36625   0.005   0.507   3.312  0.2356  0.0375  0.4379
 8331SOL    HW136626   4.679   0.535   3.248 -0.0343  2.5753  1.8394
 8331SOL    HW236627   4.713   0.420   3.339  3.5425 -1.2368  0.0947
 8332SOL     OW36628   4.700   0.134   5.572  0.1392 -0.0398 -0.3077
 8332SOL    HW136629   4.681   0.226   5.556 -0.3639 -0.3765 -1.6472
 8332SOL    HW236630   0.038   0.137   5.629  2.0618 -0.3650 -2.8919
 8333SOL     OW36631   1.010   2.543   3.826  0.1364 -0.3700 -0.5172
 8333SOL    HW136632   1.072   2.471   3.838 -1.1655 -1.0545  2.1176
 8333SOL    HW236633   1.005   2.570   3.735 -4.3150  0.2825 -0.1020
 8334SOL     OW36634   2.597   0.121   2.153 -0.2155  0.5779  0.2835
 8334SOL    HW136635   2.606   0.047   2.213 -0.6690  1.1414  1.0478
 8334SOL    HW236636   2.515   0.100   2.107 -0.3403 -2.0471  1.6762
 8335SOL     OW36637   3.842   3.634   5.974  0.6130  0.1040  0.4814
 8335SOL    HW136638   3.925   3.588   5.959 -0.1826 -0.7852 -1.2199
 8335SOL    HW236639   3.847   3.621   6.069 -0.2571 -2.4396  0.1943
 8336SOL     OW36640   2.050   1.465   1.952 -0.1482  0.9234  0.0548
 8336SOL    HW136641   2.017   1.555   1.951 -0.3991  0.8533  1.5936
 8336SOL    HW236642   2.010   1.437   2.035  1.2618  1.2438  0.8515
 8337SOL     OW36643   4.614   4.578   6.124 -0.0007  0.2953  0.3368
 8337SOL    HW136644   4.675   4.566   6.196  1.4766  2.1448 -0.6122
 8337SOL    HW236645   4.632   4.665   6.089 -0.6661  1.1272  2.0900
 8338SOL     OW36646   1.036   1.858  12.259 -0.6529 -0.4940  0.1961
 8338SOL    HW136647   1.010   1.870  12.168  0.2067 -1.3973 -0.1652
 8338SOL    HW236648   0.966   1.905  12.305 -0.2146  0.5931 -0.2540
 8339SOL     OW36649   1.947   4.065  15.745 -0.2188 -0.3488 -0.0789
 8339SOL    HW136650   2.036   4.100  15.738  0.0547 -1.2708 -1.3932
 8339SOL    HW236651   1.911   4.104  15.823  0.3400  0.8673 -0.4342
 8340SOL     OW36652   2.580   4.561   5.437 -0.5860  0.3336 -0.1894
 8340SOL    HW136653   2.632   4.596   5.365  0.4601  1.0653  0.9240
 8340SOL    HW236654   2.636   4.484   5.445 -0.5838  0.3298 -0.2415
 8341SOL     OW36655   0.286   1.614   9.632 -0.0084  0.2564 -0.0757
 8341SOL    HW136656   0.345   1.558   9.683 -0.3715 -1.9088 -2.0146
 8341SOL    HW236657   0.338   1.653   9.562  0.2620  1.4185  0.7775
 8342SOL     OW36658   2.741   0.799   5.472  0.0503  0.1845  0.0373
 8342SOL    HW136659   2.794   0.837   5.402  1.2726  1.4218  1.6468
 8342SOL    HW236660   2.815   0.757   5.515 -0.7438  2.3763  3.5075
 8343SOL     OW36661   0.260   3.366  11.574  0.2502 -0.0858 -0.0311
 8343SOL    HW136662   0.224   3.277  11.582 -0.2501  0.0264 -1.1890
 8343SOL    HW236663   0.277   3.371  11.480  0.7076 -1.9698 -0.0476
 8344SOL     OW36664   0.121   4.692   4.259 -0.1349 -0.4949  0.2176
 8344SOL    HW136665   0.189   4.654   4.204 -1.7663 -1.9727 -0.7605
 8344SOL    HW236666   0.095   0.018   4.193  2.7398 -1.6995 -2.0828
 8345SOL     OW36667   2.616   3.214   4.719  0.5530  0.3861 -0.2638
 8345SOL    HW136668   2.601   3.262   4.800  0.1753 -1.7828  0.9445
 8345SOL    HW236669   2.627   3.128   4.760  1.6655  1.6314  2.0630
 8346SOL     OW36670   1.579   4.152   2.740 -0.3034  0.6536  0.5280
 8346SOL    HW136671   1.552   4.194   2.658 -0.8544  1.5546  1.1758
 8346SOL    HW236672   1.674   4.155   2.729 -0.5741  0.1517 -2.0503
 8347SOL     OW36673   4.616   0.319  13.073 -0.0404  0.1041  0.2555
 8347SOL    HW136674   4.544   0.382  13.065  0.4417  1.0431  3.4313
 8347SOL    HW236675   4.572   0.256  13.130 -2.1115  0.1168 -1.2963
 8348SOL     OW36676   3.331   0.451   8.755 -0.4470  0.2103 -0.2524
 8348SOL    HW136677   3.247   0.405   8.754 -0.9287  1.0473  1.2910
 8348SOL    HW236678   3.327   0.486   8.844 -4.0128 -1.1573  0.1198
 8349SOL     OW36679   3.091   1.943   6.380 -0.0330  0.0499 -1.1176
 8349SOL    HW136680   3.166   2.002   6.386  1.5102 -1.8685 -1.7434
 8349SOL    HW236681   3.046   2.001   6.442  0.7274 -1.6419  1.0312
 8350SOL     OW36682   2.943   4.623   2.529 -0.4047 -0.0898  0.3071
 8350SOL    HW136683   2.993   4.546   2.556 -1.4456 -1.3537 -1.3311
 8350SOL    HW236684   2.857   4.582   2.517 -1.3940  1.9375  0.4038
 8351SOL     OW36685   3.687   0.976   4.288  0.5714 -0.0338  0.2464
 8351SOL    HW136686   3.659   0.922   4.214  1.0884 -0.4312  0.3405
 8351SOL    HW236687   3.699   0.903   4.348 -0.5264 -0.4850 -0.0802
 8352SOL     OW36688   3.081   3.713  13.446  0.2172  0.1911 -0.1351
 8352SOL    HW136689   3.132   3.637  13.416 -0.3851 -0.7289  1.1718
 8352SOL    HW236690   3.126   3.784  13.401  0.5687  0.3896  0.5172
 8353SOL     OW36691   0.197   2.002   4.553  0.3720 -0.4492 -0.2630
 8353SOL    HW136692   0.117   2.008   4.604  0.9895  1.8251  0.4246
 8353SOL    HW236693   0.269   2.005   4.616 -0.5601  0.4446  0.7611
 8354SOL     OW36694   2.479   1.616   7.979  0.0435  0.2552  0.3960
 8354SOL    HW136695   2.445   1.527   7.967  0.3788  0.5839 -3.0462
 8354SOL    HW236696   2.402   1.672   7.965 -0.3675 -0.1732  0.9026
 8355SOL     OW36697   0.325   2.986  13.423  0.1770  0.8529 -0.2264
 8355SOL    HW136698   0.237   2.966  13.392  0.8222  0.7387 -1.9917
 8355SOL    HW236699   0.309   3.004  13.516  0.1072  0.3310 -0.1396
 8356SOL     OW36700   1.779   3.281  12.745 -0.3095  1.0681 -0.4355
 8356SOL    HW136701   1.722   3.206  12.730  1.0245 -0.3859  1.7431
 8356SOL    HW236702   1.814   3.256  12.830 -0.8828  1.2240 -0.1518
 8357SOL     OW36703   0.385   1.415  17.388 -0.1490  0.1729 -0.2476
 8357SOL    HW136704   0.376   1.345  17.452 -1.6025 -0.6176 -1.3161
 8357SOL    HW236705   0.390   1.368  17.305  2.5378  0.5676 -0.3187
 8358SOL     OW36706   4.497   3.042  12.532  0.0622 -0.2372 -0.4961
 8358SOL    HW136707   4.586   3.070  12.509 -0.7881  1.8383 -1.3099
 8358SOL    HW236708   4.449   3.028  12.450 -0.9405  3.5017 -0.5656
 8359SOL     OW36709   3.648   3.692   5.478  0.4470  0.1219  0.5368
 8359SOL    HW136710   3.629   3.785   5.470  0.3058 -0.1002 -1.5773
 8359SOL    HW236711   3.743   3.694   5.487  0.5002  0.7936 -0.2207
 8360SOL     OW36712   1.049   0.171   4.642 -0.0173 -0.1707  0.1511
 8360SOL    HW136713   0.987   0.206   4.577 -0.4309 -1.1868  0.0035
 8360SOL    HW236714   1.091   0.255   4.659 -1.0699  0.5022 -0.5893
 8361SOL     OW36715   2.677   1.351   3.248  0.1068  0.2273  0.4380
 8361SOL    HW136716   2.687   1.446   3.250  0.2550  0.1944  1.6861
 8361SOL    HW236717   2.693   1.337   3.342 -0.9000  3.8740  1.1555
 8362SOL     OW36718   3.373   0.965   1.015  0.1772 -0.1287  0.0089
 8362SOL    HW136719   3.381   0.873   0.992  1.4664  0.2551 -1.1037
 8362SOL    HW236720   3.408   0.967   1.104  1.1362 -2.0010 -0.3317
 8363SOL     OW36721   1.153   4.008   6.353 -0.2825 -0.3717  0.1886
 8363SOL    HW136722   1.228   4.066   6.337 -1.0793  0.7604  0.5640
 8363SOL    HW236723   1.088   4.079   6.352  0.3782  0.2810  2.6624
 8364SOL     OW36724   2.820   0.078   2.988 -0.1185  0.3298 -0.6473
 8364SOL    HW136725   2.811   4.725   3.014 -0.7738  0.9349  1.2788
 8364SOL    HW236726   2.795   0.075   2.896 -1.0039 -0.4571 -0.3783
 8365SOL     OW36727   2.683   1.191   6.350 -0.3643  0.1124 -0.2006
 8365SOL    HW136728   2.771   1.168   6.321 -0.0459  2.0943 -0.8148
 8365SOL    HW236729   2.695   1.274   6.395  0.0666 -1.3116  2.2672
 8366SOL     OW36730   0.290   0.924  10.038 -0.4252  0.0852 -0.0435
 8366SOL    HW136731   0.205   0.961  10.012  0.3201  0.4495 -1.9483
 8366SOL    HW236732   0.267   0.833  10.060 -0.5261  0.5510  1.7475
 8367SOL     OW36733   2.837   0.511  16.358  0.0026 -0.5751 -0.0870
 8367SOL    HW136734   2.862   0.547  16.443 -0.0374  4.3131 -2.1523
 8367SOL    HW236735   2.782   0.587  16.338  1.1584  0.1086 -0.7029
 8368SOL     OW36736   1.123   1.752   2.579  0.3999 -0.3276  0.4662
 8368SOL    HW136737   1.199   1.789   2.623  0.2009 -0.1524  0.6545
 8368SOL    HW236738   1.170   1.684   2.530  1.1689 -2.0176  3.5547
 8369SOL     OW36739   2.896   1.454   6.633  0.1244  0.7908  0.2935
 8369SOL    HW136740   2.923   1.390   6.566  2.4589  0.6773  1.3295
 8369SOL    HW236741   2.803   1.431   6.632  0.4982 -0.7727  1.0265
 8370SOL     OW36742   1.414   4.251   2.505  0.2931  0.0127 -0.6745
 8370SOL    HW136743   1.425   4.346   2.501 -1.6423  0.2799  0.3895
 8370SOL    HW236744   1.332   4.247   2.457 -0.8466 -2.9063  1.5121
 8371SOL     OW36745   0.127   4.407   2.937 -0.1436 -0.3193  0.7089
 8371SOL    HW136746   0.182   4.413   3.015 -0.3850  1.3310  0.7442
 8371SOL    HW236747   0.189   4.374   2.872  0.4788  1.3724  0.4514
 8372SOL     OW36748   1.414   4.253  11.207 -0.2401 -0.0890  0.0851
 8372SOL    HW136749   1.352   4.289  11.144 -1.3514 -1.6806  0.2589
 8372SOL    HW236750   1.496   4.279  11.167 -0.5508 -0.5081 -0.8383
 8373SOL     OW36751   4.679   2.752   9.013  0.1860  0.2601  0.0494
 8373SOL    HW136752   4.602   2.759   8.956  0.3698  0.3932 -0.1846
 8373SOL    HW236753   4.673   2.827   9.072 -0.3555  0.8725 -0.7842
 8374SOL     OW36754   1.255   0.508   5.415  0.3402 -0.3205  0.3248
 8374SOL    HW136755   1.207   0.476   5.339 -3.3452  1.5751  1.8458
 8374SOL    HW236756   1.269   0.424   5.459  1.9615 -0.5731 -0.6554
 8375SOL     OW36757   4.590   2.505  16.564  0.1685 -0.2884 -0.3432
 8375SOL    HW136758   4.595   2.596  16.533 -1.6334 -0.6887 -1.8242
 8375SOL    HW236759   4.564   2.519  16.655 -1.8529 -0.6613 -0.8707
 8376SOL     OW36760   0.263   0.760   7.234 -0.1579 -0.3092  0.2203
 8376SOL    HW136761   0.184   0.726   7.276 -0.4596 -2.5881 -2.2362
 8376SOL    HW236762   0.326   0.758   7.306  0.0459 -1.9948 -0.0077
 8377SOL     OW36763   1.567   4.134  16.578 -0.1587  0.4824 -0.3863
 8377SOL    HW136764   1.545   4.072  16.508  1.2635 -0.9616  0.4344
 8377SOL    HW236765   1.659   4.155  16.561  0.1919 -0.7413  0.0009
 8378SOL     OW36766   3.813   3.138   0.577 -0.0999 -0.5960  0.1528
 8378SOL    HW136767   3.789   3.046   0.571 -0.2423 -0.4817 -1.0642
 8378SOL    HW236768   3.816   3.148   0.672 -0.5215 -0.7901  0.1873
 8379SOL     OW36769   1.779   3.453   4.628 -0.0647  0.5655  0.0653
 8379SOL    HW136770   1.759   3.515   4.697  0.2160 -0.7269  1.3026
 8379SOL    HW236771   1.710   3.451   4.562  1.5995 -1.8003 -1.6071
 8380SOL     OW36772   0.719   0.265   6.089  0.1086 -0.5306  0.0213
 8380SOL    HW136773   0.659   0.265   6.014 -2.3316  0.3062  1.9619
 8380SOL    HW236774   0.799   0.308   6.058  0.5053 -0.6679  0.8735
 8381SOL     OW36775   3.868   4.421   1.884  0.3331  0.2205 -0.0754
 8381SOL    HW136776   3.913   4.503   1.904  0.2832  0.1656  0.2650
 8381SOL    HW236777   3.775   4.442   1.879  0.6326  1.1903 -1.6958
 8382SOL     OW36778   1.967   0.721   8.061 -0.1709  0.1842 -0.0376
 8382SOL    HW136779   1.992   0.805   8.021 -2.0302 -0.0412 -1.6605
 8382SOL    HW236780   1.884   0.695   8.021 -0.6787 -0.3783  1.3855
 8383SOL     OW36781   4.352   1.587   3.899 -0.4525  0.2072  0.3481
 8383SOL    HW136782   4.335   1.635   3.980  1.4420 -1.0190  1.4677
 8383SOL    HW236783   4.430   1.632   3.866 -0.4305  0.8108  1.2246
 8384SOL     OW36784   0.497   1.911   5.292 -0.0232  0.6903 -0.3834
 8384SOL    HW136785   0.540   1.949   5.368 -0.9342 -0.6819  0.8284
 8384SOL    HW236786   0.431   1.975   5.267 -0.9081 -0.1257 -0.1540
 8385SOL     OW36787   0.689   2.564  12.521  0.5504  0.2970  0.0319
 8385SOL    HW136788   0.603   2.531  12.545  1.4471 -2.1788 -0.0943
 8385SOL    HW236789   0.705   2.646  12.567  0.0706 -0.4538  1.5317
 8386SOL     OW36790   2.094   3.220   9.096 -0.1884  0.0322  0.1193
 8386SOL    HW136791   2.055   3.307   9.093  0.3937  0.3103  0.5119
 8386SOL    HW236792   2.102   3.186   9.007 -0.4362 -0.4063  0.2631
 8387SOL     OW36793   2.519   2.131   6.642 -0.3847  0.0735  0.2218
 8387SOL    HW136794   2.461   2.055   6.645 -2.2208  1.5248  1.5691
 8387SOL    HW236795   2.457   2.202   6.659 -1.3350 -0.9160  0.8689
 8388SOL     OW36796   2.972   2.456   2.411 -0.0448  0.6392 -0.2966
 8388SOL    HW136797   3.059   2.418   2.398 -0.5930 -0.4667 -0.7011
 8388SOL    HW236798   2.933   2.389   2.467  0.7975  3.3765  3.5557
 8389SOL     OW36799   1.149   3.257   6.742  0.2620  0.4293 -0.1043
 8389SOL    HW136800   1.209   3.313   6.790  1.7767 -0.4096 -1.0319
 8389SOL    HW236801   1.067   3.304   6.760  0.3130  0.6206 -0.3739
 8390SOL     OW36802   2.891   1.939  10.100  0.2586 -0.8461 -0.6588
 8390SOL    HW136803   2.871   1.872  10.165  1.1773 -1.0257 -0.5583
 8390SOL    HW236804   2.804   1.979  10.103  2.4065  3.6263  3.0565
 8391SOL     OW36805   4.414   3.177  17.252 -0.7852 -0.2110 -0.1026
 8391SOL    HW136806   4.452   3.240  17.192  0.0685 -0.3603  0.2774
 8391SOL    HW236807   4.369   3.113  17.196  1.1699 -0.6325 -1.1671
 8392SOL     OW36808   2.603   4.473   8.749  0.4323 -0.0316  0.0349
 8392SOL    HW136809   2.666   4.456   8.680  1.4767 -0.2371  1.0316
 8392SOL    HW236810   2.664   4.494   8.820  1.0757  1.2199 -0.8874
 8393SOL     OW36811   3.147   4.157  13.270  0.3245 -0.2849 -0.0833
 8393SOL    HW136812   3.083   4.227  13.270  1.3449  0.6642  1.8906
 8393SOL    HW236813   3.214   4.182  13.206  0.4587  0.0338  0.1811
 8394SOL     OW36814   1.303   1.243   5.855 -0.0773  0.3438  1.0680
 8394SOL    HW136815   1.393   1.228   5.826 -0.4890  1.6349 -0.8621
 8394SOL    HW236816   1.320   1.266   5.946 -0.1259  2.3560  0.5684
 8395SOL     OW36817   3.044   1.880   5.891  0.6749  0.1249 -0.3237
 8395SOL    HW136818   3.043   1.970   5.923  1.7172 -0.4848  1.4335
 8395SOL    HW236819   3.042   1.840   5.978  0.0070 -0.1193 -0.4526
 8396SOL     OW36820   2.005   0.476  16.032 -0.2476  0.2615 -0.7625
 8396SOL    HW136821   1.912   0.476  16.011 -0.6813  0.2465  1.1883
 8396SOL    HW236822   2.010   0.421  16.110 -0.7565  1.9773  0.4694
 8397SOL     OW36823   0.323   0.779   2.969  0.6659  0.6552 -0.1152
 8397SOL    HW136824   0.350   0.859   2.923  1.7450  1.8864  2.6609
 8397SOL    HW236825   0.286   0.815   3.049  0.3580  3.2874 -1.4330
 8398SOL     OW36826   0.080   1.357  16.885 -0.2868  0.3731 -0.0946
 8398SOL    HW136827   0.019   1.422  16.921 -0.2006  1.5472 -2.0423
 8398SOL    HW236828   0.038   1.275  16.911 -0.8065  0.4926 -0.5460
 8399SOL     OW36829   4.076   0.874   8.363  0.3773  0.0293  0.3431
 8399SOL    HW136830   4.050   0.792   8.405 -0.8411  0.2995  0.0994
 8399SOL    HW236831   4.054   0.858   8.272  1.7383 -0.1540  0.0438
 8400SOL     OW36832   3.649   2.157   0.755  0.1114 -0.5185  0.1531
 8400SOL    HW136833   3.558   2.132   0.739 -1.4101  2.8227  3.4812
 8400SOL    HW236834   3.641   2.217   0.830 -3.1656 -1.0374  0.2226
 8401SOL     OW36835   3.622   4.453   6.984 -0.2240  0.2776 -0.3193
 8401SOL    HW136836   3.588   4.365   7.002  1.5695 -0.9882 -3.0473
 8401SOL    HW236837   3.554   4.494   6.931 -0.8968 -0.3421  0.0714
 8402SOL     OW36838   4.564   0.463   4.592  0.0508 -0.2499  0.3762
 8402SOL    HW136839   4.548   0.542   4.541 -0.0051 -0.6204 -0.1760
 8402SOL    HW236840   4.544   0.402   4.522 -0.4220  1.2944 -0.8396
 8403SOL     OW36841   2.766   2.538   4.658  0.2346  0.3349 -0.0411
 8403SOL    HW136842   2.812   2.494   4.586 -2.2039 -1.1327 -0.7144
 8403SOL    HW236843   2.765   2.626   4.622 -0.5738  0.1478 -0.4970
 8404SOL     OW36844   0.581   1.927  12.409 -0.9483  0.0282  0.5713
 8404SOL    HW136845   0.563   2.020  12.422 -0.7487  0.0390  0.7822
 8404SOL    HW236846   0.495   1.894  12.381 -1.5269  1.7678  0.2831
 8405SOL     OW36847   1.781   2.748   6.072 -0.0255  0.2805  0.5628
 8405SOL    HW136848   1.738   2.831   6.091  1.1884  0.7119  1.4322
 8405SOL    HW236849   1.712   2.686   6.095  0.0088  0.8663  2.1847
 8406SOL     OW36850   0.681   3.219   6.096 -0.1584 -0.1910  0.4458
 8406SOL    HW136851   0.700   3.310   6.075 -3.7774  0.2617 -0.7959
 8406SOL    HW236852   0.711   3.188   6.011  0.7564 -1.5715  1.2630
 8407SOL     OW36853   1.255   4.627   2.293  0.1663 -0.2717 -0.5871
 8407SOL    HW136854   1.314   4.583   2.232  2.9547 -0.6103  2.3879
 8407SOL    HW236855   1.186   4.672   2.243  0.9679  2.8341  1.1434
 8408SOL     OW36856   2.039   0.175   8.227  0.8418 -0.0210 -0.0467
 8408SOL    HW136857   2.041   0.261   8.184  1.9109 -0.4509 -0.8832
 8408SOL    HW236858   1.955   0.145   8.193  2.0395 -2.9011 -0.4475
 8409SOL     OW36859   3.128   3.496   7.511 -0.2299 -0.4682  0.2225
 8409SOL    HW136860   3.207   3.461   7.470  1.3560  2.3229  0.9427
 8409SOL    HW236861   3.084   3.552   7.447 -1.3394  0.9110  2.2253
 8410SOL     OW36862   3.142   0.336  13.039 -0.3457 -0.3107  0.0896
 8410SOL    HW136863   3.188   0.300  13.115  2.5508  0.1134 -1.4821
 8410SOL    HW236864   3.070   0.274  13.030 -0.5749  0.0255 -0.3864
 8411SOL     OW36865   3.562   4.310   5.495 -0.1477 -0.1479  0.2307
 8411SOL    HW136866   3.636   4.285   5.549 -0.0958 -0.4307  0.0269
 8411SOL    HW236867   3.498   4.348   5.555  3.4713  0.5640  3.6069
 8412SOL     OW36868   4.684   2.493   3.015 -0.0355 -0.6029 -0.1616
 8412SOL    HW136869   4.719   2.415   3.057  2.8767 -0.1650 -1.7754
 8412SOL    HW236870   0.018   2.549   2.987 -1.5600  1.2094 -0.5222
 8413SOL     OW36871   4.695   2.083   3.121 -0.5507  0.5226 -0.4148
 8413SOL    HW136872   4.730   1.997   3.098  0.6581  0.6374  0.9479
 8413SOL    HW236873   4.659   2.066   3.208 -4.4882  0.0545 -2.1502
 8414SOL     OW36874   3.964   1.799  10.463 -0.1991 -0.2462 -0.0880
 8414SOL    HW136875   4.015   1.771  10.539 -3.1386 -0.7880  1.7029
 8414SOL    HW236876   4.024   1.824  10.393 -0.0588 -2.5907 -0.8222
 8415SOL     OW36877   3.477   3.693  10.702  0.1636  1.0009 -0.6876
 8415SOL    HW136878   3.543   3.718  10.637 -0.5896  2.8190 -0.7473
 8415SOL    HW236879   3.518   3.685  10.788 -1.0938  1.5040 -0.0498
 8416SOL     OW36880   3.527   4.227   9.586 -0.4638 -0.1685  0.0521
 8416SOL    HW136881   3.567   4.197   9.505  1.8554  0.5254  0.9473
 8416SOL    HW236882   3.502   4.317   9.564 -0.6626  0.1687  1.6111
 8417SOL     OW36883   1.362   4.480   4.354 -0.5290  0.7842  0.1676
 8417SOL    HW136884   1.369   4.574   4.340  0.1326  0.4946 -1.4145
 8417SOL    HW236885   1.369   4.476   4.450  2.4646  2.1757  0.0113
 8418SOL     OW36886   3.897   0.881   5.598  0.4264  0.1061 -0.7639
 8418SOL    HW136887   3.805   0.856   5.589  0.6047 -0.9625  0.3086
 8418SOL    HW236888   3.888   0.974   5.617  0.6832  0.2401 -1.2755
 8419SOL     OW36889   1.801   0.868  16.832 -0.7963  0.2014  0.3351
 8419SOL    HW136890   1.774   0.914  16.912  1.1388  2.1846 -0.1510
 8419SOL    HW236891   1.801   0.773  16.847 -0.1593 -0.0184 -1.0609
 8420SOL     OW36892   3.362   2.959   7.315  0.0340  0.6448  0.5739
 8420SOL    HW136893   3.294   2.943   7.380 -0.0516  0.4741  0.4425
 8420SOL    HW236894   3.362   3.055   7.313  2.1488  0.6419  0.0362
 8421SOL     OW36895   2.438   2.812   8.430  0.5084  0.5061  0.0033
 8421SOL    HW136896   2.514   2.821   8.372  0.8757  0.1563  0.4268
 8421SOL    HW236897   2.478   2.845   8.510 -1.5068 -0.6094  1.4739
 8422SOL     OW36898   0.021   2.044   8.399  0.4851  0.0863  0.1996
 8422SOL    HW136899   4.682   2.067   8.450 -0.2325  1.5494 -1.5516
 8422SOL    HW236900   4.716   1.994   8.331 -2.2924  1.0091  1.2874
 8423SOL     OW36901   3.372   0.644   4.494 -0.3119  0.0094  0.0499
 8423SOL    HW136902   3.327   0.582   4.552 -0.8686 -0.3820 -0.8065
 8423SOL    HW236903   3.380   0.597   4.411  0.1016 -0.6777  0.4707
 8424SOL     OW36904   0.046   3.036  12.432 -0.1922  0.2836  0.2910
 8424SOL    HW136905   0.123   3.008  12.383 -1.2105 -1.0484 -0.5668
 8424SOL    HW236906   0.063   2.986  12.512  3.3372 -0.8325 -1.1338
 8425SOL     OW36907   0.773   1.637   3.937  0.1334  0.0375 -0.7353
 8425SOL    HW136908   0.817   1.577   3.996  1.4099  0.5142 -1.2000
 8425SOL    HW236909   0.841   1.651   3.871  2.0053  0.8936  1.3858
 8426SOL     OW36910   2.244   1.752   6.935 -0.1485  0.0210 -0.3122
 8426SOL    HW136911   2.184   1.707   6.877  0.4754 -1.5392  0.2341
 8426SOL    HW236912   2.318   1.693   6.954 -1.1299 -0.8542  0.8623
 8427SOL     OW36913   2.513   4.642   8.029  0.4096  0.7287  0.5707
 8427SOL    HW136914   2.509   4.735   8.052  1.7727  1.1174 -0.7138
 8427SOL    HW236915   2.559   4.647   7.945  1.0022 -0.3951  0.8274
 8428SOL     OW36916   2.938   1.963  17.351 -0.1327  0.2479  0.3207
 8428SOL    HW136917   3.011   1.950  17.290  1.4988  1.2727  2.1039
 8428SOL    HW236918   2.963   1.899  17.417  0.9075 -0.6579 -0.9352
 8429SOL     OW36919   4.602   4.578   0.791  0.7059  0.2594 -0.6134
 8429SOL    HW136920   4.684   4.584   0.841 -2.3579  2.4262  4.1974
 8429SOL    HW236921   4.618   4.531   0.710 -1.1825 -1.0722 -0.2046
 8430SOL     OW36922   4.605   3.496  11.838  0.5246  0.3356 -0.2071
 8430SOL    HW136923   4.541   3.426  11.853  2.3404 -1.1262  0.7513
 8430SOL    HW236924   4.670   3.478  11.906 -0.0619 -1.4575 -0.1332
 8431SOL     OW36925   3.151   3.725  10.569  0.5842  0.1555 -0.5460
 8431SOL    HW136926   3.238   3.733  10.529 -0.1513  1.8717 -1.8053
 8431SOL    HW236927   3.102   3.686  10.497 -0.8696  0.4511  0.2746
 8432SOL     OW36928   2.733   0.557   7.872  0.3547 -0.2931  0.5594
 8432SOL    HW136929   2.641   0.573   7.894 -0.1991 -0.9403 -1.3016
 8432SOL    HW236930   2.731   0.473   7.826  0.2114  0.4051 -0.7231
 8433SOL     OW36931   2.762   2.333   8.284 -0.7553  0.1437 -0.5462
 8433SOL    HW136932   2.734   2.276   8.212 -1.8312 -0.4392  0.3355
 8433SOL    HW236933   2.745   2.275   8.359 -0.3740  2.8168  1.6116
 8434SOL     OW36934   1.395   0.270   1.457 -0.1010  0.4065  0.2539
 8434SOL    HW136935   1.321   0.296   1.403 -0.0391  0.2702  0.1021
 8434SOL    HW236936   1.340   0.217   1.514  1.2344 -0.9353  0.3262
 8435SOL     OW36937   1.923   2.311   8.811  0.1977 -0.2172  0.0326
 8435SOL    HW136938   1.904   2.274   8.897  0.4857 -0.5677 -0.0541
 8435SOL    HW236939   2.018   2.320   8.818  0.1587  0.9080 -0.9186
 8436SOL     OW36940   4.235   3.795  11.240 -0.4426  0.5945  0.2503
 8436SOL    HW136941   4.181   3.717  11.252 -0.2309  0.5765  1.0878
 8436SOL    HW236942   4.202   3.811  11.151  0.6423  0.2564 -0.2188
 8437SOL     OW36943   2.510   4.546   3.519 -0.1197 -0.3371  0.0663
 8437SOL    HW136944   2.580   4.549   3.585 -0.0305 -1.5654  0.0350
 8437SOL    HW236945   2.555   4.601   3.455 -1.8875  1.2621  0.1889
 8438SOL     OW36946   0.592   2.122   6.963  0.7572 -0.4249  0.0578
 8438SOL    HW136947   0.565   2.030   6.966 -2.8431  0.5878 -0.7824
 8438SOL    HW236948   0.541   2.159   7.035 -0.4073 -1.2690 -0.3303
 8439SOL     OW36949   1.553   3.524   1.808  0.0580  0.6257 -0.2284
 8439SOL    HW136950   1.468   3.567   1.821 -0.5598 -0.7284  0.1651
 8439SOL    HW236951   1.591   3.528   1.896 -0.4261  0.8331 -0.0259
 8440SOL     OW36952   4.030   0.448  14.817 -0.0528 -0.0399 -0.0611
 8440SOL    HW136953   4.002   0.526  14.863  1.5411 -0.6211  1.8747
 8440SOL    HW236954   3.952   0.392  14.810 -1.2672  1.4791  1.7221
 8441SOL     OW36955   3.305   4.651  16.287  0.2943  0.3718 -0.0412
 8441SOL    HW136956   3.336   4.688  16.205  0.7372 -0.5536 -0.2815
 8441SOL    HW236957   3.251   4.719  16.328  0.0579 -0.3605  0.8494
 8442SOL     OW36958   2.033   4.621   9.223 -0.3588 -0.3972 -0.8431
 8442SOL    HW136959   1.950   4.657   9.194  0.0030  1.2598  0.1620
 8442SOL    HW236960   2.091   4.655   9.156 -0.8261  1.0177 -0.5278
 8443SOL     OW36961   1.719   2.330   2.457 -0.3587  0.3211 -0.6633
 8443SOL    HW136962   1.721   2.422   2.431 -0.5378  0.9801  1.7021
 8443SOL    HW236963   1.780   2.317   2.530 -0.4890  1.8523 -0.2723
 8444SOL     OW36964   0.217   1.752  11.354  0.3411 -0.2339 -0.2122
 8444SOL    HW136965   0.252   1.722  11.438  1.3600 -1.1370 -0.9534
 8444SOL    HW236966   0.236   1.675  11.300 -2.6552 -1.8568  1.0548
 8445SOL     OW36967   0.383   3.261  11.973 -0.0676 -0.2444  0.4379
 8445SOL    HW136968   0.444   3.192  11.948  1.4083  1.0623  0.4288
 8445SOL    HW236969   0.435   3.335  11.941 -2.0819  0.8412 -0.3825
 8446SOL     OW36970   3.840   4.664   2.147  0.0409 -0.0758 -0.4287
 8446SOL    HW136971   3.756   4.620   2.139 -0.1880 -0.3190  3.5130
 8446SOL    HW236972   3.875   4.664   2.058  2.3555 -1.3386  0.4806
 8447SOL     OW36973   0.774   4.289   3.808  0.3096 -0.0542  0.0999
 8447SOL    HW136974   0.731   4.212   3.771 -0.1290 -0.4179  1.3793
 8447SOL    HW236975   0.727   4.352   3.753  0.8853  0.2570 -0.0421
 8448SOL     OW36976   1.061   4.717   3.145 -0.3169  0.4193 -0.3657
 8448SOL    HW136977   1.016   4.736   3.063 -3.4913 -2.4320  0.7431
 8448SOL    HW236978   1.035   0.050   3.203 -1.3501  0.5436 -0.9932
 8449SOL     OW36979   2.482   4.211   2.936 -0.3415 -0.1185 -0.3516
 8449SOL    HW136980   2.410   4.205   2.873 -0.4262  1.6759 -0.4234
 8449SOL    HW236981   2.432   4.244   3.012  0.8262  0.5541  0.1197
 8450SOL     OW36982   1.971   0.363   5.270  0.1517 -0.3287  0.3870
 8450SOL    HW136983   1.999   0.314   5.193 -0.2204 -0.1898  0.1632
 8450SOL    HW236984   1.892   0.312   5.288  0.8741 -0.9836  1.6493
 8451SOL     OW36985   4.605   4.190   6.135  0.0266 -0.3588 -0.9330
 8451SOL    HW136986   4.647   4.220   6.216  0.0517  0.2442 -1.1738
 8451SOL    HW236987   4.664   4.119   6.108  0.1651 -0.1101 -1.2881
 8452SOL     OW36988   0.493   4.216  13.481 -0.2362  0.3640  0.2343
 8452SOL    HW136989   0.406   4.238  13.514 -0.1666 -2.3067  2.1875
 8452SOL    HW236990   0.536   4.188  13.561  1.3925  1.7754 -0.1434
 8453SOL     OW36991   1.036   0.019  17.655 -0.3131 -0.4135 -0.0652
 8453SOL    HW136992   1.033   4.703  17.733 -2.6362 -0.2936 -0.0693
 8453SOL    HW236993   0.986   4.704  17.594 -0.5726 -2.2533  1.7998
 8454SOL     OW36994   1.107   2.396  12.357 -0.0864 -0.5341 -0.2232
 8454SOL    HW136995   1.016   2.371  12.370 -0.0654 -0.8491 -0.6653
 8454SOL    HW236996   1.117   2.473  12.412  0.4179 -1.1398  0.5346
 8455SOL     OW36997   1.670   3.780  11.140  0.0259  0.0354  0.4662
 8455SOL    HW136998   1.622   3.747  11.064 -1.0199  0.6368  0.8677
 8455SOL    HW236999   1.614   3.742  11.207  0.9379 -0.0232  1.1872
 8456SOL     OW37000   1.470   0.105   7.965  0.0786  0.0529  0.5450
 8456SOL    HW137001   1.487   0.194   7.937  2.4337 -0.4289  0.4730
 8456SOL    HW237002   1.376   0.095   7.983 -0.0583  2.1858  0.9409
 8457SOL     OW37003   4.162   2.512   7.997 -0.6353 -0.2103 -0.2385
 8457SOL    HW137004   4.111   2.571   7.941  2.1924  1.6686 -0.8036
 8457SOL    HW237005   4.240   2.563   8.014  0.3049 -2.1510  1.2573
 8458SOL     OW37006   3.308   3.196  11.971 -0.2205  0.1359  0.2724
 8458SOL    HW137007   3.271   3.221  11.886 -2.1501 -2.3967  0.3422
 8458SOL    HW237008   3.353   3.274  12.003 -0.4309 -0.2479  1.4902
 8459SOL     OW37009   1.047   3.449   9.133 -0.3790  0.7066  0.1863
 8459SOL    HW137010   1.014   3.396   9.060 -1.1874 -1.4721  2.1345
 8459SOL    HW237011   1.013   3.394   9.204 -0.1703  1.7472  1.0753
 8460SOL     OW37012   4.185   2.187   2.398 -0.0587 -0.3037 -0.5463
 8460SOL    HW137013   4.123   2.206   2.468 -1.1099 -0.8966 -1.3133
 8460SOL    HW237014   4.153   2.099   2.377 -1.9766  0.1980  0.3153
 8461SOL     OW37015   2.651   2.661  11.002 -0.0610  0.5591  0.1580
 8461SOL    HW137016   2.566   2.699  11.025 -0.5059 -0.0578 -0.4665
 8461SOL    HW237017   2.669   2.585  11.057 -1.8834 -0.9991 -1.3525
 8462SOL     OW37018   0.618   1.376   4.882 -0.4383  0.6969 -0.5288
 8462SOL    HW137019   0.612   1.447   4.946  1.0131 -0.8054  1.2521
 8462SOL    HW237020   0.621   1.289   4.920  1.2686  1.0429  0.1304
 8463SOL     OW37021   2.351   1.015   2.902 -0.6509  0.2093  0.1014
 8463SOL    HW137022   2.400   1.096   2.886 -0.6626 -0.0957 -1.4732
 8463SOL    HW237023   2.324   0.997   2.812 -1.4918 -0.5168  0.4962
 8464SOL     OW37024   1.896   3.469   8.323  0.4096 -0.4398 -0.0223
 8464SOL    HW137025   1.898   3.506   8.411 -1.8131 -0.8570  0.1994
 8464SOL    HW237026   1.864   3.382   8.345 -1.1392  0.6255  1.8956
 8465SOL     OW37027   0.881   2.237   9.574  0.5042 -0.0521  0.3500
 8465SOL    HW137028   0.886   2.184   9.494 -1.7678  1.3020 -0.6686
 8465SOL    HW237029   0.971   2.270   9.581 -0.0659  1.4153  0.5868
 8466SOL     OW37030   2.729   0.808   6.040 -0.0781 -0.0640  0.0865
 8466SOL    HW137031   2.767   0.895   6.026  0.6797 -0.7314 -2.0518
 8466SOL    HW237032   2.769   0.761   5.967 -2.8870 -0.3833 -1.2544
 8467SOL     OW37033   4.239   2.469   0.215  0.2440  0.0469  0.0718
 8467SOL    HW137034   4.201   2.557   0.220  3.0085  1.1480  1.5857
 8467SOL    HW237035   4.257   2.456   0.308  3.2918 -1.4676 -0.7509
 8468SOL     OW37036   3.911   2.086   8.917 -0.0740 -0.0499 -0.0554
 8468SOL    HW137037   3.983   2.035   8.954  0.5689 -0.0114 -1.2506
 8468SOL    HW237038   3.955   2.127   8.842  0.4699  2.0984  1.4405
 8469SOL     OW37039   2.284   4.319  15.927  0.8911  0.1781 -0.2194
 8469SOL    HW137040   2.229   4.396  15.913  1.3960  0.3802 -1.1067
 8469SOL    HW237041   2.349   4.348  15.863 -0.4740 -3.6556 -3.3077
 8470SOL     OW37042   4.620   1.760   1.772  0.1658 -0.3061 -0.2846
 8470SOL    HW137043   4.542   1.753   1.717 -1.0748 -3.6738  1.8749
 8470SOL    HW237044   4.577   1.765   1.858  0.3522  2.0837 -0.3386
 8471SOL     OW37045   3.319   0.363  16.347  0.3154  0.6087  0.8537
 8471SOL    HW137046   3.312   0.425  16.274 -1.6916  1.0039  1.3667
 8471SOL    HW237047   3.345   0.422  16.418 -2.3394  0.6408  1.7992
 8472SOL     OW37048   3.094   2.343   4.464  0.1261 -0.2365 -0.5196
 8472SOL    HW137049   3.014   2.370   4.419 -0.2530 -1.4108 -0.5534
 8472SOL    HW237050   3.157   2.405   4.426 -0.3957 -0.1241 -1.2028
 8473SOL     OW37051   1.230   3.262  13.336 -0.2726 -0.4256  0.0627
 8473SOL    HW137052   1.322   3.286  13.333 -0.5077  0.4101 -0.5657
 8473SOL    HW237053   1.238   3.183  13.282 -0.8773 -0.8765  0.6384
 8474SOL     OW37054   3.497   3.074   4.582  0.1208 -0.2278  0.8357
 8474SOL    HW137055   3.528   2.984   4.596  1.5766  0.0490 -0.6126
 8474SOL    HW237056   3.417   3.064   4.633 -0.0358  1.4412  0.9305
 8475SOL     OW37057   2.184   4.096   1.392 -0.0812  0.5732  0.4341
 8475SOL    HW137058   2.207   4.152   1.466 -1.7487 -0.9640  2.1039
 8475SOL    HW237059   2.118   4.149   1.348 -1.5956  1.1252  3.3834
 8476SOL     OW37060   4.689   0.310   6.719  0.3781 -0.1585 -0.6219
 8476SOL    HW137061   4.668   0.309   6.813  1.9224 -1.1254 -0.2952
 8476SOL    HW237062   4.724   0.399   6.712 -0.4278  0.2278  0.2694
 8477SOL     OW37063   0.323   3.767  12.755 -0.1821  0.2608  0.1913
 8477SOL    HW137064   0.418   3.778  12.760 -0.1147  0.1042 -0.8426
 8477SOL    HW237065   0.298   3.845  12.705 -0.8447  0.0904  0.2571
 8478SOL     OW37066   3.900   2.417   7.994  0.1718  0.4842  0.7389
 8478SOL    HW137067   3.875   2.463   8.074 -0.7907 -0.4335  0.9619
 8478SOL    HW237068   3.995   2.418   7.990  0.1219  0.5994 -0.3950
 8479SOL     OW37069   4.165   4.205   3.379  0.1863 -0.3203  0.2584
 8479SOL    HW137070   4.215   4.284   3.359 -1.9644  1.2208  0.9412
 8479SOL    HW237071   4.079   4.239   3.355  1.0603  0.2146 -2.1191
 8480SOL     OW37072   2.813   1.197   3.591  0.2270  0.2001  0.2084
 8480SOL    HW137073   2.762   1.273   3.562 -0.6857  0.0869  1.5230
 8480SOL    HW237074   2.746   1.160   3.648 -0.3334  0.9524  0.0449
 8481SOL     OW37075   3.819   2.273   9.095 -0.2659 -0.2235  0.5715
 8481SOL    HW137076   3.855   2.214   9.028 -0.1190  1.2560 -0.6437
 8481SOL    HW237077   3.733   2.234   9.113 -1.7761  1.8975 -2.1444
 8482SOL     OW37078   0.520   4.691   7.599 -0.4328 -0.2400 -0.2064
 8482SOL    HW137079   0.507   0.047   7.588  0.3086  0.0988  1.7662
 8482SOL    HW237080   0.532   4.684   7.694  2.3958 -0.2128 -0.5533
 8483SOL     OW37081   3.955   2.910   5.511 -0.1467 -0.0074 -0.3310
 8483SOL    HW137082   3.996   2.993   5.533  0.0339  0.1582 -1.2884
 8483SOL    HW237083   3.902   2.899   5.590 -1.0976  1.9457 -0.6940
 8484SOL     OW37084   4.399   1.057   4.477 -0.1505  0.3771 -0.1198
 8484SOL    HW137085   4.474   1.022   4.429  1.0537 -0.4244  2.3580
 8484SOL    HW237086   4.339   0.983   4.480  2.0106 -1.4038 -0.9642
 8485SOL     OW37087   2.415   3.750   3.093 -0.0170  0.2352 -0.3387
 8485SOL    HW137088   2.347   3.790   3.146  0.0179 -1.2039  0.7999
 8485SOL    HW237089   2.364   3.684   3.046 -0.6580  1.5511 -1.4879
 8486SOL     OW37090   4.416   0.978  17.192 -0.6614 -0.3206 -0.4635
 8486SOL    HW137091   4.378   0.996  17.278  0.3739 -1.0336  0.1497
 8486SOL    HW237092   4.400   0.883  17.196  0.5029 -0.5299 -0.7376
 8487SOL     OW37093   0.883   3.967   8.013 -0.8035  0.4017  0.2857
 8487SOL    HW137094   0.894   3.902   8.083  1.2762  0.2602 -0.1639
 8487SOL    HW237095   0.791   3.956   7.989 -0.9904 -0.1935  1.2886
 8488SOL     OW37096   2.487   4.217   5.296  0.2903  0.6647 -0.9099
 8488SOL    HW137097   2.557   4.260   5.344 -0.3591 -0.4521  1.0098
 8488SOL    HW237098   2.465   4.296   5.247 -2.5982 -0.1830 -0.9674
 8489SOL     OW37099   4.025   2.780   4.412 -0.4694 -0.5329 -0.2558
 8489SOL    HW137100   4.041   2.796   4.505 -3.6077 -0.9014  0.3650
 8489SOL    HW237101   4.111   2.800   4.376  0.0978  0.1685  1.4916
 8490SOL     OW37102   2.069   3.665   8.634 -0.4928  0.1844 -0.0655
 8490SOL    HW137103   2.086   3.617   8.716 -1.8090 -3.7049 -2.0849
 8490SOL    HW237104   2.134   3.621   8.579  0.6517  0.2310  1.2286
 8491SOL     OW37105   3.724   1.343   7.375 -0.0689  0.4102 -0.4807
 8491SOL    HW137106   3.777   1.285   7.322 -2.6528  0.6477 -3.3317
 8491SOL    HW237107   3.755   1.430   7.350 -0.6506  0.7800  0.0619
 8492SOL     OW37108   3.921   1.949   9.300  0.7818  0.1127 -0.0821
 8492SOL    HW137109   3.831   1.915   9.293  0.6558  0.7905 -1.6689
 8492SOL    HW237110   3.969   1.876   9.261  0.4295  0.1718 -0.6282
 8493SOL     OW37111   1.671   2.938  16.831  0.5989 -0.2800  0.2259
 8493SOL    HW137112   1.632   3.021  16.860  0.4991 -0.6121  1.0368
 8493SOL    HW237113   1.700   2.902  16.915  3.2665 -1.8423 -1.3937
 8494SOL     OW37114   1.953   3.181  11.021 -0.4444 -0.0204  0.5238
 8494SOL    HW137115   2.003   3.128  11.082 -0.6833 -0.2495  0.5188
 8494SOL    HW237116   1.997   3.265  11.038  0.0604 -0.0302 -0.7349
 8495SOL     OW37117   3.312   2.820  17.566 -0.2176  0.0482 -0.2806
 8495SOL    HW137118   3.270   2.854  17.487 -0.3689  1.9408  0.5974
 8495SOL    HW237119   3.398   2.862  17.559 -0.5719  0.8537  0.1757
 8496SOL     OW37120   0.640   0.338   0.283 -0.2170 -0.7149  0.0815
 8496SOL    HW137121   0.657   0.415   0.229  1.5671 -0.6106  0.7916
 8496SOL    HW237122   0.586   0.282   0.227  0.4916 -2.2519  0.9265
 8497SOL     OW37123   1.213   4.258  16.234 -0.1960  0.1987 -0.1413
 8497SOL    HW137124   1.230   4.326  16.168 -0.3742  1.7373  1.3914
 8497SOL    HW237125   1.263   4.294  16.308 -0.9297 -0.5933  0.7260
 8498SOL     OW37126   1.421   1.735  15.903  0.1711  0.0040  0.2608
 8498SOL    HW137127   1.479   1.659  15.894  2.5829  1.6651  2.0402
 8498SOL    HW237128   1.435   1.774  15.816 -0.5588 -1.0327 -0.3215
 8499SOL     OW37129   4.036   0.905   0.992  0.1764 -0.3513  0.1434
 8499SOL    HW137130   4.113   0.849   0.999 -0.4526 -1.0573  1.5973
 8499SOL    HW237131   4.027   0.949   1.077 -1.2297  0.1032 -0.2399
 8500SOL     OW37132   4.448   4.165   6.702 -0.0251  0.0220  0.2281
 8500SOL    HW137133   4.439   4.182   6.796 -2.7437 -0.2756  0.0158
 8500SOL    HW237134   4.484   4.076   6.707  2.5025  1.0151 -0.0511
 8501SOL     OW37135   0.162   2.764   3.187 -0.6820  0.1180  0.0479
 8501SOL    HW137136   0.199   2.676   3.200 -1.4897 -0.2207  0.1006
 8501SOL    HW237137   0.160   2.766   3.091 -2.4634  3.1893  0.1666
 8502SOL     OW37138   4.251   1.660   6.643 -0.0311  0.4875 -0.7809
 8502SOL    HW137139   4.284   1.599   6.709  2.2790  0.4658 -1.9436
 8502SOL    HW237140   4.173   1.688   6.691 -1.0299 -2.0041 -0.9584
 8503SOL     OW37141   2.992   2.233  11.000  0.3807 -0.4481 -0.8629
 8503SOL    HW137142   3.052   2.275  11.061 -0.1423 -0.5769 -0.2663
 8503SOL    HW237143   2.962   2.154  11.044  3.1492 -1.5760 -0.9477
 8504SOL     OW37144   4.511   2.794   5.669 -0.2034 -0.2234  0.4395
 8504SOL    HW137145   4.447   2.807   5.599 -0.0328  1.4821  0.5896
 8504SOL    HW237146   4.492   2.711   5.713  2.6073 -2.5746 -2.8338
 8505SOL     OW37147   0.873   0.600   5.354 -0.0739 -0.3047  0.0043
 8505SOL    HW137148   0.920   0.676   5.320  0.4580 -2.0842 -3.1414
 8505SOL    HW237149   0.893   0.544   5.280  0.7292  1.4589 -1.1100
 8506SOL     OW37150   2.810   0.546   2.617  0.0331  0.2586  0.1328
 8506SOL    HW137151   2.740   0.611   2.617 -0.3062 -0.0979 -1.4819
 8506SOL    HW237152   2.764   0.476   2.570 -0.0071  0.2968  0.1163
 8507SOL     OW37153   4.140   4.589   9.456 -0.1229  0.2023 -0.7592
 8507SOL    HW137154   4.063   4.541   9.488  0.9494 -2.9317 -2.9080
 8507SOL    HW237155   4.109   4.678   9.442  0.3906  0.3369 -1.0342
 8508SOL     OW37156   3.949   1.566   1.222  0.0315  0.5216 -0.3056
 8508SOL    HW137157   3.972   1.606   1.138  2.4495  0.0001  0.1145
 8508SOL    HW237158   4.022   1.597   1.275 -1.2218 -1.2632  2.4641
 8509SOL     OW37159   0.028   0.548   4.225  0.2787  0.3340  0.2037
 8509SOL    HW137160   0.021   0.640   4.199 -0.5335  0.0783 -0.4496
 8509SOL    HW237161   4.722   0.495   4.159 -0.2910  1.1144 -0.0291
 8510SOL     OW37162   4.466   2.210   5.931  0.2351  0.4428 -0.6004
 8510SOL    HW137163   4.386   2.176   5.971 -0.3768  0.7241 -1.5728
 8510SOL    HW237164   4.430   2.253   5.853 -2.9368 -1.4188 -0.1741
 8511SOL     OW37165   4.696   2.662   8.060  0.0500  0.4536  0.2386
 8511SOL    HW137166   4.712   2.630   8.148  1.0087  0.1894 -0.0251
 8511SOL    HW237167   4.733   2.587   8.013  1.1445  0.3047  1.3272
 8512SOL     OW37168   0.376   1.553   7.461  0.7555 -0.1940 -0.2523
 8512SOL    HW137169   0.434   1.583   7.391  2.6215 -0.5700  1.1181
 8512SOL    HW237170   0.370   1.457   7.457 -2.9980  0.0036  1.0106
 8513SOL     OW37171   1.111   1.904   2.269 -0.2804  0.1591 -0.4805
 8513SOL    HW137172   1.135   1.861   2.351 -2.6135 -1.2947 -0.5477
 8513SOL    HW237173   1.169   1.980   2.265  1.1482 -0.8063  2.0568
 8514SOL     OW37174   1.967   1.187  15.343 -0.4357  0.1276  0.3829
 8514SOL    HW137175   1.940   1.106  15.386  0.5424  0.1499  1.0451
 8514SOL    HW237176   1.943   1.163  15.253 -0.0322 -0.0077  0.3082
 8515SOL     OW37177   1.373   4.483  10.790 -0.0234 -0.2866 -0.4158
 8515SOL    HW137178   1.410   4.557  10.838 -0.7589 -0.5244  0.5183
 8515SOL    HW237179   1.453   4.431  10.794  0.8675  1.1129  0.0565
 8516SOL     OW37180   3.630   1.979   2.129  0.0307 -0.0169 -0.5467
 8516SOL    HW137181   3.548   2.027   2.141 -0.7056 -1.3124 -0.4294
 8516SOL    HW237182   3.679   2.060   2.144  0.9665 -0.6112 -0.4055
 8517SOL     OW37183   0.873   0.468   5.993 -0.2282 -0.4962 -0.2276
 8517SOL    HW137184   0.969   0.467   5.993 -0.2526 -0.7327  3.6636
 8517SOL    HW237185   0.878   0.563   6.008 -1.4003 -0.2297 -1.4503
 8518SOL     OW37186   0.300   2.247   4.390 -0.1300 -0.4308  0.2808
 8518SOL    HW137187   0.263   2.246   4.302  1.3611  1.2907 -0.3758
 8518SOL    HW237188   0.307   2.153   4.408  0.4234 -0.3200  0.6435
 8519SOL     OW37189   3.345   2.805  17.231 -0.0647 -0.1322  0.9909
 8519SOL    HW137190   3.314   2.887  17.269  1.5912  0.6418  0.6595
 8519SOL    HW237191   3.264   2.770  17.195  0.4720  1.5385 -1.8557
 8520SOL     OW37192   0.860   1.190   8.263  0.3763 -0.8594  0.1266
 8520SOL    HW137193   0.951   1.220   8.270  0.2811 -1.1517  2.6960
 8520SOL    HW237194   0.875   1.111   8.316 -0.4686  0.0267  1.6819
 8521SOL     OW37195   2.157   2.196   5.629 -0.3597 -0.5149 -0.2093
 8521SOL    HW137196   2.244   2.178   5.593  0.2001  1.2761  0.2186
 8521SOL    HW237197   2.142   2.106   5.658 -0.5166 -0.7876 -1.1448
 8522SOL     OW37198   0.627   1.565   6.064 -0.5539 -0.2677  0.0366
 8522SOL    HW137199   0.591   1.478   6.081  0.3013 -0.2558  1.8558
 8522SOL    HW237200   0.686   1.574   6.139  0.7624 -1.2974 -0.8792
 8523SOL     OW37201   4.549   0.048   5.380  0.6680  0.5810 -0.6282
 8523SOL    HW137202   4.619   0.036   5.315  3.1447 -0.3782  2.1996
 8523SOL    HW237203   4.601   0.076   5.455  0.3145  2.7306 -1.2030
 8524SOL     OW37204   1.294   4.317  17.050  0.0867 -0.4606  0.2364
 8524SOL    HW137205   1.332   4.402  17.027 -0.4954  0.1658  1.5741
 8524SOL    HW237206   1.366   4.279  17.000  0.1769  1.6728 -1.2610
 8525SOL     OW37207   3.752   1.004  11.605  0.8296  0.3986  0.1569
 8525SOL    HW137208   3.706   0.968  11.681  0.6436  0.4365  0.0633
 8525SOL    HW237209   3.822   0.939  11.596 -1.9378 -2.9786  2.8062
 8526SOL     OW37210   3.304   4.241  13.487 -0.2574  0.8071 -0.1902
 8526SOL    HW137211   3.267   4.193  13.412  2.4100 -0.2557 -0.8372
 8526SOL    HW237212   3.300   4.175  13.557 -1.0264  0.3475 -0.6577
 8527SOL     OW37213   0.264   2.069   2.362 -0.2138 -0.2253  0.0296
 8527SOL    HW137214   0.314   2.151   2.358  0.2854 -0.4175  2.4708
 8527SOL    HW237215   0.309   2.020   2.430 -2.1990 -0.6052  1.0788
 8528SOL     OW37216   4.719   2.925   7.995  0.4008  0.0873  0.5886
 8528SOL    HW137217   4.647   2.932   7.932  0.8629  0.1634  0.0740
 8528SOL    HW237218   4.700   2.835   8.023 -0.1216  0.1332  0.3813
 8529SOL     OW37219   0.525   0.681   6.157  0.5390  0.2098  0.1996
 8529SOL    HW137220   0.476   0.673   6.075 -0.0163  0.2383  0.5278
 8529SOL    HW237221   0.511   0.775   6.169  1.4559 -0.0308  3.3407
 8530SOL     OW37222   2.865   1.223   6.843 -0.9006  0.3473 -0.0541
 8530SOL    HW137223   2.821   1.289   6.897 -1.6090 -0.9478  0.9308
 8530SOL    HW237224   2.902   1.274   6.770  0.6768  0.5653  0.9043
 8531SOL     OW37225   0.927   4.198   6.284 -0.0605 -0.1837  0.0914
 8531SOL    HW137226   0.884   4.184   6.200 -0.6504 -0.6611  0.4629
 8531SOL    HW237227   0.853   4.189   6.344  1.0847 -2.1069  1.2433
 8532SOL     OW37228   3.832   0.086   6.475 -0.2240 -0.3196  0.6063
 8532SOL    HW137229   3.861   0.045   6.393 -1.8844  0.0571 -0.1710
 8532SOL    HW237230   3.896   0.157   6.484 -2.9485  2.3228 -0.8389
 8533SOL     OW37231   3.175   1.887   4.711 -0.0651  0.0329  0.6169
 8533SOL    HW137232   3.197   1.947   4.641 -2.6884 -0.6274 -0.7648
 8533SOL    HW237233   3.235   1.814   4.694 -1.4052 -1.4080  2.0431
 8534SOL     OW37234   0.405   2.527  16.161 -0.0950  0.2367  0.0199
 8534SOL    HW137235   0.374   2.580  16.234  0.3605 -0.3768  0.6684
 8534SOL    HW237236   0.494   2.563  16.155 -0.9038  2.2057  0.0997
 8535SOL     OW37237   2.127   0.455  14.897 -0.2974 -0.1154 -0.1416
 8535SOL    HW137238   2.210   0.446  14.942  0.7369  1.6971 -1.6660
 8535SOL    HW237239   2.114   0.547  14.923  2.1579 -0.1679  1.2413
 8536SOL     OW37240   3.799   0.487  10.424  0.0125 -0.0219 -0.3730
 8536SOL    HW137241   3.872   0.437  10.386 -0.2665  1.0816 -2.3504
 8536SOL    HW237242   3.756   0.419  10.476  1.0247 -3.2191 -3.7100
 8537SOL     OW37243   3.958   4.427  13.479  0.6326 -0.3006  0.0939
 8537SOL    HW137244   4.007   4.461  13.554  0.8050 -0.4059  0.0289
 8537SOL    HW237245   3.945   4.335  13.501 -1.6214  0.0328  0.1425
 8538SOL     OW37246   1.203   2.982  15.548  0.0998  0.3326  0.4843
 8538SOL    HW137247   1.270   2.971  15.614  0.3728 -1.0597 -0.0157
 8538SOL    HW237248   1.139   3.034  15.597 -1.1793  0.4565 -1.2705
 8539SOL     OW37249   0.477   0.465   4.318  0.1150 -0.2331  0.0147
 8539SOL    HW137250   0.572   0.478   4.313 -0.3040  2.4169 -1.0200
 8539SOL    HW237251   0.457   0.485   4.410 -1.8102  0.9253 -0.6559
 8540SOL     OW37252   4.314   2.157  14.921 -0.0506  0.1378  0.3248
 8540SOL    HW137253   4.267   2.142  14.839 -1.9412 -0.3670  1.5027
 8540SOL    HW237254   4.302   2.082  14.980  0.5800 -0.4763 -0.3368
 8541SOL     OW37255   4.305   0.364   3.723 -0.0033  0.3604 -0.0286
 8541SOL    HW137256   4.346   0.332   3.804  0.7230  0.7830 -0.2311
 8541SOL    HW237257   4.302   0.279   3.679 -1.6906 -0.6026  1.9315
 8542SOL     OW37258   4.699   2.934   2.922  0.0429  0.2966  0.5669
 8542SOL    HW137259   4.613   2.916   2.959 -0.3244 -0.6015 -0.7160
 8542SOL    HW237260   0.000   3.009   2.966  0.3800 -0.3596  1.3795
 8543SOL     OW37261   2.640   0.948   8.307  0.1475 -0.1686 -0.1547
 8543SOL    HW137262   2.699   0.901   8.247 -0.5020  0.8117 -1.5565
 8543SOL    HW237263   2.667   1.038   8.291 -1.5757  0.3810  0.0607
 8544SOL     OW37264   1.014   4.455   8.453 -0.2645 -0.0450  0.4287
 8544SOL    HW137265   0.951   4.389   8.481 -0.0398  0.0365  1.1165
 8544SOL    HW237266   1.093   4.401   8.453  1.7334  2.8624  0.9376
 8545SOL     OW37267   2.712   1.857   3.454 -0.3029  0.1154  0.4108
 8545SOL    HW137268   2.785   1.805   3.485  0.4662  0.1912 -1.2553
 8545SOL    HW237269   2.759   1.920   3.399 -0.4374 -1.1708 -1.1748
 8546SOL     OW37270   0.963   2.008   6.939 -0.1645 -0.0322  0.4760
 8546SOL    HW137271   0.921   1.989   6.855  2.9474 -0.0829 -1.0734
 8546SOL    HW237272   0.977   1.916   6.963 -2.7562 -0.4766  0.2173
 8547SOL     OW37273   3.055   2.311  10.094  0.0316  0.1561 -0.0057
 8547SOL    HW137274   2.978   2.321  10.038  0.8976 -2.2025 -1.6298
 8547SOL    HW237275   3.015   2.338  10.177 -0.3002 -0.5633  0.0691
 8548SOL     OW37276   2.157   1.718   3.353 -0.3614 -0.2816  0.1600
 8548SOL    HW137277   2.209   1.648   3.392 -0.4088 -1.2603 -1.5196
 8548SOL    HW237278   2.223   1.784   3.331 -0.3585 -0.5709 -0.6845
 8549SOL     OW37279   4.291   1.069   3.479  0.1883 -0.8357 -0.4557
 8549SOL    HW137280   4.197   1.086   3.482  0.0849 -0.9405 -2.7995
 8549SOL    HW237281   4.293   0.985   3.524 -0.5511 -0.9660 -0.6659
 8550SOL     OW37282   3.257   2.431   4.141 -0.4393 -0.0316 -0.0081
 8550SOL    HW137283   3.294   2.473   4.218 -0.9963 -0.7263  0.6341
 8550SOL    HW237284   3.167   2.462   4.150 -0.3808 -0.5169  2.1756
 8551SOL     OW37285   1.067   3.080  13.480 -0.0288  0.1921 -0.1891
 8551SOL    HW137286   1.145   3.126  13.450  0.6168 -1.3111 -0.8460
 8551SOL    HW237287   1.099   3.016  13.544  0.7658  0.3382 -0.4369
 8552SOL     OW37288   4.699   0.618  14.196 -0.2495  0.4229  0.1578
 8552SOL    HW137289   4.695   0.630  14.101 -0.2173 -2.2654 -0.1819
 8552SOL    HW237290   4.612   0.636  14.233  0.5028 -0.1474  2.2444
 8553SOL     OW37291   4.571   3.620   9.028  0.3939 -0.1146 -0.2178
 8553SOL    HW137292   4.507   3.586   9.091  2.9454  0.4860  2.7301
 8553SOL    HW237293   4.624   3.542   9.013 -1.0889 -0.9483 -1.0575
 8554SOL     OW37294   2.109   3.607   1.652  0.2684 -0.0343  0.7575
 8554SOL    HW137295   2.041   3.582   1.589  1.6927 -0.0174 -0.7749
 8554SOL    HW237296   2.120   3.699   1.626 -0.5358 -0.0489  0.3772
 8555SOL     OW37297   3.618   3.448   8.863 -0.1545 -0.1099  0.1972
 8555SOL    HW137298   3.651   3.431   8.951 -0.5358  0.9496  0.5415
 8555SOL    HW237299   3.649   3.536   8.840 -0.0207  0.1694  1.4546
 8556SOL     OW37300   3.562   0.237  16.284  0.3225 -0.1550  0.1271
 8556SOL    HW137301   3.483   0.271  16.325 -1.2150 -1.2041 -1.9588
 8556SOL    HW237302   3.628   0.305  16.296  0.3600 -0.2182  0.2797
 8557SOL     OW37303   4.265   2.443   4.302  0.2981 -0.3734  0.0956
 8557SOL    HW137304   4.174   2.468   4.315 -0.0075 -0.2182 -2.4997
 8557SOL    HW237305   4.294   2.521   4.254  1.3315 -0.3579  0.7319
 8558SOL     OW37306   3.345   1.787   3.664  0.4602  0.0368 -0.2290
 8558SOL    HW137307   3.290   1.764   3.589  0.0565  0.8916 -0.1929
 8558SOL    HW237308   3.340   1.882   3.655  0.1717  0.1781  1.3263
 8559SOL     OW37309   0.649   2.195  16.533  0.1283 -0.3729 -0.1536
 8559SOL    HW137310   0.689   2.112  16.507  2.6166  0.1953  1.8583
 8559SOL    HW237311   0.564   2.171  16.569  0.3954  1.3767  1.6254
 8560SOL     OW37312   3.142   0.710   7.744  0.2098 -0.1017 -0.2215
 8560SOL    HW137313   3.201   0.652   7.793  0.2686  1.5967  1.7044
 8560SOL    HW237314   3.204   0.760   7.690 -1.6941  1.4569 -0.9489
 8561SOL     OW37315   2.906   1.994  13.735 -0.0246  0.0060  0.3832
 8561SOL    HW137316   2.905   1.936  13.811  0.0041  0.8754  1.0477
 8561SOL    HW237317   2.853   2.065  13.772  0.0422  0.1086  0.2868
 8562SOL     OW37318   1.937   1.799   6.783 -0.0995  0.1583 -0.1452
 8562SOL    HW137319   1.964   1.747   6.708 -0.3443  1.0153 -0.8256
 8562SOL    HW237320   1.929   1.890   6.753  0.8776  0.0389 -0.7804
 8563SOL     OW37321   0.363   0.520   7.430  0.3255 -0.6082 -0.4982
 8563SOL    HW137322   0.409   0.533   7.347  1.1318 -1.5537 -0.2139
 8563SOL    HW237323   0.428   0.495   7.496 -0.0723  2.7059  1.1436
 8564SOL     OW37324   4.429   3.724   2.931  0.3314  0.4567  0.4088
 8564SOL    HW137325   4.357   3.712   2.993 -0.5643 -0.8434 -0.8730
 8564SOL    HW237326   4.417   3.817   2.910 -1.5119  0.3274  0.8171
 8565SOL     OW37327   1.929   3.848   6.776 -0.0896  0.6287 -0.1330
 8565SOL    HW137328   1.956   3.766   6.816  2.1119  0.1549 -2.6094
 8565SOL    HW237329   1.848   3.875   6.821 -0.6463 -0.4093 -0.5177
 8566SOL     OW37330   3.527   2.687  12.438 -0.1282 -0.1293  0.2070
 8566SOL    HW137331   3.586   2.654  12.369 -0.7915  2.0845 -1.4281
 8566SOL    HW237332   3.491   2.768  12.403 -1.6325 -0.0428  2.0113
 8567SOL     OW37333   3.662   1.783  16.800  0.1604  0.0504 -0.9391
 8567SOL    HW137334   3.658   1.708  16.742 -1.3404 -0.9210  0.4363
 8567SOL    HW237335   3.645   1.855  16.738  0.1326  1.1447  0.3330
 8568SOL     OW37336   0.165   4.431   0.370 -0.4042 -0.1001  0.1925
 8568SOL    HW137337   0.215   4.511   0.381 -0.3467 -0.3602  1.8458
 8568SOL    HW237338   0.093   4.437   0.432 -2.1384 -0.0837 -1.8049
 8569SOL     OW37339   3.039   4.073  16.766 -0.1337  0.0768 -0.3249
 8569SOL    HW137340   3.048   4.029  16.682 -0.6339  0.5382 -0.6155
 8569SOL    HW237341   3.000   4.004  16.821 -0.4217 -0.7681 -1.5974
 8570SOL     OW37342   4.522   4.357  12.321  0.4560 -0.1178 -0.3151
 8570SOL    HW137343   4.530   4.415  12.244 -1.0905  0.4116 -0.0765
 8570SOL    HW237344   4.507   4.270  12.284  2.6698 -0.2301 -0.9696
 8571SOL     OW37345   1.995   2.245   5.392  0.1819 -0.0338  0.2782
 8571SOL    HW137346   2.016   2.229   5.484  0.9304 -0.2543  0.0685
 8571SOL    HW237347   1.953   2.331   5.392 -0.1869 -0.2123  1.5855
 8572SOL     OW37348   4.353   3.635   8.547 -0.0571  0.4230  0.8642
 8572SOL    HW137349   4.389   3.603   8.629 -2.1020 -0.7260  1.3307
 8572SOL    HW237350   4.332   3.722   8.579  1.7171  1.3540 -0.5105
 8573SOL     OW37351   4.260   0.116   3.648  0.0211  0.1567  0.0934
 8573SOL    HW137352   4.220   0.103   3.734 -1.0996  1.4469 -0.2258
 8573SOL    HW237353   4.183   0.089   3.597 -0.8428  1.8557  0.4832
 8574SOL     OW37354   2.129   3.954   5.949 -0.4930  0.0610  0.1663
 8574SOL    HW137355   2.137   3.888   5.880 -0.4123 -0.8492  1.0355
 8574SOL    HW237356   2.200   4.011   5.921  0.2302 -1.1915 -0.5304
 8575SOL     OW37357   4.222   4.631   8.981  0.5046 -0.2115  0.1527
 8575SOL    HW137358   4.212   4.583   9.063  0.0628  0.0297  0.2384
 8575SOL    HW237359   4.315   4.609   8.975  1.2534  2.6596  1.2968
 8576SOL     OW37360   4.444   2.359   8.089 -0.4769 -0.4238  0.0416
 8576SOL    HW137361   4.427   2.453   8.084 -0.6338 -0.5230 -1.3927
 8576SOL    HW237362   4.449   2.332   7.997 -2.3807  1.6325 -0.6548
 8577SOL     OW37363   3.446   2.648   1.199 -0.5387  0.7156  0.1379
 8577SOL    HW137364   3.446   2.554   1.180  1.1480  1.0620 -1.6657
 8577SOL    HW237365   3.526   2.682   1.158  1.0083 -0.2771  2.3049
 8578SOL     OW37366   0.709   4.581  13.775 -0.1426  0.5566  0.7538
 8578SOL    HW137367   0.647   4.601  13.704 -0.6987  0.7642  1.2997
 8578SOL    HW237368   0.664   4.522  13.835  2.3179  0.4957  2.5179
 8579SOL     OW37369   0.005   2.617   8.361 -0.1521 -0.1307  0.4134
 8579SOL    HW137370   4.689   2.547   8.326 -0.9693  0.8978 -0.3665
 8579SOL    HW237371   0.072   2.570   8.411  1.7087  1.8827 -0.1760
 8580SOL     OW37372   0.782   1.917   3.171 -0.0726  0.3789 -0.2639
 8580SOL    HW137373   0.748   1.989   3.117  1.7226 -0.1879 -2.1741
 8580SOL    HW237374   0.834   1.876   3.102  0.4783 -2.6274  1.9475
 8581SOL     OW37375   0.869   2.036  14.541 -0.6564 -0.2864  0.1070
 8581SOL    HW137376   0.893   1.956  14.494 -0.8604  0.1167 -0.6700
 8581SOL    HW237377   0.944   2.092  14.519 -0.4947 -0.1691  0.9417
 8582SOL     OW37378   3.351   3.721   5.469  0.5158 -0.0259 -0.1885
 8582SOL    HW137379   3.322   3.812   5.464  1.1557  0.2989  1.9907
 8582SOL    HW237380   3.427   3.735   5.526  0.5620 -0.7091 -0.0744
 8583SOL     OW37381   1.759   0.201   5.317 -0.4736 -0.2800  0.2493
 8583SOL    HW137382   1.672   0.230   5.346  0.1866  1.6743  0.2679
 8583SOL    HW237383   1.791   0.168   5.401  2.2575  0.4880 -0.5125
 8584SOL     OW37384   1.899   1.247  16.833  0.4531 -0.4591 -0.7190
 8584SOL    HW137385   1.983   1.230  16.876 -0.4649 -0.7636  0.9337
 8584SOL    HW237386   1.844   1.186  16.882  0.3688  0.1375 -0.0857
 8585SOL     OW37387   4.657   2.943  15.186 -0.2168  0.2439  0.1421
 8585SOL    HW137388   4.704   2.935  15.103 -0.6109 -0.9246  0.0344
 8585SOL    HW237389   4.581   2.885  15.176  0.7722 -1.0492  0.1751
 8586SOL     OW37390   3.126   3.336   5.846  0.4740 -0.4687 -0.4312
 8586SOL    HW137391   3.090   3.415   5.806 -0.9454 -0.1926  1.4300
 8586SOL    HW237392   3.059   3.322   5.913  0.1665  4.7955  0.3647
 8587SOL     OW37393   3.567   0.117   7.711  0.2807 -0.5877  0.0299
 8587SOL    HW137394   3.542   0.195   7.661  2.7709  1.3208  1.7827
 8587SOL    HW237395   3.630   0.154   7.772 -0.2689  0.8963 -0.2930
 8588SOL     OW37396   3.002   3.553   4.667  0.6028 -0.4051  0.1684
 8588SOL    HW137397   3.039   3.484   4.613 -1.3767 -0.5833 -0.9671
 8588SOL    HW237398   3.080   3.578   4.717  2.1699 -4.6840 -0.1307
 8589SOL     OW37399   4.078   2.295  17.734  0.3443 -0.7910 -0.4978
 8589SOL    HW137400   4.099   2.331  17.648 -0.0271  2.6058  0.8359
 8589SOL    HW237401   4.096   2.372   0.034 -0.7939 -1.1067  0.3359
 8590SOL     OW37402   1.282   4.424   8.159 -0.1695 -0.2501  0.2045
 8590SOL    HW137403   1.230   4.401   8.236  0.6650 -0.4123  0.7133
 8590SOL    HW237404   1.207   4.462   8.114  0.6440  0.2491 -0.7287
 8591SOL     OW37405   1.229   3.929   7.387  0.4671 -0.7839  0.2841
 8591SOL    HW137406   1.160   3.865   7.366  0.3585 -0.0643 -1.5596
 8591SOL    HW237407   1.285   3.871   7.439 -0.6250 -0.9995  1.2288
 8592SOL     OW37408   4.206   4.112   8.565 -0.2538  0.3176 -0.5232
 8592SOL    HW137409   4.239   4.165   8.492  0.1191  1.4327  0.4524
 8592SOL    HW237410   4.239   4.029   8.531  0.2194 -0.7575  2.5818
 8593SOL     OW37411   3.348   3.799  13.566 -0.0760  0.5212 -0.1243
 8593SOL    HW137412   3.326   3.818  13.474  2.6075 -0.8021 -1.0254
 8593SOL    HW237413   3.334   3.883  13.608  0.5305  1.0939 -1.0742
 8594SOL     OW37414   1.190   1.011   3.984  0.4650 -0.2484 -0.6885
 8594SOL    HW137415   1.158   1.092   4.025 -1.9684 -1.3524 -0.3972
 8594SOL    HW237416   1.284   1.027   3.982  0.1703  1.5049 -0.3487
 8595SOL     OW37417   1.635   2.040   2.456 -0.0566 -0.6406  0.0334
 8595SOL    HW137418   1.669   2.128   2.436 -0.8738 -0.6910 -1.5481
 8595SOL    HW237419   1.720   1.998   2.444 -1.5035 -3.7527  0.9007
 8596SOL     OW37420   3.991   3.768   7.373  0.0591  0.4744  0.4315
 8596SOL    HW137421   4.000   3.858   7.340 -1.5270  0.1101 -0.9998
 8596SOL    HW237422   4.067   3.720   7.342 -1.3296 -1.2551 -0.2984
 8597SOL     OW37423   1.426   3.775  17.604 -0.5753 -0.5025  0.0975
 8597SOL    HW137424   1.381   3.739  17.527 -0.0391 -0.3603 -0.2796
 8597SOL    HW237425   1.476   3.841  17.557 -1.0448 -1.5707 -1.9026
 8598SOL     OW37426   0.914   0.830   7.675  0.7768 -0.2885 -0.1109
 8598SOL    HW137427   0.955   0.797   7.755  0.1574 -2.5698 -0.7301
 8598SOL    HW237428   0.979   0.891   7.640  1.3944 -1.0489 -0.2860
 8599SOL     OW37429   1.462   3.403   6.847  0.0513  0.0581 -0.1512
 8599SOL    HW137430   1.471   3.318   6.804  0.5484 -0.6637  1.4074
 8599SOL    HW237431   1.532   3.402   6.912 -2.1153 -1.0499  2.1517
 8600SOL     OW37432   4.499   2.611   9.932  0.4987  0.4124 -0.2918
 8600SOL    HW137433   4.509   2.593   9.839 -1.9342  1.8547 -0.8405
 8600SOL    HW237434   4.412   2.577   9.953 -0.5239  2.6453 -0.8440
 8601SOL     OW37435   3.404   0.763   6.687 -0.1815 -0.0942 -0.5799
 8601SOL    HW137436   3.365   0.676   6.695  1.0045 -0.5621  0.0995
 8601SOL    HW237437   3.498   0.744   6.691  0.0904  1.2736 -0.3174
 8602SOL     OW37438   1.718   4.614  14.620  0.0082 -0.1233 -0.1251
 8602SOL    HW137439   1.635   4.624  14.573 -0.2362  0.7047  0.4814
 8602SOL    HW237440   1.787   4.657  14.569  1.4758  0.4483  2.3819
 8603SOL     OW37441   0.474   3.658   2.694 -0.0982  0.6285 -0.1276
 8603SOL    HW137442   0.464   3.652   2.599 -2.0862 -0.6745  0.1712
 8603SOL    HW237443   0.396   3.710   2.712  0.9794  2.6769 -1.3794
 8604SOL     OW37444   0.477   0.302   3.372 -0.8637 -0.1050  0.0074
 8604SOL    HW137445   0.450   0.349   3.451 -1.1783 -1.4075  0.6581
 8604SOL    HW237446   0.394   0.282   3.328 -2.2430  0.9975  2.1066
 8605SOL     OW37447   3.331   1.023   7.381  0.1486  0.1235  0.9973
 8605SOL    HW137448   3.348   1.116   7.397 -0.6587  0.5182 -0.4551
 8605SOL    HW237449   3.358   0.984   7.465  0.6365  2.4441  1.9188
 8606SOL     OW37450   0.602   3.887   5.317  0.0238 -0.2266 -0.1492
 8606SOL    HW137451   0.600   3.921   5.227  1.5122  0.0746 -0.0679
 8606SOL    HW237452   0.525   3.927   5.359 -0.6755 -2.5082  0.7021
 8607SOL     OW37453   0.043   2.568   7.706 -0.2405  0.1972 -0.1252
 8607SOL    HW137454   0.048   2.539   7.797  1.5178  0.5839 -0.0992
 8607SOL    HW237455   4.690   2.586   7.688 -0.9046 -1.9808  1.0591
 8608SOL     OW37456   0.403   0.026  13.809  0.5157  0.4919  0.1672
 8608SOL    HW137457   0.394   0.002  13.717  1.7644  1.7149 -0.2826
 8608SOL    HW237458   0.487   0.071  13.815  0.2130  0.8325  1.8185
 8609SOL     OW37459   1.277   3.323   9.131  0.0805  0.0774  0.0069
 8609SOL    HW137460   1.199   3.378   9.137  1.1461  1.6310 -0.3678
 8609SOL    HW237461   1.254   3.266   9.058 -0.5983  0.9741 -0.4721
 8610SOL     OW37462   1.191   4.720   9.186 -0.6347  0.3832  0.0551
 8610SOL    HW137463   1.223   4.634   9.160  1.6464  1.3391 -0.2940
 8610SOL    HW237464   1.098   4.724   9.163 -0.9080  0.8106  1.2299
 8611SOL     OW37465   2.130   1.587  10.613  0.0461  0.3273 -0.1810
 8611SOL    HW137466   2.116   1.680  10.599 -0.4867  0.2902  0.1096
 8611SOL    HW237467   2.207   1.569  10.559  1.5325  2.5787  1.2110
 8612SOL     OW37468   2.165   3.793   5.324  0.3442  0.8395  0.5857
 8612SOL    HW137469   2.234   3.858   5.314 -0.3732  1.7818  1.8064
 8612SOL    HW237470   2.210   3.717   5.361  0.8119  0.1433 -1.3991
 8613SOL     OW37471   1.391   0.389   9.617 -0.3032  0.3554  0.3002
 8613SOL    HW137472   1.410   0.332   9.542 -1.1269 -0.1120  0.4405
 8613SOL    HW237473   1.365   0.326   9.684 -0.7209  1.0312  0.7597
 8614SOL     OW37474   2.890   3.898   3.062 -0.3886  0.2809 -0.1597
 8614SOL    HW137475   2.799   3.894   3.093 -0.3573  3.7482  0.4511
 8614SOL    HW237476   2.895   3.849   2.981 -1.3396  3.2640 -2.0341
 8615SOL     OW37477   1.883   4.680   1.794 -0.8232  0.4399 -0.0946
 8615SOL    HW137478   1.956   4.722   1.838  0.8465 -0.3105 -2.1658
 8615SOL    HW237479   1.888   4.587   1.818  0.4016  0.5104 -0.0892
 8616SOL     OW37480   3.257   3.114  14.453  0.2549  0.6150 -0.7379
 8616SOL    HW137481   3.335   3.143  14.500  0.4085  0.6394 -1.0071
 8616SOL    HW237482   3.302   3.079  14.376  2.1443  0.4879  0.4328
 8617SOL     OW37483   2.090   1.762   7.990  0.2664  0.7108  0.1523
 8617SOL    HW137484   2.022   1.700   7.965  1.7314 -1.0091  0.4367
 8617SOL    HW237485   2.111   1.730   8.077  0.3634  0.3549 -0.0012
 8618SOL     OW37486   1.036   3.096   2.711  0.0405  0.4733  0.4513
 8618SOL    HW137487   1.079   3.013   2.690  1.1695  1.1998 -0.0873
 8618SOL    HW237488   1.081   3.118   2.792 -1.6363  1.8572  1.0119
 8619SOL     OW37489   1.596   4.225   9.408  0.2779  0.1876 -0.0651
 8619SOL    HW137490   1.629   4.265   9.488 -0.0088  1.6345 -0.6801
 8619SOL    HW237491   1.594   4.131   9.427 -3.7867 -0.0757 -1.7579
 8620SOL     OW37492   4.307   3.060   3.181  0.7872 -0.0850  0.0748
 8620SOL    HW137493   4.372   3.126   3.208  2.5812 -1.4687 -0.8276
 8620SOL    HW237494   4.324   3.073   3.088 -0.4528 -1.8144 -0.3961
 8621SOL     OW37495   3.259   1.107   2.314  0.3801 -0.2086  0.5342
 8621SOL    HW137496   3.258   1.011   2.314 -0.1471 -0.2065 -2.1202
 8621SOL    HW237497   3.166   1.127   2.301  0.5855 -0.8142 -1.8496
 8622SOL     OW37498   0.568   4.428   4.409  0.3830 -0.4165  0.2669
 8622SOL    HW137499   0.479   4.402   4.434 -0.8001  2.8825 -0.6383
 8622SOL    HW237500   0.616   4.352   4.442  0.4448 -1.4560 -2.2314
 8623SOL     OW37501   3.549   0.041  12.719 -0.7440 -0.0168  0.0588
 8623SOL    HW137502   3.626   0.054  12.775 -0.7332 -1.8587  0.4917
 8623SOL    HW237503   3.515   0.130  12.714  1.5252  0.7778 -1.1369
 8624SOL     OW37504   2.664   4.299   3.917  0.3863 -0.2634 -0.0619
 8624SOL    HW137505   2.733   4.323   3.856  0.3004 -0.8722 -0.3981
 8624SOL    HW237506   2.602   4.370   3.902  0.0331 -0.3280  1.0723
 8625SOL     OW37507   3.144   0.013   2.389  0.5386 -0.2410  0.1718
 8625SOL    HW137508   3.195   4.728   2.466  0.5335 -2.2853 -0.4353
 8625SOL    HW237509   3.058   4.722   2.417 -0.0607  0.3998 -0.9801
 8626SOL     OW37510   0.378   2.663  16.389  0.7939  0.4371 -0.0786
 8626SOL    HW137511   0.340   2.658  16.477 -0.2363 -0.7097 -0.5866
 8626SOL    HW237512   0.467   2.632  16.404 -0.2138 -2.4729 -0.1605
 8627SOL     OW37513   0.794   1.278   6.372  0.4268 -0.7771  0.0729
 8627SOL    HW137514   0.887   1.288   6.390  1.0056 -0.2553 -3.1361
 8627SOL    HW237515   0.795   1.239   6.284  1.1998 -1.3573  0.3432
 8628SOL     OW37516   3.021   2.762  16.953  0.0988  0.2427  0.0407
 8628SOL    HW137517   2.989   2.778  16.864 -2.0153  1.4087  0.9961
 8628SOL    HW237518   3.048   2.670  16.952 -0.5059  0.0559  0.3357
 8629SOL     OW37519   3.090   3.166   8.124  0.0598 -0.3174  0.6322
 8629SOL    HW137520   3.147   3.107   8.174 -0.6810 -1.4540  0.1411
 8629SOL    HW237521   3.027   3.102   8.089  2.0480 -2.9167  1.7732
 8630SOL     OW37522   3.162   4.682   4.631 -0.3479  0.3449  0.1652
 8630SOL    HW137523   3.071   4.652   4.637 -1.0755  2.1494 -1.8287
 8630SOL    HW237524   3.161   0.015   4.568 -4.4137  0.4006  0.2836
 8631SOL     OW37525   4.141   2.276  13.712 -0.7464 -0.2888 -0.0115
 8631SOL    HW137526   4.153   2.184  13.733 -1.1282 -0.6131 -1.1957
 8631SOL    HW237527   4.086   2.255  13.636  2.1127 -1.6502 -1.6897
 8632SOL     OW37528   2.898   1.816   4.670 -0.5530  0.6824  0.1820
 8632SOL    HW137529   2.890   1.721   4.675 -0.8902  0.6633 -0.8340
 8632SOL    HW237530   2.986   1.834   4.703  0.9402 -2.4237 -2.1765
 8633SOL     OW37531   0.585   3.218   7.057 -0.3669 -0.0613  0.6588
 8633SOL    HW137532   0.588   3.300   7.008 -0.6129 -0.8353 -0.6409
 8633SOL    HW237533   0.646   3.170   7.001 -0.6569 -0.4291  0.6571
 8634SOL     OW37534   2.388   2.108   5.539  0.0434  0.0008 -0.0339
 8634SOL    HW137535   2.348   2.090   5.454 -1.3239  1.7510  0.2542
 8634SOL    HW237536   2.415   2.017   5.553  1.4774  0.6373  1.3640
 8635SOL     OW37537   4.035   1.732   4.516  0.3688  0.2756  0.2792
 8635SOL    HW137538   3.961   1.694   4.468  0.2442 -2.9399  3.0125
 8635SOL    HW237539   4.078   1.778   4.444  1.1505  1.2129  1.3484
 8636SOL     OW37540   3.104   2.751  13.230  0.1686  0.0752  0.2180
 8636SOL    HW137541   3.133   2.660  13.237  0.4876  0.0903 -0.9556
 8636SOL    HW237542   3.053   2.767  13.309  0.4442  1.2260  0.1591
 8637SOL     OW37543   2.091   3.952   4.427  0.1240  0.3345  0.0708
 8637SOL    HW137544   2.021   3.913   4.480  1.1762 -1.6202  0.0181
 8637SOL    HW237545   2.053   4.038   4.408  0.0029 -0.4129 -2.9691
 8638SOL     OW37546   1.480   2.590   2.440 -0.0020 -0.1492 -0.3924
 8638SOL    HW137547   1.398   2.628   2.468 -0.1549  0.1495 -1.2468
 8638SOL    HW237548   1.542   2.662   2.449 -0.0122  0.1018 -2.2662
 8639SOL     OW37549   3.426   2.149   8.445 -0.1189  0.0825 -0.1456
 8639SOL    HW137550   3.365   2.166   8.516 -0.3229 -0.0545 -0.2870
 8639SOL    HW237551   3.407   2.218   8.382 -0.1911  0.9359  0.8211
 8640SOL     OW37552   2.005   0.036  15.754  0.3140 -0.5521  0.1334
 8640SOL    HW137553   2.025   0.120  15.712  1.7169 -2.0431 -2.2130
 8640SOL    HW237554   1.954   0.063  15.830 -0.2421  0.8583 -0.7441
 8641SOL     OW37555   2.949   1.682   2.883 -0.2849  0.0096  0.2854
 8641SOL    HW137556   2.952   1.597   2.840 -1.7852 -1.1142  2.3929
 8641SOL    HW237557   3.026   1.675   2.939 -0.5759  2.0274  0.9580
 8642SOL     OW37558   1.382   2.124   7.035 -0.1993  0.4623 -0.5476
 8642SOL    HW137559   1.430   2.098   6.957 -0.1650  1.4807 -0.8631
 8642SOL    HW237560   1.299   2.141   6.990 -1.0193 -1.7664  0.1371
 8643SOL     OW37561   1.507   0.707   9.316 -0.2728  0.5127 -0.3313
 8643SOL    HW137562   1.573   0.637   9.313 -1.5210 -0.7923  2.5033
 8643SOL    HW237563   1.527   0.746   9.401  0.3956 -2.3998  0.8594
 8644SOL     OW37564   0.272   2.013  16.874  0.5148  0.1392 -0.2344
 8644SOL    HW137565   0.224   1.954  16.932  2.8746 -1.2537  0.3079
 8644SOL    HW237566   0.335   2.052  16.935  1.6024 -1.2976 -0.4359
 8645SOL     OW37567   3.379   3.649   8.284  0.2725  0.1317 -0.1491
 8645SOL    HW137568   3.414   3.659   8.195  0.9838 -2.2185 -0.1250
 8645SOL    HW237569   3.292   3.689   8.285  0.0618 -0.3182 -0.9148
 8646SOL     OW37570   1.018   3.707   3.839 -0.0206  0.7061 -0.8616
 8646SOL    HW137571   0.950   3.698   3.772 -0.1442 -1.1303 -0.5039
 8646SOL    HW237572   0.972   3.760   3.904 -1.2394  0.5544 -1.5928
 8647SOL     OW37573   0.128   4.690   3.038  0.3578 -0.1179  0.2524
 8647SOL    HW137574   0.163   4.738   2.963 -0.7768 -0.3821 -0.4483
 8647SOL    HW237575   0.183   4.612   3.036  1.0198  0.3410  0.6350
 8648SOL     OW37576   4.705   4.446   4.990 -0.0744 -0.8344  0.2532
 8648SOL    HW137577   0.012   4.413   4.913  0.4787  1.2211 -0.2987
 8648SOL    HW237578   0.038   4.451   5.053  0.0268  1.2757 -0.0129
 8649SOL     OW37579   2.979   3.019   2.543 -0.0627 -0.0006 -0.8129
 8649SOL    HW137580   3.042   3.023   2.471  2.0331 -1.2273  0.9840
 8649SOL    HW237581   2.898   3.065   2.521  0.5029  0.7809 -1.2720
 8650SOL     OW37582   1.768   2.802   4.692 -0.2466  0.2766  0.2483
 8650SOL    HW137583   1.744   2.715   4.660  0.8802  0.0168  0.0995
 8650SOL    HW237584   1.852   2.792   4.737 -0.0641  2.6342  0.4142
 8651SOL     OW37585   2.574   0.536   2.906 -0.3869  0.4207 -0.2494
 8651SOL    HW137586   2.500   0.585   2.944 -0.2859  0.5374 -0.2037
 8651SOL    HW237587   2.638   0.608   2.908  1.6391 -1.4382  1.7214
 8652SOL     OW37588   1.263   3.007   2.297  0.0067  0.3373 -0.7266
 8652SOL    HW137589   1.176   3.017   2.260 -1.0921 -1.2256  1.4362
 8652SOL    HW237590   1.280   3.099   2.313  1.1256 -0.0744  0.4351
 8653SOL     OW37591   0.176   2.588   9.020  0.3655  0.1940 -0.4099
 8653SOL    HW137592   0.177   2.521   9.089  0.1417 -0.4334 -1.0083
 8653SOL    HW237593   0.103   2.642   9.051  1.7248  0.8553  1.5856
 8654SOL     OW37594   1.649   3.943  10.307 -0.0898 -0.1587  0.7430
 8654SOL    HW137595   1.631   3.908  10.394 -2.2349  2.7733  1.4685
 8654SOL    HW237596   1.739   3.976  10.312  0.6693 -2.0565 -0.2979
 8655SOL     OW37597   2.167   0.843   9.733  0.1688  0.2049  0.2748
 8655SOL    HW137598   2.156   0.935   9.710 -3.9944 -0.4334 -0.4298
 8655SOL    HW237599   2.164   0.837   9.828  0.5515 -4.4051  0.0173
 8656SOL     OW37600   3.890   4.512  14.295 -0.5857 -0.1668 -0.1687
 8656SOL    HW137601   3.917   4.426  14.328  1.8258  0.8940  0.6385
 8656SOL    HW237602   3.820   4.540  14.354 -0.2033 -0.3034  0.3511
 8657SOL     OW37603   3.789   2.335   8.772  0.5043  0.5664  0.0295
 8657SOL    HW137604   3.715   2.291   8.729  2.0042 -0.5470 -1.4422
 8657SOL    HW237605   3.749   2.347   8.858 -1.2642 -0.6189 -0.6271
 8658SOL     OW37606   0.903   1.339   3.781  0.0925 -0.4943 -0.0722
 8658SOL    HW137607   0.956   1.418   3.790 -0.0907 -0.8437  3.7830
 8658SOL    HW237608   0.949   1.289   3.713  1.0766 -2.8474  2.3046
 8659SOL     OW37609   1.505   4.601  11.005 -0.2204 -0.0210  0.1662
 8659SOL    HW137610   1.556   4.589  11.085 -0.2416  1.2584  0.3636
 8659SOL    HW237611   1.517   4.692  10.979  2.4058  0.4102  2.9167
 8660SOL     OW37612   0.662   3.696   7.727  0.1942 -0.4800 -0.2288
 8660SOL    HW137613   0.752   3.724   7.707  0.6789 -0.1257  2.4936
 8660SOL    HW237614   0.666   3.617   7.781 -1.0277  1.9417  3.4043
 8661SOL     OW37615   0.455   2.617   5.091  0.0988  0.6179  0.2606
 8661SOL    HW137616   0.506   2.665   5.157  0.5595 -0.0370  0.3879
 8661SOL    HW237617   0.477   2.668   5.014 -0.7312  0.9066  0.2140
 8662SOL     OW37618   1.490   1.471   9.006  0.0678  0.0675 -0.1715
 8662SOL    HW137619   1.419   1.528   9.037 -0.3775 -1.1139  0.9384
 8662SOL    HW237620   1.451   1.384   8.998  0.7630 -0.2623  0.0995
 8663SOL     OW37621   1.894   4.601  10.098  0.2296 -0.0160  0.4843
 8663SOL    HW137622   1.968   4.566  10.147 -0.7478  1.0017  2.6985
 8663SOL    HW237623   1.904   4.554  10.015  2.4537 -2.2449  2.0186
 8664SOL     OW37624   0.197   3.273   8.844 -0.3402  0.2498  0.1068
 8664SOL    HW137625   0.103   3.272   8.863  0.4917  2.8525  4.2578
 8664SOL    HW237626   0.217   3.207   8.910  1.4443 -0.1772 -0.8553
 8665SOL     OW37627   4.658   2.987   3.273 -0.3445  0.3440  0.0553
 8665SOL    HW137628   4.611   3.057   3.228 -0.6745 -0.8273 -1.4092
 8665SOL    HW237629   4.731   3.042   3.305  1.9562 -1.6332 -1.8150
 8666SOL     OW37630   1.111   4.353   0.539 -0.5866  0.7225 -0.3684
 8666SOL    HW137631   1.022   4.338   0.506 -1.8647 -0.0868  3.4294
 8666SOL    HW237632   1.093   4.322   0.627  0.8374 -1.2415 -0.7856
 8667SOL     OW37633   1.810   2.667  16.092 -0.3781  0.2354  0.1528
 8667SOL    HW137634   1.728   2.683  16.140  0.7012  0.6062  1.8647
 8667SOL    HW237635   1.839   2.582  16.125 -1.7251  0.4653  1.9762
 8668SOL     OW37636   1.848   2.294   6.722  0.3334  0.1983  0.3396
 8668SOL    HW137637   1.817   2.339   6.643  1.2430 -0.9721 -0.7031
 8668SOL    HW237638   1.927   2.341   6.748  1.7426 -1.4634 -0.9092
 8669SOL     OW37639   3.683   4.110   4.184  0.2842 -0.2779  0.2080
 8669SOL    HW137640   3.594   4.076   4.199 -0.8152  1.8788 -1.5021
 8669SOL    HW237641   3.675   4.200   4.216 -2.2150 -0.1970 -0.6229
 8670SOL     OW37642   2.839   1.934   2.781  0.2702  0.6618  0.1283
 8670SOL    HW137643   2.795   1.950   2.697 -0.8699 -0.1836  0.5555
 8670SOL    HW237644   2.876   1.846   2.780 -1.1728  0.0587  0.0549
 8671SOL     OW37645   2.634   0.993   4.139 -0.1073 -0.2306 -0.2637
 8671SOL    HW137646   2.659   1.072   4.091 -1.4827  0.1717 -0.3428
 8671SOL    HW237647   2.662   0.921   4.083 -3.4034 -0.4409 -1.6209
 8672SOL     OW37648   4.670   3.342   5.413  0.0382  0.2515 -0.3155
 8672SOL    HW137649   0.022   3.345   5.386  0.0831  0.8986 -0.0758
 8672SOL    HW237650   4.633   3.273   5.358 -2.0071  0.5907  0.5994
 8673SOL     OW37651   3.694   2.787   6.341 -0.5645  0.2477 -0.4165
 8673SOL    HW137652   3.701   2.693   6.322 -0.0746  0.1060  0.4480
 8673SOL    HW237653   3.780   2.799   6.382 -0.7434  0.8354 -0.2118
 8674SOL     OW37654   1.083   0.450  14.644  0.4730 -0.3308 -0.4605
 8674SOL    HW137655   1.111   0.530  14.690 -1.1202 -1.9017  3.2457
 8674SOL    HW237656   1.140   0.449  14.567 -1.3161 -0.8548 -1.7568
 8675SOL     OW37657   3.014   1.528  10.721 -0.3795  0.2078 -0.2285
 8675SOL    HW137658   3.073   1.453  10.728  0.7728  1.2257  0.9618
 8675SOL    HW237659   3.058   1.587  10.781 -0.0179  0.8771 -1.1519
 8676SOL     OW37660   3.128   4.589   3.570  0.1206 -0.2295  0.7466
 8676SOL    HW137661   3.186   4.557   3.640  1.0692 -0.0835  0.0321
 8676SOL    HW237662   3.177   4.664   3.537 -2.1450  1.3114  0.8799
 8677SOL     OW37663   1.605   4.319   1.604  0.1666  0.0833  0.7073
 8677SOL    HW137664   1.637   4.402   1.569 -2.1426  1.2068  1.2589
 8677SOL    HW237665   1.542   4.345   1.671  1.6891  3.0928  0.9554
 8678SOL     OW37666   2.082   3.478  11.480  0.2049 -0.2184 -0.2811
 8678SOL    HW137667   2.177   3.487  11.472  0.4730 -1.1066  1.9634
 8678SOL    HW237668   2.079   3.386  11.452  0.8005 -0.4881  0.5538
 8679SOL     OW37669   0.909   3.001   5.693 -0.6206  0.2022  0.2577
 8679SOL    HW137670   0.847   2.938   5.657  1.0122 -2.0319  1.2894
 8679SOL    HW237671   0.843   3.047   5.745  0.5112  1.1069  0.9065
 8680SOL     OW37672   3.657   1.138  16.438  0.1941 -0.0205  0.4564
 8680SOL    HW137673   3.594   1.164  16.371 -0.1121  0.7604  1.0397
 8680SOL    HW237674   3.652   1.043  16.437  1.5674 -0.0975 -0.1486
 8681SOL     OW37675   4.135   1.613  17.164  0.3840 -0.1221 -0.0103
 8681SOL    HW137676   4.084   1.656  17.095  0.8197  0.8630  0.2814
 8681SOL    HW237677   4.223   1.650  17.158  1.1948 -2.3028 -1.6049
 8682SOL     OW37678   0.965   4.237   1.515 -0.4157 -0.1199 -0.2447
 8682SOL    HW137679   0.876   4.255   1.484 -0.5121 -0.1798 -0.0038
 8682SOL    HW237680   0.956   4.145   1.541  1.1025 -0.9271 -2.5817
 8683SOL     OW37681   3.647   2.705   5.242 -0.2812  0.3831 -0.1006
 8683SOL    HW137682   3.645   2.616   5.278 -1.1400  0.7146  0.6890
 8683SOL    HW237683   3.566   2.717   5.191 -0.9669 -0.4474  0.7745
 8684SOL     OW37684   1.845   4.631   6.932 -0.0990 -0.4198  0.2745
 8684SOL    HW137685   1.865   4.661   6.844  1.3109  0.3911  0.8736
 8684SOL    HW237686   1.807   4.711   6.971  1.1742  0.1208  0.3941
 8685SOL     OW37687   3.688   3.434   1.088  0.0733 -0.6581 -0.5600
 8685SOL    HW137688   3.670   3.353   1.041 -0.4267  0.1248 -1.7045
 8685SOL    HW237689   3.781   3.445   1.069  0.1521  0.4583  0.4299
 8686SOL     OW37690   2.380   0.816  11.819 -0.2772 -0.1107  0.5283
 8686SOL    HW137691   2.357   0.723  11.821 -0.4542 -0.0102  3.3494
 8686SOL    HW237692   2.326   0.852  11.889  0.4263  0.8248  0.5904
 8687SOL     OW37693   0.304   0.750  10.766  0.7939  0.3496 -0.3043
 8687SOL    HW137694   0.369   0.692  10.726 -0.4053 -0.7526 -0.6478
 8687SOL    HW237695   0.233   0.695  10.800  1.1487 -0.0780 -0.2536
 8688SOL     OW37696   3.443   0.420   3.225  0.1812  0.6410  0.1860
 8688SOL    HW137697   3.525   0.468   3.215  0.3889  0.1951 -0.2206
 8688SOL    HW237698   3.387   0.498   3.224 -0.6965  0.0253  1.4252
 8689SOL     OW37699   4.577   3.031   4.166 -0.2868  0.1786  0.4516
 8689SOL    HW137700   4.604   2.940   4.154  2.1718  1.0688 -0.9127
 8689SOL    HW237701   4.488   3.019   4.198 -0.7477  0.9847 -0.5069
 8690SOL     OW37702   0.337   1.967   7.369 -0.2161  0.0849  0.1876
 8690SOL    HW137703   0.419   1.942   7.412 -0.5851 -1.3496  0.0591
 8690SOL    HW237704   0.371   2.044   7.323  0.0492  1.1039  2.0713
 8691SOL     OW37705   1.894   3.275   3.586  0.3207  0.1103 -0.1325
 8691SOL    HW137706   1.966   3.305   3.531 -0.6573  0.6506 -1.1256
 8691SOL    HW237707   1.832   3.346   3.573 -0.5323 -0.4796  0.6871
 8692SOL     OW37708   2.884   4.274  15.843  0.3218  0.9160 -0.2900
 8692SOL    HW137709   2.964   4.290  15.794  1.0156 -3.0688 -0.4856
 8692SOL    HW237710   2.912   4.259  15.934  1.9505 -1.7391 -1.2217
 8693SOL     OW37711   2.105   2.618   6.287  0.3167 -0.3264 -0.1468
 8693SOL    HW137712   2.017   2.584   6.301 -0.2174  0.6018 -1.2956
 8693SOL    HW237713   2.085   2.706   6.256 -1.6384 -0.6626  0.1930
 8694SOL     OW37714   1.627   1.772   5.761 -0.0851 -0.3690  0.3804
 8694SOL    HW137715   1.649   1.777   5.668  1.8833 -1.6205  0.7851
 8694SOL    HW237716   1.663   1.688   5.790 -0.0774  0.8786  3.9683
 8695SOL     OW37717   1.260   0.555   5.729 -0.4719 -0.0659 -0.4327
 8695SOL    HW137718   1.217   0.638   5.707 -2.3860 -0.9248  0.1579
 8695SOL    HW237719   1.294   0.529   5.643 -1.6718  0.2414 -1.0023
 8696SOL     OW37720   2.630   2.990   5.122 -0.8076 -0.0028  0.1774
 8696SOL    HW137721   2.583   3.072   5.131 -0.2438 -0.0510  3.6604
 8696SOL    HW237722   2.637   2.955   5.211 -1.3106 -1.5595 -0.3870
 8697SOL     OW37723   3.319   4.279  10.178  0.4879  0.3642 -0.3224
 8697SOL    HW137724   3.230   4.245  10.176  1.1305 -1.1831 -1.8974
 8697SOL    HW237725   3.371   4.206  10.146 -0.9764 -0.8725  0.0985
 8698SOL     OW37726   2.047   2.704  11.054  0.0089 -0.5946 -0.0890
 8698SOL    HW137727   2.097   2.624  11.040  0.7187  0.4383 -3.4289
 8698SOL    HW237728   2.044   2.741  10.966  0.0872  0.4392  0.3405
 8699SOL     OW37729   3.047   4.337   6.524  0.2409 -0.4811 -0.1023
 8699SOL    HW137730   3.105   4.408   6.494 -0.7057 -0.0321 -0.8605
 8699SOL    HW237731   3.028   4.287   6.445  2.3800 -0.2967 -0.7499
 8700SOL     OW37732   2.913   1.528   6.186  0.1085  0.2570  0.1713
 8700SOL    HW137733   2.825   1.497   6.206 -0.1523  0.3384 -0.8319
 8700SOL    HW237734   2.948   1.554   6.271 -1.2370 -1.4081  1.2332
 8701SOL     OW37735   4.522   1.247   7.090  0.2587 -0.3636 -0.2022
 8701SOL    HW137736   4.520   1.155   7.115  2.0764 -0.7441 -1.4409
 8701SOL    HW237737   4.536   1.253   6.996 -0.0336 -0.3683 -0.2452
 8702SOL     OW37738   3.849   1.078   8.532  0.5313 -0.0711  0.2475
 8702SOL    HW137739   3.804   1.109   8.453  0.2941 -1.6868 -0.2489
 8702SOL    HW237740   3.864   0.984   8.524 -2.5926 -0.6759  1.8876
 8703SOL     OW37741   1.535   4.643  16.609  0.2911  0.5448  0.5599
 8703SOL    HW137742   1.601   4.580  16.579  1.5022  2.7936 -1.5056
 8703SOL    HW237743   1.594   4.693  16.665  0.3535 -1.1180  1.9792
 8704SOL     OW37744   3.731   4.360   2.579 -0.5206  0.4773 -0.6007
 8704SOL    HW137745   3.699   4.450   2.577  0.4228  0.8003 -1.0177
 8704SOL    HW237746   3.802   4.365   2.514 -0.3778 -1.5828 -0.5982
 8705SOL     OW37747   0.632   2.055   8.857 -0.1233  0.0201  0.2402
 8705SOL    HW137748   0.567   2.083   8.793 -0.8692 -1.4716  0.3487
 8705SOL    HW237749   0.594   2.039   8.944 -2.1652 -2.0150 -1.0331
 8706SOL     OW37750   1.850   4.006   8.560  0.9051  0.6636 -0.0268
 8706SOL    HW137751   1.774   4.054   8.593  0.1330 -0.7873  0.2995
 8706SOL    HW237752   1.887   4.065   8.494  0.6044  2.1793  1.1458
 8707SOL     OW37753   3.977   0.184   4.902  0.0736 -0.2813 -0.2358
 8707SOL    HW137754   3.959   0.215   4.991  0.3158  1.1521 -0.7024
 8707SOL    HW237755   4.020   0.264   4.871  1.6567 -1.6181 -1.5029
 8708SOL     OW37756   3.908   2.036   8.561 -0.0810  0.4710 -0.1564
 8708SOL    HW137757   3.973   2.019   8.629 -0.5913  1.8611  0.6934
 8708SOL    HW237758   3.861   2.113   8.595 -0.7094  0.1680 -0.3362
 8709SOL     OW37759   0.128   1.710   7.671  0.6054  0.1850 -0.8293
 8709SOL    HW137760   0.221   1.713   7.694  0.6330  0.6734 -0.9961
 8709SOL    HW237761   0.099   1.797   7.699  2.3178 -0.1612  2.0696
 8710SOL     OW37762   3.668   2.469  16.643  0.9350 -0.5711  0.1951
 8710SOL    HW137763   3.599   2.536  16.638  0.6048 -0.9330 -0.0671
 8710SOL    HW237764   3.615   2.395  16.671 -0.8360  0.4764 -0.4166
 8711SOL     OW37765   3.261   4.221   3.610 -0.5542  0.2975  0.2263
 8711SOL    HW137766   3.286   4.253   3.523  0.4269 -0.1871  0.3292
 8711SOL    HW237767   3.276   4.127   3.599  0.3727  0.5743 -0.8715
 8712SOL     OW37768   0.254   1.889   2.116  0.4166 -0.0070 -0.0301
 8712SOL    HW137769   0.265   1.967   2.171  3.1129 -1.5505  1.6335
 8712SOL    HW237770   0.250   1.926   2.028 -1.1360 -1.2016 -0.4562
 8713SOL     OW37771   0.374   3.726   7.253  0.3121 -0.1526 -0.4639
 8713SOL    HW137772   0.310   3.663   7.286  0.2157 -0.1895 -0.7225
 8713SOL    HW237773   0.420   3.744   7.335  1.0933 -1.6911 -0.5618
 8714SOL     OW37774   0.185   4.521   5.221  0.1557  0.0598 -0.5205
 8714SOL    HW137775   0.249   4.458   5.253  2.3631  2.6367  0.1394
 8714SOL    HW237776   0.206   4.602   5.267  0.5568  0.3672 -1.2450
 8715SOL     OW37777   2.943   1.548   2.156  0.2773 -0.1529 -0.4765
 8715SOL    HW137778   2.870   1.600   2.190  0.0879 -0.1631 -0.8622
 8715SOL    HW237779   2.968   1.506   2.238 -3.0209 -0.3767  0.4157
 8716SOL     OW37780   3.891   1.638   8.642 -0.1463  0.7020 -0.0183
 8716SOL    HW137781   3.831   1.563   8.645  2.7422 -1.5473  0.6775
 8716SOL    HW237782   3.956   1.605   8.704 -1.2714 -1.5155 -0.0177
 8717SOL     OW37783   0.065   2.187  15.051 -0.1099 -0.0367  0.3215
 8717SOL    HW137784   0.019   2.116  15.095 -0.4459 -1.1193 -1.7651
 8717SOL    HW237785   0.008   2.261  15.068 -2.5429 -2.4175  2.4356
 8718SOL     OW37786   3.549   4.241   1.841  0.2604 -0.1933  0.9991
 8718SOL    HW137787   3.554   4.336   1.855 -1.1797 -0.0221  0.3206
 8718SOL    HW237788   3.562   4.205   1.929  2.1810 -2.2418 -0.1092
 8719SOL     OW37789   0.912   3.000   3.041 -0.0493 -0.1591 -1.1623
 8719SOL    HW137790   0.864   3.014   3.122 -0.5133  0.2809 -1.5211
 8719SOL    HW237791   0.963   3.080   3.036 -2.7486  1.4445 -2.6468
 8720SOL     OW37792   3.784   4.141  10.689  0.5619  0.1114  0.1724
 8720SOL    HW137793   3.738   4.194  10.754 -0.7166 -0.4868 -0.2645
 8720SOL    HW237794   3.791   4.062  10.743  0.1586 -0.2789 -0.3534
 8721SOL     OW37795   4.239   1.467  16.936 -0.0676  0.1179  0.1981
 8721SOL    HW137796   4.254   1.546  16.988  0.9388  0.5996 -0.8294
 8721SOL    HW237797   4.324   1.423  16.931 -1.1271 -1.7427 -1.4037
 8722SOL     OW37798   2.268   2.711   4.054 -0.1586 -0.0479  0.1718
 8722SOL    HW137799   2.207   2.722   4.127 -1.1953  1.2302 -0.9003
 8722SOL    HW237800   2.347   2.683   4.100  0.0007 -1.9158 -1.2311
 8723SOL     OW37801   4.559   3.056   4.724  0.3236 -0.1480 -0.0484
 8723SOL    HW137802   4.536   2.963   4.714 -0.8115  0.0937  0.2862
 8723SOL    HW237803   4.491   3.096   4.669  1.1908  2.1202  0.5285
 8724SOL     OW37804   3.208   3.521   1.759 -0.1756  0.1148 -0.0676
 8724SOL    HW137805   3.196   3.549   1.668  2.2910 -0.6315 -0.6118
 8724SOL    HW237806   3.171   3.433   1.758  0.8067 -0.3219  1.2299
 8725SOL     OW37807   3.627   1.377  11.515 -0.2242  0.3776 -0.8894
 8725SOL    HW137808   3.594   1.380  11.425  1.1359 -0.4463 -1.4294
 8725SOL    HW237809   3.552   1.341  11.562 -0.2986 -0.1369 -1.4070
 8726SOL     OW37810   2.464   0.609   7.900  0.1323  0.1178 -0.5961
 8726SOL    HW137811   2.437   0.657   7.822 -0.2283 -0.0132 -0.5556
 8726SOL    HW237812   2.487   0.675   7.965  2.2313  0.5871 -1.8362
 8727SOL     OW37813   2.657   0.350   2.375  0.2012  0.4688 -0.0432
 8727SOL    HW137814   2.586   0.414   2.385 -0.0881  0.0193  0.7290
 8727SOL    HW237815   2.637   0.309   2.291  1.4476  1.6148 -0.9240
 8728SOL     OW37816   2.786   4.467  14.551  0.1980 -0.5440 -0.3107
 8728SOL    HW137817   2.751   4.492  14.466  1.5334 -0.1311 -0.7395
 8728SOL    HW237818   2.875   4.445  14.526  0.1861 -3.6127  2.4273
 8729SOL     OW37819   4.294   1.467   1.027  0.1457  0.2365 -0.3545
 8729SOL    HW137820   4.204   1.500   1.029 -0.9199 -2.7116 -0.1447
 8729SOL    HW237821   4.338   1.548   1.001  0.7616 -0.1842 -0.6189
 8730SOL     OW37822   1.380   4.336   0.502 -0.1278  0.3403 -0.2018
 8730SOL    HW137823   1.290   4.340   0.534  0.3068  1.6915  0.8181
 8730SOL    HW237824   1.440   4.317   0.575  0.6129 -1.1647 -1.1950
 8731SOL     OW37825   4.596   4.689   3.067 -0.2870  0.5231  1.1233
 8731SOL    HW137826   4.689   4.691   3.046  0.1647  1.0205  3.2112
 8731SOL    HW237827   4.572   4.612   3.015  1.6432  0.1066  0.8409
 8732SOL     OW37828   3.204   0.430   2.566 -0.4340  0.2070  0.3892
 8732SOL    HW137829   3.272   0.387   2.514 -0.4835 -0.5194  0.9406
 8732SOL    HW237830   3.153   0.475   2.499 -0.7640  1.0335  1.2035
 8733SOL     OW37831   0.053   2.475   9.471 -0.1628  0.1708  0.1030
 8733SOL    HW137832   0.059   2.557   9.521  2.1544  1.2497 -1.9671
 8733SOL    HW237833   4.727   2.426   9.522  1.3042 -0.1665  1.6779
 8734SOL     OW37834   3.483   3.444   6.117 -0.1280  0.4091 -0.2229
 8734SOL    HW137835   3.512   3.486   6.198  1.0848 -0.4079 -0.2373
 8734SOL    HW237836   3.447   3.370   6.165 -1.4587  0.5065 -1.0627
 8735SOL     OW37837   2.590   3.909   2.925 -0.0093 -0.2674 -0.4006
 8735SOL    HW137838   2.549   3.996   2.929  0.4552 -0.0893  0.6234
 8735SOL    HW237839   2.531   3.854   2.977 -1.1624 -1.1880 -2.7088
 8736SOL     OW37840   4.369   2.891  15.145  0.6785 -0.6461  0.5724
 8736SOL    HW137841   4.334   2.807  15.115  1.3672 -1.6230  2.4731
 8736SOL    HW237842   4.341   2.898  15.236  0.0893 -1.9565  0.4853
 8737SOL     OW37843   4.254   3.467  17.318 -0.0127  0.0044 -1.1130
 8737SOL    HW137844   4.282   3.403  17.384 -3.5042  1.4509  1.7493
 8737SOL    HW237845   4.161   3.450  17.310 -0.3604  0.5441  1.6317
 8738SOL     OW37846   3.189   1.499  17.666  0.1541 -0.2003 -0.5039
 8738SOL    HW137847   3.198   1.494   0.007  2.8651  0.6899 -0.7062
 8738SOL    HW237848   3.263   1.556  17.644  0.3379 -0.2009  0.1262
 8739SOL     OW37849   1.283   0.480   3.869  0.2499 -0.2397 -0.1262
 8739SOL    HW137850   1.267   0.428   3.948 -0.3849 -0.3085 -0.3021
 8739SOL    HW237851   1.235   0.563   3.876  0.1333 -0.3168 -0.0055
 8740SOL     OW37852   3.253   2.770   0.973 -0.0240  0.1923  0.4415
 8740SOL    HW137853   3.290   2.842   0.922 -0.8223  0.3692  0.1056
 8740SOL    HW237854   3.299   2.788   1.055 -1.0539  1.0855  0.8203
 8741SOL     OW37855   3.894   4.056  10.443 -1.3868  0.0651  0.3114
 8741SOL    HW137856   3.878   4.132  10.387  0.3655  0.9026  0.9264
 8741SOL    HW237857   3.864   4.088  10.528  0.9412  0.1957  1.0849
 8742SOL     OW37858   3.397   0.929   4.666  0.5562  0.1290 -0.8691
 8742SOL    HW137859   3.436   0.871   4.601  1.7085  0.5052 -0.5124
 8742SOL    HW237860   3.345   0.981   4.605  1.0673  1.1817 -0.4118
 8743SOL     OW37861   4.735   2.429   5.056 -0.0131 -0.2972  0.4779
 8743SOL    HW137862   0.084   2.434   5.092  0.6129  1.0497 -1.2803
 8743SOL    HW237863   0.011   2.383   4.974 -0.0490 -1.0960  0.9187
 8744SOL     OW37864   3.454   0.523   1.252  0.4492 -0.1095  0.0466
 8744SOL    HW137865   3.467   0.514   1.157 -1.5440 -0.8334 -0.1683
 8744SOL    HW237866   3.397   0.601   1.250  0.9653  0.3041  1.5773
 8745SOL     OW37867   4.301   0.823  13.215  0.1312 -0.3013  0.2208
 8745SOL    HW137868   4.374   0.871  13.176  2.1203 -3.9575 -0.5029
 8745SOL    HW237869   4.301   0.853  13.306  0.6300  0.4275 -0.0163
 8746SOL     OW37870   2.254   3.747  13.032  0.2082  0.0497 -0.5544
 8746SOL    HW137871   2.162   3.770  13.038  0.5548  0.7678  1.8960
 8746SOL    HW237872   2.290   3.757  13.120  2.0849 -0.4945 -1.2495
 8747SOL     OW37873   2.009   1.116   3.301 -0.7520  0.9170  0.0142
 8747SOL    HW137874   2.037   1.079   3.217  0.8366  1.1098  0.4710
 8747SOL    HW237875   2.087   1.166   3.323  1.8760 -2.9761 -0.4457
 8748SOL     OW37876   3.064   3.045   1.115  0.2689 -0.5168  0.4709
 8748SOL    HW137877   3.131   3.031   1.047  1.6070 -0.6688  1.8257
 8748SOL    HW237878   3.121   3.074   1.187 -0.0555 -0.6629  0.7816
 8749SOL     OW37879   4.572   0.814   9.303  0.5557  0.1805 -0.2934
 8749SOL    HW137880   4.510   0.844   9.369  0.3793  0.8648 -0.7769
 8749SOL    HW237881   4.516   0.773   9.238 -2.3613  2.2074  0.9726
 8750SOL     OW37882   2.234   0.156   4.591  0.2010 -0.4850  0.0892
 8750SOL    HW137883   2.175   0.099   4.541 -0.7145  0.9362 -0.4352
 8750SOL    HW237884   2.228   0.237   4.540 -0.1432  1.4798  3.2670
 8751SOL     OW37885   2.049   2.186  13.952  0.1525 -0.7536  0.3358
 8751SOL    HW137886   2.070   2.273  13.986 -2.1906  0.3586 -1.0375
 8751SOL    HW237887   2.084   2.191  13.863 -1.2969 -0.2484 -0.2052
 8752SOL     OW37888   1.041   0.447   7.569  0.0361  0.5309  0.1635
 8752SOL    HW137889   1.087   0.366   7.592  0.1270 -0.4079 -3.3158
 8752SOL    HW237890   1.108   0.496   7.522  1.0467 -1.3367 -0.3475
 8753SOL     OW37891   0.804   0.725   5.067  0.0546 -0.2665 -0.1761
 8753SOL    HW137892   0.765   0.740   4.981 -0.1541  1.5157  0.2180
 8753SOL    HW237893   0.857   0.645   5.063 -0.0551 -0.3838  0.6302
 8754SOL     OW37894   0.816   3.014  14.301 -0.3845 -0.1947  0.0230
 8754SOL    HW137895   0.908   3.032  14.316 -0.0767 -1.3803 -0.4383
 8754SOL    HW237896   0.801   2.926  14.336 -0.1449 -0.2656 -0.0529
 8755SOL     OW37897   4.557   0.014   1.296 -0.1055  0.0651  0.2204
 8755SOL    HW137898   4.609   0.078   1.248 -0.0062  0.9097  1.4638
 8755SOL    HW237899   4.472   0.018   1.251  0.3031 -0.3116 -0.6040
 8756SOL     OW37900   1.175   3.291   7.837 -0.3134  0.0128  0.2675
 8756SOL    HW137901   1.197   3.242   7.916  2.4179  1.0356  0.1324
 8756SOL    HW237902   1.248   3.349   7.818 -0.6812 -0.2485 -1.9582
 8757SOL     OW37903   0.494   2.327   1.930  0.7457  0.4749  0.2799
 8757SOL    HW137904   0.577   2.281   1.945 -0.0560  0.2905  4.1163
 8757SOL    HW237905   0.507   2.366   1.843  0.8722  1.5763  0.7876
 8758SOL     OW37906   3.708   0.445   9.952  0.2546 -0.2781  0.1710
 8758SOL    HW137907   3.617   0.415   9.940  0.1950 -0.2954  0.6944
 8758SOL    HW237908   3.762   0.366   9.958 -0.2162 -0.5053  1.2948
 8759SOL     OW37909   3.960   2.566   5.864 -0.0879 -0.2899 -0.3566
 8759SOL    HW137910   3.939   2.659   5.868 -1.5542 -0.7506  2.4989
 8759SOL    HW237911   3.888   2.536   5.810 -1.0171  2.1637 -0.4945
 8760SOL     OW37912   4.634   4.356   6.648  0.2622  0.2217  0.3200
 8760SOL    HW137913   4.568   4.289   6.629  1.4539 -1.1898  1.2437
 8760SOL    HW237914   4.641   4.364   6.743 -1.8624 -0.3427  0.5288
 8761SOL     OW37915   0.648   2.529   4.725 -0.4266  0.0899 -0.2760
 8761SOL    HW137916   0.728   2.509   4.676  0.8709 -0.2682  1.9362
 8761SOL    HW237917   0.579   2.500   4.666 -0.2491  1.5921 -1.2215
 8762SOL     OW37918   4.265   4.283   3.035  0.1650  0.3377  0.0499
 8762SOL    HW137919   4.230   4.290   2.946 -0.0913 -2.8536 -0.1070
 8762SOL    HW237920   4.181   4.271   3.079  1.1941 -1.2203  1.5993
 8763SOL     OW37921   2.209   4.212   9.762  0.3190  0.2001  0.0375
 8763SOL    HW137922   2.277   4.152   9.794  0.3323 -0.7565 -1.7313
 8763SOL    HW237923   2.151   4.153   9.713 -0.0993 -0.1051  0.9142
 8764SOL     OW37924   3.415   3.989  10.109  0.1589  0.4286 -0.1934
 8764SOL    HW137925   3.326   4.025  10.112  0.2107  0.5379  0.0631
 8764SOL    HW237926   3.400   3.896  10.125 -0.7020  0.5259 -0.4004
 8765SOL     OW37927   3.901   0.519   5.755  0.0900  0.1568  0.2566
 8765SOL    HW137928   3.977   0.552   5.707 -0.3591 -0.0180 -0.5882
 8765SOL    HW237929   3.859   0.461   5.691  0.3040  0.0247  0.2367
 8766SOL     OW37930   1.193   1.410  12.044 -0.5075  0.4260 -0.1289
 8766SOL    HW137931   1.102   1.383  12.056 -0.4968  1.9893  3.3213
 8766SOL    HW237932   1.223   1.337  12.098 -0.7601 -0.2416 -0.8787
 8767SOL     OW37933   0.040   1.682   4.221  0.0164  1.1392 -0.0426
 8767SOL    HW137934   0.116   1.653   4.271  0.5181 -1.2754 -2.1814
 8767SOL    HW237935   0.059   1.769   4.187 -0.3910  1.7457  1.2937
 8768SOL     OW37936   0.152   0.961   0.018 -0.4117  0.0021 -0.1516
 8768SOL    HW137937   0.228   0.970  17.714  0.0161  1.0875  0.5641
 8768SOL    HW237938   0.105   0.894  17.722 -0.1186  1.7513 -2.8101
 8769SOL     OW37939   0.734   2.822  14.693 -0.1394  0.4050 -0.4429
 8769SOL    HW137940   0.787   2.743  14.683 -1.9358 -0.7069 -1.2078
 8769SOL    HW237941   0.770   2.868  14.769 -0.2514 -0.1953 -0.0276
 8770SOL     OW37942   0.860   0.919  15.469  0.1051  0.3886  0.0660
 8770SOL    HW137943   0.922   0.991  15.478  2.8376 -1.5056 -3.4859
 8770SOL    HW237944   0.839   0.913  15.376 -1.4548  0.6188  0.4074
 8771SOL     OW37945   4.113   4.183   1.282  0.6409  0.0354  0.1186
 8771SOL    HW137946   4.144   4.108   1.230 -1.9150 -0.6204 -0.4865
 8771SOL    HW237947   4.024   4.204   1.252  0.3922  0.6470  1.3036
 8772SOL     OW37948   1.450   3.259   1.742  0.1115 -0.4824 -0.1575
 8772SOL    HW137949   1.544   3.246   1.725 -0.0536 -2.8237  0.6179
 8772SOL    HW237950   1.457   3.353   1.757  0.2103 -0.6672  1.0067
 8773SOL     OW37951   4.239   0.616   3.686  0.1549 -0.4983  0.0563
 8773SOL    HW137952   4.189   0.630   3.767  0.0367 -0.1528 -0.0742
 8773SOL    HW237953   4.249   0.521   3.689  0.5191 -0.4653 -0.0866
 8774SOL     OW37954   0.771   4.085  10.249  0.2325 -0.6660  0.1940
 8774SOL    HW137955   0.836   4.086  10.320  1.0434  0.2689 -0.5659
 8774SOL    HW237956   0.697   4.129  10.292  0.8947  1.5013 -0.8711
 8775SOL     OW37957   2.757   3.177   2.476 -0.3673 -0.1937 -0.2183
 8775SOL    HW137958   2.735   3.210   2.563  0.3391 -0.6750  0.1475
 8775SOL    HW237959   2.775   3.258   2.428 -1.3508  0.2552  0.1836
 8776SOL     OW37960   3.124   1.963   4.960  0.5486 -0.1850 -0.0121
 8776SOL    HW137961   3.145   1.911   4.883  1.1605  0.6007 -0.3828
 8776SOL    HW237962   3.161   2.045   4.927 -2.1335  0.4890 -1.3151
 8777SOL     OW37963   1.646   4.571   7.200 -0.1001  0.6831  0.1014
 8777SOL    HW137964   1.613   4.491   7.243  0.2534  0.0249 -0.8602
 8777SOL    HW237965   1.677   4.527   7.121  1.2197 -0.1095  1.0505
 8778SOL     OW37966   3.937   0.795   7.728  0.1797  0.4121 -0.0062
 8778SOL    HW137967   3.945   0.729   7.659 -0.4143  0.9906 -0.6301
 8778SOL    HW237968   3.899   0.862   7.671 -1.3179 -0.1506  0.3377
 8779SOL     OW37969   4.589   1.681   9.555 -0.1785  0.1674 -0.0972
 8779SOL    HW137970   4.628   1.597   9.530 -0.5983  0.1463 -0.6627
 8779SOL    HW237971   4.664   1.720   9.601 -1.3212 -1.1330  2.8744
 8780SOL     OW37972   0.928   3.381  10.641  0.0869 -0.0214 -0.1156
 8780SOL    HW137973   0.988   3.388  10.566 -1.2328  0.1072 -1.1583
 8780SOL    HW237974   0.976   3.429  10.709  2.3165 -1.0906 -0.9379
 8781SOL     OW37975   4.483   4.041   7.792  0.4099  0.4287 -0.0649
 8781SOL    HW137976   4.403   4.078   7.756  0.3291  0.8366  0.5386
 8781SOL    HW237977   4.493   3.967   7.732  0.1964  0.0299  0.3858
 8782SOL     OW37978   2.390   3.944   6.534  0.2256 -0.8423  1.0281
 8782SOL    HW137979   2.321   3.979   6.477  0.9224 -1.6880 -0.3385
 8782SOL    HW237980   2.348   3.916   6.615 -3.1647  0.4613 -0.2824
 8783SOL     OW37981   1.041   1.553   6.140 -0.1779 -0.3864  0.1809
 8783SOL    HW137982   1.120   1.563   6.087 -1.3411  1.3281 -1.2141
 8783SOL    HW237983   0.980   1.587   6.075 -0.2609 -2.5225 -0.8491
 8784SOL     OW37984   1.729   0.568  10.652  0.7933  0.1013 -0.2031
 8784SOL    HW137985   1.692   0.490  10.692 -1.6982  0.9554 -0.8368
 8784SOL    HW237986   1.777   0.605  10.726  1.2260 -2.8435  0.9707
 8785SOL     OW37987   3.071   0.927  16.102 -0.2289  0.3539  0.5993
 8785SOL    HW137988   3.001   0.982  16.065  0.5831  1.5103  0.7751
 8785SOL    HW237989   3.066   0.941  16.197 -0.2993 -0.2758  0.6867
 8786SOL     OW37990   0.347   4.415  17.234  0.1242 -0.0891 -0.1094
 8786SOL    HW137991   0.356   4.452  17.146 -1.1098  1.0399  0.2373
 8786SOL    HW237992   0.428   4.366  17.244  0.4521  0.5272  0.2306
 8787SOL     OW37993   0.283   4.034  11.991  0.0013  0.2979  0.1416
 8787SOL    HW137994   0.200   4.072  11.962  0.3888  1.0726  0.0509
 8787SOL    HW237995   0.263   4.016  12.083 -1.3746 -0.3006 -0.2799
 8788SOL     OW37996   3.463   2.378   1.179  0.3275  0.2029 -0.3937
 8788SOL    HW137997   3.419   2.318   1.239  0.8336  0.8102  0.5915
 8788SOL    HW237998   3.429   2.345   1.096  2.9799 -2.3636 -0.4560
 8789SOL     OW37999   2.614   1.693  11.592 -0.0813  0.2818  0.0919
 8789SOL    HW138000   2.670   1.660  11.663 -1.5757 -1.8158  0.3092
 8789SOL    HW238001   2.594   1.609  11.552 -2.5179  0.0450  1.7728
 8790SOL     OW38002   1.772   4.281   0.630 -0.5444  0.2086 -0.1104
 8790SOL    HW138003   1.723   4.254   0.553 -0.4309  3.0615 -1.1746
 8790SOL    HW238004   1.710   4.336   0.678 -0.8208  0.6832 -1.0212
 8791SOL     OW38005   3.099   1.531   7.270 -0.4709 -0.2958 -0.1132
 8791SOL    HW138006   3.096   1.480   7.189 -1.8580 -1.5700  0.7522
 8791SOL    HW238007   3.132   1.615   7.238  1.5378 -1.1406 -0.2899
 8792SOL     OW38008   3.488   3.240   2.192 -0.2816 -0.3304 -0.3455
 8792SOL    HW138009   3.430   3.286   2.253  0.7923  0.9794 -0.3283
 8792SOL    HW238010   3.477   3.156   2.238  1.2828  0.6280  1.7370
 8793SOL     OW38011   2.621   4.235  15.679  0.2095 -0.1571  0.2323
 8793SOL    HW138012   2.686   4.214  15.746 -1.0920  0.0729  1.5665
 8793SOL    HW238013   2.667   4.264  15.600 -0.3964  1.5127  0.4969
 8794SOL     OW38014   3.780   1.242   5.202 -0.2190 -0.3757  0.5930
 8794SOL    HW138015   3.719   1.254   5.275  1.0106  0.8747  1.4318
 8794SOL    HW238016   3.838   1.175   5.239 -0.0704 -1.5475 -1.7910
 8795SOL     OW38017   2.549   0.053   1.647 -0.0601 -0.0270  0.6525
 8795SOL    HW138018   2.535   4.697   1.649 -2.0367  0.2876  1.5022
 8795SOL    HW238019   2.639   0.047   1.616 -0.5705 -0.2345 -0.7834
 8796SOL     OW38020   2.631   4.056   7.854  0.1651  0.0787 -0.3065
 8796SOL    HW138021   2.654   4.146   7.831  2.1080 -0.8489 -1.9454
 8796SOL    HW238022   2.623   4.063   7.949  0.3648  2.5104 -0.4729
 8797SOL     OW38023   2.306   1.832   5.892  0.6419 -0.5271  0.2180
 8797SOL    HW138024   2.379   1.830   5.954 -0.2793 -1.4836  1.2614
 8797SOL    HW238025   2.310   1.748   5.846  2.1436 -2.3336  3.6694
 8798SOL     OW38026   3.034   2.017  15.517  0.2630 -0.0013 -0.1652
 8798SOL    HW138027   2.996   1.931  15.499 -0.8289  1.2844 -4.0592
 8798SOL    HW238028   3.117   1.982  15.549 -0.8230 -0.1041  2.5848
 8799SOL     OW38029   1.469   2.891   2.613  0.3483  0.0218 -0.0067
 8799SOL    HW138030   1.541   2.864   2.671 -0.4382  0.4576  1.1640
 8799SOL    HW238031   1.506   2.963   2.562 -1.0396 -0.3980 -1.5938
 8800SOL     OW38032   3.181   0.072   6.438 -0.0285 -0.1778 -0.3312
 8800SOL    HW138033   3.276   0.073   6.433 -0.0735  1.7527 -0.4932
 8800SOL    HW238034   3.161   0.120   6.357  3.7116  0.3637 -0.9419
 8801SOL     OW38035   1.863   1.208   6.245 -0.0430 -0.0820 -0.1360
 8801SOL    HW138036   1.794   1.159   6.200 -0.2877 -1.2737  1.5769
 8801SOL    HW238037   1.927   1.214   6.173  0.9729 -0.9445  0.6856
 8802SOL     OW38038   3.113   4.107   5.161  0.4038  0.0973 -0.0872
 8802SOL    HW138039   3.130   4.101   5.255  1.5506 -1.7118 -0.3998
 8802SOL    HW238040   3.033   4.159   5.157 -0.1029 -0.6930 -0.2481
 8803SOL     OW38041   0.830   2.833  11.532  0.0575  0.1366  0.0516
 8803SOL    HW138042   0.872   2.863  11.451  0.7852  0.5703  0.6028
 8803SOL    HW238043   0.903   2.786  11.571 -2.1748 -1.0608  2.7493
 8804SOL     OW38044   1.760   0.970   5.137  0.3455  0.1023 -0.2054
 8804SOL    HW138045   1.813   1.043   5.106 -1.0562  0.3130 -2.0670
 8804SOL    HW238046   1.785   0.906   5.071 -2.6529 -0.9073 -0.3617
 8805SOL     OW38047   1.562   1.606   2.971  0.4121  0.0601  0.8877
 8805SOL    HW138048   1.643   1.648   2.943  0.3376  0.1960  0.8739
 8805SOL    HW238049   1.588   1.536   3.030 -0.7551 -0.7922  0.3908
 8806SOL     OW38050   3.651   4.448   1.548  0.6859  0.2386  0.2826
 8806SOL    HW138051   3.577   4.508   1.562  0.6700  0.3074 -0.0819
 8806SOL    HW238052   3.658   4.450   1.452  2.5492  2.8732  0.4472
 8807SOL     OW38053   2.307   3.739  15.031 -0.0461  0.1362 -0.4833
 8807SOL    HW138054   2.226   3.770  15.070  0.6142  0.9200  0.2819
 8807SOL    HW238055   2.295   3.645  15.037 -2.3627  0.3198 -2.3738
 8808SOL     OW38056   0.238   1.044   6.606  0.1519 -0.1571 -0.4727
 8808SOL    HW138057   0.280   1.130   6.602  2.0939 -1.1284 -0.8374
 8808SOL    HW238058   0.206   1.040   6.697  1.0613 -0.1690 -0.1586
 8809SOL     OW38059   4.254   1.012   6.488 -0.5008  0.2540 -0.7625
 8809SOL    HW138060   4.224   0.921   6.488  2.1019 -0.6209 -2.6282
 8809SOL    HW238061   4.212   1.052   6.563  2.2566  3.5443 -0.9722
 8810SOL     OW38062   2.007   2.337   3.423  0.7029  0.0046 -0.2278
 8810SOL    HW138063   2.011   2.368   3.333  0.5295 -2.2269 -0.9838
 8810SOL    HW238064   1.915   2.315   3.432  0.2620  3.0539  2.8834
 8811SOL     OW38065   4.441   2.947   7.887  0.1701  0.0400  0.2937
 8811SOL    HW138066   4.399   2.864   7.861 -0.3926  1.0781 -2.0878
 8811SOL    HW238067   4.440   2.989   7.801 -0.0067 -2.6580 -1.0236
 8812SOL     OW38068   0.941   1.602   7.409 -0.0318 -0.2329  0.2831
 8812SOL    HW138069   0.965   1.588   7.501  3.4991  0.9849 -0.4557
 8812SOL    HW238070   0.970   1.522   7.364 -1.0773  0.1025 -1.0090
 8813SOL     OW38071   0.746   1.209   9.590 -0.0909  0.4653  0.4822
 8813SOL    HW138072   0.733   1.287   9.536  0.6024 -0.0505 -0.4232
 8813SOL    HW238073   0.731   1.137   9.529 -0.6730 -0.9921  2.3268
 8814SOL     OW38074   4.460   4.334   4.982  0.2167  0.4292  0.0347
 8814SOL    HW138075   4.529   4.399   5.000  0.0381  0.4004  0.8259
 8814SOL    HW238076   4.513   4.259   5.008  1.4767  0.8043 -1.4406
 8815SOL     OW38077   0.820   0.716   8.438 -0.1324 -0.8383  0.1761
 8815SOL    HW138078   0.858   0.804   8.442  0.8077 -1.2085 -0.4627
 8815SOL    HW238079   0.734   0.728   8.400 -0.8596  0.4342  2.2494
 8816SOL     OW38080   2.168   0.225   9.817  0.3753 -0.2585 -0.2754
 8816SOL    HW138081   2.151   0.234   9.910 -0.2945  0.1037 -0.4313
 8816SOL    HW238082   2.080   0.199   9.789 -0.6307  1.3861  1.3941
 8817SOL     OW38083   1.786   3.482   6.036  0.0163  0.1780  0.3747
 8817SOL    HW138084   1.827   3.518   6.114 -0.8282  0.2898  0.7644
 8817SOL    HW238085   1.762   3.563   5.992 -0.8542 -0.3041 -0.0515
 8818SOL     OW38086   1.215   1.639   8.421 -0.0608  0.0848  0.1200
 8818SOL    HW138087   1.303   1.644   8.381 -0.6685 -0.3090 -1.2887
 8818SOL    HW238088   1.232   1.616   8.512 -0.3114 -0.7293 -0.0364
 8819SOL     OW38089   4.137   1.237  12.066  0.3370  0.4346  0.6706
 8819SOL    HW138090   4.070   1.255  12.131  0.2742  0.4098  0.6127
 8819SOL    HW238091   4.181   1.320  12.048  2.5896 -0.3045  2.6650
 8820SOL     OW38092   0.538   2.180   6.060 -0.0634 -0.2342 -0.3556
 8820SOL    HW138093   0.454   2.223   6.040 -0.7132 -0.8164  1.1351
 8820SOL    HW238094   0.532   2.107   5.999 -0.8656 -0.5893  0.1539
 8821SOL     OW38095   4.239   4.661  16.275 -0.1833 -0.0655 -0.0414
 8821SOL    HW138096   4.327   4.686  16.247 -0.2578  1.0101  0.6763
 8821SOL    HW238097   4.211   4.613  16.197  0.9877 -1.1329  0.2064
 8822SOL     OW38098   2.230   1.849   4.549  0.4778  0.2689 -0.0649
 8822SOL    HW138099   2.323   1.856   4.569 -0.0223  1.2629  1.8766
 8822SOL    HW238100   2.197   1.895   4.625 -0.3140 -1.6560  0.7454
 8823SOL     OW38101   0.636   2.495   3.320  0.5220 -0.1324 -0.2075
 8823SOL    HW138102   0.572   2.566   3.310 -0.4194 -1.0048 -0.4228
 8823SOL    HW238103   0.642   2.490   3.416  1.4573  2.5979 -0.1342
 8824SOL     OW38104   1.786   0.663   8.282 -0.5997 -0.1237  0.6393
 8824SOL    HW138105   1.824   0.708   8.206 -1.4996 -1.9406 -0.8638
 8824SOL    HW238106   1.859   0.672   8.344  0.3521 -1.5597 -0.2752
 8825SOL     OW38107   4.334   3.144   1.570 -0.9969 -0.7159  0.6799
 8825SOL    HW138108   4.300   3.143   1.660 -3.1476 -1.4864 -0.1449
 8825SOL    HW238109   4.292   3.227   1.548 -1.3278 -1.2010 -0.5084
 8826SOL     OW38110   4.380   1.480   8.483 -0.2574 -0.2261  0.7553
 8826SOL    HW138111   4.362   1.522   8.399  0.2153 -0.3526  0.5935
 8826SOL    HW238112   4.304   1.422   8.487  0.3423 -0.9492  1.5584
 8827SOL     OW38113   2.752   4.655   3.761 -0.1580  0.1390  0.1754
 8827SOL    HW138114   2.762   4.561   3.750  0.7178  0.1064  1.2741
 8827SOL    HW238115   2.821   4.688   3.703  0.8760 -0.9101  0.8216
 8828SOL     OW38116   1.229   1.336   2.060  1.0729 -0.4722  0.1966
 8828SOL    HW138117   1.143   1.293   2.056  2.2043 -2.6731 -0.4114
 8828SOL    HW238118   1.241   1.341   2.155 -0.0431  1.5334  0.2278
 8829SOL     OW38119   1.966   2.954   1.115 -0.3321 -0.2792  0.4398
 8829SOL    HW138120   2.045   2.994   1.152 -1.3797 -0.2809  2.6495
 8829SOL    HW238121   1.982   2.986   1.026  0.0508 -0.6080  0.3932
 8830SOL     OW38122   4.106   2.127   3.355 -0.2114  0.0856  0.1874
 8830SOL    HW138123   4.032   2.116   3.414 -0.6505  2.6297  0.0986
 8830SOL    HW238124   4.102   2.217   3.322  2.0813 -0.2680 -1.0566
 8831SOL     OW38125   4.525   0.188  16.003 -0.4603  0.2870 -0.2317
 8831SOL    HW138126   4.509   0.184  15.909 -3.2966  0.0477  0.2444
 8831SOL    HW238127   4.566   0.275  16.006  1.4793 -0.6664  0.2710
 8832SOL     OW38128   2.050   1.591  12.771  0.2336 -0.4390 -0.0033
 8832SOL    HW138129   2.050   1.612  12.677 -0.6732 -1.2798 -0.1921
 8832SOL    HW238130   2.056   1.677  12.812 -1.1999  0.4197 -1.6266
 8833SOL     OW38131   2.392   3.299  14.672  0.2825 -0.2169  0.1045
 8833SOL    HW138132   2.403   3.253  14.756  0.6718 -0.7918 -0.2572
 8833SOL    HW238133   2.367   3.389  14.694 -0.9216 -0.4502 -0.3040
 8834SOL     OW38134   1.765   2.291   6.981  0.2510  0.5653 -0.2274
 8834SOL    HW138135   1.786   2.260   6.893 -0.7005 -1.9292  0.4257
 8834SOL    HW238136   1.685   2.340   6.960  0.4663  1.3021  0.7116
 8835SOL     OW38137   1.137   1.040   2.168  0.2956  0.3349  0.1199
 8835SOL    HW138138   1.107   1.058   2.079  4.6017 -2.3447 -1.8808
 8835SOL    HW238139   1.224   1.011   2.140 -0.2971 -1.3163  0.0178
 8836SOL     OW38140   4.149   3.167  11.970  0.4619  0.3242  0.1016
 8836SOL    HW138141   4.090   3.188  12.043 -1.5651  0.4502 -1.5856
 8836SOL    HW238142   4.094   3.117  11.910  0.7859 -0.5805  0.5612
 8837SOL     OW38143   2.658   4.493   7.577 -0.0456 -0.0668 -0.0373
 8837SOL    HW138144   2.653   4.580   7.617  0.9707 -0.3659  0.7374
 8837SOL    HW238145   2.689   4.436   7.648  0.5164 -0.5036 -0.6341
 8838SOL     OW38146   0.720   0.114  13.485 -0.6423 -0.0307 -0.3232
 8838SOL    HW138147   0.655   0.060  13.530 -0.2058  0.1480  0.5138
 8838SOL    HW238148   0.676   0.199  13.478  1.6763  1.2267  0.2565
 8839SOL     OW38149   0.698   0.974   9.443  0.7466  0.2425  0.0168
 8839SOL    HW138150   0.761   0.968   9.372 -0.3663  1.7108 -1.0927
 8839SOL    HW238151   0.741   0.918   9.507 -0.0331 -0.6486 -0.2383
 8840SOL     OW38152   4.260   4.238   4.813 -0.2822  0.2568  0.0054
 8840SOL    HW138153   4.328   4.274   4.869 -0.8030 -0.1083  0.8771
 8840SOL    HW238154   4.319   4.177   4.769  0.7128  0.9424  0.3990
 8841SOL     OW38155   2.337   1.561   1.823 -0.0072 -0.1967  0.3349
 8841SOL    HW138156   2.290   1.643   1.809  3.3579  1.7456  0.3242
 8841SOL    HW238157   2.278   1.523   1.888  0.5766  1.5883  1.8898
 8842SOL     OW38158   1.295   1.622   7.211 -0.2731  0.5040  0.1686
 8842SOL    HW138159   1.253   1.707   7.222 -0.2262  0.6634 -0.8808
 8842SOL    HW238160   1.357   1.623   7.284  0.0116  1.6413 -0.0882
 8843SOL     OW38161   1.462   2.471   7.204  0.5001 -0.0052  0.3521
 8843SOL    HW138162   1.513   2.494   7.126  1.4197 -0.9774  0.6728
 8843SOL    HW238163   1.523   2.412   7.248 -1.3926 -1.5423  0.9139
 8844SOL     OW38164   0.227   1.457   7.933 -0.5046 -0.6636  0.2385
 8844SOL    HW138165   0.147   1.504   7.911  0.8809  2.9019  2.8710
 8844SOL    HW238166   0.203   1.415   8.015  0.2061  1.5043  1.5603
 8845SOL     OW38167   2.906   0.419   6.329  0.0066  0.2456 -0.1767
 8845SOL    HW138168   2.886   0.439   6.420 -1.1784 -1.9998  0.0650
 8845SOL    HW238169   2.848   0.477   6.280  0.4424 -0.2409 -1.2673
 8846SOL     OW38170   4.520   3.121   1.846 -1.0325 -0.1316  0.0241
 8846SOL    HW138171   4.514   3.201   1.897 -0.6402 -1.6030  2.3482
 8846SOL    HW238172   4.605   3.136   1.805 -1.1474  1.8406  0.5340
 8847SOL     OW38173   4.437   2.251   1.977 -0.2267  0.2661 -0.3598
 8847SOL    HW138174   4.444   2.233   2.071  0.9832 -0.4883 -0.6015
 8847SOL    HW238175   4.397   2.338   1.977 -0.7827  0.0047  0.2201
 8848SOL     OW38176   0.456   3.518   8.446  0.2909  0.1914 -0.2669
 8848SOL    HW138177   0.537   3.558   8.477 -0.6223  1.5998  0.3013
 8848SOL    HW238178   0.471   3.424   8.454  2.3893  0.5470 -0.0709
 8849SOL     OW38179   0.152   2.886  10.064 -0.0028 -0.2609 -0.1851
 8849SOL    HW138180   0.153   2.876   9.969 -0.4689  2.5582 -0.5075
 8849SOL    HW238181   0.228   2.833  10.087 -0.1831  0.1971  1.4438
 8850SOL     OW38182   0.199   4.143   0.132  0.5903  0.1712  0.1190
 8850SOL    HW138183   0.242   4.058   0.147 -0.8222 -0.7994 -1.2216
 8850SOL    HW238184   0.109   4.127   0.162  0.5410  1.3429  0.5714
 8851SOL     OW38185   3.745   1.345   7.666 -0.7543 -0.1625  0.2238
 8851SOL    HW138186   3.713   1.348   7.576  0.9122 -1.1870 -0.3973
 8851SOL    HW238187   3.773   1.435   7.678  2.2449 -0.5160 -4.0729
 8852SOL     OW38188   3.571   3.829   1.053 -0.5729  0.0582 -0.5237
 8852SOL    HW138189   3.602   3.779   0.978 -0.1379  2.3084 -1.8215
 8852SOL    HW238190   3.506   3.878   1.004 -1.7432 -0.7966  0.1786
 8853SOL     OW38191   2.609   0.210  17.189  0.4729 -0.3749 -0.0804
 8853SOL    HW138192   2.514   0.217  17.178  0.2543 -3.1964  0.0274
 8853SOL    HW238193   2.620   0.300  17.218  0.0198  0.1194 -1.3984
 8854SOL     OW38194   1.464   1.435  15.808 -0.9273  0.1302 -0.4008
 8854SOL    HW138195   1.428   1.432  15.720  0.4867 -1.6045 -0.9143
 8854SOL    HW238196   1.388   1.422  15.866 -0.3735 -1.3689 -0.0074
 8855SOL     OW38197   1.305   3.971   3.472 -0.2632  0.0717  0.1445
 8855SOL    HW138198   1.221   3.949   3.430 -0.6320 -2.4123  2.1665
 8855SOL    HW238199   1.301   4.067   3.469 -2.4294 -0.0883 -2.3576
 8856SOL     OW38200   0.391   3.707   7.925 -0.2482 -0.4265  0.6618
 8856SOL    HW138201   0.430   3.639   7.870  2.9508  1.3568  0.6810
 8856SOL    HW238202   0.298   3.689   7.912  0.2056 -0.6512 -2.3744
 8857SOL     OW38203   4.532   3.165   1.006  0.3613  0.3129 -0.2824
 8857SOL    HW138204   4.595   3.107   0.962  0.8540 -1.1533  2.3259
 8857SOL    HW238205   4.520   3.130   1.095  0.0282  3.0000  0.7183
 8858SOL     OW38206   1.923   0.651   3.296  0.0241  0.1724 -0.4243
 8858SOL    HW138207   1.979   0.703   3.239  2.3082 -1.5489  0.2446
 8858SOL    HW238208   1.976   0.634   3.374 -1.4618 -0.4033  0.4688
 8859SOL     OW38209   4.073   1.239   3.226  0.1000 -0.9641  0.3897
 8859SOL    HW138210   4.017   1.164   3.205 -0.8244 -0.1581 -0.0296
 8859SOL    HW238211   4.016   1.288   3.286  0.1663 -0.4625  0.0431
 8860SOL     OW38212   0.396   4.542   8.836  0.5945 -0.2353 -0.0203
 8860SOL    HW138213   0.387   4.487   8.759  0.0481 -0.5884  0.2867
 8860SOL    HW238214   0.359   4.489   8.907 -0.3177  0.0180 -0.2994
 8861SOL     OW38215   4.169   1.836   2.578  0.2305 -0.3043 -0.4999
 8861SOL    HW138216   4.174   1.747   2.613  0.8023  0.4776  1.3651
 8861SOL    HW238217   4.246   1.829   2.522  0.5250 -1.9098  0.1018
 8862SOL     OW38218   1.228   2.974  16.885  0.0621  0.3341 -0.1769
 8862SOL    HW138219   1.153   2.982  16.825 -0.1446  1.5268  0.2635
 8862SOL    HW238220   1.227   2.892  16.935  1.9752  0.3383 -0.1353
 8863SOL     OW38221   2.767   2.698   6.564 -0.4271  0.2948 -0.7401
 8863SOL    HW138222   2.728   2.610   6.568  0.2278 -0.0401 -1.7468
 8863SOL    HW238223   2.860   2.674   6.560 -0.4812 -0.1692  0.5518
 8864SOL     OW38224   4.062   3.948   4.009 -0.1635 -0.4152 -0.6798
 8864SOL    HW138225   4.025   4.028   4.047 -0.4503 -1.4066  1.1441
 8864SOL    HW238226   4.149   3.957   4.047 -0.2725 -0.4113 -0.4326
 8865SOL     OW38227   2.007   4.396   9.382 -0.1752  0.8776 -0.1652
 8865SOL    HW138228   2.012   4.463   9.313  1.4648 -0.5050 -1.3822
 8865SOL    HW238229   2.095   4.362   9.363 -0.4701 -0.0134  0.0773
 8866SOL     OW38230   0.257   3.268   6.972  0.4214  0.3994  0.0666
 8866SOL    HW138231   0.228   3.247   7.060  1.2108 -1.0392 -0.0257
 8866SOL    HW238232   0.302   3.188   6.944 -3.3477 -1.2584 -1.1825
 8867SOL     OW38233   3.563   2.647   7.204  0.3625 -0.2155 -0.6988
 8867SOL    HW138234   3.614   2.726   7.186  0.2639 -0.5722 -2.5589
 8867SOL    HW238235   3.476   2.658   7.166 -0.2033  1.1566  0.9946
 8868SOL     OW38236   1.454   0.918  13.096 -0.3007 -0.3081  0.1155
 8868SOL    HW138237   1.442   0.991  13.157  0.2976  0.2967 -0.4970
 8868SOL    HW238238   1.376   0.926  13.042 -3.1939 -0.3545  4.2621
 8869SOL     OW38239   3.109   0.035   1.832  0.1054  0.5774  0.0919
 8869SOL    HW138240   3.027   0.079   1.812 -1.0681 -1.6979 -0.0935
 8869SOL    HW238241   3.109   0.009   1.924 -0.1611 -2.5631 -0.7811
 8870SOL     OW38242   3.178   2.211   4.756 -0.4733  0.0542 -0.2881
 8870SOL    HW138243   3.200   2.198   4.663 -0.2161  0.2076 -0.2461
 8870SOL    HW238244   3.228   2.292   4.766 -0.1986 -0.2083  0.4851
 8871SOL     OW38245   3.013   4.254   6.263 -0.4479 -0.1105  0.7545
 8871SOL    HW138246   3.044   4.164   6.260 -0.5152 -0.1322  0.7027
 8871SOL    HW238247   2.967   4.253   6.179  0.8894 -2.6999  0.0700
 8872SOL     OW38248   3.121   1.993  17.146 -0.1839 -0.0594 -0.0886
 8872SOL    HW138249   3.131   2.046  17.067 -0.7932 -0.3105 -0.3282
 8872SOL    HW238250   3.160   2.055  17.208 -0.8794  2.9974 -2.6737
 8873SOL     OW38251   4.370   0.274  12.377 -0.8507  0.3287  0.4230
 8873SOL    HW138252   4.454   0.233  12.399 -0.2708  1.2822 -0.0341
 8873SOL    HW238253   4.369   0.350  12.435 -0.0613  2.0206 -1.7740
 8874SOL     OW38254   4.541   1.490  10.295 -0.2131  0.2557  0.1933
 8874SOL    HW138255   4.458   1.465  10.337  0.6495 -0.3468  1.5281
 8874SOL    HW238256   4.581   1.403  10.296  1.7022  1.1423 -0.8196
 8875SOL     OW38257   0.777   2.201   8.017 -0.3792  0.0272 -0.1553
 8875SOL    HW138258   0.761   2.195   7.923 -0.9519 -2.2026  0.0826
 8875SOL    HW238259   0.783   2.295   8.035  1.2614 -0.0417 -0.3632
 8876SOL     OW38260   1.122   1.964   2.901 -0.4335 -0.0578 -0.3644
 8876SOL    HW138261   1.189   1.908   2.861  0.9965  1.3874  0.0558
 8876SOL    HW238262   1.072   1.898   2.949  3.4517 -1.6978  1.4306
 8877SOL     OW38263   1.002   1.332  11.031  0.0515  0.3070  0.0668
 8877SOL    HW138264   1.022   1.275  11.106  0.8420 -0.3133 -0.6213
 8877SOL    HW238265   0.938   1.278  10.985 -0.5524  0.3042  0.8872
 8878SOL     OW38266   4.175   2.373  14.503  0.5044 -0.0728  0.0508
 8878SOL    HW138267   4.226   2.454  14.493  0.1234  0.2260  0.5198
 8878SOL    HW238268   4.089   2.411  14.520  0.4549 -0.2367  0.1601
 8879SOL     OW38269   3.195   2.942   0.488  0.6703 -0.0223 -0.0760
 8879SOL    HW138270   3.150   3.022   0.461  0.7036 -1.0111 -3.1223
 8879SOL    HW238271   3.120   2.891   0.517  0.5306 -1.2916 -2.7008
 8880SOL     OW38272   1.090   0.091   9.828 -0.2520 -0.1236 -0.2574
 8880SOL    HW138273   1.124   0.014   9.781 -2.4583 -0.6165 -1.0325
 8880SOL    HW238274   1.176   0.133   9.827  0.0406 -0.7123  0.8924
 8881SOL     OW38275   4.120   1.527  14.390 -0.1541  0.1175 -0.2060
 8881SOL    HW138276   4.158   1.458  14.336 -0.3572 -0.7804  0.7867
 8881SOL    HW238277   4.194   1.546  14.448 -2.4463  0.7857  2.5154
 8882SOL     OW38278   1.444   4.082   3.004 -0.2702  0.4977  0.6517
 8882SOL    HW138279   1.352   4.065   2.986 -0.6394  0.7816  2.2939
 8882SOL    HW238280   1.439   4.175   2.983 -0.5723  0.8215  2.1596
 8883SOL     OW38281   3.327   3.064   4.800  0.4495 -0.1382  0.0341
 8883SOL    HW138282   3.353   2.975   4.821  2.9820  0.3715 -0.9092
 8883SOL    HW238283   3.406   3.116   4.812 -0.0402  0.1790  1.8216
 8884SOL     OW38284   4.151   3.994   2.573  0.4073  0.0198  0.4119
 8884SOL    HW138285   4.118   3.941   2.646  2.0042 -1.5659 -0.0415
 8884SOL    HW238286   4.100   4.072   2.599  1.0918  0.2974  0.9061
 8885SOL     OW38287   1.089   0.651   4.796 -0.2070 -0.1604 -0.0311
 8885SOL    HW138288   1.065   0.727   4.743 -0.2707 -0.1309  0.0390
 8885SOL    HW238289   1.180   0.678   4.805 -0.2138 -0.5034  1.1307
 8886SOL     OW38290   4.057   1.175   7.876 -0.0113 -0.5676  0.0781
 8886SOL    HW138291   4.139   1.220   7.854 -1.2454  1.3673 -0.5533
 8886SOL    HW238292   4.094   1.089   7.855  1.3896  0.1601 -0.3761
 8887SOL     OW38293   0.045   3.034   2.546  0.4171  0.7228  0.1717
 8887SOL    HW138294   0.086   3.087   2.614  2.2764  0.8294 -1.0531
 8887SOL    HW238295   0.113   3.008   2.484  0.9742  0.1943  1.0078
 8888SOL     OW38296   1.657   3.723   3.936 -0.3859  0.2790 -0.2285
 8888SOL    HW138297   1.642   3.647   3.880  1.9951  0.1691 -0.7123
 8888SOL    HW238298   1.744   3.690   3.956 -0.4909  1.1611  1.7072
 8889SOL     OW38299   1.089   1.536  11.375  0.1703 -0.1780 -0.1916
 8889SOL    HW138300   1.143   1.520  11.452 -0.5562  0.7707  0.5185
 8889SOL    HW238301   1.128   1.485  11.304 -0.6057 -1.7038  0.4804
 8890SOL     OW38302   2.597   2.202   7.390 -0.1762 -0.0761  0.7427
 8890SOL    HW138303   2.570   2.214   7.299  3.2765  0.7946 -0.1521
 8890SOL    HW238304   2.647   2.122   7.375  1.0602  0.9880 -0.7299
 8891SOL     OW38305   3.535   0.122   0.423  0.5664  0.2165  0.6244
 8891SOL    HW138306   3.455   0.135   0.474 -0.1770  0.8562 -0.7085
 8891SOL    HW238307   3.523   0.189   0.355  1.2680 -0.8305 -0.5236
 8892SOL     OW38308   1.650   3.602   6.710 -0.3245 -0.3770  0.0883
 8892SOL    HW138309   1.617   3.512   6.713 -0.5823 -0.2445  0.9849
 8892SOL    HW238310   1.587   3.625   6.777  3.0799  1.1338  2.7572
 8893SOL     OW38311   1.443   1.568   2.055 -0.1504 -0.1055  0.3053
 8893SOL    HW138312   1.419   1.652   2.095  0.1678 -1.2810  3.0110
 8893SOL    HW238313   1.379   1.562   1.985  1.3354 -2.9556 -0.8392
 8894SOL     OW38314   0.159   2.524   2.242 -0.2920 -0.3730 -0.5711
 8894SOL    HW138315   0.245   2.490   2.220  0.2711  0.5788  0.1755
 8894SOL    HW238316   0.156   2.508   2.337  1.5577 -0.0777 -0.4656
 8895SOL     OW38317   1.912   0.811   6.607 -0.2877 -0.3057 -0.0594
 8895SOL    HW138318   1.825   0.786   6.576  0.3443 -3.0933  0.4321
 8895SOL    HW238319   1.919   0.761   6.688  1.5961 -0.7522 -0.4893
 8896SOL     OW38320   0.942   0.548  17.076 -0.0207  0.2506  0.5035
 8896SOL    HW138321   0.972   0.477  17.131  2.0201  0.8915  0.2409
 8896SOL    HW238322   0.860   0.515  17.041 -0.4810  1.3247  0.5466
 8897SOL     OW38323   1.449   1.857   4.014 -0.1239  0.3764 -0.0928
 8897SOL    HW138324   1.396   1.909   4.074 -0.2953 -1.2428  1.1600
 8897SOL    HW238325   1.431   1.905   3.933  1.6138  0.2452 -0.5648
 8898SOL     OW38326   3.427   3.614   3.751  0.2662  0.6273  0.1873
 8898SOL    HW138327   3.476   3.621   3.669 -0.1680  1.3512 -0.0080
 8898SOL    HW238328   3.349   3.666   3.733 -0.4750  0.2665  2.2645
 8899SOL     OW38329   4.246   3.846   8.853  0.0498 -0.3092 -0.1218
 8899SOL    HW138330   4.332   3.887   8.863 -0.1514 -0.0535  0.5188
 8899SOL    HW238331   4.185   3.904   8.899  0.8780  1.4743 -1.2548
 8900SOL     OW38332   2.243   1.416   4.660  1.1445 -0.5971 -0.1202
 8900SOL    HW138333   2.243   1.321   4.667  0.7686 -0.7217 -1.6688
 8900SOL    HW238334   2.329   1.436   4.698  0.2394 -0.0169  1.6324
 8901SOL     OW38335   4.175   0.450   2.814  0.2081  0.6856  0.0443
 8901SOL    HW138336   4.154   0.362   2.782  0.5967  0.4990  0.3118
 8901SOL    HW238337   4.211   0.482   2.731  2.5682 -2.3180 -0.1017
 8902SOL     OW38338   2.891   1.857   6.861 -1.1024  0.1058 -0.0382
 8902SOL    HW138339   2.923   1.916   6.930  0.2839 -0.8149  0.0913
 8902SOL    HW238340   2.807   1.895   6.833  0.7394  1.7568 -3.3107
 8903SOL     OW38341   2.837   4.629  17.070 -0.6820 -0.1635 -0.3482
 8903SOL    HW138342   2.775   4.614  17.141 -1.0894 -0.8246 -0.8482
 8903SOL    HW238343   2.793   4.583  16.998  0.9244 -0.2969 -1.2674
 8904SOL     OW38344   3.884   3.589   6.280 -0.1546  0.0234 -0.3208
 8904SOL    HW138345   3.944   3.518   6.300 -1.4319 -0.5959  1.2682
 8904SOL    HW238346   3.805   3.557   6.324 -0.5001 -1.2971 -1.9029
 8905SOL     OW38347   2.874   3.868   6.133 -0.3075 -0.3469 -0.0664
 8905SOL    HW138348   2.784   3.866   6.166  0.1302 -1.0853  1.0926
 8905SOL    HW238349   2.884   3.779   6.098  0.4450  0.6302 -2.3400
 8906SOL     OW38350   1.879   4.245   7.626  0.3705 -0.4732  0.2378
 8906SOL    HW138351   1.948   4.184   7.600  1.7935  2.0132 -1.8262
 8906SOL    HW238352   1.911   4.331   7.597 -0.8231  0.1673  0.8298
 8907SOL     OW38353   0.893   2.813   7.104  0.1265 -0.5364 -0.1581
 8907SOL    HW138354   0.827   2.760   7.148 -0.8518 -0.1340 -1.1544
 8907SOL    HW238355   0.978   2.780   7.134  1.0933  2.3855  0.3584
 8908SOL     OW38356   2.728   2.678   7.465  0.4004  0.0302  0.6799
 8908SOL    HW138357   2.643   2.637   7.480 -0.6930  1.5964 -1.3172
 8908SOL    HW238358   2.790   2.639   7.527  1.9089  2.8836  0.9768
 8909SOL     OW38359   1.644   2.654   8.812  0.0995  0.5460  0.1645
 8909SOL    HW138360   1.661   2.645   8.719 -0.0598  1.8349  0.0093
 8909SOL    HW238361   1.673   2.741   8.841  1.0613 -0.0702  1.0701
 8910SOL     OW38362   1.215   4.363   4.661  0.2731  0.4468  0.3358
 8910SOL    HW138363   1.284   4.310   4.621  0.9268  1.1063  0.5912
 8910SOL    HW238364   1.216   4.326   4.750  0.9189  1.9002  0.9355
 8911SOL     OW38365   3.278   1.030   4.895  0.1291 -0.0063  0.3745
 8911SOL    HW138366   3.313   0.998   4.812  0.4491 -0.0343  0.5203
 8911SOL    HW238367   3.316   1.118   4.897  0.2207 -0.0734  1.4412
 8912SOL     OW38368   2.413   0.011   1.057  0.3579 -0.3294  0.2954
 8912SOL    HW138369   2.430   0.072   0.985 -1.3779  0.6998  0.7461
 8912SOL    HW238370   2.409   0.079   1.125  1.0190  0.0249 -0.0209
 8913SOL     OW38371   1.287   4.494   9.063 -0.3116 -0.1142 -0.3828
 8913SOL    HW138372   1.205   4.450   9.043 -0.7425 -0.6892  2.6471
 8913SOL    HW238373   1.353   4.439   9.104  0.2910 -0.0743 -1.3070
 8914SOL     OW38374   3.296   2.069   4.224  0.2876  0.1533 -0.7438
 8914SOL    HW138375   3.390   2.079   4.208  0.2742  0.8514 -0.3781
 8914SOL    HW238376   3.285   1.976   4.203  1.2686  0.4232 -2.4173
 8915SOL     OW38377   1.002   4.035   3.390  0.0544  0.1634  0.5609
 8915SOL    HW138378   0.959   3.990   3.463 -0.9900 -0.8401 -0.6597
 8915SOL    HW238379   0.969   4.121   3.415 -1.8331 -1.1370  2.5746
 8916SOL     OW38380   1.744   3.350   7.768  0.3177  0.3173  0.3092
 8916SOL    HW138381   1.776   3.353   7.678  0.7917 -1.4434  0.4174
 8916SOL    HW238382   1.669   3.290   7.767  0.1675  0.5159 -0.1501
 8917SOL     OW38383   3.639   0.552   1.474 -0.5745 -0.2148 -0.2257
 8917SOL    HW138384   3.556   0.532   1.431  0.3245 -1.4922 -1.3791
 8917SOL    HW238385   3.634   0.489   1.545 -1.6641 -1.0853 -1.0598
 8918SOL     OW38386   3.641   1.019   3.548  0.1773 -0.3377  0.1712
 8918SOL    HW138387   3.568   1.001   3.609 -2.6386 -0.4756 -3.2505
 8918SOL    HW238388   3.706   0.971   3.599  0.6832  0.9990  0.7755
 8919SOL     OW38389   3.127   0.930   3.163 -0.1899  0.3495  0.5049
 8919SOL    HW138390   3.072   0.868   3.212  1.1834 -2.1101 -1.0705
 8919SOL    HW238391   3.181   0.950   3.239  0.1092  0.9779  0.1243
 8920SOL     OW38392   0.793   4.548   4.569 -0.3058  0.2493 -0.5414
 8920SOL    HW138393   0.881   4.534   4.534 -0.1932 -1.7175  0.5278
 8920SOL    HW238394   0.732   4.547   4.495 -1.9967 -0.4551  0.8592
 8921SOL     OW38395   2.013   0.811   2.575  0.5322 -0.1122 -0.3391
 8921SOL    HW138396   2.050   0.765   2.500  1.2291 -1.6447  0.9486
 8921SOL    HW238397   1.922   0.808   2.546 -0.0595  1.2600  1.3857
 8922SOL     OW38398   0.692   1.878  17.189 -0.1248  0.2645  0.2456
 8922SOL    HW138399   0.662   1.787  17.184  0.2167  0.3597 -3.3229
 8922SOL    HW238400   0.672   1.922  17.106  0.4430 -1.4784 -0.8245
 8923SOL     OW38401   4.138   0.068  16.656  0.3997 -0.1607 -0.4240
 8923SOL    HW138402   4.176   4.725  16.688  0.7117  0.2367  0.2147
 8923SOL    HW238403   4.155   0.125  16.730 -0.1047  0.2489 -0.6285
 8924SOL     OW38404   2.133   2.628  15.870  0.0200 -0.5757 -0.0149
 8924SOL    HW138405   2.078   2.695  15.912  2.7945  0.0419  2.6833
 8924SOL    HW238406   2.169   2.684  15.801 -0.3925 -3.3503 -2.4247
 8925SOL     OW38407   0.299   2.254  14.951 -0.2560 -0.4280  0.4659
 8925SOL    HW138408   0.215   2.212  14.969 -1.2991  1.0746 -1.0275
 8925SOL    HW238409   0.323   2.263  15.044 -2.1919 -0.1879  0.9343
 8926SOL     OW38410   3.262   2.514   5.178 -0.7234 -0.0263  0.0980
 8926SOL    HW138411   3.314   2.481   5.105  0.6001 -0.5835  1.3068
 8926SOL    HW238412   3.178   2.544   5.142  0.2027 -0.5626 -2.5597
 8927SOL     OW38413   1.745   0.895   4.848  0.2925  0.4886  0.9440
 8927SOL    HW138414   1.746   0.826   4.782 -1.5712  0.7539  0.6271
 8927SOL    HW238415   1.835   0.897   4.880  0.7376  0.3031 -0.2936
 8928SOL     OW38416   1.282   4.164   5.148 -1.1344 -0.5346  0.4219
 8928SOL    HW138417   1.269   4.183   5.241 -1.6438  0.0788  0.2290
 8928SOL    HW238418   1.368   4.122   5.152 -0.2179  1.1462 -1.4629
 8929SOL     OW38419   0.097   1.453   6.036 -0.4633 -0.3638  0.7797
 8929SOL    HW138420   0.025   1.491   5.986  0.9689 -0.3063 -1.2515
 8929SOL    HW238421   0.104   1.503   6.117  0.3668  2.9587 -1.3743
 8930SOL     OW38422   3.971   4.682   1.857  0.5007  0.8483  0.1355
 8930SOL    HW138423   4.054   4.727   1.874  0.2741  1.1228  0.5436
 8930SOL    HW238424   3.954   4.715   1.769  0.6634  0.8214  0.0933
 8931SOL     OW38425   3.558   2.398   7.703  0.1106  0.1933  0.1304
 8931SOL    HW138426   3.542   2.375   7.795 -1.3648  0.1923 -0.1278
 8931SOL    HW238427   3.467   2.404   7.676 -0.6569 -2.7870  2.0860
 8932SOL     OW38428   4.351   2.328   8.935  0.4014  0.2444 -0.4848
 8932SOL    HW138429   4.418   2.313   8.869  0.0937  1.4491 -1.0770
 8932SOL    HW238430   4.380   2.283   9.014 -1.5851  1.3486  0.8811
 8933SOL     OW38431   2.733   4.715   5.278  0.4303  0.1246  0.0557
 8933SOL    HW138432   2.667   4.736   5.211 -0.2183 -0.2838  0.5734
 8933SOL    HW238433   2.804   0.029   5.239  1.6711 -0.4262  1.5739
 8934SOL     OW38434   3.182   3.044   6.889 -0.8442  0.1674 -0.7173
 8934SOL    HW138435   3.144   3.100   6.957 -1.7661  1.1925 -2.0973
 8934SOL    HW238436   3.161   3.092   6.809  0.2047 -1.5536 -2.0213
 8935SOL     OW38437   3.743   2.254  11.946 -0.2778  0.2616 -0.2100
 8935SOL    HW138438   3.659   2.300  11.947 -0.7175 -0.5340 -1.3098
 8935SOL    HW238439   3.738   2.203  11.866  1.0435 -2.3162  1.3551
 8936SOL     OW38440   2.116   2.611   4.308 -0.2223 -0.4410  0.2026
 8936SOL    HW138441   2.100   2.628   4.401 -0.3436 -1.5832  0.3931
 8936SOL    HW238442   2.141   2.519   4.315 -0.0711 -0.4342 -0.2638
 8937SOL     OW38443   4.495   0.320   7.936 -0.0210  0.0689  0.2580
 8937SOL    HW138444   4.569   0.266   7.962 -0.3646 -0.3101  0.4442
 8937SOL    HW238445   4.474   0.371   8.014  2.8019 -0.2717  1.2148
 8938SOL     OW38446   3.626   3.773   4.803 -0.0544 -0.2502  0.2089
 8938SOL    HW138447   3.542   3.816   4.817 -0.8358 -1.5732 -0.4384
 8938SOL    HW238448   3.591   3.689   4.773  1.6886 -0.3977 -1.4837
 8939SOL     OW38449   0.723   4.456   6.142  0.5382  0.1627  0.1279
 8939SOL    HW138450   0.763   4.478   6.058 -0.0641 -0.7735 -0.4016
 8939SOL    HW238451   0.717   4.361   6.151 -0.3472  0.1690 -0.4037
 8940SOL     OW38452   1.611   2.993   6.284  0.5168 -0.0596 -0.4111
 8940SOL    HW138453   1.683   3.052   6.263 -0.0708  1.3614  1.5042
 8940SOL    HW238454   1.549   3.059   6.318  0.4710 -1.8529  3.0139
 8941SOL     OW38455   0.579   2.586   8.713  0.3187  0.0071 -0.1347
 8941SOL    HW138456   0.567   2.567   8.806 -2.4638 -0.7511 -0.6344
 8941SOL    HW238457   0.674   2.582   8.701  0.5867  2.2943  1.0842
 8942SOL     OW38458   0.685   1.057   2.814 -0.3026 -0.3086 -0.0951
 8942SOL    HW138459   0.630   1.024   2.886  2.2529 -1.6983  1.2061
 8942SOL    HW238460   0.703   0.985   2.754  0.7308 -1.7790  1.9781
 8943SOL     OW38461   0.945   2.528   9.010 -0.1690  0.1450  0.2768
 8943SOL    HW138462   0.975   2.614   9.040 -1.2431  0.6305 -0.0144
 8943SOL    HW238463   0.855   2.523   9.043 -1.0143 -1.4249 -2.2849
 8944SOL     OW38464   2.970   2.357  14.584 -0.0714 -0.4022 -0.0869
 8944SOL    HW138465   3.046   2.416  14.587 -0.9081  0.6023  0.9790
 8944SOL    HW238466   2.965   2.335  14.676 -0.6047 -3.0186 -0.7577
 8945SOL     OW38467   0.324   0.483   8.375 -0.1916  0.3062 -0.8430
 8945SOL    HW138468   0.234   0.454   8.363 -0.5137  0.6097  0.8354
 8945SOL    HW238469   0.374   0.412   8.416 -2.4354 -0.8988 -0.1894
 8946SOL     OW38470   4.496   1.352  15.060 -0.0412  0.0283  0.1251
 8946SOL    HW138471   4.523   1.319  14.974 -0.5964 -0.5979  0.1911
 8946SOL    HW238472   4.547   1.432  15.052  0.5095 -0.2998  0.3210
 8947SOL     OW38473   2.795   2.347  11.434 -0.2389  0.3377 -0.2362
 8947SOL    HW138474   2.718   2.345  11.491 -0.5563  0.0091 -0.6741
 8947SOL    HW238475   2.851   2.408  11.482 -0.6148  0.2923  0.2641
 8948SOL     OW38476   0.568   0.805   7.992 -0.3795  0.3617  0.4632
 8948SOL    HW138477   0.569   0.894   7.956  0.5927 -0.2454 -0.9843
 8948SOL    HW238478   0.489   0.807   8.047 -0.2299 -0.4923  0.7025
 8949SOL     OW38479   0.217   0.841   1.516  0.3060 -0.0983 -0.1146
 8949SOL    HW138480   0.297   0.839   1.464  1.1166  0.2655  1.1227
 8949SOL    HW238481   0.175   0.906   1.460 -0.1234 -1.6135 -1.5428
 8950SOL     OW38482   0.801   0.699   4.396 -0.1319 -0.2359 -0.1408
 8950SOL    HW138483   0.788   0.750   4.316 -0.6338  0.4014  0.3519
 8950SOL    HW238484   0.790   0.613   4.355 -1.8287  0.1303 -0.4632
 8951SOL     OW38485   4.669   3.796   8.410  0.4821 -0.7702 -0.1336
 8951SOL    HW138486   0.024   3.801   8.430  0.7987  2.5004 -2.4197
 8951SOL    HW238487   4.637   3.821   8.496 -1.5945 -2.6683 -0.3634
 8952SOL     OW38488   1.346   1.115   2.372  0.0723 -0.2965  0.1406
 8952SOL    HW138489   1.277   1.181   2.367 -0.8212 -1.3193 -1.2654
 8952SOL    HW238490   1.388   1.139   2.290 -1.4065  1.1857 -0.1887
 8953SOL     OW38491   4.054   4.548   6.576 -0.4384  0.2861  0.1843
 8953SOL    HW138492   3.984   4.533   6.512 -1.4702  0.5631  1.2550
 8953SOL    HW238493   4.102   4.607   6.518  0.4737  0.5470  1.1917
 8954SOL     OW38494   1.873   1.179   5.797  0.6601  0.2394  0.1926
 8954SOL    HW138495   1.901   1.184   5.706 -0.4322 -1.3098 -0.2397
 8954SOL    HW238496   1.938   1.119   5.835 -0.4196 -1.0248  0.0670
 8955SOL     OW38497   4.098   1.215   5.566 -0.7824 -0.2997 -0.4491
 8955SOL    HW138498   4.174   1.241   5.617 -0.8747 -1.0613  0.0654
 8955SOL    HW238499   4.133   1.216   5.477  2.2903  2.9885  0.8044
 8956SOL     OW38500   3.819   1.943   1.575 -0.4835 -0.0407 -0.1320
 8956SOL    HW138501   3.789   1.987   1.496  0.3500  1.2056  0.2405
 8956SOL    HW238502   3.887   2.006   1.602 -2.1755  1.0344  1.6310
 8957SOL     OW38503   3.633   3.479   4.021  0.4069  0.1748  0.3903
 8957SOL    HW138504   3.619   3.507   4.112 -0.6081 -0.2716  0.3671
 8957SOL    HW238505   3.690   3.549   3.988 -0.7921  1.4759  1.0810
 8958SOL     OW38506   2.093   4.358   4.649 -0.1155  0.1587 -0.3412
 8958SOL    HW138507   2.015   4.404   4.681  0.2099  1.6164 -1.6145
 8958SOL    HW238508   2.167   4.415   4.670 -0.7399  0.7580  0.2352
 8959SOL     OW38509   0.347   4.154   5.658 -0.3571  0.3807  0.0798
 8959SOL    HW138510   0.317   4.192   5.741 -1.3963  1.1568 -0.6551
 8959SOL    HW238511   0.373   4.233   5.611 -1.4704  0.6841 -0.0391
 8960SOL     OW38512   3.299   1.206  11.355  0.4034  0.0132  0.0609
 8960SOL    HW138513   3.228   1.232  11.296 -0.5205 -1.3734  0.5797
 8960SOL    HW238514   3.304   1.284  11.411  1.8911  0.3731 -0.5772
 8961SOL     OW38515   0.590   3.273  10.750  0.4067 -0.4510  0.0663
 8961SOL    HW138516   0.498   3.265  10.725  0.0870  0.7197  0.8891
 8961SOL    HW238517   0.610   3.357  10.709  1.6912 -0.2625  1.0757
 8962SOL     OW38518   0.850   1.629  12.072  0.0639  0.2025  0.1243
 8962SOL    HW138519   0.936   1.672  12.072  0.9229 -1.5189  0.5880
 8962SOL    HW238520   0.797   1.685  12.128  1.1140  3.2446 -1.9127
 8963SOL     OW38521   3.924   0.353   6.327  0.5846  0.6219  0.2328
 8963SOL    HW138522   3.988   0.320   6.264 -0.9437 -0.5568 -0.6940
 8963SOL    HW238523   3.973   0.427   6.364  2.2466 -1.9159  3.1165
 8964SOL     OW38524   4.696   2.955   9.229  0.1293  0.1995  0.2909
 8964SOL    HW138525   4.672   3.029   9.284  1.0718 -0.1629  1.1886
 8964SOL    HW238526   0.053   2.947   9.225 -0.1925 -3.4475  0.0906
 8965SOL     OW38527   0.349   1.157   5.691  0.1253 -0.7884  0.3873
 8965SOL    HW138528   0.444   1.163   5.694  0.1598 -1.9171  1.4193
 8965SOL    HW238529   0.319   1.248   5.697 -1.9645 -1.4172 -0.6146
 8966SOL     OW38530   0.230   2.448   5.215  0.1750 -0.0886  0.3734
 8966SOL    HW138531   0.300   2.487   5.162  0.6562  3.5826  3.6299
 8966SOL    HW238532   0.228   2.509   5.289 -0.2593 -1.0938  1.1981
 8967SOL     OW38533   3.168   3.480   6.372 -0.4678  0.3254  0.0886
 8967SOL    HW138534   3.249   3.436   6.349 -0.4557  0.9039 -0.9497
 8967SOL    HW238535   3.158   3.541   6.299  2.4892  0.9896  0.2661
 8968SOL     OW38536   3.421   1.190   5.883 -0.6552  0.1831  0.2807
 8968SOL    HW138537   3.364   1.168   5.957 -0.0200  0.0282  0.7214
 8968SOL    HW238538   3.484   1.252   5.919  0.2856  0.0289 -1.1124
 8969SOL     OW38539   3.367   2.375   2.091  0.1044 -0.5968  0.2255
 8969SOL    HW138540   3.356   2.295   2.040 -2.4301 -0.8112  1.1156
 8969SOL    HW238541   3.459   2.398   2.075  0.0256 -1.6932 -1.7807
 8970SOL     OW38542   0.461   3.709   3.617 -0.0603 -0.0189  0.2028
 8970SOL    HW138543   0.523   3.758   3.670 -0.1776 -0.1492  0.4609
 8970SOL    HW238544   0.380   3.759   3.632  0.4830  0.6618  0.8288
 8971SOL     OW38545   4.504   0.565   8.409 -0.1325 -0.0688 -0.2044
 8971SOL    HW138546   4.440   0.540   8.476 -0.8474  0.0384 -0.8569
 8971SOL    HW238547   4.588   0.567   8.456 -0.8806  3.2150  0.9850
 8972SOL     OW38548   2.379   3.417   2.063  0.4650 -0.0310 -0.6339
 8972SOL    HW138549   2.312   3.388   2.124  0.7048 -0.1678 -0.4386
 8972SOL    HW238550   2.369   3.354   1.992  2.7323 -2.3803  1.1404
 8973SOL     OW38551   4.251   4.577  16.731  0.1704 -0.3694  0.3595
 8973SOL    HW138552   4.346   4.587  16.745  0.0679 -1.4445  1.7555
 8973SOL    HW238553   4.244   4.530  16.648  0.1360  0.5527 -0.1669
 8974SOL     OW38554   1.413   0.532   1.497  0.0351 -0.0948 -0.1734
 8974SOL    HW138555   1.332   0.520   1.447 -1.4888 -2.0538  2.7530
 8974SOL    HW238556   1.425   0.442   1.529 -0.4710 -0.9871 -2.4793
 8975SOL     OW38557   3.022   1.469   0.845  0.2180 -0.0445 -0.3201
 8975SOL    HW138558   2.934   1.505   0.842 -0.4111 -1.7001 -1.4723
 8975SOL    HW238559   3.040   1.430   0.760  1.5443 -1.0011  0.3858
 8976SOL     OW38560   4.111   3.408   8.736 -0.0943  0.0912 -0.0686
 8976SOL    HW138561   4.121   3.317   8.709 -0.7151 -0.1365  0.4838
 8976SOL    HW238562   4.028   3.417   8.689 -0.9797 -1.9815  1.1335
 8977SOL     OW38563   0.823   0.289   7.554 -0.1917 -0.0330  0.3954
 8977SOL    HW138564   0.896   0.351   7.559  0.5037 -0.9368  1.3447
 8977SOL    HW238565   0.857   0.213   7.601 -0.5246 -0.2137  0.3433
 8978SOL     OW38566   3.064   3.897   6.684  0.0302  0.0691  0.3091
 8978SOL    HW138567   3.063   3.875   6.777 -3.1316  0.4917  0.3732
 8978SOL    HW238568   2.978   3.867   6.652  0.3279  0.0463 -0.4820
 8979SOL     OW38569   1.716   3.952   6.928  0.3207 -0.4562  0.3794
 8979SOL    HW138570   1.637   3.899   6.921  0.3502 -0.7273  1.9790
 8979SOL    HW238571   1.682   4.041   6.934 -0.2509 -0.6413 -0.1302
 8980SOL     OW38572   1.716   4.397  11.351 -0.1439  0.0971 -0.0430
 8980SOL    HW138573   1.702   4.436  11.437 -1.4057  0.5029 -0.4324
 8980SOL    HW238574   1.802   4.430  11.327  0.3559 -0.4630  1.0082
 8981SOL     OW38575   0.750   1.507   8.012  0.0908 -0.1966  0.0412
 8981SOL    HW138576   0.669   1.464   7.986  0.5509 -2.1104  1.7958
 8981SOL    HW238577   0.750   1.484   8.105 -0.1593 -1.4865 -0.2781
 8982SOL     OW38578   3.451   3.410  10.902 -0.0537 -0.5259  0.1537
 8982SOL    HW138579   3.396   3.345  10.945 -0.8180  1.1267  1.6679
 8982SOL    HW238580   3.383   3.454  10.851  0.3043 -2.6876 -2.1812
 8983SOL     OW38581   3.438   2.478  17.666  0.3612  0.4313 -0.6198
 8983SOL    HW138582   3.364   2.481  17.604  0.0101 -0.8897 -0.2641
 8983SOL    HW238583   3.392   2.513  17.743  2.7170 -0.0967  1.0272
 8984SOL     OW38584   1.102   2.549   2.560 -0.2960  0.2749  0.5218
 8984SOL    HW138585   1.145   2.628   2.528 -0.8950  0.5909  0.4969
 8984SOL    HW238586   1.066   2.521   2.476  4.4256 -0.5440 -1.2387
 8985SOL     OW38587   0.725   4.336   9.993  0.0311 -0.3685 -0.3580
 8985SOL    HW138588   0.661   4.266   9.987  0.6545 -1.0077  0.4467
 8985SOL    HW238589   0.709   4.378  10.078 -1.2228 -0.2047 -0.6788
 8986SOL     OW38590   3.825   3.440   9.851 -0.7200 -0.0382 -0.3641
 8986SOL    HW138591   3.773   3.520   9.849  0.2484  0.5507 -1.6950
 8986SOL    HW238592   3.896   3.475   9.797  0.0394 -0.3854  0.4190
 8987SOL     OW38593   0.408   2.642   4.054  0.1410  0.7887  0.2307
 8987SOL    HW138594   0.393   2.734   4.035  0.4099  0.5253 -1.2119
 8987SOL    HW238595   0.494   2.654   4.096 -0.0118  0.2728  0.7079
 8988SOL     OW38596   1.347   1.247   8.979  0.1111 -0.3167  0.3978
 8988SOL    HW138597   1.377   1.201   8.900 -2.2014  0.0689 -0.6990
 8988SOL    HW238598   1.333   1.173   9.038 -1.9669 -0.5465 -0.3887
 8989SOL     OW38599   0.808   0.658   2.993 -0.1566 -0.5978 -0.2097
 8989SOL    HW138600   0.857   0.740   2.998 -0.2469 -0.5471 -0.1439
 8989SOL    HW238601   0.852   0.598   2.933  0.3113 -0.4451 -0.0187
 8990SOL     OW38602   4.595   1.565   5.925  0.1894 -0.0956  0.1578
 8990SOL    HW138603   4.555   1.579   6.011 -0.5493 -2.7291  0.2525
 8990SOL    HW238604   4.527   1.517   5.878  0.8483 -0.3592 -0.5145
 8991SOL     OW38605   2.971   4.422   5.366 -0.0323  0.1328 -0.9543
 8991SOL    HW138606   2.973   4.378   5.281  1.1855 -0.0151 -0.8538
 8991SOL    HW238607   3.060   4.403   5.397 -0.4858  0.3114  0.4432
 8992SOL     OW38608   0.818   2.713  14.137  0.4385  0.4074 -0.0245
 8992SOL    HW138609   0.726   2.727  14.160 -0.2276 -2.0581 -1.1111
 8992SOL    HW238610   0.825   2.622  14.168 -1.0561 -0.4854 -2.2772
 8993SOL     OW38611   2.882   4.290   8.177 -0.3725 -0.5080 -0.0336
 8993SOL    HW138612   2.905   4.311   8.267 -1.4892  1.4492 -0.2182
 8993SOL    HW238613   2.832   4.365   8.146 -2.2228 -1.6824  0.0968
 8994SOL     OW38614   2.563   4.660  17.198 -0.1549  0.7694 -0.4513
 8994SOL    HW138615   2.581   0.013  17.184  1.3741  0.5501  0.0863
 8994SOL    HW238616   2.568   4.664  17.294 -2.0479 -2.7201 -0.1994
 8995SOL     OW38617   3.580   1.309  10.750 -0.1134 -0.1257  0.2262
 8995SOL    HW138618   3.550   1.378  10.810  0.3014  0.0448  0.2406
 8995SOL    HW238619   3.556   1.227  10.793 -0.5706  0.5329  1.2194
 8996SOL     OW38620   1.948   0.531  11.933 -0.6606 -0.1795  0.0470
 8996SOL    HW138621   1.891   0.503  11.861 -0.4008 -3.1695  0.9655
 8996SOL    HW238622   1.926   0.623  11.942 -0.9968 -0.1306 -1.3363
 8997SOL     OW38623   0.694   0.352   3.583 -0.1590 -0.8749  0.1730
 8997SOL    HW138624   0.622   0.306   3.626 -1.1425 -0.2735 -0.8476
 8997SOL    HW238625   0.765   0.292   3.603 -1.6858 -3.0633 -0.9889
 8998SOL     OW38626   4.532   3.602  13.764 -0.0131 -0.0101  0.1755
 8998SOL    HW138627   4.485   3.531  13.721  0.0022  1.6778 -2.6200
 8998SOL    HW238628   4.465   3.670  13.775  1.2990  1.4260 -0.8461
 8999SOL     OW38629   2.875   0.339   8.674 -0.0345  0.2610 -0.2270
 8999SOL    HW138630   2.916   0.311   8.592  1.6468  0.6239  0.5041
 8999SOL    HW238631   2.833   0.425   8.667 -1.5467 -0.3785  0.9252
 9000SOL     OW38632   4.014   3.466  16.947  0.1972  0.1628  0.0774
 9000SOL    HW138633   4.076   3.393  16.950 -1.8737 -1.6479 -1.2035
 9000SOL    HW238634   3.930   3.421  16.958  0.1741 -0.1702 -1.5810
 9001SOL     OW38635   4.316   2.579  14.427  0.0777 -0.2412 -0.5495
 9001SOL    HW138636   4.382   2.565  14.360 -3.2911 -2.5248 -3.4462
 9001SOL    HW238637   4.280   2.665  14.403  0.9714  0.0575 -0.8002
 9002SOL     OW38638   3.522   1.829   4.956 -0.0050  0.0315  0.4056
 9002SOL    HW138639   3.576   1.907   4.948  2.7177 -1.8006  0.7461
 9002SOL    HW238640   3.585   1.776   4.907  0.2843 -1.0938  1.9751
 9003SOL     OW38641   0.482   0.165  16.093 -0.6515  0.0748 -0.0362
 9003SOL    HW138642   0.391   0.161  16.064 -0.4951 -1.9553 -0.2529
 9003SOL    HW238643   0.477   0.237  16.155  1.5938  0.2116 -0.0077
 9004SOL     OW38644   2.710   0.161   4.602  0.2182  0.1433  0.1395
 9004SOL    HW138645   2.737   0.104   4.530 -0.7330 -0.2678  0.1187
 9004SOL    HW238646   2.760   0.125   4.675  1.6454 -1.3536 -1.5660
 9005SOL     OW38647   3.716   0.443   3.358 -0.5881  0.5366 -0.6368
 9005SOL    HW138648   3.759   0.522   3.391  0.9145 -0.7713  0.5297
 9005SOL    HW238649   3.716   0.390   3.438  3.0791  0.0787 -0.9648
 9006SOL     OW38650   1.734   0.711   3.008 -0.2436 -0.3353 -0.0648
 9006SOL    HW138651   1.770   0.799   2.993  0.0729 -0.1372  1.8542
 9006SOL    HW238652   1.678   0.718   3.085 -1.0802 -0.2854 -0.6835
 9007SOL     OW38653   1.072   1.702   8.091 -0.0853 -0.0701  0.1129
 9007SOL    HW138654   1.043   1.788   8.058 -0.5958 -1.0639 -2.0245
 9007SOL    HW238655   1.167   1.709   8.089 -0.2027  1.0546 -1.7671
 9008SOL     OW38656   0.633   2.092  14.453  0.1804 -0.3368 -0.4721
 9008SOL    HW138657   0.646   2.187  14.443 -0.4058 -0.6985 -4.5265
 9008SOL    HW238658   0.714   2.062  14.495  0.1122 -0.0803 -0.1548
 9009SOL     OW38659   1.611   3.592  13.944  0.0717 -0.4119  0.0048
 9009SOL    HW138660   1.610   3.496  13.944 -0.2168 -0.4094 -0.1796
 9009SOL    HW238661   1.520   3.613  13.966  0.0351 -1.7695  1.1127
 9010SOL     OW38662   4.731   3.444   6.865 -0.4191  0.0395 -0.3963
 9010SOL    HW138663   4.731   3.368   6.923 -0.8115 -0.1616 -0.6647
 9010SOL    HW238664   0.080   3.483   6.872 -0.2974 -0.4795  0.8969
 9011SOL     OW38665   3.316   1.336   8.900 -0.2230  0.6029 -0.0578
 9011SOL    HW138666   3.269   1.302   8.976  0.8559 -0.6751  0.0486
 9011SOL    HW238667   3.267   1.283   8.836 -1.9342  0.5364  1.3172
 9012SOL     OW38668   1.379   4.109   3.881  0.1061  0.1460 -0.0325
 9012SOL    HW138669   1.402   4.070   3.965  1.7622  0.1351 -0.4989
 9012SOL    HW238670   1.458   4.150   3.847  0.4447  0.5872  1.2750
 9013SOL     OW38671   0.477   4.635   5.708 -0.2679 -0.0853 -0.1214
 9013SOL    HW138672   0.464   4.721   5.668  1.2065  0.1271 -0.1696
 9013SOL    HW238673   0.435   4.629   5.794  0.0553  1.2856  0.1248
 9014SOL     OW38674   4.133   4.612  12.728 -0.4445  0.8371  0.9027
 9014SOL    HW138675   4.183   4.557  12.788  0.1722  0.7840  0.3361
 9014SOL    HW238676   4.137   4.700  12.765 -0.4101  0.9167  0.7077
 9015SOL     OW38677   3.732   2.984   3.516 -0.2699 -0.0202 -0.3625
 9015SOL    HW138678   3.796   2.915   3.537  0.7153 -0.5092 -5.1582
 9015SOL    HW238679   3.659   2.925   3.500 -0.9090  1.1872 -1.8089
 9016SOL     OW38680   4.198   0.183   6.902 -0.2344 -0.5190 -0.7139
 9016SOL    HW138681   4.278   0.153   6.860  0.5678  1.2864 -0.4524
 9016SOL    HW238682   4.153   0.098   6.900  2.2429 -1.8052 -0.6028
 9017SOL     OW38683   1.370   3.526   4.301  0.3501 -0.4553 -0.2454
 9017SOL    HW138684   1.281   3.541   4.331  0.8320  3.3973 -0.6609
 9017SOL    HW238685   1.368   3.545   4.207 -1.3888  2.0322  0.2958
 9018SOL     OW38686   1.845   0.597   2.774 -0.0466 -0.0932  0.4221
 9018SOL    HW138687   1.769   0.639   2.734  0.6824  1.6286  0.8284
 9018SOL    HW238688   1.841   0.642   2.858 -1.9245  0.1278  0.2099
 9019SOL     OW38689   2.689   1.584   3.664 -0.4087  0.0098 -0.6418
 9019SOL    HW138690   2.629   1.621   3.730  1.5682  0.9686  0.6192
 9019SOL    HW238691   2.765   1.596   3.720  0.5654 -3.0177 -1.3187
 9020SOL     OW38692   3.839   2.821  17.417 -0.1299  0.0635 -0.1179
 9020SOL    HW138693   3.792   2.864  17.488 -0.8278 -0.2536 -0.3906
 9020SOL    HW238694   3.768   2.789  17.360 -0.0860 -2.2675  1.1347
 9021SOL     OW38695   0.440   3.102   8.094 -0.1190  0.4319 -0.3672
 9021SOL    HW138696   0.347   3.082   8.104  0.1823 -0.6366  0.2950
 9021SOL    HW238697   0.456   3.152   8.174 -0.5885  1.5180 -0.9573
 9022SOL     OW38698   3.946   3.360   5.493 -0.0836 -0.2546 -0.2305
 9022SOL    HW138699   3.983   3.410   5.566  0.0127 -1.1026  0.3135
 9022SOL    HW238700   3.915   3.432   5.439  0.4465 -0.8139 -1.2752
 9023SOL     OW38701   1.403   0.543   2.000 -0.8935  0.8650 -0.0376
 9023SOL    HW138702   1.320   0.591   2.004 -0.5139  1.3395  1.7554
 9023SOL    HW238703   1.435   0.585   1.920 -0.5122 -0.1175 -0.4008
 9024SOL     OW38704   2.333   1.783  10.044 -0.6225 -0.1904  0.0935
 9024SOL    HW138705   2.348   1.790  10.138 -1.0433  1.3665  0.0459
 9024SOL    HW238706   2.409   1.732  10.016 -0.5262  0.1264 -0.2237
 9025SOL     OW38707   1.543   2.915   8.554  0.1294 -0.4988  0.3113
 9025SOL    HW138708   1.631   2.954   8.548 -0.5321  1.0106  0.3730
 9025SOL    HW238709   1.522   2.920   8.647  1.4631 -0.4740  0.6131
 9026SOL     OW38710   3.164   3.105   2.271  0.0152  0.5144 -0.3337
 9026SOL    HW138711   3.233   3.046   2.243 -2.3296 -2.9733  1.1391
 9026SOL    HW238712   3.209   3.188   2.284 -1.3673  1.5338 -2.0376
 9027SOL     OW38713   3.091   2.975  14.670 -0.1672 -0.3477  0.7852
 9027SOL    HW138714   3.175   2.984  14.715 -1.0755  1.5566  2.1154
 9027SOL    HW238715   3.111   2.960  14.578 -2.8196  0.3656  0.0816
 9028SOL     OW38716   1.950   4.459   9.880 -0.3113  0.2972 -0.1813
 9028SOL    HW138717   2.018   4.493   9.821  1.2573 -0.2161  1.3262
 9028SOL    HW238718   1.970   4.365   9.887  0.6843  0.3963 -1.6542
 9029SOL     OW38719   2.434   3.640   7.195 -0.1699  0.6710 -0.4612
 9029SOL    HW138720   2.381   3.716   7.172 -3.3573 -1.0026  1.3363
 9029SOL    HW238721   2.474   3.669   7.277 -2.1070 -3.1303  1.8219
 9030SOL     OW38722   4.384   0.663   9.169  0.1450  0.0307 -0.3831
 9030SOL    HW138723   4.336   0.580   9.175  1.2810 -0.5930  0.1387
 9030SOL    HW238724   4.315   0.730   9.167 -1.3124 -1.3986  1.4781
 9031SOL     OW38725   4.060   1.356   4.822 -0.4038  0.1566  0.2256
 9031SOL    HW138726   3.977   1.315   4.797 -0.2124 -1.1442  1.7051
 9031SOL    HW238727   4.106   1.358   4.738 -0.2073 -0.4624  0.3167
 9032SOL     OW38728   3.004   2.956   5.633 -0.1424  0.2951 -0.2386
 9032SOL    HW138729   2.979   2.908   5.553  2.2966 -2.1898  0.4783
 9032SOL    HW238730   3.033   2.886   5.691  2.6308  1.7208  0.0936
 9033SOL     OW38731   1.841   1.019  14.125 -0.5108 -0.3717 -0.1522
 9033SOL    HW138732   1.854   1.013  14.030  2.1827  0.7551  0.1397
 9033SOL    HW238733   1.757   1.065  14.128 -0.0387  0.5156 -0.6390
 9034SOL     OW38734   0.118   3.442   3.032 -0.5706  0.1913 -0.1122
 9034SOL    HW138735   0.169   3.494   3.094 -1.9356 -1.0835  2.0636
 9034SOL    HW238736   0.030   3.479   3.043 -0.2084 -0.0046  3.3608
 9035SOL     OW38737   1.943   3.276   6.004 -0.2592 -0.0660 -0.2562
 9035SOL    HW138738   1.868   3.220   5.983 -1.2159  1.6258 -1.3560
 9035SOL    HW238739   1.890   3.355   6.015  3.2595  2.2060  0.4522
 9036SOL     OW38740   3.241   1.553  14.711 -0.2911  0.0881  0.3908
 9036SOL    HW138741   3.323   1.551  14.761 -0.7105 -3.5746  0.9539
 9036SOL    HW238742   3.183   1.524  14.781  0.2360  2.0652  1.6441
 9037SOL     OW38743   0.438   4.375   6.078 -0.5117  0.2770 -0.0548
 9037SOL    HW138744   0.461   4.308   6.143  0.4633  0.0457 -0.6466
 9037SOL    HW238745   0.352   4.408   6.106 -0.7279 -0.1052 -0.2764
 9038SOL     OW38746   4.595   2.916  14.426 -0.7846 -0.5540  0.0380
 9038SOL    HW138747   4.514   2.944  14.384 -0.8593 -0.9297 -0.0652
 9038SOL    HW238748   4.550   2.919  14.510  1.7528  1.1747  1.3505
 9039SOL     OW38749   2.731   4.401   4.337 -0.6294 -0.2346  0.1576
 9039SOL    HW138750   2.677   4.460   4.390 -2.3513 -1.9982  0.3900
 9039SOL    HW238751   2.811   4.384   4.386  0.4542  0.8880 -1.2306
 9040SOL     OW38752   3.580   1.557   0.950 -0.7617 -0.3689 -0.4029
 9040SOL    HW138753   3.619   1.472   0.928 -2.3943 -0.8863 -1.3640
 9040SOL    HW238754   3.621   1.610   0.882  1.9063 -0.5040  1.1018
 9041SOL     OW38755   1.202   1.265   3.293 -0.3156  0.0923  0.0652
 9041SOL    HW138756   1.276   1.205   3.303  1.2342  2.0332  0.2928
 9041SOL    HW238757   1.214   1.286   3.200 -0.6952  0.0721  0.0134
 9042SOL     OW38758   2.704   1.940   0.032  0.2687  0.4371 -0.1951
 9042SOL    HW138759   2.781   1.896  17.748 -0.1553 -0.0636 -0.4716
 9042SOL    HW238760   2.643   1.892  17.729 -0.6902 -0.2273  1.3940
 9043SOL     OW38761   3.930   1.747   3.457 -0.0419 -0.5486 -0.2950
 9043SOL    HW138762   3.976   1.716   3.535 -0.1475  1.0302  0.3917
 9043SOL    HW238763   3.901   1.831   3.492  0.4004 -0.0253 -1.1869
 9044SOL     OW38764   3.257   2.085   6.090 -0.6827 -0.0654  0.0514
 9044SOL    HW138765   3.171   2.104   6.128  0.1989 -0.0537  2.0495
 9044SOL    HW238766   3.275   2.177   6.069  0.0329 -0.5646 -1.5292
 9045SOL     OW38767   2.518   1.018   3.383  0.2877  0.4591 -0.4944
 9045SOL    HW138768   2.601   1.065   3.392  0.6257  0.0071 -1.2413
 9045SOL    HW238769   2.501   1.036   3.290 -2.5216 -0.0432 -0.0796
 9046SOL     OW38770   0.729   3.693   4.292 -0.1450 -0.3607  0.1112
 9046SOL    HW138771   0.794   3.723   4.355  1.2582 -0.1463 -1.4527
 9046SOL    HW238772   0.647   3.689   4.342  0.9011 -1.9799  1.6995
 9047SOL     OW38773   0.438   2.748   1.984  0.0118 -0.2746  0.1596
 9047SOL    HW138774   0.371   2.807   2.017 -0.1310 -0.5466  0.3544
 9047SOL    HW238775   0.386   2.686   1.932  1.3413 -0.4138 -1.0096
 9048SOL     OW38776   3.009   1.847   8.519 -0.5616 -0.4159 -0.2889
 9048SOL    HW138777   3.056   1.769   8.490  0.3790 -0.6620  1.9580
 9048SOL    HW238778   3.068   1.917   8.490 -3.1224  2.4156  1.3326
 9049SOL     OW38779   3.665   3.806   5.067 -0.5951  0.3265  0.3219
 9049SOL    HW138780   3.691   3.723   5.107  0.9530  0.0986 -1.1948
 9049SOL    HW238781   3.660   3.780   4.975  2.9092 -2.3618  0.9149
 9050SOL     OW38782   4.496   3.728   1.174  0.0572 -0.3787  0.2147
 9050SOL    HW138783   4.469   3.816   1.200  2.7520  1.3480 -2.7838
 9050SOL    HW238784   4.472   3.726   1.081 -0.9295  1.8395  0.4144
 9051SOL     OW38785   3.616   0.829   9.323  0.1927  0.1841 -0.3604
 9051SOL    HW138786   3.666   0.911   9.317  0.5508  0.0108  0.2448
 9051SOL    HW238787   3.557   0.836   9.248  1.4046 -1.2764 -1.4420
 9052SOL     OW38788   1.182   1.939  16.229  0.8131  0.5144 -0.0523
 9052SOL    HW138789   1.182   1.978  16.142  1.0871 -0.2587 -0.3959
 9052SOL    HW238790   1.236   1.862  16.211 -0.2381 -0.1191 -0.5225
 9053SOL     OW38791   1.768   3.262   3.142 -0.3200  0.4630 -0.1856
 9053SOL    HW138792   1.691   3.224   3.101 -0.9355 -0.9708  2.3368
 9053SOL    HW238793   1.733   3.243   3.229  1.6276 -0.0595  0.4871
 9054SOL     OW38794   2.565   2.152   3.161  0.0897 -0.2190 -0.4169
 9054SOL    HW138795   2.579   2.245   3.179  1.0290 -0.2253 -1.0924
 9054SOL    HW238796   2.471   2.143   3.178 -0.0129  1.2160 -0.2669
 9055SOL     OW38797   4.034   0.490   7.827  0.4976  0.3506 -0.4892
 9055SOL    HW138798   4.019   0.583   7.809  3.3025  1.1097  1.0245
 9055SOL    HW238799   4.070   0.450   7.748 -0.2180  3.1138 -2.1930
 9056SOL     OW38800   0.783   1.611   8.992 -0.3948 -0.2163 -0.1471
 9056SOL    HW138801   0.863   1.644   9.032  0.1680 -0.7033 -0.8673
 9056SOL    HW238802   0.774   1.670   8.918  0.0175  2.0211  1.5871
 9057SOL     OW38803   2.774   4.425  10.598  0.0447  0.2517 -0.2060
 9057SOL    HW138804   2.772   4.520  10.585  0.4847  0.7069  2.8472
 9057SOL    HW238805   2.836   4.405  10.669  0.0947 -1.5709 -0.7595
 9058SOL     OW38806   2.833   0.905   8.087  0.0910  0.0125  0.7343
 9058SOL    HW138807   2.884   0.985   8.098  0.3640  0.1951 -1.8222
 9058SOL    HW238808   2.906   0.847   8.064  0.0933  0.7099 -1.0405
 9059SOL     OW38809   0.152   2.812   6.474  0.0879  0.3555 -0.8648
 9059SOL    HW138810   0.171   2.746   6.406 -1.8930 -0.3121 -0.7691
 9059SOL    HW238811   0.139   2.756   6.550 -1.5371  1.2597 -0.4720
 9060SOL     OW38812   4.707   4.671   0.388 -0.6422  0.2959 -0.6310
 9060SOL    HW138813   4.673   4.592   0.432 -0.2192 -0.0588 -0.9402
 9060SOL    HW238814   4.723   4.637   0.300  0.7938  0.8396 -0.5847
 9061SOL     OW38815   3.240   3.918   6.946  0.5354 -0.0099 -0.4981
 9061SOL    HW138816   3.304   3.851   6.971  0.8412  0.6057  0.3458
 9061SOL    HW238817   3.281   3.992   6.989 -0.9639  0.1698  0.6185
 9062SOL     OW38818   2.931   2.302  10.577  0.0015 -0.6605  0.3741
 9062SOL    HW138819   2.950   2.389  10.613 -1.2238 -0.0982 -0.3099
 9062SOL    HW238820   2.933   2.326  10.484 -2.2536  1.4748  0.8752
 9063SOL     OW38821   2.502   3.545   3.947  0.0462 -0.6686  0.8137
 9063SOL    HW138822   2.521   3.609   4.016 -0.2212  2.4181 -2.0030
 9063SOL    HW238823   2.563   3.477   3.977  1.6689  0.0292 -0.8563
 9064SOL     OW38824   4.094   1.027  13.307 -0.7356 -0.5530 -0.0255
 9064SOL    HW138825   4.021   0.969  13.327 -0.2697 -0.5746  1.6170
 9064SOL    HW238826   4.092   1.039  13.212 -1.0295  0.0619  0.0596
 9065SOL     OW38827   2.225   4.662   9.495 -0.2835 -0.3940 -0.2885
 9065SOL    HW138828   2.154   4.648   9.432  0.2621  2.1514 -1.4761
 9065SOL    HW238829   2.303   4.675   9.442  0.0410  1.1912  0.5816
 9066SOL     OW38830   4.233   0.049   8.680  0.0419  0.0123  0.2184
 9066SOL    HW138831   4.206   0.039   8.771 -0.1302 -1.5376 -0.0181
 9066SOL    HW238832   4.300   0.117   8.691  0.1062  0.2817 -1.7539
 9067SOL     OW38833   2.644   4.397  17.221  0.2901 -0.4635  0.2611
 9067SOL    HW138834   2.624   4.491  17.229  0.2533 -0.5372  1.0432
 9067SOL    HW238835   2.558   4.357  17.214  1.2444 -2.5565  0.5274
 9068SOL     OW38836   3.427   2.431  17.179  0.2308  0.0370  0.0272
 9068SOL    HW138837   3.416   2.349  17.130  0.8247  0.9232 -1.5909
 9068SOL    HW238838   3.509   2.466  17.143 -0.6776  0.6042 -1.5197
 9069SOL     OW38839   0.835   0.753   5.998  0.7049  0.2350 -0.4814
 9069SOL    HW138840   0.768   0.786   5.938 -2.3347 -0.4306  2.5385
 9069SOL    HW238841   0.803   0.801   6.075 -1.4691 -1.5683 -0.2361
 9070SOL     OW38842   4.605   2.306  11.767  0.2595 -0.5701 -0.0800
 9070SOL    HW138843   4.609   2.295  11.862  1.7567 -1.8829 -0.2892
 9070SOL    HW238844   4.535   2.370  11.754  0.3166 -0.3946  0.4775
 9071SOL     OW38845   3.418   1.110   8.594 -0.3072 -0.1905  0.0006
 9071SOL    HW138846   3.452   1.175   8.532 -1.4582  0.9934  0.6023
 9071SOL    HW238847   3.352   1.158   8.645 -0.2576 -0.8539  0.6994
 9072SOL     OW38848   1.669   4.001   0.098  0.3573 -0.0422  0.3797
 9072SOL    HW138849   1.740   3.969   0.154 -1.5642  0.4653  3.0988
 9072SOL    HW238850   1.608   4.043   0.158 -2.0403 -0.8177 -1.5082
 9073SOL     OW38851   0.974   2.042   4.039  0.0093 -0.0514 -0.8687
 9073SOL    HW138852   0.933   1.984   4.103 -0.4704 -1.3348 -2.3295
 9073SOL    HW238853   0.899   2.035   3.980 -0.4901 -5.1276  0.3746
 9074SOL     OW38854   3.950   0.115   8.162  0.1086  0.1973 -0.7623
 9074SOL    HW138855   4.040   0.107   8.194 -0.0096  0.8541 -0.2628
 9074SOL    HW238856   3.959   0.207   8.136  0.0302 -0.5358 -3.3062
 9075SOL     OW38857   2.275   2.841   4.378  0.6997 -0.1884  0.2239
 9075SOL    HW138858   2.184   2.817   4.362  0.2284  1.3262  0.6507
 9075SOL    HW238859   2.324   2.760   4.364  0.4220 -0.3619  0.2566
 9076SOL     OW38860   2.975   4.363   2.247  0.3345  0.2472 -0.5504
 9076SOL    HW138861   2.936   4.403   2.170  2.4283 -1.0405 -2.2636
 9076SOL    HW238862   2.898   4.368   2.304  0.5596  0.3544 -0.2542
 9077SOL     OW38863   1.060   1.584   7.691 -0.5890  0.6025 -0.1643
 9077SOL    HW138864   1.044   1.539   7.774 -1.2947 -0.2560 -0.7784
 9077SOL    HW238865   1.041   1.677   7.706 -2.7613  0.0622  0.3645
 9078SOL     OW38866   2.225   0.571   6.440 -0.1290 -0.3223  0.3413
 9078SOL    HW138867   2.215   0.663   6.416  0.9495 -0.0836  0.8215
 9078SOL    HW238868   2.133   0.545   6.443 -0.4282  0.9967  2.6155
 9079SOL     OW38869   0.911   1.352   5.066 -0.4915  0.3345 -0.1411
 9079SOL    HW138870   0.829   1.304   5.056 -0.3976  0.4546 -1.4185
 9079SOL    HW238871   0.931   1.394   4.982 -1.3082  1.4129  0.2058
 9080SOL     OW38872   0.551   2.280   0.434  0.1714  0.1056 -0.6258
 9080SOL    HW138873   0.579   2.205   0.382  0.3947  0.5381 -1.1270
 9080SOL    HW238874   0.457   2.279   0.419  0.2064  0.8122 -0.8897
 9081SOL     OW38875   1.055   0.991   6.890  0.2927 -0.1360  0.1681
 9081SOL    HW138876   1.030   0.903   6.919  1.0127 -1.1196 -2.1812
 9081SOL    HW238877   1.143   0.969   6.861  1.1611  2.4596  0.8472
 9082SOL     OW38878   3.697   4.265   7.938 -0.3773 -0.9027 -0.0554
 9082SOL    HW138879   3.672   4.305   7.854  0.1454  1.8994  1.1388
 9082SOL    HW238880   3.761   4.329   7.967 -0.3309 -0.3110 -1.4367
 9083SOL     OW38881   2.053   0.296  13.886 -1.0232  0.1086 -0.0530
 9083SOL    HW138882   2.139   0.339  13.883  0.1501 -2.3026 -0.9896
 9083SOL    HW238883   2.047   0.268  13.978  0.0250 -0.9390 -0.3038
 9084SOL     OW38884   0.861   2.476  15.067  0.6500  0.4115  0.5197
 9084SOL    HW138885   0.874   2.563  15.105 -1.0641  0.1662  1.6746
 9084SOL    HW238886   0.770   2.455  15.086  0.7543  0.8706  1.5348
 9085SOL     OW38887   1.079   1.183   7.091 -0.0503 -0.1359 -0.8364
 9085SOL    HW138888   1.167   1.145   7.085  1.0563  2.4106 -0.8411
 9085SOL    HW238889   1.026   1.135   7.027 -0.4674 -1.2838  0.3840
 9086SOL     OW38890   0.263   4.330   7.012 -0.6791 -0.8409  0.1849
 9086SOL    HW138891   0.173   4.297   7.012 -1.4480  1.2769  1.1651
 9086SOL    HW238892   0.308   4.294   7.089 -0.4282  2.2936  1.4921
 9087SOL     OW38893   0.678   1.826   5.792  0.0301 -0.3147 -0.0972
 9087SOL    HW138894   0.705   1.902   5.741 -0.5668 -0.2804 -0.3645
 9087SOL    HW238895   0.601   1.859   5.839 -0.2348  0.1802 -0.8810
 9088SOL     OW38896   4.506   2.309  12.523 -0.1783 -0.1352 -0.1242
 9088SOL    HW138897   4.575   2.296  12.588  1.0367 -2.4629 -1.9079
 9088SOL    HW238898   4.494   2.404  12.526 -2.2697 -0.3415 -2.0859
 9089SOL     OW38899   3.953   3.955   4.454 -0.0938 -0.1592 -0.6657
 9089SOL    HW138900   3.934   3.908   4.535  1.4666 -1.0555 -0.8209
 9089SOL    HW238901   3.991   4.035   4.492 -0.2790 -0.8315  0.9233
 9090SOL     OW38902   0.028   2.429   7.954 -0.1446 -0.1658 -0.4728
 9090SOL    HW138903   4.739   2.366   7.888  0.9948  1.7037 -2.7718
 9090SOL    HW238904   0.106   2.387   7.990  0.2964  1.2060  0.2069
 9091SOL     OW38905   3.142   1.958   5.241  0.0453 -0.9936  0.1335
 9091SOL    HW138906   3.238   1.968   5.238  0.1098 -0.3016  4.0792
 9091SOL    HW238907   3.121   1.935   5.150 -1.4211 -0.3614  0.3141
 9092SOL     OW38908   4.443   1.218   9.856 -0.0723 -0.4941 -0.6180
 9092SOL    HW138909   4.493   1.300   9.862 -1.0407  0.0037  0.6701
 9092SOL    HW238910   4.382   1.237   9.927 -0.9885 -1.5655 -1.1189
 9093SOL     OW38911   4.105   3.153   5.557  0.1053 -0.0074 -0.3323
 9093SOL    HW138912   4.043   3.215   5.520  0.1791  1.0971  1.4211
 9093SOL    HW238913   4.158   3.219   5.601 -1.0812  0.4751  0.3694
 9094SOL     OW38914   3.170   0.145  16.109  0.7337 -0.2656  0.1050
 9094SOL    HW138915   3.117   0.160  16.031  1.0574  0.1791 -0.0290
 9094SOL    HW238916   3.115   0.186  16.176 -1.1466  1.1153 -2.2890
 9095SOL     OW38917   4.361   0.504   3.001 -0.2960  0.2194  0.5758
 9095SOL    HW138918   4.358   0.599   2.992  2.5962  0.5218  2.5311
 9095SOL    HW238919   4.293   0.472   2.942  0.7959 -0.3209 -0.4160
 9096SOL     OW38920   2.181   3.986   3.948 -0.1391  0.0903 -0.2587
 9096SOL    HW138921   2.182   3.997   4.043  0.1912  2.4179 -0.5250
 9096SOL    HW238922   2.160   3.893   3.938 -1.1525  0.3967 -1.0466
 9097SOL     OW38923   1.377   0.606   6.316  0.3487 -0.0079  0.3801
 9097SOL    HW138924   1.357   0.565   6.400 -3.0486  1.7794  0.4510
 9097SOL    HW238925   1.355   0.540   6.250 -0.3818 -1.7021  2.3169
 9098SOL     OW38926   4.618   4.116   5.024  0.4422  0.9079 -0.0042
 9098SOL    HW138927   4.591   4.125   5.116  2.5821  0.2975  0.6894
 9098SOL    HW238928   4.625   4.021   5.025  2.3702  1.0670  1.9071
 9099SOL     OW38929   1.031   2.561   3.566  0.1118  0.0382 -0.7041
 9099SOL    HW138930   1.076   2.477   3.572  0.0388  0.0745  0.3534
 9099SOL    HW238931   1.054   2.591   3.478 -1.6132  0.2460 -1.0858
 9100SOL     OW38932   4.335   4.494   2.328  0.0296 -0.3822 -0.0601
 9100SOL    HW138933   4.426   4.509   2.303 -0.2571  0.3555 -0.6719
 9100SOL    HW238934   4.287   4.491   2.245 -0.3591  2.0516  0.0734
 9101SOL     OW38935   3.893   0.389  12.146 -0.6483 -0.0496  0.3540
 9101SOL    HW138936   3.909   0.346  12.062  1.0802  0.5669  0.3571
 9101SOL    HW238937   3.869   0.476  12.114 -0.1950  0.2718  0.8879
 9102SOL     OW38938   1.999   4.588  16.758 -0.2067 -0.4779  0.0248
 9102SOL    HW138939   1.990   4.494  16.746  2.8016 -0.8732  0.9281
 9102SOL    HW238940   2.081   4.599  16.805  0.0481  0.9123 -0.7494
 9103SOL     OW38941   0.755   2.417  14.213  0.3109 -0.4393  0.3736
 9103SOL    HW138942   0.707   2.364  14.148  0.1424  0.7726 -0.5051
 9103SOL    HW238943   0.697   2.406  14.288 -0.2519  0.7223  0.1185
 9104SOL     OW38944   3.673   4.369   4.274 -0.3968 -0.9737  0.0865
 9104SOL    HW138945   3.626   4.418   4.208  1.0130  0.9508  0.4969
 9104SOL    HW238946   3.634   4.401   4.355 -0.2759 -1.5254  0.3642
 9105SOL     OW38947   2.237   0.902   8.006 -0.6170 -0.9810  0.4570
 9105SOL    HW138948   2.324   0.895   7.966 -1.1256 -1.0681 -0.6359
 9105SOL    HW238949   2.243   0.870   8.096  1.5361 -1.6073  0.1067
 9106SOL     OW38950   3.532   0.745   6.982  0.0804 -0.2249 -0.3313
 9106SOL    HW138951   3.624   0.768   6.994 -0.4525  0.2102  2.8876
 9106SOL    HW238952   3.514   0.827   6.936  1.0999  1.5389  2.3662
 9107SOL     OW38953   3.504   3.722  10.988  0.2385 -0.1890 -0.2500
 9107SOL    HW138954   3.545   3.724  11.074  1.4452  3.3003 -0.9014
 9107SOL    HW238955   3.425   3.669  11.002 -0.3659  1.6293  3.1806
 9108SOL     OW38956   0.052   1.025   4.060 -0.0580  0.4568 -0.5584
 9108SOL    HW138957   0.067   1.018   4.155  1.8494  0.5540 -0.8531
 9108SOL    HW238958   0.119   1.088   4.036  0.1436  0.4601 -0.0020
 9109SOL     OW38959   0.166   1.828   8.204 -0.2470  0.2145  0.0124
 9109SOL    HW138960   0.096   1.763   8.196 -0.0635 -0.0724  0.7690
 9109SOL    HW238961   0.121   1.894   8.150 -1.3164 -0.3050  0.2610
 9110SOL     OW38962   4.696   0.232   1.174 -0.6545  0.1125 -0.0924
 9110SOL    HW138963   0.013   0.281   1.113 -0.8687 -1.1065 -1.2656
 9110SOL    HW238964   4.730   0.267   1.256 -0.9744  0.8353 -0.2670
 9111SOL     OW38965   1.146   2.933   4.662 -0.5391 -0.3205 -0.4271
 9111SOL    HW138966   1.115   2.847   4.691  1.4662 -1.1700 -0.7405
 9111SOL    HW238967   1.185   2.914   4.576 -1.6382  0.5477 -1.1046
 9112SOL     OW38968   2.211   2.317  10.163 -0.1788 -0.3124 -0.1485
 9112SOL    HW138969   2.158   2.244  10.194 -3.2094  1.7897 -0.3075
 9112SOL    HW238970   2.162   2.347  10.086 -0.6812 -0.1551  0.2282
 9113SOL     OW38971   2.183   0.707  14.980 -0.2429  0.3677  0.1110
 9113SOL    HW138972   2.264   0.687  15.028  0.6974 -1.0362 -2.0480
 9113SOL    HW238973   2.223   0.753  14.907 -0.8825  1.5273  0.4953
 9114SOL     OW38974   0.271   2.661  11.343 -0.3046  0.1073 -0.8136
 9114SOL    HW138975   0.205   2.636  11.279  0.2673 -0.1573 -1.2930
 9114SOL    HW238976   0.282   2.755  11.331 -1.6678  0.1946 -1.3688
 9115SOL     OW38977   3.400   0.452  17.701  0.2872  0.1978 -0.3411
 9115SOL    HW138978   3.397   0.512  17.626  1.6019 -0.1792 -0.6896
 9115SOL    HW238979   3.347   0.501   0.009  0.4693 -0.2373  0.1593
 9116SOL     OW38980   2.025   3.158   3.148 -0.2147  0.4142  0.7548
 9116SOL    HW138981   1.945   3.211   3.141  0.2642  0.9315 -0.8758
 9116SOL    HW238982   2.093   3.225   3.143  0.5122 -0.1907  2.5529
 9117SOL     OW38983   4.735   4.316   9.576 -0.8766 -0.3232 -0.4423
 9117SOL    HW138984   0.060   4.387   9.563 -1.7388  0.9476  2.1645
 9117SOL    HW238985   4.682   4.344   9.651 -0.6974 -1.8725  0.2696
 9118SOL     OW38986   0.108   3.520  10.139  0.3846  0.2829 -0.2461
 9118SOL    HW138987   0.143   3.461  10.206 -0.7006  0.4621  0.4840
 9118SOL    HW238988   0.014   3.504  10.143  0.5901 -0.8108  0.0191
 9119SOL     OW38989   0.333   0.069   8.834  0.5928  0.2431 -0.0718
 9119SOL    HW138990   0.403   0.126   8.866  3.0524 -3.4190  1.1472
 9119SOL    HW238991   0.361   4.719   8.857  1.5617  0.8844  1.2500
 9120SOL     OW38992   1.320   1.883   4.504  0.0330 -0.1367 -0.3453
 9120SOL    HW138993   1.313   1.877   4.599  1.5151 -3.5098 -0.4740
 9120SOL    HW238994   1.237   1.923   4.477 -0.4383 -1.8006 -1.3341
 9121SOL     OW38995   0.137   3.085  11.598  0.3278 -0.3846 -0.2004
 9121SOL    HW138996   0.053   3.083  11.644 -0.9392 -0.5839 -2.5225
 9121SOL    HW238997   0.176   3.005  11.633 -0.0552 -0.3642  0.2710
 9122SOL     OW38998   4.481   1.615   4.862 -0.2302 -0.4124 -0.2827
 9122SOL    HW138999   4.508   1.705   4.880 -2.0454  0.0739 -0.0741
 9122SOL    HW239000   4.404   1.641   4.812  0.2093  1.9405  0.2715
 9123SOL     OW39001   3.611   1.287   1.236  0.0955  0.7729 -0.4367
 9123SOL    HW139002   3.521   1.256   1.236  0.2861  0.2133 -0.3060
 9123SOL    HW239003   3.652   1.224   1.296 -0.1450  1.4036  0.3810
 9124SOL     OW39004   3.509   2.263  17.382 -0.3259 -0.1100 -0.0418
 9124SOL    HW139005   3.482   2.305  17.463 -0.4977  0.1563 -0.2351
 9124SOL    HW239006   3.503   2.342  17.328 -2.6794  0.3237  0.8684
 9125SOL     OW39007   0.234   2.877   6.075  0.5248 -0.5676  0.5611
 9125SOL    HW139008   0.201   2.946   6.017 -0.4744 -0.0827  1.6975
 9125SOL    HW239009   0.324   2.907   6.087  0.1615  0.6441  0.2507
 9126SOL     OW39010   3.493   4.598  14.104 -0.3110 -0.3094  0.2061
 9126SOL    HW139011   3.565   4.557  14.151 -0.1809  0.5681  0.7886
 9126SOL    HW239012   3.503   4.550  14.022 -2.8870 -0.8111  0.1661
 9127SOL     OW39013   3.150   1.944   2.653 -0.4212 -0.3417  0.3367
 9127SOL    HW139014   3.199   1.888   2.714 -0.9892 -1.2776 -0.0556
 9127SOL    HW239015   3.060   1.940   2.686 -1.2331 -0.0018 -1.8369
 9128SOL     OW39016   4.328   4.485  12.916  0.5409  0.1171 -0.4173
 9128SOL    HW139017   4.240   4.509  12.945  0.3576  1.6038 -2.2006
 9128SOL    HW239018   4.372   4.470  13.000 -0.1975 -2.6823 -0.5010
 9129SOL     OW39019   3.303   2.044   6.731  0.0714 -0.1678  0.2989
 9129SOL    HW139020   3.343   1.959   6.750  2.3436  0.1498 -2.9616
 9129SOL    HW239021   3.227   2.013   6.681 -1.6774  0.9959  2.2384
 9130SOL     OW39022   1.333   1.311   1.824 -0.5015  0.2519 -0.3451
 9130SOL    HW139023   1.307   1.303   1.915 -0.5849 -0.4637 -0.4375
 9130SOL    HW239024   1.254   1.334   1.775  0.6946  3.5230 -0.7887
 9131SOL     OW39025   1.979   2.388   3.784  1.0263 -0.2407  0.2753
 9131SOL    HW139026   1.930   2.452   3.733 -0.5202 -0.2979  1.6815
 9131SOL    HW239027   1.909   2.323   3.780  0.4506  0.2411  2.8870
 9132SOL     OW39028   4.070   0.590   9.713  0.0674 -0.1055  0.8194
 9132SOL    HW139029   4.134   0.639   9.764  2.1643 -1.7970 -0.2033
 9132SOL    HW239030   4.000   0.588   9.778  1.4830 -0.7174  2.3204
 9133SOL     OW39031   2.594   3.506   1.698 -0.3366  0.3811  0.2890
 9133SOL    HW139032   2.547   3.435   1.742  1.9327 -2.0053 -1.0965
 9133SOL    HW239033   2.556   3.506   1.610 -2.7257  0.6507  1.3276
 9134SOL     OW39034   2.819   2.973  10.162  0.2459 -0.0847  0.4807
 9134SOL    HW139035   2.758   2.906  10.194 -0.0321 -0.1536 -0.1893
 9134SOL    HW239036   2.779   2.999  10.079 -0.8179 -0.9397  0.7267
 9135SOL     OW39037   0.071   2.897  12.667  0.6190  0.3392 -1.2524
 9135SOL    HW139038   0.150   2.844  12.681  0.2941  0.0769 -0.4078
 9135SOL    HW239039   0.008   2.830  12.692  1.9945  0.2492  1.9600
 9136SOL     OW39040   1.406   4.453   6.051 -0.1248  0.4329 -0.1602
 9136SOL    HW139041   1.464   4.458   6.126 -1.8565  0.5063  1.1736
 9136SOL    HW239042   1.459   4.453   5.971 -1.4905 -0.6627 -1.0786
 9137SOL     OW39043   0.329   3.965   7.537 -0.2993 -0.0140  0.0185
 9137SOL    HW139044   0.265   3.910   7.582 -1.3835 -0.0054 -1.5033
 9137SOL    HW239045   0.400   3.904   7.520  0.3329  0.7561 -0.1190
 9138SOL     OW39046   3.006   3.274  15.995  0.5199 -0.7044  0.2873
 9138SOL    HW139047   2.923   3.228  15.985 -1.3469  1.8667  4.1935
 9138SOL    HW239048   3.014   3.278  16.090 -1.0293  0.4178  0.3687
 9139SOL     OW39049   0.788   2.895   6.610 -0.3207 -0.1164  0.0130
 9139SOL    HW139050   0.790   2.865   6.701  2.8818 -0.1853 -0.0898
 9139SOL    HW239051   0.869   2.945   6.612 -1.6194  2.0486 -1.3755
 9140SOL     OW39052   0.374   3.711   9.991 -0.5646  0.1901 -0.2868
 9140SOL    HW139053   0.311   3.650   9.952  1.9529 -1.0322 -2.4895
 9140SOL    HW239054   0.322   3.753  10.059 -1.4943 -0.6793 -0.4513
 9141SOL     OW39055   2.055   0.240   5.058  0.0709  0.3619  0.2646
 9141SOL    HW139056   2.095   0.176   5.116 -1.5892  1.5825  2.7519
 9141SOL    HW239057   2.128   0.267   5.002  0.0537 -1.2094 -0.5257
 9142SOL     OW39058   0.746   2.975   4.397  0.1228  0.5870  0.0591
 9142SOL    HW139059   0.695   3.047   4.434 -0.8270  0.6097 -1.3102
 9142SOL    HW239060   0.790   2.953   4.479  0.0498 -0.6251 -0.2251
 9143SOL     OW39061   3.961   1.498   6.394  0.2928 -0.0702  0.3646
 9143SOL    HW139062   3.906   1.559   6.344  2.1205  0.3316 -1.1553
 9143SOL    HW239063   4.049   1.518   6.362 -0.0099 -0.9673 -1.0455
 9144SOL     OW39064   3.867   0.449  17.448  0.2908 -0.1040  0.0100
 9144SOL    HW139065   3.805   0.454  17.522  1.7718 -1.2338  1.3348
 9144SOL    HW239066   3.798   0.418  17.389  0.8836  0.5959 -1.0322
 9145SOL     OW39067   1.467   1.863   2.555  0.7049 -0.0631 -0.6239
 9145SOL    HW139068   1.417   1.908   2.623 -0.5037 -2.7977  0.2869
 9145SOL    HW239069   1.519   1.938   2.525 -0.1923  1.0765  0.6431
 9146SOL     OW39070   2.808   2.231  14.383 -0.2070 -0.3626  0.2159
 9146SOL    HW139071   2.891   2.188  14.365 -1.8316 -3.1790 -0.5406
 9146SOL    HW239072   2.841   2.304  14.435  0.1944 -0.2089 -0.2494
 9147SOL     OW39073   1.824   4.520   8.103 -0.3003  0.3936 -0.0821
 9147SOL    HW139074   1.843   4.581   8.032  0.4333  0.0072 -0.2176
 9147SOL    HW239075   1.913   4.494   8.124  0.8452  2.7852 -2.0858
 9148SOL     OW39076   3.307   0.037   7.549 -0.1301  0.3313  0.0236
 9148SOL    HW139077   3.268   0.052   7.635  0.3204  0.2072  0.2473
 9148SOL    HW239078   3.232   0.066   7.497 -1.2773 -2.7641 -0.0700
 9149SOL     OW39079   1.325   1.789   8.121  0.1480 -0.2112 -0.5057
 9149SOL    HW139080   1.305   1.843   8.198 -1.2206  1.5717 -2.1097
 9149SOL    HW239081   1.382   1.839   8.064  0.9845 -2.7051 -1.8417
 9150SOL     OW39082   1.137   4.723   6.776  0.4461 -0.7116 -0.1043
 9150SOL    HW139083   1.093   0.048   6.721  0.1060 -0.3206  0.6166
 9150SOL    HW239084   1.148   0.035   6.856  0.9468 -1.3139  0.2119
 9151SOL     OW39085   0.876   4.377  13.745  0.6013  0.3801 -0.2410
 9151SOL    HW139086   0.828   4.457  13.727  0.9192  1.1810  2.5035
 9151SOL    HW239087   0.923   4.373  13.662  0.7949  2.5361 -0.2270
 9152SOL     OW39088   2.003   1.757   6.528  0.3584  0.4055  0.4920
 9152SOL    HW139089   2.013   1.844   6.489 -0.8835 -0.4163 -1.6792
 9152SOL    HW239090   1.915   1.735   6.498  0.7882  0.7920 -1.0345
 9153SOL     OW39091   0.461   2.567   5.459 -0.6561 -0.0012  0.0024
 9153SOL    HW139092   0.533   2.603   5.408 -0.3146  0.0574  0.5344
 9153SOL    HW239093   0.388   2.619   5.425  0.5165  1.1652 -0.7304
 9154SOL     OW39094   0.367   3.553   5.266 -0.2101 -0.1172 -0.1947
 9154SOL    HW139095   0.370   3.642   5.232  0.3322  0.3032  0.9556
 9154SOL    HW239096   0.457   3.522   5.274 -0.2305 -0.5417 -1.6093
 9155SOL     OW39097   3.584   0.923  16.105  0.2259 -0.1906  0.1533
 9155SOL    HW139098   3.652   0.859  16.124 -0.3515 -1.2609 -1.4454
 9155SOL    HW239099   3.595   0.945  16.013  1.1510 -1.9062 -0.1189
 9156SOL     OW39100   2.868   3.659   7.722  0.2175 -0.0175 -0.3365
 9156SOL    HW139101   2.950   3.612   7.737  0.0188  0.0736  1.0146
 9156SOL    HW239102   2.839   3.608   7.646  1.0760 -1.7047  0.4617
 9157SOL     OW39103   0.043   1.250  13.767  0.1692 -0.0404  0.1389
 9157SOL    HW139104   0.030   1.189  13.694 -0.2933 -0.8439  0.8919
 9157SOL    HW239105   0.017   1.328  13.718  0.6535 -1.5401 -2.5127
 9158SOL     OW39106   3.816   1.127   9.247  0.4211 -0.3645 -0.2568
 9158SOL    HW139107   3.733   1.145   9.291  1.4956 -0.9618  2.0483
 9158SOL    HW239108   3.835   1.212   9.208 -2.0151  0.2674 -0.0928
 9159SOL     OW39109   2.233   4.507   7.051 -0.2192 -0.2695  0.6298
 9159SOL    HW139110   2.322   4.525   7.082 -0.8107  2.5203  0.7571
 9159SOL    HW239111   2.245   4.421   7.012  3.9175  1.1561 -1.2405
 9160SOL     OW39112   0.583   1.060   1.598  0.3970  0.3266  0.0641
 9160SOL    HW139113   0.492   1.091   1.597 -0.4920 -2.2715 -1.8733
 9160SOL    HW239114   0.588   1.059   1.693  2.0233 -1.3276 -0.0457
 9161SOL     OW39115   0.661   3.181   7.902 -0.2029  0.0373 -0.6222
 9161SOL    HW139116   0.647   3.235   7.824  1.2345  1.9569  0.4261
 9161SOL    HW239117   0.571   3.152   7.914  0.1035 -0.2853  0.9608
 9162SOL     OW39118   0.510   4.632   3.391 -0.0616 -0.2122  0.6659
 9162SOL    HW139119   0.431   4.579   3.399  0.3664 -0.7161  1.4487
 9162SOL    HW239120   0.495   4.678   3.473  0.0610 -1.4363  1.3737
 9163SOL     OW39121   2.821   4.142  12.929 -0.0317  0.0365 -0.2008
 9163SOL    HW139122   2.784   4.230  12.930 -0.4060 -0.1236 -0.0136
 9163SOL    HW239123   2.818   4.116  13.021 -0.7790 -0.9552 -0.4975
 9164SOL     OW39124   1.685   1.687  12.654 -0.4905 -0.7897  0.1037
 9164SOL    HW139125   1.711   1.758  12.713 -1.6713  1.5279 -2.1962
 9164SOL    HW239126   1.670   1.742  12.577 -0.5753 -0.7450  0.1515
 9165SOL     OW39127   2.300   1.013   5.801  0.1759 -0.6251 -0.2716
 9165SOL    HW139128   2.262   1.101   5.801 -1.2246 -1.2316  0.8358
 9165SOL    HW239129   2.362   1.028   5.873  1.1588 -0.3260 -1.1865
 9166SOL     OW39130   2.711   1.709   6.615  0.0677 -0.1028  0.3731
 9166SOL    HW139131   2.646   1.644   6.586 -0.6903  0.1373  1.5064
 9166SOL    HW239132   2.731   1.756   6.534  0.6623  0.6757  0.9711
 9167SOL     OW39133   3.617   1.198   2.223  0.1149 -0.6454  0.5972
 9167SOL    HW139134   3.622   1.293   2.236 -1.3608 -0.8836  3.0163
 9167SOL    HW239135   3.692   1.188   2.164  0.5304 -1.3382  1.2398
 9168SOL     OW39136   0.303   4.601  10.546  0.7290  0.1411  0.4634
 9168SOL    HW139137   0.377   4.623  10.602  1.3015 -0.6934  0.0308
 9168SOL    HW239138   0.238   4.571  10.610 -0.8626  0.3049 -1.0720
 9169SOL     OW39139   2.239   3.538   3.743  0.0351 -0.2953  0.7797
 9169SOL    HW139140   2.232   3.443   3.751 -1.2532 -0.3505 -1.0853
 9169SOL    HW239141   2.327   3.544   3.706  0.5753 -0.3543  2.0236
 9170SOL     OW39142   0.880   0.747  14.958 -0.2370 -0.3685  0.0437
 9170SOL    HW139143   0.916   0.740  15.046 -0.1303 -0.2447  0.0083
 9170SOL    HW239144   0.860   0.655  14.941  0.6298 -0.4631 -0.4656
 9171SOL     OW39145   2.724   1.808   8.948  0.4469  0.0193 -0.4174
 9171SOL    HW139146   2.781   1.732   8.949  0.9826  0.4439  1.4706
 9171SOL    HW239147   2.783   1.875   8.913  1.1065 -0.2906  0.1158
 9172SOL     OW39148   0.384   1.233   8.760  0.0565  0.1487 -0.1673
 9172SOL    HW139149   0.308   1.228   8.817 -1.8287 -0.1024 -2.7267
 9172SOL    HW239150   0.432   1.153   8.779  0.8012  0.6146 -0.0685
 9173SOL     OW39151   3.188   3.846   8.178 -0.2496  0.1612  0.7426
 9173SOL    HW139152   3.145   3.817   8.097 -0.9706 -2.5558  2.1200
 9173SOL    HW239153   3.156   3.936   8.182  2.4755  1.3451 -3.4065
 9174SOL     OW39154   0.755   4.333   9.034 -0.1370 -0.4541 -0.1135
 9174SOL    HW139155   0.847   4.358   9.043 -0.3645  0.5486 -0.5953
 9174SOL    HW239156   0.733   4.407   8.977  1.2879  0.5505  0.6256
 9175SOL     OW39157   1.342   3.739  10.230  0.2916 -0.2121 -0.1205
 9175SOL    HW139158   1.433   3.712  10.216 -0.2095 -1.7541 -0.4067
 9175SOL    HW239159   1.338   3.757  10.324 -3.1422  0.1439 -0.3460
 9176SOL     OW39160   1.850   3.253   7.149  0.5325 -0.0827 -0.5264
 9176SOL    HW139161   1.828   3.261   7.056 -0.5465 -1.1225 -0.3602
 9176SOL    HW239162   1.778   3.306   7.182  0.1551 -0.5609 -0.5800
 9177SOL     OW39163   0.227   4.698   8.038  0.4428 -0.0783 -0.4201
 9177SOL    HW139164   0.242   0.012   8.116  0.0297  0.5522 -0.7661
 9177SOL    HW239165   0.200   4.614   8.074 -2.5153  1.0857  0.0991
 9178SOL     OW39166   0.123   0.434   5.673 -0.1777  0.4523  0.3103
 9178SOL    HW139167   0.067   0.485   5.732 -2.3760  2.2704 -3.3205
 9178SOL    HW239168   0.125   0.486   5.592  0.8640 -3.1687 -1.9797
 9179SOL     OW39169   4.723   2.143   6.887  0.0924  0.2092 -0.2994
 9179SOL    HW139170   0.079   2.130   6.880 -0.0575  0.0464 -2.0955
 9179SOL    HW239171   4.694   2.079   6.952 -1.4127  1.1048 -0.1096
 9180SOL     OW39172   0.696   3.423  13.345  0.1554  0.1773 -0.4706
 9180SOL    HW139173   0.760   3.353  13.331  1.7559  1.5036  0.3247
 9180SOL    HW239174   0.648   3.384  13.419  2.1035  0.2146  0.8180
 9181SOL     OW39175   0.221   3.918  13.477  0.6248  0.0554  0.3728
 9181SOL    HW139176   0.163   3.993  13.473 -0.0052 -0.3287  2.2931
 9181SOL    HW239177   0.164   3.855  13.433  1.4827  0.3818 -1.2008
 9182SOL     OW39178   2.975   3.524  16.990  0.6534  0.0147 -0.3325
 9182SOL    HW139179   3.032   3.572  16.930 -0.3739  1.1098 -0.4353
 9182SOL    HW239180   3.029   3.447  17.006  1.2461  0.4169 -0.3823
 9183SOL     OW39181   0.191   3.450   8.019  0.2521  0.4064 -0.2204
 9183SOL    HW139182   0.159   3.371   7.977 -1.4283  0.2299  1.3837
 9183SOL    HW239183   0.283   3.434   8.000  0.5300  0.4724  1.1165
 9184SOL     OW39184   2.590   1.480   8.994 -0.3189 -0.3775  0.0848
 9184SOL    HW139185   2.528   1.528   9.049 -0.7801 -2.5989  1.4763
 9184SOL    HW239186   2.582   1.391   9.029  1.4264 -0.1014  1.2329
 9185SOL     OW39187   0.287   1.844  11.920 -0.9426 -0.1625 -0.0871
 9185SOL    HW139188   0.354   1.831  11.987 -1.1414 -1.8894 -0.2301
 9185SOL    HW239189   0.231   1.767  11.929 -0.3692 -0.5450  0.2417
 9186SOL     OW39190   1.852   0.541  12.820  0.1423 -0.3041  0.4650
 9186SOL    HW139191   1.943   0.544  12.791  0.8720  0.3721  2.8986
 9186SOL    HW239192   1.842   0.634  12.840 -4.0175  0.0103 -2.8699
 9187SOL     OW39193   0.743   3.122   6.333 -1.0092 -0.2707  0.0015
 9187SOL    HW139194   0.735   3.135   6.239  0.7072 -0.6486 -0.1961
 9187SOL    HW239195   0.705   3.034   6.329 -0.4071 -0.5065 -0.4291
 9188SOL     OW39196   3.994   0.239  10.488 -0.2838 -0.1919 -0.3632
 9188SOL    HW139197   3.966   0.159  10.442  0.2191 -0.2489 -0.5627
 9188SOL    HW239198   3.929   0.232  10.559 -1.2276 -1.1451 -1.3090
 9189SOL     OW39199   0.648   2.306  13.014  0.3476 -0.4431 -0.1590
 9189SOL    HW139200   0.703   2.297  13.091 -0.9632  1.3105  0.9815
 9189SOL    HW239201   0.716   2.322  12.949  0.6992  2.3615  0.8686
 9190SOL     OW39202   3.350   3.543   7.026 -0.2576 -0.6710  0.8612
 9190SOL    HW139203   3.403   3.596   6.966 -1.5090  0.1767  0.5104
 9190SOL    HW239204   3.363   3.458   6.985 -0.4172 -0.7884  1.0587
 9191SOL     OW39205   1.809   2.144   1.487 -0.0923  0.1439  0.5670
 9191SOL    HW139206   1.866   2.140   1.409  0.8863  1.6302  1.2186
 9191SOL    HW239207   1.723   2.124   1.450  1.8716 -2.0928 -2.8280
 9192SOL     OW39208   1.161   4.576  13.646 -0.2270  0.5018 -0.7928
 9192SOL    HW139209   1.100   4.638  13.606  0.6433  0.5115 -2.1477
 9192SOL    HW239210   1.124   4.487  13.647  0.2023  0.3244 -0.4686
 9193SOL     OW39211   4.718   3.956   2.985  0.0731  0.1332 -0.4191
 9193SOL    HW139212   4.729   3.953   2.890 -1.4917 -0.5869 -0.5586
 9193SOL    HW239213   0.071   3.963   3.012  0.3115 -1.1872 -0.9089
 9194SOL     OW39214   2.319   3.633   2.852  0.1492 -0.4242 -0.2648
 9194SOL    HW139215   2.323   3.729   2.847  0.7301 -0.4235  0.1561
 9194SOL    HW239216   2.225   3.617   2.853  0.2651 -1.2190 -1.2399
 9195SOL     OW39217   0.661   4.582  12.483  0.6278 -0.4238 -0.1304
 9195SOL    HW139218   0.624   4.494  12.479  1.1275 -0.5753 -1.3440
 9195SOL    HW239219   0.751   4.565  12.459  1.4802  2.1246  1.2396
 9196SOL     OW39220   2.170   1.191   2.471 -0.5089 -0.1113 -0.3441
 9196SOL    HW139221   2.173   1.183   2.375 -0.3532 -0.1153 -0.3377
 9196SOL    HW239222   2.076   1.207   2.477 -0.7872 -2.2815  0.9125
 9197SOL     OW39223   3.093   0.179   1.520  0.2694 -0.1327 -0.3485
 9197SOL    HW139224   3.049   0.103   1.482 -0.5383  0.5018 -0.6767
 9197SOL    HW239225   3.151   0.206   1.449 -0.3516 -0.0775 -0.8355
 9198SOL     OW39226   4.412   3.281   8.396 -0.2704  0.0570 -0.3810
 9198SOL    HW139227   4.460   3.203   8.368  2.8379  1.3587  1.3984
 9198SOL    HW239228   4.413   3.269   8.491  0.3466 -0.6299 -0.4731
 9199SOL     OW39229   2.723   4.677   4.037 -0.3608  0.1405  0.1484
 9199SOL    HW139230   2.815   4.706   4.039 -0.4878  0.6470 -1.3941
 9199SOL    HW239231   2.720   4.650   3.946  3.9129  1.8657 -0.5447
 9200SOL     OW39232   3.336   3.738  10.085 -0.3416  0.5170 -0.1858
 9200SOL    HW139233   3.244   3.715  10.096  0.5317 -0.0182  6.0955
 9200SOL    HW239234   3.346   3.724   9.991 -0.8882 -0.8355 -0.0418
 9201SOL     OW39235   0.607   0.622   3.612 -0.5861 -0.3427  0.1359
 9201SOL    HW139236   0.638   0.534   3.590 -0.8833 -0.1467 -1.0763
 9201SOL    HW239237   0.688   0.672   3.604 -0.2179 -0.6341  2.0067
 9202SOL     OW39238   2.484   1.648   3.843  0.1526 -0.6576  0.2478
 9202SOL    HW139239   2.465   1.741   3.855 -1.9615 -1.0269 -0.1199
 9202SOL    HW239240   2.394   1.617   3.834 -0.7161  1.5315  1.4688
 9203SOL     OW39241   4.352   2.748   0.428 -0.7284  0.1049 -0.1831
 9203SOL    HW139242   4.308   2.671   0.464 -0.6711 -0.3313 -1.0630
 9203SOL    HW239243   4.388   2.791   0.506  0.2908 -3.9188  1.5509
 9204SOL     OW39244   3.271   4.186   6.111 -0.0505  0.0018  0.5130
 9204SOL    HW139245   3.248   4.269   6.152  0.4687 -0.2101  1.2328
 9204SOL    HW239246   3.249   4.124   6.180  1.6669 -1.5976 -0.3816
 9205SOL     OW39247   1.844   1.957   4.149  0.1334  0.2247  0.2066
 9205SOL    HW139248   1.866   1.955   4.055 -3.0039 -1.6530 -0.5018
 9205SOL    HW239249   1.793   1.876   4.156  1.6514 -0.7986 -0.5783
 9206SOL     OW39250   3.358   2.718   0.392 -0.8784 -0.0186 -0.4367
 9206SOL    HW139251   3.340   2.812   0.388  0.4399  0.2655  0.4818
 9206SOL    HW239252   3.268   2.687   0.380 -1.1887 -0.0085  1.8151
 9207SOL     OW39253   0.586   3.457   6.927 -0.1656  0.8533 -0.1617
 9207SOL    HW139254   0.642   3.524   6.888  0.0445  1.9175  1.9992
 9207SOL    HW239255   0.564   3.506   7.006 -1.6340  1.3965 -0.8942
 9208SOL     OW39256   4.150   0.625   4.583  0.2549 -0.7417 -0.6468
 9208SOL    HW139257   4.097   0.643   4.660 -0.5351 -0.3833 -1.2765
 9208SOL    HW239258   4.224   0.677   4.614  0.3347 -1.1066 -0.2326
 9209SOL     OW39259   1.808   0.388  10.320 -0.4151  0.3089  0.1032
 9209SOL    HW139260   1.811   0.358  10.230 -2.2427  0.8111 -0.1317
 9209SOL    HW239261   1.893   0.360  10.354 -0.1515  1.0833  0.0843
 9210SOL     OW39262   0.955   2.578   0.905 -0.4334  0.9438  0.2223
 9210SOL    HW139263   0.931   2.644   0.842  0.3524 -0.0461 -1.1178
 9210SOL    HW239264   0.867   2.549   0.930 -0.3256 -1.1509 -1.7843
 9211SOL     OW39265   0.568   1.340   4.020 -0.0240 -0.2120 -0.2384
 9211SOL    HW139266   0.661   1.360   4.032 -0.1604  1.4013 -1.8488
 9211SOL    HW239267   0.528   1.421   3.988  0.4779  0.3456  0.5521
 9212SOL     OW39268   0.415   4.720   3.907  0.6037 -0.4573 -0.0591
 9212SOL    HW139269   0.409   0.055   3.847  1.3042  0.1807  0.6702
 9212SOL    HW239270   0.492   0.003   3.959  0.7058  2.1668 -1.3561
 9213SOL     OW39271   3.693   2.458   7.038  0.0835 -0.0585 -0.1031
 9213SOL    HW139272   3.676   2.365   7.056  0.6865  0.2413  2.0116
 9213SOL    HW239273   3.637   2.500   7.102 -0.1327 -0.9445  0.2887
 9214SOL     OW39274   3.750   1.610  17.059 -0.2916  0.0934  0.1487
 9214SOL    HW139275   3.701   1.682  17.019 -0.2385  1.1812  2.0397
 9214SOL    HW239276   3.834   1.653  17.078 -1.6850  1.9328  2.1439
 9215SOL     OW39277   3.149   2.720  16.092 -0.1585  0.4255  0.1266
 9215SOL    HW139278   3.240   2.714  16.122 -0.4314  2.1056  1.2979
 9215SOL    HW239279   3.153   2.790  16.027 -0.6318 -0.2758 -0.6604
 9216SOL     OW39280   4.069   1.315   9.839 -0.0463  0.0393 -0.2504
 9216SOL    HW139281   4.119   1.249   9.790 -0.3392 -1.6639  1.7253
 9216SOL    HW239282   4.004   1.332   9.770  0.3325  0.5249 -0.4813
 9217SOL     OW39283   1.642   1.991   6.555 -0.4385  0.3041  0.2583
 9217SOL    HW139284   1.559   2.005   6.602 -0.0877 -3.7594  2.0884
 9217SOL    HW239285   1.606   1.951   6.476  3.2108 -0.0906 -1.1612
 9218SOL     OW39286   2.245   4.620   9.955 -0.1965  0.2392 -0.1009
 9218SOL    HW139287   2.210   4.607   9.867  1.9308  1.0470 -1.0538
 9218SOL    HW239288   2.315   4.555   9.951 -0.7913 -0.4783  1.1464
 9219SOL     OW39289   3.215   0.447   5.524  0.2435 -0.1546  0.4226
 9219SOL    HW139290   3.220   0.379   5.591  1.0286 -1.6730 -1.1709
 9219SOL    HW239291   3.309   0.441   5.507  0.5012 -0.4174  1.9997
 9220SOL     OW39292   0.305   4.140   8.477 -0.1306 -0.1602  0.1129
 9220SOL    HW139293   0.334   4.167   8.390 -2.4470 -0.0762 -0.6394
 9220SOL    HW239294   0.311   4.045   8.471 -0.1906 -0.1012 -0.8253
 9221SOL     OW39295   2.320   2.656   7.736  0.2555  0.5340 -0.5306
 9221SOL    HW139296   2.328   2.722   7.668 -1.8912  1.6191  0.2521
 9221SOL    HW239297   2.265   2.709   7.794  0.0570 -2.1102  1.7029
 9222SOL     OW39298   2.878   1.405  14.160  0.5070 -0.2488 -0.4796
 9222SOL    HW139299   2.939   1.341  14.123  1.6954 -1.3301  3.2843
 9222SOL    HW239300   2.863   1.372  14.249  2.1242 -1.0252 -0.4983
 9223SOL     OW39301   1.273   4.269   5.896  0.2178 -0.0225  0.1706
 9223SOL    HW139302   1.222   4.204   5.945 -0.1212  1.1240  1.3612
 9223SOL    HW239303   1.347   4.273   5.957 -0.6721  1.4715  1.1528
 9224SOL     OW39304   1.653   0.006   8.525  0.3250 -0.1488  0.0975
 9224SOL    HW139305   1.734   4.715   8.567  2.1218  3.4644 -0.7787
 9224SOL    HW239306   1.648   4.694   8.444  3.2322 -0.5367  0.1320
 9225SOL     OW39307   1.211   1.093   6.338  0.2724 -0.0393 -0.2933
 9225SOL    HW139308   1.174   1.011   6.373 -0.7592  0.5625  0.0255
 9225SOL    HW239309   1.286   1.053   6.295 -0.3365 -2.1172  0.5286
 9226SOL     OW39310   2.040   4.093   2.278 -0.5726  0.2295  0.2323
 9226SOL    HW139311   1.990   4.011   2.278  1.2382 -0.8941 -0.1769
 9226SOL    HW239312   2.114   4.084   2.218 -2.4945  0.6725 -2.1884
 9227SOL     OW39313   4.501   1.892   4.934 -0.4693  0.2327 -0.0253
 9227SOL    HW139314   4.417   1.881   4.980 -0.9486 -0.9495 -1.1887
 9227SOL    HW239315   4.497   1.985   4.913 -1.7439 -0.1162 -1.3307
 9228SOL     OW39316   3.528   2.520   0.313  0.2833  0.0389 -0.2318
 9228SOL    HW139317   3.475   2.591   0.348 -0.0255 -0.3313  0.0509
 9228SOL    HW239318   3.522   2.535   0.218  0.5490  2.5623  0.1510
 9229SOL     OW39319   0.178   3.045   4.387  0.2923 -0.7853  0.4940
 9229SOL    HW139320   0.252   3.009   4.339 -0.0850 -2.1665  0.9577
 9229SOL    HW239321   0.184   2.989   4.464  0.3821 -1.3947  0.0383
 9230SOL     OW39322   0.972   4.561   7.363 -0.5350  0.2351  0.0447
 9230SOL    HW139323   1.032   4.583   7.292  1.4155 -2.8134  0.7564
 9230SOL    HW239324   0.895   4.604   7.327 -0.6493  0.2521  0.3127
 9231SOL     OW39325   1.972   1.762   4.877 -0.2871 -0.1971 -0.6155
 9231SOL    HW139326   1.971   1.853   4.847 -0.5309 -0.4190 -1.2945
 9231SOL    HW239327   1.909   1.766   4.949  2.3521 -1.1041  1.7524
 9232SOL     OW39328   1.882   4.319   3.978 -0.2886 -0.4757 -0.2497
 9232SOL    HW139329   1.900   4.366   4.059  0.2121 -1.2845  0.1145
 9232SOL    HW239330   1.831   4.247   4.014  1.4690 -0.8040  1.6139
 9233SOL     OW39331   2.779   4.456   3.318 -0.1719 -0.0443 -0.5158
 9233SOL    HW139332   2.860   4.472   3.365  0.5996 -0.7550 -1.6065
 9233SOL    HW239333   2.746   4.375   3.356 -1.9769 -0.0652 -2.1029
 9234SOL     OW39334   3.198   1.265   1.558  0.2392  0.0851 -0.0492
 9234SOL    HW139335   3.147   1.305   1.628 -0.6254 -0.0385 -0.5988
 9234SOL    HW239336   3.196   1.331   1.489  0.4230  0.6011  0.4398
 9235SOL     OW39337   0.285   3.525   7.702  0.0015  0.4473  0.5896
 9235SOL    HW139338   0.206   3.553   7.656 -0.4493 -0.5990  0.7235
 9235SOL    HW239339   0.265   3.434   7.722 -0.1741  0.5220  0.7614
 9236SOL     OW39340   4.685   1.448   4.798  0.0903  0.1562 -0.1775
 9236SOL    HW139341   4.639   1.422   4.718 -0.6104 -1.5117  0.7783
 9236SOL    HW239342   4.618   1.511   4.824  1.2227  0.8361  1.1121
 9237SOL     OW39343   2.178   0.127  12.399 -0.6815 -0.3212  0.3561
 9237SOL    HW139344   2.141   0.064  12.460 -1.5859 -0.4469 -0.3197
 9237SOL    HW239345   2.124   0.106  12.322  0.1372  2.6347 -1.0269
 9238SOL     OW39346   4.285   2.165   5.348  0.2855  0.0798  0.4730
 9238SOL    HW139347   4.235   2.211   5.415 -0.5829 -1.1438  0.6671
 9238SOL    HW239348   4.237   2.083   5.333 -1.2013  1.2520 -1.2442
 9239SOL     OW39349   1.997   1.393  13.383  0.6768  0.3603 -0.0355
 9239SOL    HW139350   1.998   1.424  13.474 -0.7865  1.7790 -0.5015
 9239SOL    HW239351   2.008   1.298  13.385  1.4090  0.4446 -0.2057
 9240SOL     OW39352   3.083   2.622   0.832  0.2409  0.3430 -0.8001
 9240SOL    HW139353   3.128   2.652   0.911  0.7425  1.3139 -1.4565
 9240SOL    HW239354   3.151   2.641   0.767 -0.1425  0.6034 -1.1232
 9241SOL     OW39355   3.839   2.133   6.424 -0.4117  0.2019 -0.3963
 9241SOL    HW139356   3.765   2.184   6.390 -2.1792 -2.5043 -0.6131
 9241SOL    HW239357   3.847   2.139   6.519  1.9159 -1.5212 -0.4764
 9242SOL     OW39358   0.656   2.068   0.318 -0.3521 -0.4508  0.1986
 9242SOL    HW139359   0.618   1.980   0.312 -1.4543  0.0928 -0.6450
 9242SOL    HW239360   0.748   2.046   0.332 -0.2871  0.2042  0.7877
 9243SOL     OW39361   2.090   2.735   8.147 -0.3429  0.1737 -0.6672
 9243SOL    HW139362   2.123   2.715   8.059  0.6893 -0.4350 -0.1467
 9243SOL    HW239363   2.098   2.830   8.134 -0.3929  0.6648  3.0055
 9244SOL     OW39364   2.172   3.107   0.652  0.8359  0.2007 -0.1363
 9244SOL    HW139365   2.182   3.080   0.561 -2.4210  0.5163 -0.5956
 9244SOL    HW239366   2.222   3.188   0.640  2.3357 -0.2358  3.2793
 9245SOL     OW39367   2.638   0.886  11.884 -0.3589 -0.3235  0.1154
 9245SOL    HW139368   2.668   0.796  11.888  1.4350  0.3197  0.9750
 9245SOL    HW239369   2.546   0.868  11.863  0.2017 -0.6707 -2.0243
 9246SOL     OW39370   2.834   0.355   5.805 -0.2742  0.0516  0.0254
 9246SOL    HW139371   2.899   0.310   5.751 -1.1809 -1.3281  0.0818
 9246SOL    HW239372   2.752   0.315   5.776  0.2856 -0.2271 -1.1882
 9247SOL     OW39373   3.765   0.275   7.440  0.4213  0.9639  0.0267
 9247SOL    HW139374   3.825   0.329   7.389  1.5207 -1.1663 -0.9799
 9247SOL    HW239375   3.736   0.219   7.367 -0.0698 -0.3917  1.2647
 9248SOL     OW39376   2.484   0.369   8.359 -0.4641  0.7090  0.2934
 9248SOL    HW139377   2.562   0.326   8.394 -1.0743 -1.0232 -0.4732
 9248SOL    HW239378   2.431   0.289   8.366 -0.1909  0.5137  0.0931
 9249SOL     OW39379   0.530   1.659   2.949  0.2090 -0.0439  0.5812
 9249SOL    HW139380   0.507   1.673   2.857  2.5498 -1.4625 -0.2318
 9249SOL    HW239381   0.447   1.673   2.993 -0.9659 -0.8589 -1.3452
 9250SOL     OW39382   2.732   2.091   3.841  0.0549  0.2916 -0.6446
 9250SOL    HW139383   2.722   2.134   3.756 -2.1164 -1.5163 -1.3152
 9250SOL    HW239384   2.824   2.067   3.849  0.6050  1.8998 -2.3168
 9251SOL     OW39385   1.718   0.434   2.016  0.1176 -0.0294  0.1628
 9251SOL    HW139386   1.632   0.421   1.975  0.3581 -2.4010  0.4141
 9251SOL    HW239387   1.696   0.432   2.109  1.8404 -2.3837  0.5217
 9252SOL     OW39388   4.452   4.132  12.229  0.2661 -0.2450  0.5729
 9252SOL    HW139389   4.379   4.070  12.228 -1.3599  1.6511  0.4173
 9252SOL    HW239390   4.461   4.148  12.135 -3.0371 -1.1486  0.0911
 9253SOL     OW39391   0.005   3.235   4.305 -0.3608  0.0234  0.0691
 9253SOL    HW139392   0.060   3.166   4.340  1.0746 -0.2545 -2.7887
 9253SOL    HW239393   4.667   3.187   4.274  0.1160  0.7044 -2.1726
 9254SOL     OW39394   4.513   2.716  17.334 -0.0789  0.0598  0.4112
 9254SOL    HW139395   4.582   2.772  17.368  0.9887 -0.4115 -1.0084
 9254SOL    HW239396   4.560   2.633  17.323 -0.7935 -0.2573 -0.2757
 9255SOL     OW39397   0.482   2.554  14.467 -0.0256 -0.4570 -0.3254
 9255SOL    HW139398   0.431   2.517  14.395 -2.2739 -0.6430  1.3843
 9255SOL    HW239399   0.419   2.590  14.529 -0.9795 -2.8620  0.1138
 9256SOL     OW39400   1.615   2.754  16.642 -0.2038  0.1346  0.1410
 9256SOL    HW139401   1.558   2.684  16.674  0.6295 -0.4832  0.2496
 9256SOL    HW239402   1.613   2.818  16.714  0.1598  0.4347 -0.1144
 9257SOL     OW39403   0.221   4.088   3.069  0.6174  0.3868 -0.1272
 9257SOL    HW139404   0.171   4.109   3.148  0.2893 -1.4809  0.1633
 9257SOL    HW239405   0.295   4.039   3.106 -0.5263 -0.0155  1.5785
 9258SOL     OW39406   3.075   4.460   4.010  0.6856  0.1359 -0.0060
 9258SOL    HW139407   3.134   4.386   4.024 -0.4706 -1.2373 -2.4204
 9258SOL    HW239408   2.993   4.426   4.045 -0.4262  0.3995 -2.3250
 9259SOL     OW39409   1.034   4.310   0.795 -0.0464  0.1361 -0.3927
 9259SOL    HW139410   1.114   4.338   0.838 -0.9221  0.2907  1.1247
 9259SOL    HW239411   1.046   4.215   0.785  0.8471 -0.1662  3.6967
 9260SOL     OW39412   4.560   0.862   3.056  0.3764 -0.4379 -0.0639
 9260SOL    HW139413   4.580   0.770   3.042 -3.1019 -1.2237  0.0365
 9260SOL    HW239414   4.521   0.864   3.144 -0.8657  0.4689 -0.6252
 9261SOL     OW39415   0.492   3.019   6.124 -0.8658 -0.1339 -0.4909
 9261SOL    HW139416   0.554   3.091   6.109  0.4320 -1.0941  0.2104
 9261SOL    HW239417   0.431   3.044   6.193 -1.8409 -2.3179 -0.5684
 9262SOL     OW39418   1.575   4.462   6.832 -0.5877  0.4274  0.8697
 9262SOL    HW139419   1.531   4.547   6.841  0.0517  0.8829 -0.4395
 9262SOL    HW239420   1.617   4.481   6.749  1.6632  2.4375  2.4804
 9263SOL     OW39421   4.273   0.795   1.093  0.1132 -0.4365 -0.1051
 9263SOL    HW139422   4.266   0.709   1.135  1.3767  0.3302  1.6893
 9263SOL    HW239423   4.354   0.781   1.044 -0.0920  0.9393 -0.8260
 9264SOL     OW39424   2.696   1.697   3.004  0.5947 -0.1777 -0.3302
 9264SOL    HW139425   2.786   1.708   2.971  1.0034  2.6147  1.7581
 9264SOL    HW239426   2.703   1.772   3.064  1.1502  0.5041 -1.2345
 9265SOL     OW39427   0.798   1.021  11.802  0.2988  0.2923 -0.5023
 9265SOL    HW139428   0.891   1.043  11.806 -0.3567  3.0987 -1.1885
 9265SOL    HW239429   0.763   1.086  11.742 -0.7229 -1.9031 -2.3115
 9266SOL     OW39430   2.550   2.578  11.927 -0.5033 -0.0446  0.2233
 9266SOL    HW139431   2.615   2.642  11.955 -0.3681 -1.1236  2.4323
 9266SOL    HW239432   2.587   2.492  11.946 -0.1173  0.3252  1.1514
 9267SOL     OW39433   3.379   3.868   5.112  0.1888 -0.2602  0.2787
 9267SOL    HW139434   3.451   3.806   5.124  0.1086 -0.4179 -0.0569
 9267SOL    HW239435   3.359   3.872   5.018  0.1795 -0.8707  0.2523
 9268SOL     OW39436   4.337   3.858  16.900 -0.0378  0.1320  0.2701
 9268SOL    HW139437   4.268   3.885  16.840  1.3838 -1.7816 -2.1832
 9268SOL    HW239438   4.288   3.806  16.964 -2.8207  1.7744 -0.4964
 9269SOL     OW39439   4.372   2.537   2.327 -0.5167  0.1511  0.2103
 9269SOL    HW139440   4.345   2.620   2.367  1.1789  0.2781  1.0949
 9269SOL    HW239441   4.388   2.476   2.399  1.4969  2.6699  1.8744
 9270SOL     OW39442   1.998   1.120   3.898  0.2088 -0.1172  0.2087
 9270SOL    HW139443   2.056   1.186   3.936 -0.0780 -0.5770  1.4562
 9270SOL    HW239444   1.961   1.177   3.831  3.0503  2.5226  0.9256
 9271SOL     OW39445   0.903   2.984   3.420  0.1163  0.6526 -0.0748
 9271SOL    HW139446   0.829   3.038   3.392 -0.2083  0.7415  0.9459
 9271SOL    HW239447   0.878   2.908   3.368  1.9556  0.5413 -0.8141
 9272SOL     OW39448   4.071   1.793   8.430 -0.1362 -0.3260  0.0661
 9272SOL    HW139449   4.157   1.758   8.408 -1.2901 -3.2050  0.0140
 9272SOL    HW239450   4.019   1.715   8.408  2.6531 -2.8356  2.3254
 9273SOL     OW39451   0.243   2.611   6.322  0.3521  0.2177  0.4341
 9273SOL    HW139452   0.231   2.557   6.243  1.4497 -2.0742  1.8431
 9273SOL    HW239453   0.227   2.547   6.391 -0.3687 -0.7213 -0.5884
 9274SOL     OW39454   1.196   0.191   8.023  0.6948  0.3692  0.2181
 9274SOL    HW139455   1.225   0.209   8.112 -0.2297 -0.5978  0.7138
 9274SOL    HW239456   1.168   0.274   7.983 -1.8406 -0.9010 -0.6059
 9275SOL     OW39457   1.401   4.042   8.664  0.5772  0.5403  0.1737
 9275SOL    HW139458   1.368   4.111   8.720 -1.7908 -0.4094 -0.0752
 9275SOL    HW239459   1.324   4.033   8.608  0.9211 -0.0668 -0.2078
 9276SOL     OW39460   2.831   4.586  16.296  0.4120 -0.0858  0.4681
 9276SOL    HW139461   2.795   4.536  16.369 -0.5166  0.0908  0.1299
 9276SOL    HW239462   2.922   4.559  16.307  0.7483 -0.0045 -2.1453
 9277SOL     OW39463   0.310   2.242  12.227  0.2966  0.1089  0.7286
 9277SOL    HW139464   0.342   2.329  12.203 -1.4219  0.3128 -0.8207
 9277SOL    HW239465   0.216   2.258  12.239  0.6291  3.1660 -0.6692
 9278SOL     OW39466   0.801   2.749   6.849  0.4980  0.0438 -0.1654
 9278SOL    HW139467   0.890   2.751   6.884  0.1723  1.5535  0.6044
 9278SOL    HW239468   0.761   2.673   6.891 -1.0963  0.4726 -0.9229
 9279SOL     OW39469   0.553   3.640  11.441  0.1466 -0.5292  0.3486
 9279SOL    HW139470   0.541   3.651  11.535  1.9860 -0.5420  0.5813
 9279SOL    HW239471   0.545   3.733  11.421 -0.2802 -0.8627 -1.0201
 9280SOL     OW39472   0.839   4.733   5.880 -0.0769 -0.1086 -0.5023
 9280SOL    HW139473   0.909   0.057   5.869 -0.5980  0.4346 -0.7006
 9280SOL    HW239474   0.861   4.700   5.967  0.9718 -1.9970 -1.4815
 9281SOL     OW39475   4.698   1.243   2.543 -0.2357 -0.2473  0.4821
 9281SOL    HW139476   4.665   1.308   2.605 -0.5872  1.6884 -1.7187
 9281SOL    HW239477   4.647   1.267   2.466  1.1571 -0.6821 -0.5694
 9282SOL     OW39478   4.249   0.500   6.862  0.3257 -0.2331  0.7863
 9282SOL    HW139479   4.336   0.513   6.823  0.5178  0.0036  1.2843
 9282SOL    HW239480   4.232   0.407   6.849  2.3220 -0.1334 -2.4890
 9283SOL     OW39481   0.699   2.941   8.083  0.7000 -0.2678 -0.3783
 9283SOL    HW139482   0.610   2.956   8.116  0.7444  0.1106 -0.4292
 9283SOL    HW239483   0.713   3.031   8.054 -0.6156  0.5770  1.6166
 9284SOL     OW39484   2.855   3.297   7.961 -0.1278 -0.0975  0.2595
 9284SOL    HW139485   2.817   3.222   7.915  2.1525 -0.8919 -0.3411
 9284SOL    HW239486   2.880   3.249   8.040 -1.3692 -0.1774  0.6059
 9285SOL     OW39487   2.412   4.373   7.502  0.0671 -0.1845  0.3529
 9285SOL    HW139488   2.351   4.431   7.457 -1.4778 -1.8829  0.2559
 9285SOL    HW239489   2.485   4.432   7.518 -1.2333  1.3058  0.7911
 9286SOL     OW39490   0.468   4.481   9.302  0.5961  0.7156 -0.5778
 9286SOL    HW139491   0.432   4.468   9.390 -0.1507  1.8927 -0.7226
 9286SOL    HW239492   0.559   4.453   9.312  0.1990 -0.2844  0.2862
 9287SOL     OW39493   1.087   1.995  16.473  0.1019 -0.5467 -0.1623
 9287SOL    HW139494   1.139   1.980  16.394  0.0155 -0.0073 -0.3178
 9287SOL    HW239495   1.133   1.938  16.534  1.2109  0.6065  0.0657
 9288SOL     OW39496   0.294   0.489   4.106  0.0637 -0.4119  0.2239
 9288SOL    HW139497   0.223   0.526   4.158 -1.0644 -0.3963 -1.3094
 9288SOL    HW239498   0.362   0.487   4.173  0.3290 -1.2011 -0.0708
 9289SOL     OW39499   1.174   3.892   1.478 -0.1992  0.3263 -0.0576
 9289SOL    HW139500   1.194   3.908   1.385  0.0750  1.3011  0.1654
 9289SOL    HW239501   1.080   3.909   1.483 -0.6852 -1.6470 -2.2749
 9290SOL     OW39502   3.408   4.612  15.919  0.5258  0.7807 -0.1772
 9290SOL    HW139503   3.415   4.689  15.975  0.5194  1.5575 -1.2498
 9290SOL    HW239504   3.398   4.549  15.990  1.1530 -0.8397 -1.5187
 9291SOL     OW39505   3.041   0.153   8.174 -0.6505  0.1350  0.1241
 9291SOL    HW139506   3.106   0.095   8.134 -0.3377  0.7724 -0.2868
 9291SOL    HW239507   3.006   0.209   8.105 -1.0920  1.9266  1.8113
 9292SOL     OW39508   1.527   3.877   2.798  0.6791  0.0372  0.5557
 9292SOL    HW139509   1.533   3.958   2.748  1.1595  0.7436  1.7418
 9292SOL    HW239510   1.581   3.896   2.875  1.5762  1.5158 -0.4536
 9293SOL     OW39511   2.172   0.845   6.458  0.3412 -0.2891 -0.0654
 9293SOL    HW139512   2.182   0.924   6.404 -1.5950  0.3102  0.4430
 9293SOL    HW239513   2.078   0.843   6.477  0.0612  0.7951 -1.2835
 9294SOL     OW39514   4.038   1.467   2.553  0.0364 -0.2298 -0.0647
 9294SOL    HW139515   3.975   1.531   2.518  0.5294  0.7237  0.8118
 9294SOL    HW239516   3.989   1.388   2.529  1.2300 -0.8884 -0.3180
 9295SOL     OW39517   2.100   4.662   8.420 -0.0007 -0.1605 -0.4985
 9295SOL    HW139518   2.094   4.698   8.509  1.5161  0.2846 -0.5731
 9295SOL    HW239519   2.096   0.004   8.370 -0.2033 -0.5579 -1.1308
 9296SOL     OW39520   1.791   2.814  10.352 -0.0102  0.1390 -0.7195
 9296SOL    HW139521   1.785   2.787  10.444 -0.6592  1.2343 -0.4408
 9296SOL    HW239522   1.885   2.822  10.337  0.2423 -1.3272  0.0970
 9297SOL     OW39523   4.155   2.188   8.748 -0.3693 -0.3400  0.4563
 9297SOL    HW139524   4.214   2.116   8.724 -1.7091 -1.6373  1.0595
 9297SOL    HW239525   4.211   2.248   8.797  0.2121  1.0131 -1.8752
 9298SOL     OW39526   3.604   0.611   1.893 -0.5930  0.2351  0.1475
 9298SOL    HW139527   3.537   0.673   1.923  0.4458  1.5270 -0.2072
 9298SOL    HW239528   3.638   0.580   1.977 -1.6838  0.5167  0.6924
 9299SOL     OW39529   4.293   1.578  12.418  0.1382  0.3782 -0.2710
 9299SOL    HW139530   4.338   1.580  12.334  0.3781 -0.9821 -0.1656
 9299SOL    HW239531   4.215   1.630  12.395 -0.7726 -2.4490 -3.4539
 9300SOL     OW39532   4.542   3.458   1.184 -1.1118 -0.0062  0.0763
 9300SOL    HW139533   4.615   3.421   1.235 -0.2843 -2.5572 -2.9495
 9300SOL    HW239534   4.566   3.550   1.176  0.2257 -0.4227 -0.5435
 9301SOL     OW39535   3.214   1.263   5.691  0.8604 -0.3707 -0.1766
 9301SOL    HW139536   3.289   1.231   5.741  1.8466  2.3582  0.0975
 9301SOL    HW239537   3.215   1.354   5.721 -1.6253  0.3176 -2.1436
 9302SOL     OW39538   2.794   0.638   7.230  0.1185  0.2702  0.0728
 9302SOL    HW139539   2.721   0.698   7.245 -0.1630  0.3457 -1.5688
 9302SOL    HW239540   2.860   0.687   7.280  0.4892  0.5639 -0.6999
 9303SOL     OW39541   4.031   3.218   3.976 -0.1030 -0.1253  0.3596
 9303SOL    HW139542   4.017   3.308   4.007  1.2331  0.3824 -0.5253
 9303SOL    HW239543   4.012   3.174   4.059 -4.8873 -0.1108 -0.7502
 9304SOL     OW39544   0.974   2.454   2.324  0.0809 -0.0366 -0.6739
 9304SOL    HW139545   1.060   2.466   2.283 -0.9423  0.1592 -2.7898
 9304SOL    HW239546   0.968   2.359   2.329 -0.1582  0.0590  0.6262
 9305SOL     OW39547   1.783   3.219   8.024 -0.5317  0.2282 -0.5488
 9305SOL    HW139548   1.739   3.176   8.097 -0.2073  0.3604 -0.2784
 9305SOL    HW239549   1.750   3.309   8.031 -1.6658 -0.1110 -1.3642
 9306SOL     OW39550   2.102   4.459  10.222 -0.1338  0.3862  0.1377
 9306SOL    HW139551   2.138   4.413  10.147  0.9664  0.1021  0.8347
 9306SOL    HW239552   2.121   4.390  10.285 -1.8807 -0.9684 -0.8331
 9307SOL     OW39553   3.344   0.392   4.791  0.6326  0.3388 -0.0245
 9307SOL    HW139554   3.345   0.470   4.847 -1.7997 -0.0772  0.6221
 9307SOL    HW239555   3.270   0.416   4.734  0.3855  2.7005  1.2910
 9308SOL     OW39556   2.617   0.208   8.050 -0.2815 -0.0204 -0.3527
 9308SOL    HW139557   2.642   0.268   8.120  0.5498  0.2213 -0.8533
 9308SOL    HW239558   2.695   0.163   8.017  0.5601  0.9640  0.2673
 9309SOL     OW39559   3.309   3.302   4.385  0.4930  0.5873  0.2436
 9309SOL    HW139560   3.400   3.310   4.412  0.0751  1.4081  1.4361
 9309SOL    HW239561   3.318   3.223   4.333 -0.7813  0.2817  0.4884
 9310SOL     OW39562   2.006   4.439   1.902  0.2766  0.0194  0.2944
 9310SOL    HW139563   1.968   4.356   1.929 -0.2596  0.4628  0.9321
 9310SOL    HW239564   2.073   4.410   1.841  0.6203  2.4663 -0.4886
 9311SOL     OW39565   2.399   4.080   9.940 -0.9162  0.9480  0.1366
 9311SOL    HW139566   2.490   4.061   9.961 -0.7242  1.5781 -0.1498
 9311SOL    HW239567   2.363   4.001   9.981 -0.7669 -0.9037 -3.3042
 9312SOL     OW39568   4.109   3.364  17.707  0.2942  0.4040 -0.0802
 9312SOL    HW139569   4.041   3.429  17.687  0.8334  1.6941  2.2301
 9312SOL    HW239570   4.111   3.315  17.625  1.1787 -0.5387  0.5016
 9313SOL     OW39571   1.102   4.104   9.143  0.2921  0.5987 -0.2119
 9313SOL    HW139572   1.184   4.074   9.103  0.9304 -1.5681  2.7282
 9313SOL    HW239573   1.042   4.039   9.109  0.3409  0.8525 -0.8023
 9314SOL     OW39574   1.583   2.042  17.154  0.0671 -0.0304 -0.9207
 9314SOL    HW139575   1.654   2.061  17.215 -0.3310 -0.5738 -0.2848
 9314SOL    HW239576   1.527   2.116  17.174 -0.4533 -0.9510  1.0442
 9315SOL     OW39577   2.917   4.102   7.360 -0.2789  0.3452  0.1875
 9315SOL    HW139578   2.888   4.058   7.281 -0.8572  0.4239  0.3563
 9315SOL    HW239579   2.840   4.152   7.386 -1.0305 -0.1445 -1.1161
 9316SOL     OW39580   3.864   1.265   3.778  0.6335 -0.3700  0.3362
 9316SOL    HW139581   3.931   1.196   3.781 -0.2963 -1.3223 -0.8449
 9316SOL    HW239582   3.834   1.274   3.868 -1.0823 -0.3024 -0.2362
 9317SOL     OW39583   4.050   2.272   0.860  0.4673  0.6279  0.1441
 9317SOL    HW139584   4.102   2.248   0.937  1.0926  0.8732 -0.1977
 9317SOL    HW239585   3.968   2.309   0.891 -0.1207  1.0246 -1.8366
 9318SOL     OW39586   2.321   0.053   3.343  0.0304 -0.4544 -0.6320
 9318SOL    HW139587   2.411   0.044   3.374  0.0209 -2.1502 -1.0959
 9318SOL    HW239588   2.346   0.111   3.271 -0.4297  2.4741  1.5381
 9319SOL     OW39589   4.318   2.375  16.594 -0.7850  0.2063 -0.5539
 9319SOL    HW139590   4.378   2.439  16.557  1.2220 -0.6808  1.2284
 9319SOL    HW239591   4.368   2.293  16.591 -0.6743  0.3055 -1.6206
 9320SOL     OW39592   0.608   2.861   3.725  0.0671 -0.5359 -0.3005
 9320SOL    HW139593   0.568   2.774   3.720  1.4145 -1.1824  0.2489
 9320SOL    HW239594   0.700   2.836   3.715  0.1612  0.1459 -1.0502
 9321SOL     OW39595   2.862   4.367   1.996  0.1422  0.5715 -0.2010
 9321SOL    HW139596   2.849   4.276   2.021 -0.6637  0.7037 -0.1467
 9321SOL    HW239597   2.791   4.374   1.932 -1.1681  0.0602  1.2112
 9322SOL     OW39598   3.645   1.947   3.085 -0.6832  0.2209  0.0114
 9322SOL    HW139599   3.730   1.990   3.075 -0.6511  0.2599  0.4470
 9322SOL    HW239600   3.666   1.854   3.084  0.5026  0.4356  4.1924
 9323SOL     OW39601   2.167   3.043  11.213  0.5168  0.3510  0.2434
 9323SOL    HW139602   2.145   2.959  11.254 -1.7302  0.7001 -0.2564
 9323SOL    HW239603   2.189   3.014  11.125  0.4358 -0.1301  0.3821
 9324SOL     OW39604   1.397   4.172  10.641 -0.3581 -0.2901 -0.3117
 9324SOL    HW139605   1.443   4.233  10.699  1.8481 -1.2306 -1.0661
 9324SOL    HW239606   1.409   4.086  10.682  0.0549  0.1226  0.4462
 9325SOL     OW39607   1.280   1.076   7.354 -0.0845  1.2167  0.2668
 9325SOL    HW139608   1.364   1.039   7.380 -0.5088 -0.4666 -0.7800
 9325SOL    HW239609   1.306   1.127   7.277 -1.9306  0.1556 -1.0700
 9326SOL     OW39610   0.969   4.587   8.716  0.7456  0.5443 -0.0056
 9326SOL    HW139611   0.971   4.681   8.731  0.0058  0.8575 -1.8149
 9326SOL    HW239612   1.013   4.570   8.632 -1.9526 -2.1730 -0.8743
 9327SOL     OW39613   1.178   3.892   3.197 -0.0304 -0.3041  0.0275
 9327SOL    HW139614   1.122   3.834   3.146  0.3671  0.9335 -1.8462
 9327SOL    HW239615   1.116   3.931   3.258  2.1044  0.1763  1.9143
 9328SOL     OW39616   0.795   1.579   6.276 -0.3160  0.1383  0.5072
 9328SOL    HW139617   0.799   1.592   6.370 -1.6592  0.0893  0.5699
 9328SOL    HW239618   0.888   1.588   6.256 -0.6065  0.9541 -0.5088
 9329SOL     OW39619   1.458   1.135   8.732 -0.0488 -0.1653  0.1627
 9329SOL    HW139620   1.543   1.162   8.696  0.8135 -2.9692  0.0816
 9329SOL    HW239621   1.470   1.042   8.748 -0.7880 -0.3015 -0.0623
 9330SOL     OW39622   1.033   3.093   5.140  0.0792  0.4883 -0.4141
 9330SOL    HW139623   1.100   3.161   5.144  0.9501 -0.3215 -1.0411
 9330SOL    HW239624   0.990   3.103   5.225 -0.8595 -1.2977 -0.6701
 9331SOL     OW39625   1.791   1.236   4.968  0.1563 -0.2267 -0.0646
 9331SOL    HW139626   1.705   1.204   4.940 -0.2799 -0.2645  1.3229
 9331SOL    HW239627   1.795   1.313   4.911  0.2791  0.2467  0.5864
 9332SOL     OW39628   0.231   1.117   7.820 -0.0154  0.2941  0.5599
 9332SOL    HW139629   0.191   1.112   7.906 -0.5368  1.7569  0.4071
 9332SOL    HW239630   0.175   1.188   7.788  0.5107 -0.5079 -2.1636
 9333SOL     OW39631   3.844   0.188  10.764 -0.5090  0.2116 -0.3095
 9333SOL    HW139632   3.788   0.186  10.842  0.6335 -0.2594  0.5146
 9333SOL    HW239633   3.814   0.106  10.726 -0.8502 -0.2860  1.0178
 9334SOL     OW39634   1.624   0.252   3.907 -0.4331  0.0394 -0.1030
 9334SOL    HW139635   1.552   0.246   3.845 -1.0550 -0.3657  0.6641
 9334SOL    HW239636   1.634   0.346   3.917 -0.9730  0.0869 -0.0424
 9335SOL     OW39637   2.876   3.561   0.123 -0.3783 -0.0390 -0.4598
 9335SOL    HW139638   2.874   3.488   0.061 -0.2724 -0.0187 -0.4867
 9335SOL    HW239639   2.860   3.638   0.070  0.2390 -0.2893 -1.0090
 9336SOL     OW39640   1.144   1.589   2.972  0.3091 -0.0980  0.1165
 9336SOL    HW139641   1.157   1.507   3.019 -1.9514 -0.1271  0.6927
 9336SOL    HW239642   1.172   1.656   3.034 -3.1781  1.5954 -0.1693
 9337SOL     OW39643   4.681   4.160   4.768  0.0160 -0.0800 -0.3267
 9337SOL    HW139644   4.671   4.137   4.861 -0.3998 -0.9364 -0.5829
 9337SOL    HW239645   4.596   4.136   4.730 -0.7302  1.6993  0.2453
 9338SOL     OW39646   2.451   4.188  14.898  0.3887  0.1042  0.1658
 9338SOL    HW139647   2.464   4.171  14.991  1.7144  0.1637  0.0035
 9338SOL    HW239648   2.385   4.128  14.864  1.3660 -0.3880 -0.8894
 9339SOL     OW39649   4.342   1.829   7.791 -0.3823 -0.1554  0.2857
 9339SOL    HW139650   4.376   1.857   7.876  1.4597 -2.4839  0.3287
 9339SOL    HW239651   4.305   1.742   7.808 -1.0535  0.0077 -0.3720
 9340SOL     OW39652   0.595   3.967   3.404 -0.1264 -0.2381 -0.8440
 9340SOL    HW139653   0.577   3.879   3.436  0.8604  0.4198  1.5180
 9340SOL    HW239654   0.635   3.998   3.485 -0.4703 -1.5246 -0.1894
 9341SOL     OW39655   3.825   4.138   4.746  0.9504  0.0851 -0.2956
 9341SOL    HW139656   3.850   4.177   4.830  1.3681  0.8075 -0.7541
 9341SOL    HW239657   3.903   4.160   4.694 -0.2328  3.2759 -0.6675
 9342SOL     OW39658   2.920   3.276  16.523  0.4074  0.3946  0.3667
 9342SOL    HW139659   2.835   3.308  16.492 -0.2965 -1.8339  0.0023
 9342SOL    HW239660   2.965   3.268  16.439 -1.0236 -0.3980 -0.3167
 9343SOL     OW39661   4.722   1.689   8.555 -0.9402  0.2563  0.2749
 9343SOL    HW139662   4.691   1.601   8.575 -0.0157 -0.0548  0.3368
 9343SOL    HW239663   4.706   1.738   8.636 -1.8720 -0.7563  0.7033
 9344SOL     OW39664   1.425   1.570  16.964  0.2712 -0.5101 -0.5296
 9344SOL    HW139665   1.445   1.635  17.031 -0.3838  2.1934 -2.9456
 9344SOL    HW239666   1.509   1.576  16.919  0.5774  1.3077  0.2896
 9345SOL     OW39667   2.641   2.001   6.880  0.3560  0.1767 -0.1107
 9345SOL    HW139668   2.570   2.043   6.929  1.3353 -1.1644  2.5119
 9345SOL    HW239669   2.663   2.071   6.820  1.8258 -0.1946 -0.0031
 9346SOL     OW39670   2.553   0.291   4.993  0.3246  0.6786 -0.5435
 9346SOL    HW139671   2.644   0.298   5.023  0.0296  0.6227  0.3570
 9346SOL    HW239672   2.545   0.337   4.910 -0.9727  0.9839 -0.2489
 9347SOL     OW39673   2.073   3.520   4.171  0.5011 -0.5414  0.4853
 9347SOL    HW139674   2.078   3.426   4.158  0.0420 -0.4033 -0.6790
 9347SOL    HW239675   2.165   3.532   4.196 -0.1067  0.8673  2.0663
 9348SOL     OW39676   0.885   0.826   3.206  0.0702  0.3305  0.1217
 9348SOL    HW139677   0.911   0.914   3.231  0.5492  0.1801  0.1506
 9348SOL    HW239678   0.790   0.831   3.216  0.3212 -0.6933  3.2437
 9349SOL     OW39679   2.399   3.071   5.527  0.4693 -0.7340 -0.2724
 9349SOL    HW139680   2.488   3.104   5.515 -0.7373  2.4692 -0.3877
 9349SOL    HW239681   2.347   3.151   5.533  0.9044 -0.5627  1.1229
 9350SOL     OW39682   0.834   0.368   4.860  0.4257 -0.0122  0.9122
 9350SOL    HW139683   0.918   0.339   4.895 -0.6321 -1.2078  2.4153
 9350SOL    HW239684   0.772   0.305   4.896  0.4313 -0.3431  0.3526
 9351SOL     OW39685   2.739   1.494   8.774  0.4303  0.2116 -0.5696
 9351SOL    HW139686   2.680   1.510   8.847  0.4681 -3.3420  0.2455
 9351SOL    HW239687   2.820   1.485   8.824  0.1712 -1.4507 -0.4587
 9352SOL     OW39688   2.848   0.583   6.951 -0.1550 -0.2159  0.1809
 9352SOL    HW139689   2.806   0.661   6.914  0.5502  0.5555  0.9863
 9352SOL    HW239690   2.839   0.597   7.045 -0.2950  3.0521 -0.3068
 9353SOL     OW39691   0.098   1.471   8.825 -0.0244 -0.0023 -0.8437
 9353SOL    HW139692   0.036   1.477   8.752  0.3462 -0.8768 -1.2405
 9353SOL    HW239693   0.105   1.376   8.832 -1.5000 -0.0479 -0.0484
 9354SOL     OW39694   2.537   2.442   4.767 -0.2214 -0.0526 -0.1273
 9354SOL    HW139695   2.613   2.478   4.723 -1.9812  0.2449 -2.9416
 9354SOL    HW239696   2.580   2.376   4.821 -2.4156 -0.3726  1.2529
 9355SOL     OW39697   1.885   3.767   7.700 -0.1092 -0.4326  0.1456
 9355SOL    HW139698   1.956   3.788   7.760 -1.7926  0.4540  1.8339
 9355SOL    HW239699   1.826   3.721   7.759  0.9081  0.0882  1.5523
 9356SOL     OW39700   4.310   2.965   1.891  0.2438  0.3127 -0.1038
 9356SOL    HW139701   4.250   3.035   1.863 -0.8075 -1.5077 -2.3739
 9356SOL    HW239702   4.390   3.011   1.864  0.8988 -0.6059  0.2666
 9357SOL     OW39703   2.027   0.789   4.227 -0.7939 -0.6445  0.2445
 9357SOL    HW139704   2.026   0.694   4.228  1.2035 -0.6349  1.7402
 9357SOL    HW239705   2.092   0.807   4.159  0.0430 -1.8415  0.7453
 9358SOL     OW39706   0.012   0.890   3.780 -0.0476  0.4574 -0.0825
 9358SOL    HW139707   0.023   0.909   3.873 -0.4470  1.4821 -0.2516
 9358SOL    HW239708   0.052   0.803   3.775  0.1383  0.5011  0.6331
 9359SOL     OW39709   3.467   1.262   7.448 -0.0393 -0.3536 -0.5542
 9359SOL    HW139710   3.457   1.342   7.396  0.1544  0.1688  0.2118
 9359SOL    HW239711   3.562   1.277   7.445 -0.2762  0.9199 -1.5652
 9360SOL     OW39712   0.158   2.247   6.305 -0.4026  0.3158 -0.0810
 9360SOL    HW139713   0.215   2.177   6.272  1.2990  1.5925  0.1346
 9360SOL    HW239714   0.148   2.299   6.226  1.1432 -2.4598 -2.1312
 9361SOL     OW39715   0.591   1.457   8.734  0.4246 -0.4593 -0.3611
 9361SOL    HW139716   0.533   1.384   8.754 -1.2314  0.8699 -0.2641
 9361SOL    HW239717   0.557   1.480   8.648 -1.2910  0.0978  0.4531
 9362SOL     OW39718   4.167   4.085   5.844  0.1295  0.1665 -0.4592
 9362SOL    HW139719   4.210   4.169   5.827  1.0768  0.0538  1.2868
 9362SOL    HW239720   4.204   4.078   5.932 -0.8779 -0.9946 -0.1369
 9363SOL     OW39721   1.392   2.165   7.669  0.4170  0.1843 -0.5160
 9363SOL    HW139722   1.481   2.131   7.682  0.7645  0.4415 -2.1714
 9363SOL    HW239723   1.336   2.134   7.739  2.5159 -1.9390  0.2056
 9364SOL     OW39724   3.886   3.561   5.321 -0.3690  0.5362 -0.4702
 9364SOL    HW139725   3.908   3.648   5.353 -1.2101  0.5598  0.0221
 9364SOL    HW239726   3.921   3.578   5.233 -0.0100  3.9173  0.3427
 9365SOL     OW39727   0.355   0.827   1.053 -0.3904 -0.0089  0.0443
 9365SOL    HW139728   0.430   0.886   1.054  0.6284 -1.2645 -0.5242
 9365SOL    HW239729   0.355   0.794   0.963  2.2018  0.4290 -0.1064
 9366SOL     OW39730   0.223   2.951   1.965 -0.4356 -0.2004 -0.3445
 9366SOL    HW139731   0.199   2.906   2.046  1.6493  2.0099  1.5070
 9366SOL    HW239732   0.147   2.970   1.911 -1.7408 -2.7401  0.5764
 9367SOL     OW39733   0.951   1.663   8.330  0.4010  0.5365 -0.4666
 9367SOL    HW139734   1.033   1.676   8.377 -0.2182  1.2513  0.4069
 9367SOL    HW239735   0.982   1.682   8.241 -0.2736 -1.6638 -1.1684
 9368SOL     OW39736   3.173   3.329   4.970  0.2029 -0.5895 -0.0453
 9368SOL    HW139737   3.174   3.418   5.007  0.8456 -0.4602 -0.3707
 9368SOL    HW239738   3.223   3.291   5.042 -1.5682  0.7148  1.8769
 9369SOL     OW39739   4.734   0.895   5.311 -0.0611 -0.3088  0.4863
 9369SOL    HW139740   4.643   0.910   5.337 -0.0003  0.2710  0.3690
 9369SOL    HW239741   0.049   0.951   5.367 -2.9910  0.5973  2.4130
 9370SOL     OW39742   1.999   2.590   8.968 -0.0123 -0.1542  0.0414
 9370SOL    HW139743   1.954   2.635   9.039 -2.0146  2.1588 -2.6712
 9370SOL    HW239744   2.062   2.536   9.016 -1.1835 -2.0419 -0.5642
 9371SOL     OW39745   4.103   2.116   3.949 -0.1941  0.0919  0.6959
 9371SOL    HW139746   4.044   2.149   4.017  1.8322  1.8394  1.6009
 9371SOL    HW239747   4.172   2.182   3.951  0.8367 -0.9397 -1.0395
 9372SOL     OW39748   4.510   1.219   5.253 -0.4923  0.2444 -0.6092
 9372SOL    HW139749   4.510   1.296   5.197 -0.0801 -0.5846 -1.7538
 9372SOL    HW239750   4.599   1.235   5.284 -0.8701  1.5328 -0.1903
 9373SOL     OW39751   4.514   2.956  12.262  0.3688 -0.5219  0.1744
 9373SOL    HW139752   4.533   3.004  12.181 -1.2479  2.5132  1.6031
 9373SOL    HW239753   4.602   2.919  12.275  0.8753  0.9245  0.8234
 9374SOL     OW39754   2.253   3.227   4.336 -0.0567 -0.6789  0.3939
 9374SOL    HW139755   2.245   3.219   4.431  0.0945  2.0325  0.6569
 9374SOL    HW239756   2.313   3.302   4.336  0.2579 -0.9267 -1.6393
 9375SOL     OW39757   1.651   3.302  11.995 -0.6535  0.0906 -0.6262
 9375SOL    HW139758   1.564   3.332  12.020 -0.5040 -2.4798  3.0337
 9375SOL    HW239759   1.626   3.265  11.910 -0.3368 -0.2326 -0.5780
 9376SOL     OW39760   0.928   4.029  10.044 -0.2877  0.7616 -0.2574
 9376SOL    HW139761   1.007   4.000  10.090 -0.6153 -0.0660 -0.2237
 9376SOL    HW239762   0.862   4.031  10.113  0.8055  1.0973  0.7857
 9377SOL     OW39763   4.365   2.619  15.096 -0.4088 -0.6452  0.0122
 9377SOL    HW139764   4.448   2.636  15.140 -1.4116  0.0799  1.5961
 9377SOL    HW239765   4.347   2.534  15.135 -0.2398 -0.1228  1.2204
 9378SOL     OW39766   0.952   4.228   2.390 -0.1122 -0.0928  0.1037
 9378SOL    HW139767   0.911   4.191   2.468 -2.1826  0.5387 -0.6668
 9378SOL    HW239768   0.929   4.320   2.404 -3.0813 -0.9062  0.4981
 9379SOL     OW39769   1.637   3.051  16.022 -0.6976 -0.0263 -0.3667
 9379SOL    HW139770   1.603   2.962  16.014 -0.0950 -0.2734 -0.2012
 9379SOL    HW239771   1.607   3.085  15.937  0.1177  0.8443 -0.3103
 9380SOL     OW39772   2.640   3.449   8.197  0.3060 -0.0065  0.2629
 9380SOL    HW139773   2.698   3.508   8.244  0.4685  0.0548 -0.0162
 9380SOL    HW239774   2.654   3.476   8.107  0.8025 -0.6361  0.1499
 9381SOL     OW39775   0.332   4.546   8.439 -0.2378  0.2467 -0.0440
 9381SOL    HW139776   0.286   4.629   8.446  0.5430  0.7243 -0.6737
 9381SOL    HW239777   0.421   4.566   8.411  0.5516 -0.6334  1.8053
 9382SOL     OW39778   0.640   2.054   1.527 -0.1958 -0.1606 -0.0312
 9382SOL    HW139779   0.643   1.977   1.471  0.4619 -1.2155  1.4498
 9382SOL    HW239780   0.673   2.112   1.458 -2.1520 -0.5342 -1.2665
 9383SOL     OW39781   3.599   0.066   4.554  0.2166 -0.4464 -0.2807
 9383SOL    HW139782   3.637   0.070   4.642 -1.0481  0.2568  0.2342
 9383SOL    HW239783   3.549   4.725   4.571  0.1422  0.0114  1.6274
 9384SOL     OW39784   3.684   0.606   7.459 -0.0399 -0.2615 -0.2088
 9384SOL    HW139785   3.632   0.617   7.380 -2.6397  0.1190  1.5594
 9384SOL    HW239786   3.756   0.669   7.449 -0.4587  0.2360 -0.0726
 9385SOL     OW39787   0.677   3.222   9.465 -0.4640  0.0051 -0.2851
 9385SOL    HW139788   0.724   3.167   9.527 -2.6781 -2.3630 -0.7222
 9385SOL    HW239789   0.733   3.219   9.386 -0.1223  0.2029 -0.0531
 9386SOL     OW39790   4.508   2.828  12.684 -0.6983 -0.0684 -0.0311
 9386SOL    HW139791   4.570   2.843  12.756 -1.6379  0.9172  0.5565
 9386SOL    HW239792   4.522   2.902  12.625 -0.0991 -1.4366 -1.6158
 9387SOL     OW39793   0.361   2.572   0.379 -0.0950  0.2360  0.0579
 9387SOL    HW139794   0.369   2.506   0.310  0.9004  0.2898  0.1240
 9387SOL    HW239795   0.371   2.651   0.326 -0.1860  0.1387 -0.1027
 9388SOL     OW39796   1.834   4.668   4.111  0.2396 -0.8051  0.2991
 9388SOL    HW139797   1.848   0.005   4.054 -0.3189  1.3459  3.0300
 9388SOL    HW239798   1.786   4.621   4.043  0.3444  0.3259 -0.5562
 9389SOL     OW39799   2.092   3.465   7.289 -0.0736 -1.5441 -0.5834
 9389SOL    HW139800   2.072   3.438   7.199 -0.0068  1.1778 -1.4194
 9389SOL    HW239801   2.177   3.424   7.301  0.8807  0.5869 -0.1674
 9390SOL     OW39802   3.966   0.421   6.681  0.7273 -0.3624  0.1724
 9390SOL    HW139803   4.000   0.486   6.620  0.0750 -0.4063 -0.2314
 9390SOL    HW239804   3.871   0.435   6.680  0.6965 -0.5776 -0.2956
 9391SOL     OW39805   2.677   4.381  13.990  0.8378  0.4914  0.2810
 9391SOL    HW139806   2.713   4.450  13.935 -0.0709  0.8288  0.1084
 9391SOL    HW239807   2.674   4.419  14.078 -0.5635 -0.6887  0.7571
 9392SOL     OW39808   0.894   4.528  12.378 -0.0799 -0.3910  0.3679
 9392SOL    HW139809   0.929   4.444  12.348 -2.9295 -1.4193 -0.0638
 9392SOL    HW239810   0.941   4.589  12.322  0.7118 -1.6174 -0.3006
 9393SOL     OW39811   1.852   1.601   7.960  0.4583  0.1891  0.2527
 9393SOL    HW139812   1.779   1.663   7.953  0.4237  0.1533  0.2905
 9393SOL    HW239813   1.817   1.528   8.011 -0.0170  0.5986  0.5143
 9394SOL     OW39814   1.182   4.449   5.004 -0.2415 -0.1861  0.1822
 9394SOL    HW139815   1.174   4.439   5.099 -0.4699 -1.0050  0.0777
 9394SOL    HW239816   1.227   4.370   4.973 -1.7989 -1.1718  0.4178
 9395SOL     OW39817   3.922   3.994   0.933  0.2865 -0.4850  0.5613
 9395SOL    HW139818   3.841   4.043   0.947 -0.8878 -2.3657  0.4622
 9395SOL    HW239819   3.891   3.933   0.866  0.1168  0.4769 -0.2387
 9396SOL     OW39820   2.132   3.418  13.347 -0.0769  0.3621  0.2924
 9396SOL    HW139821   2.118   3.324  13.349 -1.5739  0.6019  1.4362
 9396SOL    HW239822   2.219   3.426  13.386 -0.2117  2.1036  0.2648
 9397SOL     OW39823   1.972   0.081  14.277 -0.2833 -0.0494 -0.2633
 9397SOL    HW139824   1.943   4.730  14.292 -0.9551 -0.0805 -1.8190
 9397SOL    HW239825   1.944   0.123  14.359  0.4793  2.1015 -1.1048
 9398SOL     OW39826   2.459   2.452   8.094  0.0533 -0.2240  0.3008
 9398SOL    HW139827   2.495   2.392   8.160  0.6596 -0.7617 -0.5110
 9398SOL    HW239828   2.429   2.526   8.145  2.2812  0.7445  0.1933
 9399SOL     OW39829   2.986   1.854  11.232 -0.0808  0.5860  0.1610
 9399SOL    HW139830   2.926   1.821  11.299 -0.1615 -1.2051 -0.7845
 9399SOL    HW239831   2.945   1.937  11.209  0.0120  0.8271  0.8802
 9400SOL     OW39832   1.483   1.998   5.833  0.3750 -0.3593 -0.2527
 9400SOL    HW139833   1.549   2.040   5.889  2.3900 -0.3347 -2.6390
 9400SOL    HW239834   1.525   1.917   5.805 -1.5810 -1.4902  0.0892
 9401SOL     OW39835   3.376   2.049   2.205 -0.5726 -0.1897 -0.0047
 9401SOL    HW139836   3.290   2.064   2.245  0.0147  0.9238  0.8436
 9401SOL    HW239837   3.426   2.018   2.280  2.8240 -1.0971 -2.6431
 9402SOL     OW39838   3.277   2.884   6.425  0.4689  0.0869  0.0026
 9402SOL    HW139839   3.212   2.926   6.483 -3.4205 -2.4845 -2.4610
 9402SOL    HW239840   3.248   2.926   6.344 -0.4136 -0.8706 -0.1794
 9403SOL     OW39841   3.791   0.696   3.439  0.3928 -0.3362  0.2999
 9403SOL    HW139842   3.701   0.721   3.459  0.2245 -0.2312 -0.5993
 9403SOL    HW239843   3.832   0.741   3.513 -0.4053  1.2241 -0.2030
 9404SOL     OW39844   0.815   3.253   6.607 -0.2621 -0.2804 -0.4725
 9404SOL    HW139845   0.796   3.226   6.517  2.1433  2.2275 -1.7246
 9404SOL    HW239846   0.806   3.348   6.611  2.5534 -0.1175  2.1178
 9405SOL     OW39847   2.915   2.529  16.464  0.5116 -0.3047 -0.4512
 9405SOL    HW139848   2.887   2.453  16.413 -1.7855  0.7581 -0.8160
 9405SOL    HW239849   3.005   2.543  16.436  0.1216  0.6892 -1.2036
 9406SOL     OW39850   1.831   3.608   8.553  0.1437  0.2567 -0.1740
 9406SOL    HW139851   1.799   3.520   8.574  0.5203  0.3600  0.8399
 9406SOL    HW239852   1.917   3.617   8.593 -0.3781 -2.1050  1.4721
 9407SOL     OW39853   4.005   2.657   8.864 -0.0854  0.1651  0.0268
 9407SOL    HW139854   4.049   2.598   8.925 -0.0829  0.5254  0.3701
 9407SOL    HW239855   3.923   2.662   8.914 -0.4288  0.7775 -0.5929
 9408SOL     OW39856   4.464   2.824   6.804 -0.4595  0.5753 -0.3409
 9408SOL    HW139857   4.381   2.780   6.786 -0.7309  0.0132  2.3582
 9408SOL    HW239858   4.477   2.862   6.717 -2.1401 -0.4997 -1.0658
 9409SOL     OW39859   3.641   2.385   2.607  0.2287 -0.0693 -0.1541
 9409SOL    HW139860   3.714   2.356   2.552  0.5969 -1.0903  0.8655
 9409SOL    HW239861   3.566   2.332   2.580 -0.3261  0.6784 -0.0811
 9410SOL     OW39862   0.235   2.349   1.038 -0.0025  0.4241  0.4391
 9410SOL    HW139863   0.295   2.375   0.968  1.6366 -0.3959  1.5585
 9410SOL    HW239864   0.170   2.296   0.991 -1.1288 -0.7334  3.3282
 9411SOL     OW39865   0.066   0.184  12.929 -0.1218 -0.1830 -0.6201
 9411SOL    HW139866   0.016   0.253  12.973  2.5085 -0.2418  2.5220
 9411SOL    HW239867   0.073   0.130  13.008  2.4504  0.4429 -0.4088
 9412SOL     OW39868   2.898   2.232  16.987 -0.0574  0.1697  0.4147
 9412SOL    HW139869   2.813   2.257  16.951  1.3311  0.9010 -2.3440
 9412SOL    HW239870   2.868   2.199  17.072  0.4021 -0.7041  0.2322
 9413SOL     OW39871   2.662   3.801   3.196  0.8115 -0.2880 -0.3119
 9413SOL    HW139872   2.686   3.714   3.227 -0.0173  0.3264  2.0765
 9413SOL    HW239873   2.580   3.793   3.148  0.4111 -0.9394  0.4725
 9414SOL     OW39874   2.449   0.328   3.828 -0.1053  0.3296 -0.6667
 9414SOL    HW139875   2.357   0.336   3.803 -1.4057 -0.9642  3.6251
 9414SOL    HW239876   2.483   0.326   3.739 -2.6577 -0.3894 -1.6308
 9415SOL     OW39877   1.582   0.967   6.464 -0.2663 -0.7661 -0.5193
 9415SOL    HW139878   1.567   0.891   6.521  0.8568 -1.1824 -0.7800
 9415SOL    HW239879   1.594   0.928   6.378  0.9289 -1.7134  0.0776
 9416SOL     OW39880   3.598   1.776  14.747  0.2457 -1.2243 -0.0679
 9416SOL    HW139881   3.522   1.822  14.711  0.2498 -0.4583  0.9107
 9416SOL    HW239882   3.553   1.695  14.771 -0.2305 -1.0709 -0.4444
 9417SOL     OW39883   3.715   3.866   2.854 -0.5619 -0.1295 -0.0763
 9417SOL    HW139884   3.635   3.836   2.897  0.7197  0.0442  2.3977
 9417SOL    HW239885   3.696   3.853   2.761  0.4480 -0.1115 -0.2782
 9418SOL     OW39886   0.783   0.440   5.729 -0.4022  0.6376  0.0443
 9418SOL    HW139887   0.697   0.412   5.759 -0.8900  0.4990 -1.4884
 9418SOL    HW239888   0.806   0.466   5.817  0.3450 -0.6289  0.2243
 9419SOL     OW39889   3.275   3.919  11.885 -0.2715  0.7125 -0.0162
 9419SOL    HW139890   3.279   3.912  11.790  1.7306 -0.1370  0.1297
 9419SOL    HW239891   3.332   3.850  11.918 -1.2927 -0.0092  0.2419
 9420SOL     OW39892   3.140   3.271   1.820 -0.2537  0.6160  0.2281
 9420SOL    HW139893   3.114   3.274   1.913 -3.0307  1.3408 -0.5744
 9420SOL    HW239894   3.057   3.242   1.782  1.3792 -2.4277 -1.0149
 9421SOL     OW39895   0.600   3.721  13.863 -0.1024  0.1877 -0.0386
 9421SOL    HW139896   0.532   3.684  13.919  1.1409 -1.4520  0.4042
 9421SOL    HW239897   0.668   3.659  13.891 -1.1757 -1.6940 -1.6010
 9422SOL     OW39898   1.411   4.190   7.874 -0.2797  0.2015 -0.2468
 9422SOL    HW139899   1.358   4.243   7.814 -0.8012 -1.2485 -1.0705
 9422SOL    HW239900   1.486   4.174   7.817 -0.4572 -0.7254 -0.2184
 9423SOL     OW39901   2.893   2.112   7.595  0.3548  0.3409 -0.9784
 9423SOL    HW139902   2.811   2.064   7.603 -0.2846  1.8978  2.2341
 9423SOL    HW239903   2.861   2.202   7.586 -0.4904  0.2916  1.4902
 9424SOL     OW39904   3.079   0.731   6.282  0.3902  0.3091  0.0033
 9424SOL    HW139905   3.136   0.677   6.336 -0.8047 -0.6910  0.2512
 9424SOL    HW239906   3.075   0.680   6.202  1.3508  1.6997 -0.9376
 9425SOL     OW39907   4.505   3.536   7.104  0.0602 -0.1641  0.8352
 9425SOL    HW139908   4.453   3.455   7.101  0.1043 -0.2545  2.4658
 9425SOL    HW239909   4.587   3.508   7.144  0.1661  0.2348  0.8974
 9426SOL     OW39910   2.562   2.125  11.914  0.3794  0.3639 -0.7715
 9426SOL    HW139911   2.594   2.057  11.974 -2.0724  1.1232  1.3724
 9426SOL    HW239912   2.585   2.078  11.834 -2.0510  1.0685 -1.8852
 9427SOL     OW39913   0.940   0.532   9.447  0.0684 -0.1572  0.3863
 9427SOL    HW139914   0.920   0.502   9.535 -0.9475 -0.7642 -0.0480
 9427SOL    HW239915   0.998   0.460   9.420 -0.1371 -0.0600 -0.3212
 9428SOL     OW39916   3.445   4.136   1.144 -0.3266 -0.3287  0.5647
 9428SOL    HW139917   3.501   4.115   1.218  2.0611 -1.2018 -1.5108
 9428SOL    HW239918   3.358   4.113   1.177 -1.1663  0.9570 -0.7728
 9429SOL     OW39919   1.999   3.779   4.907  0.6845 -0.3079  0.3072
 9429SOL    HW139920   2.095   3.770   4.904  0.6091 -0.9563 -0.3990
 9429SOL    HW239921   1.978   3.735   4.989 -2.3413 -1.8815 -1.3138
 9430SOL     OW39922   3.200   4.724   7.129 -0.2897 -0.2816  0.0555
 9430SOL    HW139923   3.286   4.727   7.170 -0.0328 -2.8220 -0.3325
 9430SOL    HW239924   3.217   4.648   7.074 -1.3377  0.3292 -1.1377
 9431SOL     OW39925   0.655   0.166  13.787  0.0614 -0.3396  0.0097
 9431SOL    HW139926   0.742   0.124  13.783 -0.0989 -0.6805  0.0592
 9431SOL    HW239927   0.682   0.252  13.818  0.7002  0.1641 -1.8887
 9432SOL     OW39928   0.469   2.750   6.311  0.0918 -0.2451  0.1677
 9432SOL    HW139929   0.382   2.712   6.323 -0.2018  0.1403 -0.7789
 9432SOL    HW239930   0.448   2.825   6.256 -1.9005 -1.5607 -0.8622
 9433SOL     OW39931   2.278   2.082   2.150  0.3551  0.8646 -0.5245
 9433SOL    HW139932   2.341   2.154   2.142 -1.2070  2.0816 -1.9034
 9433SOL    HW239933   2.293   2.045   2.063 -2.5558 -0.2310 -0.5439
 9434SOL     OW39934   1.917   1.109  10.121 -0.3536 -0.4036  0.3083
 9434SOL    HW139935   1.933   1.201  10.143 -0.9324  0.0373 -1.1402
 9434SOL    HW239936   1.828   1.113  10.087 -0.0383 -0.9527 -0.5646
 9435SOL     OW39937   0.738   0.110   8.405  0.5152 -0.2109 -0.9317
 9435SOL    HW139938   0.699   0.195   8.427 -3.8993 -2.1024 -1.5804
 9435SOL    HW239939   0.823   0.138   8.370  0.5759  0.3265 -0.3561
 9436SOL     OW39940   4.436   0.740   4.152  0.3864 -0.2236 -0.5288
 9436SOL    HW139941   4.441   0.833   4.174  2.0995  0.3042 -3.2299
 9436SOL    HW239942   4.507   0.735   4.088 -0.5591 -2.3304 -1.4092
 9437SOL     OW39943   4.167   0.148   9.343  0.2163 -0.1020  0.2839
 9437SOL    HW139944   4.207   0.172   9.426 -1.1753 -0.3520  1.0321
 9437SOL    HW239945   4.246   0.136   9.290 -0.4911 -3.1917 -0.0220
 9438SOL     OW39946   4.426   1.863   3.530  0.2343 -0.4152  0.2089
 9438SOL    HW139947   4.381   1.882   3.613  0.2929  0.1786  0.1074
 9438SOL    HW239948   4.361   1.806   3.489  0.0180 -0.7523  1.0230
 9439SOL     OW39949   4.373   3.413   4.699  0.0005  0.0047 -0.0477
 9439SOL    HW139950   4.462   3.389   4.725  0.2073 -0.7182 -1.4082
 9439SOL    HW239951   4.336   3.327   4.677 -1.3005  0.3160  0.9195
 9440SOL     OW39952   1.899   4.433  15.638 -0.2527  0.2236 -0.2728
 9440SOL    HW139953   1.976   4.481  15.666  0.7823 -0.0149 -2.7587
 9440SOL    HW239954   1.928   4.382  15.562 -2.1709  0.6723 -1.3165
 9441SOL     OW39955   1.729   3.315   0.594  0.2923 -0.1647  0.2410
 9441SOL    HW139956   1.726   3.355   0.681 -0.4376  0.3233  0.0015
 9441SOL    HW239957   1.823   3.308   0.579  0.1608  0.0466 -0.6979
 9442SOL     OW39958   2.750   1.628  11.857 -0.2414 -0.2169  0.4800
 9442SOL    HW139959   2.704   1.545  11.846 -0.1042 -0.5891  2.7642
 9442SOL    HW239960   2.761   1.639  11.952  1.6351  1.0472  0.1308
 9443SOL     OW39961   3.415   2.880   7.986  0.0299 -0.1584  0.4272
 9443SOL    HW139962   3.457   2.965   8.001  0.8925 -0.5890  0.4157
 9443SOL    HW239963   3.399   2.894   7.893  3.4254  0.5806 -0.0380
 9444SOL     OW39964   2.668   1.578   4.035  0.1309  0.0317 -0.4276
 9444SOL    HW139965   2.603   1.598   3.968 -0.3930  0.7919  0.3082
 9444SOL    HW239966   2.708   1.661   4.064 -0.0137  0.0418 -0.2602
 9445SOL     OW39967   2.467   2.087  10.801 -0.1120 -0.4003 -0.2375
 9445SOL    HW139968   2.522   2.106  10.725  0.4478  0.7338  0.4549
 9445SOL    HW239969   2.524   2.112  10.873 -1.2374 -2.4434  1.3930
 9446SOL     OW39970   3.449   0.838   5.668 -0.1110 -0.1023 -0.0447
 9446SOL    HW139971   3.521   0.784   5.702  0.0213  0.5451  0.7047
 9446SOL    HW239972   3.396   0.777   5.617  1.1555 -1.3504  0.1262
 9447SOL     OW39973   2.638   4.428   5.810  0.2323  0.0158  0.0479
 9447SOL    HW139974   2.668   4.470   5.890 -1.5984 -1.2666  1.3962
 9447SOL    HW239975   2.666   4.504   5.758 -0.9226  0.1554 -0.3777
 9448SOL     OW39976   2.254   3.834  11.465 -0.5197  0.4425 -0.3092
 9448SOL    HW139977   2.230   3.784  11.542  1.0276  3.0076  1.8350
 9448SOL    HW239978   2.214   3.782  11.396  0.3849  1.0566 -1.3043
 9449SOL     OW39979   4.449   1.378   7.519  0.6505 -0.1899 -0.4233
 9449SOL    HW139980   4.366   1.332   7.529  0.2590  0.1002 -2.3793
 9449SOL    HW239981   4.428   1.429   7.441 -4.4633 -1.9466 -0.2096
 9450SOL     OW39982   0.584   2.887   7.034  0.4851  0.6404  0.2971
 9450SOL    HW139983   0.562   2.798   7.005 -0.1918  0.6802  0.6909
 9450SOL    HW239984   0.678   2.877   7.048  0.5010 -0.6673 -0.7631
 9451SOL     OW39985   0.820   3.833   7.144 -0.1066 -0.1350 -0.2524
 9451SOL    HW139986   0.804   3.843   7.238  1.2870 -0.5724  0.0356
 9451SOL    HW239987   0.802   3.924   7.121  0.5178  0.4667  1.6580
 9452SOL     OW39988   0.823   1.608   6.565 -0.6741  0.1526  0.0417
 9452SOL    HW139989   0.802   1.517   6.585  1.8681 -0.3536  0.3651
 9452SOL    HW239990   0.902   1.618   6.618  1.1731 -1.7259 -2.3431
 9453SOL     OW39991   1.868   1.502   3.423  0.3640  0.4760 -0.0221
 9453SOL    HW139992   1.932   1.503   3.494  0.4473  0.9410 -0.1041
 9453SOL    HW239993   1.788   1.541   3.458  0.6382  3.5541 -2.8371
 9454SOL     OW39994   0.064   1.819   0.582  0.4398  0.2535  0.1413
 9454SOL    HW139995   0.020   1.746   0.538 -0.9959  1.1602  0.0535
 9454SOL    HW239996   0.109   1.865   0.511 -2.2196  2.4648 -0.1310
 9455SOL     OW39997   1.856   4.492   4.711  0.5197  0.0401  0.3894
 9455SOL    HW139998   1.820   4.504   4.799  1.6060 -0.8300  0.9500
 9455SOL    HW239999   1.923   4.561   4.715 -1.6810  2.1451  0.8402
 9456SOL     OW40000   1.484   2.635  16.179 -0.2072  1.0158 -0.2790
 9456SOL    HW140001   1.453   2.547  16.158 -1.4345  1.7875 -1.6643
 9456SOL    HW240002   1.454   2.647  16.270  0.3955  0.4494 -0.0085
 9457SOL     OW40003   2.168   3.984   2.033  0.2325 -0.1217 -0.4871
 9457SOL    HW140004   2.219   3.955   1.958  0.5505  2.7304 -1.3682
 9457SOL    HW240005   2.089   3.930   2.033  0.3252 -0.2679 -1.8610
 9458SOL     OW40006   4.667   1.430   3.312  0.4873  0.8444 -0.4268
 9458SOL    HW140007   4.667   1.335   3.315  1.7873  0.8395 -0.3952
 9458SOL    HW240008   4.582   1.442   3.355  0.5886  2.9741 -0.8144
 9459SOL     OW40009   1.963   0.465   6.423 -0.3372  0.2597 -0.3139
 9459SOL    HW140010   1.974   0.407   6.348  2.8267 -1.3170  1.3649
 9459SOL    HW240011   1.870   0.467   6.446 -0.7432  5.2262 -2.5013
 9460SOL     OW40012   4.370   1.404   7.243  0.3976 -0.3069  0.2739
 9460SOL    HW140013   4.419   1.333   7.202  0.5904 -0.9551  1.6219
 9460SOL    HW240014   4.343   1.473   7.183 -1.0050  0.6582  2.0041
 9461SOL     OW40015   0.883   2.792   6.076 -0.4737  0.1777 -0.1902
 9461SOL    HW140016   0.929   2.867   6.040 -0.5236 -0.1626 -0.9541
 9461SOL    HW240017   0.953   2.726   6.074  0.0118  0.7192 -1.0922
 9462SOL     OW40018   3.309   0.722   9.564 -0.2663 -0.4320  0.0731
 9462SOL    HW140019   3.219   0.697   9.544  0.0612 -1.0606 -0.6194
 9462SOL    HW240020   3.326   0.659   9.635  0.3775  2.8347  2.8019
 9463SOL     OW40021   4.152   4.723   3.038 -0.2430  0.6339  0.5181
 9463SOL    HW140022   4.074   4.668   3.044 -1.1268  2.0266  1.8417
 9463SOL    HW240023   4.165   4.727   2.943  0.4385  0.1341  0.5922
 9464SOL     OW40024   1.354   1.430  11.849  0.3395  0.0049 -0.2647
 9464SOL    HW140025   1.362   1.343  11.809  0.9592  0.7666 -1.7981
 9464SOL    HW240026   1.292   1.416  11.920 -0.0390 -0.0200 -0.6054
 9465SOL     OW40027   3.871   3.045   3.826 -0.5335 -0.4239 -0.3067
 9465SOL    HW140028   3.790   3.092   3.808 -0.2853  0.9027  2.1042
 9465SOL    HW240029   3.923   3.117   3.860 -0.2566 -1.6240  1.7909
 9466SOL     OW40030   3.356   3.560   5.863  0.3264 -0.3880  0.0779
 9466SOL    HW140031   3.429   3.603   5.818 -1.6361  2.9457  0.1033
 9466SOL    HW240032   3.399   3.532   5.944 -0.9513  0.7716  1.1444
 9467SOL     OW40033   2.689   4.353  14.878 -0.2687 -0.2466  0.3479
 9467SOL    HW140034   2.765   4.310  14.917 -0.2181 -2.3585 -2.0683
 9467SOL    HW240035   2.622   4.284  14.871 -0.9223  0.5618 -1.3965
 9468SOL     OW40036   0.909   2.191   1.658  0.5499 -0.1048 -0.0981
 9468SOL    HW140037   0.847   2.189   1.731 -0.2911 -1.9229 -0.8592
 9468SOL    HW240038   0.887   2.276   1.620  0.4101  0.3554  1.0239
 9469SOL     OW40039   1.324   2.377  14.799  0.5831 -0.2715  0.8458
 9469SOL    HW140040   1.363   2.450  14.752  0.4304  1.2012  3.0125
 9469SOL    HW240041   1.381   2.313  14.756 -2.1953 -1.6225 -0.8179
 9470SOL     OW40042   0.228   3.679   8.209  0.0119  0.0637  0.5624
 9470SOL    HW140043   0.203   3.602   8.158 -0.6106 -1.2569  2.8615
 9470SOL    HW240044   0.196   3.655   8.296  0.0735 -1.0756  0.2732
 9471SOL     OW40045   4.611   4.255   9.087  0.3347 -0.5300  0.2099
 9471SOL    HW140046   4.604   4.164   9.114 -0.6237 -0.6816 -0.5345
 9471SOL    HW240047   4.556   4.298   9.153 -0.4945  0.5557 -1.1675
 9472SOL     OW40048   2.715   0.949  14.572 -0.3506  0.0014  0.4876
 9472SOL    HW140049   2.684   1.025  14.522 -0.8521 -0.4327  0.1521
 9472SOL    HW240050   2.776   0.911  14.509  0.7451 -0.0790  1.5918
 9473SOL     OW40051   1.002   1.446   2.803  0.0336 -0.3545 -0.0136
 9473SOL    HW140052   0.920   1.469   2.846  0.1664  3.8890 -1.9972
 9473SOL    HW240053   1.062   1.492   2.861  0.8444  0.1741 -1.2683
 9474SOL     OW40054   1.087   2.181   0.304 -0.2080  0.0414  0.1222
 9474SOL    HW140055   1.178   2.152   0.304 -0.4140 -0.5979  0.1859
 9474SOL    HW240056   1.084   2.246   0.375 -0.7202  0.3166 -0.1473
 9475SOL     OW40057   1.766   0.039   7.318  0.2127 -0.1517 -0.3854
 9475SOL    HW140058   1.833   0.038   7.249  1.3168 -0.7158  0.6843
 9475SOL    HW240059   1.718   4.698   7.295 -0.7927  0.6491 -1.0271
 9476SOL     OW40060   3.923   2.715  17.018 -0.1883  0.5240 -0.2488
 9476SOL    HW140061   3.906   2.797  16.971 -1.5801 -0.1246 -0.8788
 9476SOL    HW240062   4.019   2.709  17.019 -0.1994  0.2147 -1.0831
 9477SOL     OW40063   3.870   0.038   7.480 -0.2985  0.6236  0.0283
 9477SOL    HW140064   3.887   0.042   7.574  1.7013  1.3568 -0.3635
 9477SOL    HW240065   3.848   0.130   7.467  0.4060  0.9880  1.4173
 9478SOL     OW40066   2.693   3.215   1.907  0.1722  0.3893 -0.0315
 9478SOL    HW140067   2.598   3.203   1.907  0.2112  0.1379  1.8755
 9478SOL    HW240068   2.707   3.272   1.982  0.6596  0.9809 -0.5728
 9479SOL     OW40069   3.620   0.580   0.108  0.2774  0.2781  0.6320
 9479SOL    HW140070   3.674   0.657   0.089 -0.8096  1.2930  1.6305
 9479SOL    HW240071   3.557   0.615   0.171 -0.2435 -0.6456  0.6152
 9480SOL     OW40072   2.421   4.457   5.136 -0.1631  0.4679  0.5154
 9480SOL    HW140073   2.332   4.455   5.101 -0.1268 -1.8349  0.6071
 9480SOL    HW240074   2.460   4.497   5.058  0.8639  1.8100  1.7129
 9481SOL     OW40075   3.173   2.069   7.545 -0.2631 -0.4981 -0.5216
 9481SOL    HW140076   3.087   2.041   7.574  0.3958 -0.7649  1.1495
 9481SOL    HW240077   3.184   2.141   7.607  1.2689 -1.0221 -0.1867
 9482SOL     OW40078   3.688   2.623   6.825  0.0631 -0.0732 -0.1929
 9482SOL    HW140079   3.688   2.575   6.908 -0.0665 -3.3671 -2.1062
 9482SOL    HW240080   3.692   2.556   6.758  1.6048  2.1291 -2.3244
 9483SOL     OW40081   2.064   3.756   3.493 -0.1425  0.6091 -0.5720
 9483SOL    HW140082   2.082   3.727   3.582 -2.5934 -0.7584 -0.5125
 9483SOL    HW240083   2.154   3.775   3.467 -0.1192 -0.6580 -1.4174
 9484SOL     OW40084   3.068   1.153  13.491  0.2449 -0.2788 -0.2645
 9484SOL    HW140085   3.032   1.087  13.551  0.1738  1.6480  1.8060
 9484SOL    HW240086   3.090   1.092  13.420 -0.2308 -1.1074  0.2983
 9485SOL     OW40087   0.616   4.239  10.564  0.8144 -0.1640 -0.0205
 9485SOL    HW140088   0.553   4.276  10.502 -0.1137  0.2562  1.1592
 9485SOL    HW240089   0.587   4.281  10.645  1.1266 -0.2487  0.1345
 9486SOL     OW40090   2.296   2.325   5.934 -0.1021 -0.3809  0.3832
 9486SOL    HW140091   2.289   2.240   5.978 -0.5178 -0.7909 -0.4733
 9486SOL    HW240092   2.285   2.388   6.006  1.3562  0.8534 -0.4613
 9487SOL     OW40093   2.481   3.717   3.696  0.2485 -0.0899  0.0430
 9487SOL    HW140094   2.438   3.649   3.748  2.4642 -1.4565  0.1309
 9487SOL    HW240095   2.479   3.792   3.756  1.1047 -1.2660  1.5633
 9488SOL     OW40096   0.714   1.590   2.627 -0.6060  0.4499 -0.4685
 9488SOL    HW140097   0.783   1.617   2.567  0.6464  1.7498  1.5540
 9488SOL    HW240098   0.722   1.646   2.704 -3.1338 -2.7354  2.1458
 9489SOL     OW40099   2.026   2.176   8.180 -0.1432 -0.4810  0.9082
 9489SOL    HW140100   2.104   2.187   8.125 -0.4377 -0.5447  0.4892
 9489SOL    HW240101   2.033   2.260   8.226 -1.3542 -0.3544  0.8543
 9490SOL     OW40102   2.544   0.598   4.933 -0.3689 -0.2130  0.2914
 9490SOL    HW140103   2.565   0.550   5.013  0.6173 -1.3680 -0.6587
 9490SOL    HW240104   2.625   0.648   4.920 -0.1235 -0.1245  2.1021
 9491SOL     OW40105   4.073   0.102  16.386  0.5538 -0.1268 -0.2077
 9491SOL    HW140106   4.079   0.092  16.481 -0.7821 -1.7714 -0.2909
 9491SOL    HW240107   4.146   0.048  16.355  2.5316  1.6328  1.3249
 9492SOL     OW40108   4.647   1.480   1.763  0.0230  0.1762  0.2221
 9492SOL    HW140109   4.686   1.509   1.845 -0.4620  0.6365  0.2945
 9492SOL    HW240110   4.638   1.566   1.723  2.5845  0.5870  0.5237
 9493SOL     OW40111   4.139   1.309  16.713 -0.0535  0.1014 -0.2881
 9493SOL    HW140112   4.147   1.348  16.800  1.2155  1.7629 -1.1493
 9493SOL    HW240113   4.178   1.222  16.704 -1.1095 -0.5778  1.6231
 9494SOL     OW40114   3.718   4.410   6.017 -0.0941  0.1441  0.2790
 9494SOL    HW140115   3.783   4.352   5.977  2.5883  2.8410  0.7636
 9494SOL    HW240116   3.768   4.484   6.050 -1.3233  1.2940 -0.4422
 9495SOL     OW40117   1.386   3.155   7.529  0.2608  0.1396  0.1826
 9495SOL    HW140118   1.423   3.214   7.463 -0.1482  1.3915  1.0703
 9495SOL    HW240119   1.433   3.073   7.517 -0.1333 -0.4729  2.7970
 9496SOL     OW40120   4.204   0.809   5.279 -0.3144 -0.3656 -0.2362
 9496SOL    HW140121   4.271   0.877   5.284  0.3741 -0.9594 -1.4145
 9496SOL    HW240122   4.152   0.845   5.207 -0.5199  0.5787  0.3906
 9497SOL     OW40123   3.026   0.765   7.360  0.1640 -0.6700 -0.0956
 9497SOL    HW140124   3.090   0.836   7.368 -0.3256 -0.1040 -1.3348
 9497SOL    HW240125   3.075   0.696   7.315  0.7605 -1.2470  1.4228
 9498SOL     OW40126   3.999   0.599   7.557  0.4245 -0.0281 -0.3511
 9498SOL    HW140127   3.947   0.585   7.478  0.9068  1.7719 -0.9709
 9498SOL    HW240128   4.026   0.507   7.565 -0.8589 -0.3215  0.7744
 9499SOL     OW40129   4.173   3.710   1.171  0.2105  0.1731 -0.5510
 9499SOL    HW140130   4.250   3.655   1.183  2.0085  2.7184 -0.3615
 9499SOL    HW240131   4.106   3.642   1.162 -0.2884  0.4151  1.5383
 9500SOL     OW40132   2.229   0.806   4.002 -0.2062  0.0992  0.6008
 9500SOL    HW140133   2.251   0.897   4.022 -1.9831  0.7630 -0.4337
 9500SOL    HW240134   2.308   0.755   4.020 -1.0561 -1.9832 -1.6003
 9501SOL     OW40135   1.283   3.484   2.292  0.0319  0.2380  1.0951
 9501SOL    HW140136   1.298   3.569   2.333  0.6613  0.7783 -0.2476
 9501SOL    HW240137   1.370   3.467   2.253 -0.7957  0.5606 -0.9088
 9502SOL     OW40138   3.682   2.154   6.162  0.1438 -0.2149  0.6186
 9502SOL    HW140139   3.606   2.170   6.217  1.3579  0.9561  1.9530
 9502SOL    HW240140   3.680   2.234   6.109  0.8978 -1.0884 -0.7082
 9503SOL     OW40141   2.879   0.892   1.919 -0.4893 -0.2735  0.0864
 9503SOL    HW140142   2.802   0.874   1.865  1.6170 -0.1248 -2.9784
 9503SOL    HW240143   2.916   0.804   1.920  2.9462  1.1604 -1.3974
 9504SOL     OW40144   2.545   3.159  17.666 -0.5933 -0.5026  0.1334
 9504SOL    HW140145   2.501   3.091  17.717 -1.5259  1.8881  2.5137
 9504SOL    HW240146   2.478   3.226  17.651 -0.0930 -0.0340 -0.0154
 9505SOL     OW40147   4.508   1.310   1.550  0.0844  0.3536  0.1467
 9505SOL    HW140148   4.471   1.278   1.633  0.9244 -0.5531  0.1680
 9505SOL    HW240149   4.529   1.401   1.571 -2.1145  1.1080 -0.8844
 9506SOL     OW40150   2.658   2.025  13.561  0.4463  0.6503 -0.1501
 9506SOL    HW140151   2.744   2.044  13.597  1.0966 -2.5931  0.0324
 9506SOL    HW240152   2.671   1.967  13.485 -0.2365  0.8269 -0.4049
 9507SOL     OW40153   1.238   4.649   9.663  0.3320 -0.0173  0.3045
 9507SOL    HW140154   1.260   4.690   9.580 -0.2396  1.1833  0.7415
 9507SOL    HW240155   1.279   4.565   9.644 -1.7611 -1.1245  0.6515
 9508SOL     OW40156   0.354   4.233  15.912 -0.2648  0.3461 -0.0598
 9508SOL    HW140157   0.286   4.280  15.865  0.0858 -0.0295 -0.9419
 9508SOL    HW240158   0.367   4.293  15.985 -1.2855  1.9011 -1.1582
 9509SOL     OW40159   0.643   1.238   5.443  0.3339 -0.4179  0.0648
 9509SOL    HW140160   0.739   1.236   5.438  0.3869  3.3352 -0.4521
 9509SOL    HW240161   0.611   1.180   5.374  0.3410  0.6406 -0.8328
 9510SOL     OW40162   2.679   3.335  14.606 -0.4709 -0.2341 -0.1568
 9510SOL    HW140163   2.593   3.362  14.637  0.4409  0.4257  1.7953
 9510SOL    HW240164   2.659   3.242  14.596  0.4579 -0.3756 -0.7075
 9511SOL     OW40165   3.394   4.708   1.362  0.0727  0.9623  0.5612
 9511SOL    HW140166   3.349   4.710   1.446 -1.6359 -2.1968 -0.2546
 9511SOL    HW240167   3.484   4.716   1.393  0.9798  0.9877 -2.0585
 9512SOL     OW40168   2.218   2.007   4.782  0.0253  0.4682 -0.0219
 9512SOL    HW140169   2.145   2.067   4.771 -1.0493 -0.3198  2.7996
 9512SOL    HW240170   2.227   2.014   4.877  0.9896  0.4351 -0.1105
 9513SOL     OW40171   2.682   2.815   8.660 -0.7224  0.4550 -0.3407
 9513SOL    HW140172   2.722   2.833   8.575 -2.2156  1.4248 -0.8486
 9513SOL    HW240173   2.758   2.800   8.716 -1.3896  0.9313  0.6892
 9514SOL     OW40174   3.293   0.112  13.235 -0.1312 -0.9060  0.4522
 9514SOL    HW140175   3.341   0.172  13.293 -1.4016 -1.5063  2.1066
 9514SOL    HW240176   3.204   0.123  13.267 -0.5339  2.8162 -1.9124
 9515SOL     OW40177   2.456   3.488   3.338 -0.3232 -0.3189 -0.6907
 9515SOL    HW140178   2.449   3.494   3.433  1.4490 -0.4657 -0.5519
 9515SOL    HW240179   2.439   3.394   3.336 -0.6159 -0.2480 -1.8807
 9516SOL     OW40180   4.470   1.708   2.030 -0.1165 -0.0445  0.5648
 9516SOL    HW140181   4.403   1.639   2.036  1.9367 -1.9796  1.3255
 9516SOL    HW240182   4.427   1.775   2.084 -1.1636  1.1877 -1.7926
 9517SOL     OW40183   0.490   0.237   2.065 -0.4872 -0.4514 -0.6491
 9517SOL    HW140184   0.555   0.254   1.997 -1.2674  0.7030 -1.1037
 9517SOL    HW240185   0.425   0.306   2.054  0.4136  0.3284 -1.1102
 9518SOL     OW40186   2.800   0.419   8.250  0.3048  0.0654 -0.0971
 9518SOL    HW140187   2.848   0.500   8.270  2.0591 -0.9762 -0.0974
 9518SOL    HW240188   2.860   0.394   8.180 -0.8703 -0.4559 -0.9242
 9519SOL     OW40189   4.622   3.727  13.274 -0.1766 -1.2437 -0.1369
 9519SOL    HW140190   4.612   3.678  13.192 -0.5009 -0.3744 -0.6187
 9519SOL    HW240191   4.659   3.810  13.243 -0.5022 -0.6913  0.9710
 9520SOL     OW40192   3.908   4.029   5.964  0.5394  0.2315 -0.0930
 9520SOL    HW140193   3.938   4.119   5.950 -0.3652  0.9122  2.4681
 9520SOL    HW240194   3.994   4.001   5.997  1.9368  3.5132 -0.9301
 9521SOL     OW40195   3.165   1.748   7.616 -0.2294  0.2707  0.5096
 9521SOL    HW140196   3.129   1.708   7.695  0.1364  0.2095  0.6449
 9521SOL    HW240197   3.091   1.771   7.559 -0.1789  1.8562  1.0660
 9522SOL     OW40198   4.738   1.317  13.042 -0.2310 -0.5644 -0.5922
 9522SOL    HW140199   4.729   1.223  13.060 -0.1746 -0.3812  0.4145
 9522SOL    HW240200   0.012   1.359  13.127 -0.8733 -0.2648 -0.6424
 9523SOL     OW40201   2.843   3.773   6.584 -0.2185  0.2115  0.1470
 9523SOL    HW140202   2.865   3.721   6.506 -1.1195  1.4669 -0.9447
 9523SOL    HW240203   2.759   3.731   6.603  0.3042 -1.0766 -0.3388
 9524SOL     OW40204   3.955   1.523   8.349  0.0255 -0.0510  0.2376
 9524SOL    HW140205   3.882   1.466   8.375  1.6992 -2.9191 -1.3271
 9524SOL    HW240206   4.021   1.487   8.408 -1.1860 -3.4482 -0.4254
 9525SOL     OW40207   1.740   3.662  15.516 -0.3483  0.3256  0.0750
 9525SOL    HW140208   1.778   3.730  15.571 -0.1112  1.0167 -0.9345
 9525SOL    HW240209   1.739   3.593  15.582  1.1418  0.0275 -0.2207
 9526SOL     OW40210   2.761   1.419   1.882 -0.3743  0.1727  0.5344
 9526SOL    HW140211   2.678   1.427   1.930  0.7039  0.8465  2.2968
 9526SOL    HW240212   2.754   1.323   1.876  2.6801 -0.1236  1.7197
 9527SOL     OW40213   2.369   4.433   3.886  0.3977  0.0741 -0.6305
 9527SOL    HW140214   2.349   4.513   3.934  2.2896  0.2660 -0.1490
 9527SOL    HW240215   2.285   4.388   3.882 -0.2942  1.1672  1.8250
 9528SOL     OW40216   0.337   3.184   6.559 -0.3219 -0.4311 -0.6176
 9528SOL    HW140217   0.357   3.242   6.633 -4.0029  0.0040  0.0134
 9528SOL    HW240218   0.403   3.122   6.590  1.4207  1.2933 -0.8377
 9529SOL     OW40219   1.177   2.169   6.257  0.5630 -0.4932 -0.8522
 9529SOL    HW140220   1.123   2.091   6.245 -0.8120  0.2520  0.5915
 9529SOL    HW240221   1.115   2.242   6.248  1.9287  0.6041 -1.4240
 9530SOL     OW40222   1.554   0.444   8.757  0.2568  0.1862  0.1191
 9530SOL    HW140223   1.518   0.395   8.831  0.0028 -0.2305 -0.2811
 9530SOL    HW240224   1.644   0.410   8.750  0.2835  0.6873 -1.8984
 9531SOL     OW40225   4.029   1.792  13.623 -0.2630  0.0178  0.2540
 9531SOL    HW140226   3.997   1.784  13.713 -0.1408  0.5154  0.3399
 9531SOL    HW240227   3.948   1.772  13.576  0.5583 -3.2233  0.1904
 9532SOL     OW40228   0.914   3.298   9.309  0.6241 -0.1797 -0.0667
 9532SOL    HW140229   0.857   3.253   9.246  1.9393  0.9105 -2.0662
 9532SOL    HW240230   0.859   3.363   9.351 -1.7252 -1.0664 -1.7664
 9533SOL     OW40231   4.533   1.836   7.571 -0.5445  0.6051  0.1372
 9533SOL    HW140232   4.612   1.883   7.596  0.6053 -1.2161 -0.0960
 9533SOL    HW240233   4.502   1.803   7.656  1.0212  0.6638  0.7288
 9534SOL     OW40234   3.905   1.319   6.603  0.0713 -0.1715 -0.2074
 9534SOL    HW140235   3.916   1.240   6.551  0.1125  0.3524 -0.9879
 9534SOL    HW240236   3.945   1.372   6.534 -1.7407  0.2823 -0.9015
 9535SOL     OW40237   2.418   1.094  10.120  0.4570 -0.7047 -0.1232
 9535SOL    HW140238   2.437   1.000  10.109 -0.1147 -1.1062  2.3235
 9535SOL    HW240239   2.348   1.101  10.056 -0.1605  1.3768  0.7876
 9536SOL     OW40240   4.295   1.484   2.070 -0.9511  0.6961  0.2638
 9536SOL    HW140241   4.266   1.444   1.988 -1.9015  0.4544  0.7155
 9536SOL    HW240242   4.308   1.403   2.120  0.4072  0.2672 -0.7765
 9537SOL     OW40243   0.853   0.086   7.730  0.2904 -0.0775  0.7886
 9537SOL    HW140244   0.874   0.073   7.823 -1.0108  0.1152  1.1126
 9537SOL    HW240245   0.852   4.738   7.691 -3.2177  0.5119 -0.5153
 9538SOL     OW40246   4.401   3.065   2.908  0.0269 -0.0733 -0.5982
 9538SOL    HW140247   4.335   3.124   2.870  0.2157  0.2023 -0.5013
 9538SOL    HW240248   4.425   3.027   2.824 -0.1169 -0.1965 -0.5834
 9539SOL     OW40249   4.001   2.111  10.492 -0.1330 -0.1884  0.7449
 9539SOL    HW140250   4.057   2.120  10.570  0.1923  2.4272  0.2103
 9539SOL    HW240251   3.925   2.060  10.519 -0.6726  0.2630  0.0596
 9540SOL     OW40252   1.745   4.381   2.597  0.5342 -0.0126 -0.1470
 9540SOL    HW140253   1.714   4.450   2.539 -0.1268 -1.3850 -1.4262
 9540SOL    HW240254   1.749   4.306   2.537  0.9913  0.1811 -0.3573
 9541SOL     OW40255   3.598   2.354   7.973 -0.3081 -0.2709 -0.8952
 9541SOL    HW140256   3.692   2.373   7.969 -0.2088 -0.4454  0.6725
 9541SOL    HW240257   3.573   2.408   8.048 -0.7363 -1.7120  0.0021
 9542SOL     OW40258   1.639   0.601  10.373  0.5238 -0.3528 -0.1459
 9542SOL    HW140259   1.668   0.617  10.463  1.3669 -1.4613 -0.2164
 9542SOL    HW240260   1.714   0.558  10.331 -0.6230 -2.4311 -0.0946
 9543SOL     OW40261   4.502   0.257   4.405 -0.1912  0.1261 -0.1686
 9543SOL    HW140262   4.532   0.166   4.412  1.6357  0.7724  0.2232
 9543SOL    HW240263   4.480   0.283   4.315 -0.0874 -0.5229 -0.3854
 9544SOL     OW40264   3.091   0.208   5.871 -0.0101  0.4409 -0.6752
 9544SOL    HW140265   3.030   0.138   5.849 -1.2210  0.7136  1.8069
 9544SOL    HW240266   3.098   0.249   5.785 -0.6991  0.2117 -0.8410
 9545SOL     OW40267   3.166   1.004   1.737 -0.2351  0.6445 -0.2768
 9545SOL    HW140268   3.118   0.934   1.693 -0.1161  1.1451 -1.2073
 9545SOL    HW240269   3.168   0.964   1.824 -1.5597  3.4696  1.0729
 9546SOL     OW40270   0.092   1.074   1.400  0.2771  0.1765  0.0931
 9546SOL    HW140271   0.110   1.165   1.423 -0.6353  0.0198  1.4276
 9546SOL    HW240272   0.000   1.077   1.426 -0.1005  0.6053 -1.2522
 9547SOL     OW40273   1.212   2.832   4.420 -0.1482 -0.0935  0.0785
 9547SOL    HW140274   1.243   2.833   4.330  1.1422 -0.4934  0.5122
 9547SOL    HW240275   1.154   2.756   4.423  0.6751 -0.6961  0.7779
 9548SOL     OW40276   2.500   2.446   8.478 -0.2558 -0.5322  0.2346
 9548SOL    HW140277   2.437   2.376   8.462 -1.6777  0.8099 -0.0235
 9548SOL    HW240278   2.443   2.522   8.474 -2.6740 -2.6103 -4.8875
 9549SOL     OW40279   1.911   4.668   3.467 -0.8678 -0.1715 -0.3561
 9549SOL    HW140280   1.921   0.021   3.441  0.4132  0.4611  2.4687
 9549SOL    HW240281   1.977   4.622   3.415 -0.8109 -1.1296  0.5875
 9550SOL     OW40282   2.329   0.231   2.252  0.3650 -0.4807 -0.4011
 9550SOL    HW140283   2.383   0.299   2.293  1.1387 -1.8717  0.9244
 9550SOL    HW240284   2.311   0.180   2.331 -2.9078  1.1263 -0.1083
 9551SOL     OW40285   0.048   3.260  13.218  0.7338  0.1023  0.1719
 9551SOL    HW140286   0.093   3.181  13.187  0.9348 -0.3205  1.5076
 9551SOL    HW240287   4.723   3.275  13.148  0.5353 -0.9259  0.1279
 9552SOL     OW40288   1.577   2.448  17.222  0.7928 -0.4763  0.1662
 9552SOL    HW140289   1.546   2.365  17.257 -1.2920  0.4307  0.4334
 9552SOL    HW240290   1.649   2.457  17.285 -0.8273 -0.4463  1.9839
 9553SOL     OW40291   0.699   3.041   5.871 -0.1698  0.4628 -0.2558
 9553SOL    HW140292   0.632   3.089   5.822 -0.4231 -1.3634 -1.7236
 9553SOL    HW240293   0.641   2.973   5.906 -0.0721  0.3390 -0.3335
 9554SOL     OW40294   2.695   2.228   2.834  0.0753  0.2665 -0.4620
 9554SOL    HW140295   2.646   2.167   2.779 -1.0475  0.4457  0.3494
 9554SOL    HW240296   2.719   2.166   2.903  3.0949  1.7885 -0.1225
 9555SOL     OW40297   3.671   4.723   8.980 -0.1913 -0.1469 -0.7314
 9555SOL    HW140298   3.633   0.064   8.944 -0.6609  0.2725  0.7225
 9555SOL    HW240299   3.753   0.013   9.021 -0.3820 -0.1073 -0.3851
 9556SOL     OW40300   0.956   2.057   3.620 -0.0915 -0.1164 -0.0521
 9556SOL    HW140301   1.026   2.121   3.610  0.2173 -0.3053  0.9757
 9556SOL    HW240302   0.897   2.083   3.549 -0.2657 -0.1659  0.0734
 9557SOL     OW40303   2.622   4.535   4.563  0.4194  0.4417  0.1960
 9557SOL    HW140304   2.553   4.596   4.589  0.5862  0.4389  0.6525
 9557SOL    HW240305   2.570   4.457   4.544  0.6167  0.4946 -0.5723
 9558SOL     OW40306   0.076   1.075   8.550  0.5394  0.0711 -0.3476
 9558SOL    HW140307   0.164   1.110   8.536  1.1095 -2.3238 -2.7273
 9558SOL    HW240308   0.023   1.148   8.519  1.3609  1.6053  1.8760
 9559SOL     OW40309   1.276   2.019   4.179  0.7247  0.4247  0.4141
 9559SOL    HW140310   1.249   2.107   4.205  1.3423 -0.3364  3.6309
 9559SOL    HW240311   1.226   1.961   4.237  0.9642 -1.2400 -1.0511
 9560SOL     OW40312   3.473   0.609   7.237 -0.2204  0.1727 -0.9094
 9560SOL    HW140313   3.378   0.624   7.239 -0.2755 -0.4482  1.7496
 9560SOL    HW240314   3.499   0.656   7.158  0.3060 -1.4963 -1.7335
 9561SOL     OW40315   3.191   0.850   2.426 -0.1178  0.5303 -0.4152
 9561SOL    HW140316   3.145   0.772   2.457  1.2242  0.2312  0.8089
 9561SOL    HW240317   3.247   0.806   2.362 -0.9310 -0.1548 -0.6677
 9562SOL     OW40318   4.496   3.065   7.080  0.1566 -0.3858 -0.1171
 9562SOL    HW140319   4.577   3.096   7.040 -0.6599 -0.0343 -1.4970
 9562SOL    HW240320   4.482   2.975   7.052 -0.1261  0.2410 -1.9520
 9563SOL     OW40321   0.327   3.724   5.777  0.0114  0.1266 -0.1842
 9563SOL    HW140322   0.395   3.747   5.841  0.3996 -0.2602 -0.4586
 9563SOL    HW240323   0.268   3.799   5.783 -0.3820 -0.1874 -0.0795
 9564SOL     OW40324   3.283   0.915   8.013 -0.0684 -1.0267  0.1214
 9564SOL    HW140325   3.352   0.895   7.949 -0.1089 -1.3083  0.1678
 9564SOL    HW240326   3.283   1.011   8.010  2.0071 -0.9352  3.7280
 9565SOL     OW40327   0.288   3.328  12.259  0.4017  0.2362 -0.0292
 9565SOL    HW140328   0.335   3.308  12.179 -0.3709 -2.2071  0.1124
 9565SOL    HW240329   0.358   3.323  12.324  0.1424 -1.0641  0.1505
 9566SOL     OW40330   3.481   4.019   6.573  0.4463  0.0804 -0.0521
 9566SOL    HW140331   3.419   4.078   6.530 -1.5030 -1.6358  0.4202
 9566SOL    HW240332   3.524   4.074   6.639 -0.5430  0.2734  0.4457
 9567SOL     OW40333   0.679   2.884   5.580  0.4159  0.3580 -0.2280
 9567SOL    HW140334   0.633   2.944   5.521 -0.2519  0.2333  0.1638
 9567SOL    HW240335   0.604   2.847   5.625  0.0374  1.8505  0.3895
 9568SOL     OW40336   3.299   4.194   6.454 -0.1764  0.3635  0.4520
 9568SOL    HW140337   3.226   4.240   6.495  0.5141  2.1145 -0.2789
 9568SOL    HW240338   3.340   4.258   6.396 -0.2418 -0.3688 -0.4075
 9569SOL     OW40339   4.624   1.700   6.345 -0.1860 -0.1224  0.7254
 9569SOL    HW140340   4.696   1.666   6.292  0.1697 -1.3478  1.9907
 9569SOL    HW240341   4.668   1.702   6.430 -0.9909 -0.4566  1.1558
 9570SOL     OW40342   1.399   2.637   7.559  0.0958  0.7128 -0.3749
 9570SOL    HW140343   1.463   2.707   7.543 -0.1699  1.3790  1.4791
 9570SOL    HW240344   1.444   2.557   7.532 -3.0001 -1.3352  0.5565
 9571SOL     OW40345   1.805   0.980   7.344  0.5406  0.1117  0.6381
 9571SOL    HW140346   1.814   0.970   7.439 -0.8966  1.3827  0.9062
 9571SOL    HW240347   1.765   1.066   7.335 -0.2653 -0.3329 -0.0893
   4.73900   4.73900  17.75386
