Membrane in water
40347
    1TMC1    C1    1   3.109   2.842  11.121 -0.3475 -0.4754  0.8802
    1TMC1    C2    2   3.212   2.805  11.035  0.0776  0.2393 -0.0157
    1TMC1    C3    3   3.179   2.767  10.909  0.7339  0.5825  0.5051
    1TMC1    C4    4   2.985   2.864  11.080  0.0335  0.1398 -0.0401
    1TMC1    C5    5   2.965   2.856  10.940  0.4854 -0.0043 -0.3310
    1TMC1    C6    6   3.058   2.807  10.849  0.1513  1.0683 -0.1446
    1TMC1     C    7   3.140   2.882  11.260  0.5784  0.6208  0.5550
    1TMC1     O    8   3.039   2.915  11.321  0.5266  0.0326 -0.4925
    1TMC1     H    9   3.303   2.763  11.075 -0.9241 -2.0557 -0.1746
    1TMC1    H1   10   2.918   2.923  11.141  1.4002 -0.1554  1.7332
    1TMC1    H2   11   3.032   2.801  10.744 -1.0242  1.0843  0.1532
    1TMC1    C7   12   2.836   2.888  10.886 -0.2924  0.0741 -0.7295
    1TMC1    C8   13   3.302   2.725  10.831  0.3002 -0.9567  0.4517
    1TMC1    O1   14   2.769   2.818  10.814 -0.9776 -0.3219 -0.4094
    1TMC1    O2   15   3.414   2.751  10.877  0.0472  0.0827  0.3331
    1TMC1    O3   16   2.790   2.986  10.963  0.2379 -0.0534 -0.6881
    1TMC1    H3   17   2.855   3.037  11.017 -3.8842  2.8670  1.5175
    1TMC1    O5   18   3.264   2.686  10.712 -0.2449 -0.3459  0.4514
    1TMC1    H5   19   3.169   2.664  10.703  0.0287 -0.6180 -1.6798
    2MPD2     C   20   3.377   2.864  11.711 -0.2470 -0.3301  0.3653
    2MPD2    C1   21   3.264   2.935  11.676 -0.1736  0.3607 -0.2868
    2MPD2    C2   22   3.245   2.947  11.539 -0.4804  0.4429 -0.8592
    2MPD2    C3   23   3.311   2.868  11.449  0.0376 -0.2627 -0.8302
    2MPD2    C4   24   3.419   2.794  11.489  0.0727  0.4402  0.9419
    2MPD2    C5   25   3.455   2.805  11.620 -0.4859 -0.2987  0.0709
    2MPD2     H   26   3.161   3.007  11.505  0.7057  2.3649 -0.4089
    2MPD2    H1   27   3.470   2.730  11.418 -0.8497 -0.6229  1.2563
    2MPD2    H2   28   3.415   2.856  11.812  0.9464  1.3107  0.0326
    2MPD2    H3   29   3.540   2.748  11.656  0.0693  0.4180 -0.0847
    2MPD2     N   30   3.266   2.853  11.313  0.1617  0.3067  0.0176
    2MPD2    H5   31   3.326   2.807  11.245 -2.0223 -0.1189 -1.6149
    2MPD2    N1   32   3.168   2.985  11.766 -0.2573 -0.2464  0.0266
    2MPD2    H7   33   3.084   3.026  11.727  0.2026  1.5075  0.8423
    3TMC1    C1   34   2.916   1.144  11.035 -0.0327 -0.4064 -0.2636
    3TMC1    C2   35   3.004   1.183  11.135  0.4748  0.5170 -0.2727
    3TMC1    C3   36   2.955   1.182  11.257 -0.5233 -0.1836 -0.2959
    3TMC1    C4   37   2.786   1.116  11.061  0.5949 -0.0305  0.1306
    3TMC1    C5   38   2.737   1.131  11.190 -0.2211  0.8673  0.5495
    3TMC1    C6   39   2.823   1.164  11.296 -0.2884 -0.2198 -0.5310
    3TMC1     C   40   2.979   1.092  10.915  0.1964 -0.1849  0.3329
    3TMC1     O   41   3.105   1.098  10.917 -0.1501  0.4915 -0.0838
    3TMC1     H   42   3.112   1.186  11.127  0.5682  1.1076  1.2617
    3TMC1    H1   43   2.706   1.105  10.989  0.2209 -0.7368  0.6447
    3TMC1    H2   44   2.790   1.170  11.399 -0.5561 -2.7090 -0.4745
    3TMC1    C7   45   2.612   1.076  11.234 -0.4390 -0.6457  0.0949
    3TMC1    C8   46   3.052   1.180  11.361 -0.6861 -0.2581 -0.7804
    3TMC1    O1   47   2.617   0.998  11.329  0.3138  0.0142  0.1589
    3TMC1    O2   48   3.038   1.113  11.461 -0.6181 -0.2227  0.0823
    3TMC1    O3   49   2.508   1.102  11.148 -0.5531 -0.3117  0.1633
    3TMC1    H3   50   2.518   1.186  11.099  1.4463 -0.8614 -0.3873
    3TMC1    O5   51   3.154   1.259  11.331 -0.2513 -0.6362  0.3132
    3TMC1    H5   52   3.126   1.324  11.264  2.5349  1.1214  0.8903
    4MPD2     C   53   3.011   0.796  10.491 -0.5434 -0.3742  0.4541
    4MPD2    C1   54   2.887   0.777  10.548  0.4012  0.0857  1.1058
    4MPD2    C2   55   2.861   0.854  10.663  0.0738  0.2587 -0.6035
    4MPD2    C3   56   2.948   0.944  10.723  0.6149 -0.6271  0.4873
    4MPD2    C4   57   3.070   0.952  10.665 -0.4129 -0.1092  0.1819
    4MPD2    C5   58   3.100   0.883  10.549 -1.0983 -0.3081 -0.9544
    4MPD2     H   59   2.766   0.850  10.716  0.1059 -0.4770 -0.6083
    4MPD2    H1   60   3.142   1.024  10.702 -1.1409  0.1584  1.0927
    4MPD2    H2   61   3.040   0.743  10.401  1.9649 -1.3458  1.8090
    4MPD2    H3   62   3.199   0.901  10.506 -1.5789 -0.6411 -2.2069
    4MPD2     N   63   2.898   1.021  10.831 -0.7267 -0.1796  0.2555
    4MPD2    H5   64   2.800   1.005  10.851 -0.9442  0.1763 -0.5296
    4MPD2    N1   65   2.795   0.675  10.508 -0.0234 -0.1292  0.4418
    4MPD2    H7   66   2.707   0.671  10.558 -0.0739 -1.5781  0.2402
    5TCq1    O1   67   2.468   1.981  11.027  0.1764  0.4661  0.0349
    5TCq1    C1   68   2.409   1.896  10.945 -0.1966 -0.2849 -0.0252
    5TCq1    O2   69   2.292   1.900  10.916  0.4293  0.1882  0.1858
    5TCq1    C2   70   2.484   1.761  10.943  0.0222  0.6287 -0.1967
    5TCq1    C3   71   2.407   1.646  10.963 -0.3281  0.0279  1.0104
    5TCq1    C4   72   2.469   1.531  10.978 -0.1602 -0.3767 -0.6037
    5TCq1    C5   73   2.606   1.529  10.972  0.1163 -0.6057  0.2399
    5TCq1    C6   74   2.680   1.647  10.953  0.1246 -1.0010 -0.2162
    5TCq1    C7   75   2.621   1.765  10.929 -0.2297  0.4647 -0.9387
    5TCq1    C8   76   2.825   1.631  10.944 -0.1359 -0.5701  0.2979
    5TCq1    O4   77   2.870   1.518  10.939  0.0210 -0.0421 -0.0697
    5TCq1    C9   78   2.403   1.406  11.002  0.9019  0.0884 -0.2384
    5TCq1    O5   79   2.483   1.309  11.014  0.6763 -0.7538  1.0310
    5TCq1    O6   80   2.278   1.407  11.013  0.5872 -0.0006 -0.1651
    5TCq1    H1   81   2.562   1.968  11.048 -0.1511 -0.6007  0.8338
    5TCq1    H2   82   2.300   1.649  10.981 -0.8266  0.7271 -1.9527
    5TCq1    H3   83   2.664   1.439  10.988 -1.6989 -1.3992  2.3500
    5TCq1    H4   84   2.675   1.857  10.914 -1.0934  0.9083 -1.3316
    6MPD2     C   85   3.083   1.894  10.960 -0.4528  1.0117 -0.4035
    6MPD2    C1   86   3.027   1.766  10.944  1.2681  0.9471 -0.2752
    6MPD2    C2   87   3.109   1.662  10.898 -0.6261 -0.2049 -0.1373
    6MPD2    C3   88   3.237   1.692  10.856  0.3601 -0.7445  0.1158
    6MPD2    C4   89   3.288   1.817  10.856  0.0109 -0.6612 -0.9635
    6MPD2    C5   90   3.209   1.917  10.910  0.2523  0.1636 -0.3916
    6MPD2     H   91   3.075   1.559  10.887  1.6017 -1.1019  1.3918
    6MPD2    H1   92   3.392   1.837  10.834 -0.0186 -0.3086 -0.7806
    6MPD2    H2   93   3.026   1.980  10.994 -0.0689  1.0524  0.1207
    6MPD2    H3   94   3.249   2.018  10.910  2.2563 -0.6243 -1.3748
    6MPD2     N   95   3.319   1.582  10.824  0.3070  0.3063 -0.3995
    6MPD2    H5   96   3.272   1.492  10.821  0.2837  0.3395 -1.0697
    6MPD2    N1   97   2.889   1.751  10.975 -0.3547 -0.7230  0.2810
    6MPD2    H7   98   2.826   1.830  10.988  1.7480  1.2478 -1.5289
    7TCq1    O1   99   0.517   0.922  13.326  0.0209 -0.1485  0.3723
    7TCq1    C1  100   0.417   0.861  13.400 -0.0959 -0.2885 -0.6859
    7TCq1    O2  101   0.428   0.823  13.516  0.3206  0.3748 -0.7812
    7TCq1    C2  102   0.333   0.790  13.304 -0.5338  0.2573 -0.3346
    7TCq1    C3  103   0.293   0.852  13.190 -0.1392  0.2585  0.6243
    7TCq1    C4  104   0.234   0.779  13.099  0.1799 -0.4004  0.0262
    7TCq1    C5  105   0.233   0.643  13.102 -0.9615 -0.0859 -0.3250
    7TCq1    C6  106   0.287   0.573  13.202  0.2457  0.1496  0.2356
    7TCq1    C7  107   0.322   0.655  13.315  1.0050 -0.1325  0.3314
    7TCq1    C8  108   0.298   0.430  13.218 -0.6058  0.0105 -0.2122
    7TCq1    O4  109   0.354   0.383  13.317  0.3612 -0.2148 -0.1156
    7TCq1    C9  110   0.190   0.845  12.981 -0.7723  0.2507 -0.7364
    7TCq1    O5  111   0.123   0.774  12.902  0.3704 -0.0157  0.3314
    7TCq1    O6  112   0.210   0.965  12.972  0.4548  0.0152  0.5001
    7TCq1    H1  113   0.521   0.883  13.236 -0.1112  0.6313  0.0216
    7TCq1    H2  114   0.280   0.960  13.185 -2.0734  0.0168  0.3943
    7TCq1    H3  115   0.202   0.591  13.012  0.1009 -1.6960  0.2384
    7TCq1    H4  116   0.358   0.607  13.405  2.7988  0.6317  0.0360
    8MPD2     C  117   0.253   4.693  13.018 -0.3243  0.2936 -0.6013
    8MPD2    C1  118   0.305   0.002  13.131 -0.1620 -0.2088  0.5466
    8MPD2    C2  119   0.311   0.135  13.167 -0.6708 -0.4701  0.2328
    8MPD2    C3  120   0.236   0.231  13.089 -0.0420 -0.2298  0.3867
    8MPD2    C4  121   0.162   0.179  12.982 -0.5609 -0.2217  0.0341
    8MPD2    C5  122   0.177   0.051  12.944 -0.6961  0.4281 -0.5307
    8MPD2     H  123   0.372   0.160  13.253 -1.0347  1.6488 -0.1220
    8MPD2    H1  124   0.091   0.244  12.933 -1.3984 -0.1865  1.3135
    8MPD2    H2  125   0.241   4.589  12.989 -1.0107 -0.0931  1.0873
    8MPD2    H3  126   0.119   0.008  12.863 -0.9907 -2.2172  1.0769
    8MPD2     N  127   0.241   0.369  13.106 -0.1323 -0.3373 -0.2807
    8MPD2    H5  128   0.204   0.423  13.029 -1.7687 -1.0509  0.0058
    8MPD2    N1  129   0.353   4.628  13.211 -0.2837  0.4877  0.2117
    8MPD2    H7  130   0.327   4.536  13.176 -0.5046  1.0072 -0.9933
    9TMC1    C1  131   3.081   4.530  10.630  0.7553 -0.0889  0.5354
    9TMC1    C2  132   3.175   4.565  10.529  0.1881  0.3998 -0.7365
    9TMC1    C3  133   3.224   4.691  10.548 -0.3320 -0.2933  0.2389
    9TMC1    C4  134   3.039   4.615  10.732  0.4485  0.3352 -0.2868
    9TMC1    C5  135   3.103   0.004  10.742  0.0047 -0.3929 -0.4019
    9TMC1    C6  136   3.197   0.042  10.652  0.4644 -0.2519  0.2748
    9TMC1     C  137   3.002   4.414  10.611  0.2326  0.1114 -0.6272
    9TMC1     O  138   2.995   4.376  10.493 -0.1512  0.4668  0.1071
    9TMC1     H  139   3.190   4.492  10.450 -1.0555  0.7194 -1.2628
    9TMC1    H1  140   2.943   4.610  10.782  1.1222 -1.9480  0.7376
    9TMC1    H2  141   3.229   0.145  10.667  0.7301 -0.2197 -0.4748
    9TMC1    C7  142   3.065   0.095  10.842  0.4098  0.4091  0.2242
    9TMC1    C8  143   3.349   4.717  10.478 -0.1741  0.3137 -0.0914
    9TMC1    O1  144   2.963   0.084  10.909 -0.4071  0.4256 -0.5715
    9TMC1    O2  145   3.448   0.029  10.532 -0.1455 -0.1390  0.4862
    9TMC1    O3  146   3.176   0.166  10.885 -0.4094  0.4479 -0.3439
    9TMC1    H3  147   3.266   0.137  10.858 -0.0958  0.2608  0.9107
    9TMC1    O5  148   3.354   4.644  10.365 -0.5236 -0.3498  0.1179
    9TMC1    H5  149   3.262   4.612  10.353 -1.1327  1.7773 -0.9025
   10MPD2     C  150   2.858   4.152  10.634  0.8027  0.3327 -0.2478
   10MPD2    C1  151   2.906   4.222  10.740 -0.1859  0.1449  0.8318
   10MPD2    C2  152   2.878   4.181  10.866 -0.4212  0.5514  0.0705
   10MPD2    C3  153   2.811   4.062  10.888 -0.2112  0.0512 -0.2995
   10MPD2    C4  154   2.770   3.979  10.783  0.2908  0.0572  0.2169
   10MPD2    C5  155   2.795   4.029  10.658  0.1966  0.5231  0.7308
   10MPD2     H  156   2.901   4.247  10.948 -0.9060  2.6827 -1.5113
   10MPD2    H1  157   2.724   3.882  10.798  1.8465 -0.6533  0.3517
   10MPD2    H2  158   2.869   4.184  10.530 -1.0868  0.1417 -0.5055
   10MPD2    H3  159   2.771   3.967  10.571  1.0297  0.1946  0.7370
   10MPD2     N  160   2.780   4.022  11.014  0.0125  0.0757  0.1196
   10MPD2    H5  161   2.725   3.937  11.025 -0.1776 -0.1167 -2.3816
   10MPD2    N1  162   2.963   4.351  10.733 -0.2341 -0.0142  0.6810
   10MPD2    H7  163   2.987   4.397  10.820  0.4541 -1.0432  1.0376
   11TCq1    O1  164   3.701   4.290  14.568 -0.2697 -0.3191  0.0465
   11TCq1    C1  165   3.579   4.240  14.570  0.3542  0.4723  0.1509
   11TCq1    O2  166   3.490   4.292  14.635 -0.0853 -0.2144 -0.2142
   11TCq1    C2  167   3.581   4.115  14.496  0.2114  0.4628 -0.0754
   11TCq1    C3  168   3.698   4.041  14.471 -0.2145  0.0012 -0.0869
   11TCq1    C4  169   3.683   3.922  14.415  0.1858  0.1122  0.4035
   11TCq1    C5  170   3.567   3.860  14.400 -0.0701  0.1605  0.3818
   11TCq1    C6  171   3.459   3.933  14.431  0.7377 -0.8273 -0.3148
   11TCq1    C7  172   3.460   4.066  14.466 -0.1097  0.3364  0.8818
   11TCq1    C8  173   3.329   3.879  14.392  0.0037  0.4455  0.4962
   11TCq1    O4  174   3.234   3.920  14.461 -0.2072 -0.2189  0.3021
   11TCq1    C9  175   3.802   3.851  14.379  0.3213 -1.0871 -0.0909
   11TCq1    O5  176   3.907   3.889  14.438 -0.2943  0.3865 -0.0932
   11TCq1    O6  177   3.783   3.752  14.302 -0.6446 -0.4426 -0.3542
   11TCq1    H1  178   3.756   4.267  14.490  0.7770 -0.4125  0.8123
   11TCq1    H2  179   3.796   4.081  14.495 -0.8433  1.5298 -0.0806
   11TCq1    H3  180   3.559   3.756  14.371 -2.2502  0.5986 -0.5837
   11TCq1    H4  181   3.368   4.122  14.480 -0.1011  0.5136  0.2185
   12MPD2     C  182   3.123   3.680  14.317  0.2602 -0.0578 -0.5586
   12MPD2    C1  183   3.235   3.702  14.248  0.5328 -0.1298 -0.0556
   12MPD2    C2  184   3.279   3.609  14.156 -0.5633  0.0920 -0.1051
   12MPD2    C3  185   3.214   3.490  14.137  0.3079  0.5140 -0.4395
   12MPD2    C4  186   3.100   3.467  14.214  0.8978  0.1182 -0.1097
   12MPD2    C5  187   3.053   3.560  14.298  0.3507 -0.6534  0.4921
   12MPD2     H  188   3.368   3.627  14.097  0.2591 -0.6841  0.8903
   12MPD2    H1  189   3.047   3.373  14.205  0.3733  0.2746  1.3144
   12MPD2    H2  190   3.094   3.754  14.390 -2.0952  0.6206 -2.1865
   12MPD2    H3  191   2.957   3.535  14.343  0.6123  0.2066  1.5255
   12MPD2     N  192   3.274   3.396  14.049 -0.4360  0.0822  0.0317
   12MPD2    H5  193   3.353   3.427  13.993  0.4736 -1.2472  0.5683
   12MPD2    N1  194   3.329   3.804  14.277  0.2338  0.3882 -1.1118
   12MPD2    H7  195   3.419   3.791  14.231  1.1416 -1.7647  1.2589
   13TCq1    O1  196   2.397   3.203  10.042  0.2395 -0.5381  0.2657
   13TCq1    C1  197   2.296   3.268   9.985  0.0242  0.4848 -0.5355
   13TCq1    O2  198   2.178   3.235   9.989  0.2827  0.0844 -0.2804
   13TCq1    C2  199   2.339   3.377   9.890 -0.8938 -0.6586  0.6277
   13TCq1    C3  200   2.251   3.403   9.791 -0.2047 -0.6988  0.3362
   13TCq1    C4  201   2.277   3.514   9.711  0.3576  0.3082  0.0426
   13TCq1    C5  202   2.382   3.602   9.755 -0.3321  0.8970  0.5762
   13TCq1    C6  203   2.458   3.571   9.861 -0.2586  0.2186  0.4664
   13TCq1    C7  204   2.442   3.457   9.932  0.3779  0.3258 -0.7028
   13TCq1    C8  205   2.519   3.678   9.938 -0.5937  0.2581 -0.2213
   13TCq1    O4  206   2.528   3.665  10.059 -0.2047  0.1010  0.2518
   13TCq1    C9  207   2.215   3.524   9.580 -0.3225 -0.5051  0.7290
   13TCq1    O5  208   2.139   3.431   9.547 -0.5495  0.1714  0.1986
   13TCq1    O6  209   2.237   3.629   9.508  0.1265  0.2382  0.1090
   13TCq1    H1  210   2.486   3.236  10.018 -0.7839  0.9515 -1.4813
   13TCq1    H2  211   2.176   3.331   9.757 -0.6604  0.6685 -1.5957
   13TCq1    H3  212   2.393   3.695   9.701 -2.7056 -0.0069 -1.4503
   13TCq1    H4  213   2.500   3.445  10.023  1.2373  1.8977 -1.0411
   14MPD2     C  214   2.694   3.965   9.809 -0.7863  0.1357 -0.5990
   14MPD2    C1  215   2.636   3.893   9.904  0.0212 -0.2130 -0.9206
   14MPD2    C2  216   2.623   3.942  10.035  0.3381 -0.0988  0.1880
   14MPD2    C3  217   2.682   4.062  10.070  1.2647 -1.1057 -0.5195
   14MPD2    C4  218   2.738   4.139   9.968 -0.5179  0.4072  0.0058
   14MPD2    C5  219   2.734   4.091   9.838 -0.2467 -0.8048  0.1017
   14MPD2     H  220   2.579   3.883  10.115 -0.6344 -0.8322 -0.8777
   14MPD2    H1  221   2.787   4.233   9.992  0.6946  0.0442 -1.0688
   14MPD2    H2  222   2.699   3.917   9.713 -1.7030  0.2989 -0.7260
   14MPD2    H3  223   2.777   4.157   9.763  0.0223  0.5993  1.4710
   14MPD2     N  224   2.670   4.111  10.206  0.0430  0.7000  0.2752
   14MPD2    H5  225   2.621   4.050  10.272  2.5383 -0.9795  0.5823
   14MPD2    N1  226   2.581   3.767   9.859  0.8365 -0.4476 -0.1839
   14MPD2    H7  227   2.589   3.738   9.763 -1.9232  0.6875 -0.7580
   15TCq1    O1  228   4.691   3.384   1.453  0.7831  0.2044 -0.6598
   15TCq1    C1  229   4.718   3.307   1.354  0.3169 -0.3925  0.5178
   15TCq1    O2  230   4.708   3.343   1.241  0.1406  0.2456  0.6957
   15TCq1    C2  231   0.010   3.173   1.393  0.9017  0.1618 -0.7202
   15TCq1    C3  232   4.704   3.123   1.519 -0.1430  0.8453  0.5578
   15TCq1    C4  233   0.028   3.007   1.563  0.1172 -0.6183 -0.3291
   15TCq1    C5  234   0.115   2.936   1.488  0.2519 -0.0502 -0.3267
   15TCq1    C6  235   0.127   2.967   1.357  0.6550  0.4539 -0.3014
   15TCq1    C7  236   0.085   3.086   1.311 -0.4551 -0.4537  0.3784
   15TCq1    C8  237   0.215   2.892   1.269 -0.6184  0.3333  0.5276
   15TCq1    O4  238   0.294   2.817   1.324  0.0362  1.2033 -0.5700
   15TCq1    C9  239   4.716   2.968   1.693 -0.1947  0.0664  0.9054
   15TCq1    O5  240   0.028   2.857   1.732  0.7043  0.1439 -0.1749
   15TCq1    O6  241   4.608   3.014   1.729  0.1185 -0.4574  0.0578
   15TCq1    H1  242   0.010   3.368   1.534  1.7118  0.1832 -1.2876
   15TCq1    H2  243   4.649   3.187   1.586  0.7583  1.2168  0.9366
   15TCq1    H3  244   0.149   2.840   1.525  0.2061 -0.3450 -1.0512
   15TCq1    H4  245   0.118   3.125   1.215 -0.6563  0.8136  0.8257
   16MPD2     C  246   0.222   2.911   0.899  0.0847 -0.6868  0.9475
   16MPD2    C1  247   0.259   2.867   1.029  0.1943  0.3855 -0.1370
   16MPD2    C2  248   0.359   2.768   1.040 -0.5100 -0.6892 -0.6047
   16MPD2    C3  249   0.415   2.721   0.924  0.4180 -0.2017 -0.0560
   16MPD2    C4  250   0.387   2.774   0.802 -0.3310 -0.0326 -0.2275
   16MPD2    C5  251   0.287   2.864   0.792 -0.2851 -0.2964  0.1279
   16MPD2     H  252   0.391   2.728   1.135  1.4365 -0.8453 -1.3303
   16MPD2    H1  253   0.434   2.747   0.708 -2.7538  1.5963 -1.9136
   16MPD2    H2  254   0.141   2.981   0.879 -0.0742 -1.3468 -0.7465
   16MPD2    H3  255   0.283   2.911   0.694  0.9861  2.3118  1.3191
   16MPD2     N  256   0.519   2.635   0.937  0.7317  0.2009 -0.5046
   16MPD2    H5  257   0.544   2.618   1.035  0.8077 -0.6906 -0.6763
   16MPD2    N1  258   0.192   2.921   1.139  0.3756  0.2994 -0.2148
   16MPD2    H7  259   0.117   2.987   1.121 -0.4147 -0.0819  1.5872
   17TMC1    C1  260   2.642   3.299   9.353  1.3340  0.5954 -0.1608
   17TMC1    C2  261   2.579   3.296   9.472  0.7195 -0.4199  0.5906
   17TMC1    C3  262   2.471   3.218   9.491 -0.2133 -0.3863 -0.1917
   17TMC1    C4  263   2.593   3.229   9.245  0.4551  0.2648  0.3061
   17TMC1    C5  264   2.478   3.160   9.265 -0.2686  0.9941  0.5792
   17TMC1    C6  265   2.414   3.147   9.386  0.1517 -0.4694  0.1080
   17TMC1     C  266   2.742   3.401   9.335 -0.2151 -0.4508 -0.6676
   17TMC1     O  267   2.748   3.429   9.217 -0.1397 -0.3330 -0.2536
   17TMC1     H  268   2.594   3.380   9.540  0.4712 -0.8469  1.1695
   17TMC1    H1  269   2.648   3.226   9.151  1.3539  1.8336  0.7926
   17TMC1    H2  270   2.325   3.086   9.396 -1.3438  1.8781  0.9952
   17TMC1    C7  271   2.420   3.109   9.152 -0.8142 -0.6650 -0.1811
   17TMC1    C8  272   2.424   3.186   9.618 -0.4602 -0.2931 -0.6954
   17TMC1    O1  273   2.476   3.058   9.060  0.5517 -0.2108  0.0508
   17TMC1    O2  274   2.317   3.135   9.643 -0.1721 -0.0893 -0.2113
   17TMC1    O3  275   2.296   3.164   9.154  0.1833 -0.6446 -0.0128
   17TMC1    H3  276   2.276   3.222   9.231  1.2689 -1.0109  0.5422
   17TMC1    O5  277   2.529   3.203   9.705  0.5213 -0.5320 -0.8440
   17TMC1    H5  278   2.610   3.232   9.658 -1.0626  1.5096 -2.2697
   18MPD2     C  279   2.907   3.630   9.342  0.5444  0.1086  0.2051
   18MPD2    C1  280   2.871   3.561   9.456 -0.6282 -0.1539 -0.1584
   18MPD2    C2  281   2.896   3.614   9.583 -0.0177  0.1815 -0.6231
   18MPD2    C3  282   2.959   3.737   9.591  0.0130  0.2843  0.4687
   18MPD2    C4  283   3.009   3.794   9.475 -0.5886  0.3386 -0.0718
   18MPD2    C5  284   2.982   3.749   9.351 -0.3496  0.5538  0.4369
   18MPD2     H  285   2.867   3.558   9.671  1.1687 -0.0532 -0.3758
   18MPD2    H1  286   3.044   3.897   9.477 -3.0500  1.1999 -1.0500
   18MPD2    H2  287   2.873   3.614   9.241  2.1268 -2.0750  0.0274
   18MPD2    H3  288   3.007   3.804   9.261 -2.4897  2.3720  0.9561
   18MPD2     N  289   2.987   3.804   9.718 -0.8809  0.2446 -0.3047
   18MPD2    H5  290   3.028   3.896   9.708  0.7541 -0.6434 -1.8615
   18MPD2    N1  291   2.806   3.446   9.450 -0.4115  0.5799 -0.1501
   18MPD2    H7  292   2.781   3.400   9.537 -3.1598  3.0406  0.3300
   19TMC2    C1  293   0.191   3.653  13.668  0.4709 -0.1899  0.3469
   19TMC2    C2  294   0.179   3.750  13.577  0.4144 -0.0494  0.3783
   19TMC2    C3  295   0.055   3.805  13.557 -0.0828 -0.7684  0.1060
   19TMC2    C4  296   0.091   3.599  13.741 -0.3231  0.2079  0.0793
   19TMC2    C5  297   4.699   3.647  13.702 -0.1158  0.4138 -0.0697
   19TMC2    C6  298   4.685   3.758  13.624  0.3694  0.0657  1.1082
   19TMC2     C  299   0.318   3.586  13.674  0.3346  0.1064 -0.3296
   19TMC2     O  300   0.392   3.569  13.580  0.2799 -0.4729  0.4721
   19TMC2     H  301   0.268   3.788  13.529  1.2436  0.4051  2.2484
   19TMC2    H1  302   0.095   3.515  13.810 -0.7453  0.7741  0.7982
   19TMC2    H2  303   4.587   3.804  13.615  0.3315 -0.7706 -2.9703
   19TMC2    C7  304   4.597   3.620  13.795  0.1091  0.0923 -0.1564
   19TMC2    C8  305   0.044   3.940  13.514  0.1672 -0.3587 -0.9363
   19TMC2    O1  306   4.639   3.593  13.905 -0.4622 -0.4652  0.1144
   19TMC2    O2  307   4.672   4.001  13.514 -0.1845 -0.1808  0.2160
   19TMC2    O5  308   0.170   3.992  13.525  0.2898  1.2312  0.2694
   19TMC2    H5  309   0.254   3.945  13.543  0.7937  1.8957 -0.3776
   20MPD2     C  310   0.542   3.408  13.771 -0.5201 -0.0130 -0.5622
   20MPD2    C1  311   0.456   3.477  13.850 -0.1089 -0.0938  0.4280
   20MPD2    C2  312   0.464   3.469  13.991 -0.0946 -0.3105  0.4819
   20MPD2    C3  313   0.551   3.379  14.050  0.3500  0.7167 -0.5256
   20MPD2    C4  314   0.633   3.311  13.968  0.1883 -0.0432  0.1231
   20MPD2    C5  315   0.630   3.335  13.833 -0.0098 -0.1098  0.1348
   20MPD2     H  316   0.392   3.531  14.043 -0.0040  0.7891 -0.7035
   20MPD2    H1  317   0.702   3.233  13.999 -1.4482 -1.7569 -0.5674
   20MPD2    H2  318   0.556   3.427  13.665 -0.7111  0.5125 -0.4894
   20MPD2    H3  319   0.707   3.294  13.768  1.2850  2.2979  0.1329
   20MPD2     N  320   0.559   3.359  14.188  0.7082 -0.2950 -0.4294
   20MPD2    H5  321   0.641   3.306  14.216  1.6183  0.4602 -1.7269
   20MPD2    N1  322   0.348   3.555  13.807 -0.3868  0.1090  0.2553
   20MPD2    H7  323   0.284   3.583  13.880  1.1279  2.1143  0.8182
   21TMC2    C1  324   2.336   4.077  14.029 -0.4764  0.4520 -0.5589
   21TMC2    C2  325   2.420   3.964  14.007 -0.3660  0.2575 -0.0139
   21TMC2    C3  326   2.398   3.848  14.072  0.4364 -0.2336 -0.8146
   21TMC2    C4  327   2.240   4.068  14.127 -0.4068 -0.3249 -0.8587
   21TMC2    C5  328   2.237   3.954  14.205 -0.2618 -1.0691  0.4738
   21TMC2    C6  329   2.312   3.848  14.178  0.2096  0.4053 -0.4721
   21TMC2     C  330   2.423   4.197  14.032 -0.3543  0.9215 -0.5564
   21TMC2     O  331   2.545   4.168  14.035 -0.2865  0.2287  0.0345
   21TMC2     H  332   2.486   3.967  13.921  2.7040  0.6936  2.3469
   21TMC2    H1  333   2.172   4.150  14.146  0.3069 -0.1542  1.0270
   21TMC2    H2  334   2.302   3.760  14.240  0.4228 -0.3866 -1.5668
   21TMC2    C7  335   2.192   3.967  14.344 -0.4462 -0.0770 -0.5438
   21TMC2    C8  336   2.495   3.740  14.049  0.2724  0.0458 -0.0284
   21TMC2    O1  337   2.265   3.918  14.431 -0.2574 -0.1028  0.1043
   21TMC2    O2  338   2.566   3.734  13.949  0.4850  0.6124  0.4491
   21TMC2    O5  339   2.538   3.703  14.173 -0.4080  0.6098  0.0231
   21TMC2    H5  340   2.490   3.742  14.250  0.7907  0.1726  0.9999
   22MPD2     C  341   2.469   4.503  14.431 -0.9697 -0.0526  0.1031
   22MPD2    C1  342   2.521   4.379  14.401  0.6931 -0.0376  0.0148
   22MPD2    C2  343   2.485   4.312  14.283 -0.1302 -0.2473 -0.9063
   22MPD2    C3  344   2.402   4.372  14.197  0.4029  0.2221  0.1118
   22MPD2    C4  345   2.352   4.496  14.225  0.0057 -0.1575  0.2438
   22MPD2    C5  346   2.388   4.562  14.343 -0.2415  0.8367 -0.1450
   22MPD2     H  347   2.510   4.207  14.274 -0.1932 -0.5062  1.8051
   22MPD2    H1  348   2.283   4.540  14.154  0.3561  0.1839  0.1144
   22MPD2    H2  349   2.485   4.560  14.522 -0.2721 -0.5224  0.2755
   22MPD2    H3  350   2.327   4.647  14.369 -1.4751 -0.2149  0.3715
   22MPD2     N  351   2.358   4.303  14.083  0.0744 -0.3795  0.0629
   22MPD2    H5  352   2.278   4.340  14.032  1.4139 -0.9240 -2.4610
   22MPD2    N1  353   2.600   4.308  14.489 -0.2011 -0.0395  0.1550
   22MPD2    H7  354   2.621   4.212  14.464 -1.9932 -0.1891 -0.7954
   23TMC2    C1  355   3.634   0.399  14.817 -0.0144  0.2023  0.6753
   23TMC2    C2  356   3.670   0.471  14.702 -0.0420  0.1947 -0.0502
   23TMC2    C3  357   3.622   0.433  14.579 -0.1383  0.4579 -0.1677
   23TMC2    C4  358   3.537   0.296  14.810  0.7283 -0.0943  0.8951
   23TMC2    C5  359   3.488   0.269  14.683 -0.4354  0.3302 -0.3834
   23TMC2    C6  360   3.534   0.329  14.573 -0.2013  0.1786  0.3999
   23TMC2     C  361   3.697   0.430  14.944  0.1031  0.4893  0.6974
   23TMC2     O  362   3.674   0.348  15.030  0.0986 -0.3657 -0.0413
   23TMC2     H  363   3.750   0.544  14.708  1.0734 -1.0434  0.1987
   23TMC2    H1  364   3.493   0.246  14.895  1.9162 -0.4453  1.3123
   23TMC2    H2  365   3.502   0.292  14.477  1.2596  0.3716 -0.1535
   23TMC2    C7  366   3.358   0.192  14.683  0.5938 -0.5935 -0.1870
   23TMC2    C8  367   3.677   0.487  14.452  0.0749  0.4886 -0.9646
   23TMC2    O1  368   3.321   0.141  14.785 -0.0199 -0.0979  0.4513
   23TMC2    O2  369   3.641   0.440  14.345  0.0953 -0.2668 -0.1553
   23TMC2    O5  370   3.690   0.615  14.476  0.6766 -0.0804 -0.6371
   23TMC2    H5  371   3.660   0.643  14.565  0.0239  1.4184 -1.3317
   24MPD2     C  372   4.018   0.711  15.212  0.5685 -0.0599 -0.2951
   24MPD2    C1  373   3.987   0.576  15.216 -0.0937 -0.2824  0.6488
   24MPD2    C2  374   3.888   0.533  15.130  0.7276  0.6125  0.2314
   24MPD2    C3  375   3.836   0.614  15.035  0.0621 -0.4765  0.9603
   24MPD2    C4  376   3.867   0.753  15.029 -0.4999 -0.0230  0.2898
   24MPD2    C5  377   3.963   0.790  15.114  0.2865  0.2878  0.4309
   24MPD2     H  378   3.850   0.432  15.141  0.5155  0.5941 -0.6927
   24MPD2    H1  379   3.829   0.811  14.946 -3.3912 -1.0527  0.8985
   24MPD2    H2  380   4.098   0.759  15.266 -1.2531  0.3703  1.9813
   24MPD2    H3  381   4.008   0.888  15.101  1.6706 -0.4411 -0.2561
   24MPD2     N  382   3.744   0.558  14.940 -0.4050 -0.1280 -0.7407
   24MPD2    H5  383   3.717   0.613  14.859 -0.7783 -0.1703 -0.6438
   24MPD2    N1  384   4.050   0.479  15.300  0.6340 -0.0299  0.1758
   24MPD2    H7  385   4.018   0.385  15.280 -0.3349  0.7815 -2.0701
   25TMC2    C1  386   3.175   2.315  11.747  0.2439 -0.2293 -0.4081
   25TMC2    C2  387   3.206   2.331  11.611  0.1212 -0.2896 -0.1707
   25TMC2    C3  388   3.186   2.452  11.556 -0.0919 -0.3196 -0.6039
   25TMC2    C4  389   3.150   2.425  11.831  0.2530  0.3251 -0.0183
   25TMC2    C5  390   3.133   2.545  11.766  0.4002 -0.2773 -0.5874
   25TMC2    C6  391   3.159   2.558  11.634 -0.3551 -0.7107 -0.4963
   25TMC2     C  392   3.091   2.199  11.776  0.3250 -0.7002  0.4153
   25TMC2     O  393   3.122   2.129  11.872 -0.4199  0.3536 -0.2582
   25TMC2     H  394   3.229   2.243  11.552 -0.9144 -1.0937  0.6164
   25TMC2    H1  395   3.112   2.411  11.931  0.1649 -0.5471 -0.1708
   25TMC2    H2  396   3.152   2.656  11.588  3.6817  0.5237  1.5414
   25TMC2    C7  397   3.027   2.635  11.822 -0.4654  0.4146  0.5731
   25TMC2    C8  398   3.172   2.463  11.415  0.0158  0.0888 -0.2909
   25TMC2    O1  399   2.997   2.631  11.941  0.0728  0.4264 -0.9146
   25TMC2    O2  400   3.077   2.530  11.373  0.0877  0.4082  0.6587
   25TMC2    O5  401   3.300   2.476  11.363 -0.4662  0.1790  0.0151
   25TMC2    H5  402   3.374   2.428  11.407  0.9486  1.6591 -0.7487
   26MPD2     C  403   2.603   2.092  11.733 -0.3396  0.4509 -0.2122
   26MPD2    C1  404   2.642   2.144  11.608  0.0273  0.8624 -0.1527
   26MPD2    C2  405   2.777   2.145  11.578 -0.4464  0.1822 -0.1167
   26MPD2    C3  406   2.870   2.135  11.687  0.5904  0.2335 -0.3528
   26MPD2    C4  407   2.830   2.082  11.810  0.1228 -0.2249 -0.6280
   26MPD2    C5  408   2.696   2.063  11.832 -1.1580  0.9129  0.5323
   26MPD2     H  409   2.821   2.173  11.483  0.8109  0.0067  0.4038
   26MPD2    H1  410   2.900   2.060  11.890  0.4735 -0.6148 -1.0452
   26MPD2    H2  411   2.496   2.093  11.752 -0.4271  0.3788 -0.7125
   26MPD2    H3  412   2.658   2.027  11.927 -0.8312 -1.8887 -0.4123
   26MPD2     N  413   2.999   2.190  11.674  0.1951 -0.4617 -0.1422
   26MPD2    H5  414   3.010   2.247  11.591  0.9061  1.2914  1.1392
   26MPD2    N1  415   2.543   2.152  11.510 -0.1074  0.0180 -0.1884
   26MPD2    H7  416   2.449   2.123  11.533 -0.9360 -0.0182 -3.5291
   27TMC2    C1  417   1.262   4.421  13.046  0.2543 -0.3086 -0.4421
   27TMC2    C2  418   1.194   4.529  13.098  0.5929  0.2497 -0.0926
   27TMC2    C3  419   1.279   4.635  13.140 -0.1869 -0.3462  0.0689
   27TMC2    C4  420   1.400   4.406  13.031 -0.0147  0.9522 -0.0151
   27TMC2    C5  421   1.471   4.516  13.066  0.2653  0.0102 -0.2451
   27TMC2    C6  422   1.418   4.625  13.137 -0.0677 -0.2018  0.2675
   27TMC2     C  423   1.185   4.328  12.968 -0.1245  0.1205 -0.4797
   27TMC2     O  424   1.231   4.218  12.967 -0.1458 -0.1145 -0.1986
   27TMC2     H  425   1.089   4.523  13.123  1.4148 -0.0110  3.2314
   27TMC2    H1  426   1.444   4.328  12.971  1.2309 -1.0621  3.4912
   27TMC2    H2  427   1.490   4.681  13.194 -1.2644  0.4294  1.1532
   27TMC2    C7  428   1.600   4.525  13.004 -0.5057  0.3949 -0.4109
   27TMC2    C8  429   1.234   4.699  13.263 -0.3493  1.1431  0.3166
   27TMC2    O1  430   1.630   4.418  12.948  0.0824 -0.6144  0.3237
   27TMC2    O2  431   1.280   4.675  13.373  0.0602 -0.2173  0.0020
   27TMC2    O5  432   1.110   0.006  13.236 -0.2517  0.1902 -0.5724
   27TMC2    H5  433   1.098   0.031  13.142 -3.3835  1.9860  0.2961
   28MPD2     C  434   0.872   4.267  12.567  0.2234 -0.0272 -0.0615
   28MPD2    C1  435   0.867   4.399  12.605  0.3908 -0.0007 -0.4148
   28MPD2    C2  436   0.924   4.429  12.727  0.3243  0.4748  0.0402
   28MPD2    C3  437   1.011   4.338  12.793 -0.3351 -0.4784  0.2107
   28MPD2    C4  438   1.003   4.206  12.762 -0.6196  0.3653  0.3612
   28MPD2    C5  439   0.938   4.171  12.643  0.3267  0.1644 -0.3050
   28MPD2     H  440   0.921   4.531  12.764 -2.1512  1.2475 -2.2330
   28MPD2    H1  441   1.071   4.132  12.801  0.9829  0.2145 -2.6799
   28MPD2    H2  442   0.823   4.233  12.477  1.3758  0.3884 -0.8448
   28MPD2    H3  443   0.944   4.068  12.609  2.1324  0.2058 -0.1353
   28MPD2     N  444   1.089   4.391  12.898 -0.7260  0.2586  0.8760
   28MPD2    H5  445   1.084   4.492  12.910 -0.2942  0.2051  1.5476
   28MPD2    N1  446   0.809   4.495  12.520 -0.5879  0.1631 -0.2271
   28MPD2    H7  447   0.770   4.454  12.436 -2.4649  1.6600 -0.0856
   29TMC2    C1  448   0.926   2.392  14.525 -0.5161  0.2536 -0.5991
   29TMC2    C2  449   0.953   2.382  14.660 -0.0194 -0.0279  0.1351
   29TMC2    C3  450   0.974   2.496  14.733 -0.3232 -0.1328  0.0430
   29TMC2    C4  451   0.932   2.514  14.469  0.2517  0.1232 -0.7012
   29TMC2    C5  452   0.977   2.623  14.540 -0.3086  0.4540  0.6180
   29TMC2    C6  453   0.996   2.619  14.673 -0.4338 -0.4077 -0.5204
   29TMC2     C  454   0.955   2.266  14.450  0.7983  0.1320 -0.2640
   29TMC2     O  455   0.973   2.159  14.505  0.4231  0.3668  0.4000
   29TMC2     H  456   0.969   2.287  14.711 -1.6688 -0.0808  0.5549
   29TMC2    H1  457   0.927   2.536  14.363 -2.7341  0.0172 -0.5666
   29TMC2    H2  458   1.029   2.706  14.727  1.0112 -0.8023 -0.7746
   29TMC2    C7  459   0.955   2.760  14.497  0.4396  0.1407  0.7122
   29TMC2    C8  460   1.023   2.494  14.869 -0.0346  0.2655  0.1525
   29TMC2    O1  461   0.871   2.780  14.409  0.4951  0.1194 -0.1369
   29TMC2    O2  462   1.096   2.580  14.921  0.0922 -0.1170 -0.0989
   29TMC2    O5  463   0.927   2.421  14.929  0.0673 -0.0969 -0.0852
   29TMC2    H5  464   0.851   2.394  14.874  0.9281 -1.1969 -0.7296
   30MPD2     C  465   0.968   1.980  14.018 -0.0290  0.8909 -0.0461
   30MPD2    C1  466   1.016   1.950  14.143 -0.1507 -0.2539 -0.0969
   30MPD2    C2  467   1.012   2.044  14.248  0.0151 -0.7737 -0.5198
   30MPD2    C3  468   0.957   2.168  14.222  0.4983 -0.1997 -0.0153
   30MPD2    C4  469   0.921   2.200  14.097 -0.4216 -0.2162  0.2585
   30MPD2    C5  470   0.929   2.109  13.998 -0.4822  0.4710  0.0238
   30MPD2     H  471   1.046   2.021  14.349 -0.3191 -0.3131 -0.3001
   30MPD2    H1  472   0.886   2.296  14.062  0.6142  1.1131  2.8448
   30MPD2    H2  473   0.980   1.913  13.934 -1.7050 -0.1157  0.5130
   30MPD2    H3  474   0.903   2.140  13.897 -1.1708 -4.1480 -1.2013
   30MPD2     N  475   0.946   2.281  14.312  0.1102  0.3263 -0.1043
   30MPD2    H5  476   0.910   2.368  14.272 -0.0389  0.6501  0.7237
   30MPD2    N1  477   1.066   1.824  14.178  0.7897 -0.4023  0.0670
   30MPD2    H7  478   1.122   1.824  14.262  1.1427 -1.4044 -0.1636
   31TMC2    C1  479   3.472   0.944  15.085 -0.1846 -0.2699  0.6235
   31TMC2    C2  480   3.345   0.900  15.079  1.4578 -0.2591 -0.5140
   31TMC2    C3  481   3.290   0.835  15.180 -0.4227  0.9033  0.1147
   31TMC2    C4  482   3.553   0.915  15.192  0.1497  0.3624 -0.3851
   31TMC2    C5  483   3.492   0.854  15.295 -0.1711  0.1582  0.7480
   31TMC2    C6  484   3.359   0.806  15.296 -0.2600 -0.4096  0.5553
   31TMC2     C  485   3.521   1.008  14.972 -0.1153 -0.3644 -0.2045
   31TMC2     O  486   3.482   0.978  14.859  0.8063  0.3331 -0.2652
   31TMC2     H  487   3.286   0.923  14.992  2.2784  1.2384 -0.6691
   31TMC2    H1  488   3.658   0.939  15.195  0.0524  0.6900  0.3639
   31TMC2    H2  489   3.309   0.767  15.385 -1.9264 -0.7997 -0.5515
   31TMC2    C7  490   3.561   0.849  15.427  0.2741  0.5981 -0.3683
   31TMC2    C8  491   3.148   0.849  15.204 -0.6108  0.0306 -0.5357
   31TMC2    O1  492   3.533   0.759  15.504 -0.4188 -0.5233  0.7989
   31TMC2    O2  493   3.088   0.767  15.270 -0.1880 -0.4366  0.1358
   31TMC2    O5  494   3.097   0.966  15.141 -0.3928  0.1472  0.0430
   31TMC2    H5  495   3.165   1.021  15.097  0.3093  0.7744  1.8814
   32MPD2     C  496   3.789   1.394  14.759  0.0190  1.0007 -0.6176
   32MPD2    C1  497   3.682   1.325  14.703  0.5108 -0.7244  0.1166
   32MPD2    C2  498   3.633   1.218  14.778 -0.5315 -0.2254 -0.2932
   32MPD2    C3  499   3.678   1.189  14.909  0.8756  0.4558  0.3758
   32MPD2    C4  500   3.778   1.273  14.961  0.1757 -0.3201 -0.1864
   32MPD2    C5  501   3.826   1.377  14.887 -0.6728 -0.7389 -0.7523
   32MPD2     H  502   3.549   1.159  14.741 -1.7992  1.2542  0.2360
   32MPD2    H1  503   3.805   1.275  15.066 -0.4108 -0.0034 -0.0392
   32MPD2    H2  504   3.831   1.478  14.705  2.8233 -0.8500 -1.3166
   32MPD2    H3  505   3.898   1.437  14.943 -1.2008 -0.3850 -0.4581
   32MPD2     N  506   3.618   1.102  14.999  0.2914  0.0997 -0.1217
   32MPD2    H5  507   3.649   1.118  15.094  0.2664  2.2477 -0.4788
   32MPD2    N1  508   3.631   1.366  14.579 -0.7955 -0.6225  0.4138
   32MPD2    H7  509   3.672   1.448  14.535 -0.0478 -1.3805 -0.2901
   33TMC2    C1  510   3.636   4.601   9.692 -0.2246  0.6076  0.1332
   33TMC2    C2  511   3.555   4.704   9.676  0.8530 -0.4388 -0.0247
   33TMC2    C3  512   3.601   0.079   9.603  0.4524 -1.1218  0.4841
   33TMC2    C4  513   3.759   4.590   9.635  0.0051  1.1596  0.0230
   33TMC2    C5  514   3.795   4.697   9.559 -0.9263  0.2550  0.1375
   33TMC2    C6  515   3.724   0.072   9.543  0.2763 -0.2635  0.0190
   33TMC2     C  516   3.584   4.488   9.765  0.1143 -0.0177 -0.3620
   33TMC2     O  517   3.465   4.475   9.780 -0.1130  0.0283 -0.2788
   33TMC2     H  518   3.459   4.712   9.726  0.2084 -0.8715 -1.1944
   33TMC2    H1  519   3.816   4.498   9.632  0.2755  1.3469 -0.6339
   33TMC2    H2  520   3.756   0.158   9.485 -0.0897  1.0727  1.7790
   33TMC2    C7  521   3.935   4.690   9.513  0.5031 -0.0021  0.1084
   33TMC2    C8  522   3.535   0.208   9.589 -0.1831 -0.3091  0.5293
   33TMC2    O1  523   4.015   4.640   9.594 -0.8016  0.1737  1.5496
   33TMC2    O2  524   3.595   0.311   9.575  0.4784  0.6949  0.0257
   33TMC2    O5  525   3.419   0.201   9.659  0.0854 -0.3275 -0.1668
   33TMC2    H5  526   3.371   0.128   9.614  2.5128 -1.9078 -0.1998
   34MPD2     C  527   3.631   4.095  10.104 -0.1478  0.8335  0.3824
   34MPD2    C1  528   3.523   4.136  10.036 -0.0842 -0.1932 -0.3546
   34MPD2    C2  529   3.537   4.246   9.948 -0.6738 -0.0258 -0.7203
   34MPD2    C3  530   3.667   4.306   9.919  0.4256 -0.5270 -0.0110
   34MPD2    C4  531   3.778   4.244   9.986  0.1134 -0.8101  0.1979
   34MPD2    C5  532   3.754   4.149  10.079 -0.8792  0.2353 -1.1299
   34MPD2     H  533   3.445   4.284   9.906 -1.0529 -1.2003 -0.9388
   34MPD2    H1  534   3.876   4.289   9.989  0.7179 -2.1372  0.4382
   34MPD2    H2  535   3.634   4.010  10.171  0.9516  0.5273 -0.0522
   34MPD2    H3  536   3.846   4.109  10.120 -1.7499 -0.6549 -0.0332
   34MPD2     N  537   3.686   4.418   9.830 -0.1450  0.0594 -0.3107
   34MPD2    H5  538   3.779   4.452   9.807 -0.1527  1.2192  1.3226
   34MPD2    N1  539   3.405   4.069  10.056 -0.4884 -0.1733  0.3039
   34MPD2    H7  540   3.406   3.992  10.123 -1.8017 -0.4290  0.0255
   35TMC2    C1  541   4.040   0.319  11.518  0.5301  0.4148 -0.9199
   35TMC2    C2  542   3.941   0.405  11.482  0.2807  0.1236 -0.1809
   35TMC2    C3  543   3.810   0.367  11.497 -0.1032  0.0171 -0.3168
   35TMC2    C4  544   4.005   0.196  11.575 -0.1263  0.0004  0.1079
   35TMC2    C5  545   3.873   0.159  11.592 -1.1194 -0.1457  0.8131
   35TMC2    C6  546   3.774   0.243  11.549  0.1455 -0.0831 -0.1309
   35TMC2     C  547   4.177   0.358  11.488 -0.2863  0.8423  0.3635
   35TMC2     O  548   4.184   0.449  11.406 -0.3242  0.5184 -0.0108
   35TMC2     H  549   3.968   0.503  11.443 -1.8271  0.8618  0.2166
   35TMC2    H1  550   4.080   0.122  11.600 -0.1078  0.5534  1.6940
   35TMC2    H2  551   3.669   0.221  11.568  0.6131  0.6380  3.4198
   35TMC2    C7  552   3.851   0.039  11.677 -0.8094  0.3974 -0.4563
   35TMC2    C8  553   3.723   0.477  11.500  0.5611 -0.0632 -0.8222
   35TMC2    O1  554   3.928   4.679  11.660 -0.5463  0.1130 -0.7445
   35TMC2    O2  555   3.758   0.593  11.522 -0.3968 -0.1625  0.5749
   35TMC2    O5  556   3.622   0.437  11.417  0.0745 -0.3479  0.2184
   35TMC2    H5  557   3.617   0.339  11.408  0.2416 -0.2583 -0.9178
   36MPD2     C  558   4.657   0.237  11.390 -0.2643  0.2551 -0.4318
   36MPD2    C1  559   4.620   0.153  11.492  0.1401 -0.4720  0.8635
   36MPD2    C2  560   4.491   0.165  11.539 -0.0828 -0.3381 -0.5397
   36MPD2    C3  561   4.399   0.256  11.489 -0.4932  0.4408  0.0531
   36MPD2    C4  562   4.449   0.345  11.391  0.5115  0.2920 -0.4065
   36MPD2    C5  563   4.579   0.337  11.346  0.1131  0.0970  0.3782
   36MPD2     H  564   4.451   0.100  11.617 -1.1271  0.9114 -0.0327
   36MPD2    H1  565   4.395   0.425  11.340 -1.1325 -1.0607 -0.7663
   36MPD2    H2  566   0.017   0.223  11.338 -0.1238 -1.5382  0.2780
   36MPD2    H3  567   4.611   0.416  11.278 -0.7059  0.1984  0.1127
   36MPD2     N  568   4.270   0.271  11.536 -0.6021  0.0504  0.4666
   36MPD2    H5  569   4.244   0.210  11.613  0.7690 -0.6475  0.3710
   36MPD2    N1  570   4.707   0.050  11.524 -0.3240 -0.0973  0.0692
   36MPD2    H7  571   0.069   0.061  11.494 -1.3831 -0.6614 -3.5495
   37TMC2    C1  572   2.118   1.172  11.753 -0.3919 -0.5295  0.1428
   37TMC2    C2  573   2.018   1.218  11.673  0.4245  0.1798 -0.5007
   37TMC2    C3  574   2.041   1.308  11.580 -0.2680  0.2811 -0.6101
   37TMC2    C4  575   2.248   1.221  11.738  0.8166  0.1625 -0.7441
   37TMC2    C5  576   2.269   1.318  11.640 -0.3440  0.2229  0.7257
   37TMC2    C6  577   2.170   1.366  11.565  0.2124  0.7039  0.0255
   37TMC2     C  578   2.093   1.088  11.865 -0.3063  0.1327 -0.5594
   37TMC2     O  579   1.980   1.064  11.902  0.7518 -0.1758  0.2531
   37TMC2     H  580   1.920   1.179  11.694  0.8175 -0.1480  0.7578
   37TMC2    H1  581   2.336   1.193  11.795  0.0772 -0.8705 -0.1129
   37TMC2    H2  582   2.187   1.458  11.509  2.0300  1.3061  1.5587
   37TMC2    C7  583   2.399   1.374  11.622 -0.5653  0.8912  0.5438
   37TMC2    C8  584   1.928   1.344  11.498 -0.2340  0.7764 -0.6570
   37TMC2    O1  585   2.459   1.377  11.729  0.0854  0.5177  0.6405
   37TMC2    O2  586   1.836   1.268  11.467  0.1171  0.4370  0.3823
   37TMC2    O5  587   1.957   1.462  11.450  0.2676 -0.1264 -0.3927
   37TMC2    H5  588   2.027   1.510  11.500 -0.0015 -1.4163  1.2202
   38MPD2     C  589   2.264   0.736  12.194 -0.7626 -0.4241 -0.8061
   38MPD2    C1  590   2.356   0.755  12.091 -0.5165 -0.3125  1.1026
   38MPD2    C2  591   2.336   0.846  11.993 -0.2517  0.1917  0.3370
   38MPD2    C3  592   2.220   0.920  11.994 -0.5762 -0.2507 -0.1620
   38MPD2    C4  593   2.129   0.908  12.095 -0.2443  0.1433  0.2474
   38MPD2    C5  594   2.149   0.819  12.196 -0.0221  0.8822  0.4705
   38MPD2     H  595   2.405   0.849  11.910 -2.0501  1.1328 -1.1423
   38MPD2    H1  596   2.038   0.964  12.113 -1.4097 -1.0233 -1.8875
   38MPD2    H2  597   2.279   0.648  12.255  0.1018  0.5928  0.4697
   38MPD2    H3  598   2.067   0.797  12.263  0.8243 -0.3550  1.0802
   38MPD2     N  599   2.206   1.016  11.893 -0.0986  0.1382  0.5467
   38MPD2    H5  600   2.286   1.035  11.834 -0.6147 -0.0819 -0.2285
   38MPD2    N1  601   2.475   0.682  12.089  0.3080 -0.8343 -0.3407
   38MPD2    H7  602   2.538   0.693  12.010  1.8572  1.1777  1.1554
   39TMC2    C1  603   0.602   2.570   1.417 -0.5187  0.4381  0.4154
   39TMC2    C2  604   0.554   2.697   1.402  0.1216 -0.3755 -0.0385
   39TMC2    C3  605   0.553   2.779   1.507 -0.5160 -0.3407  0.2678
   39TMC2    C4  606   0.654   2.523   1.534 -0.2063  0.0163  0.4699
   39TMC2    C5  607   0.653   2.614   1.639  0.3049  0.0711  0.5520
   39TMC2    C6  608   0.619   2.747   1.625 -0.0312  0.0477  0.3589
   39TMC2     C  609   0.620   2.498   1.288  0.4848 -0.0199 -0.0304
   39TMC2     O  610   0.558   2.543   1.195  0.6147 -0.0686  0.4658
   39TMC2     H  611   0.515   2.733   1.308 -2.6744  1.7262  1.9382
   39TMC2    H1  612   0.681   2.418   1.545 -0.1874  0.1575  1.7401
   39TMC2    H2  613   0.611   2.814   1.711  3.3108 -0.9839  1.4506
   39TMC2    C7  614   0.727   2.581   1.756  0.4030 -0.2668 -0.4274
   39TMC2    C8  615   0.533   2.913   1.461  1.4179 -0.1549 -0.0897
   39TMC2    O1  616   0.746   2.463   1.781 -0.0781 -0.0900 -0.1411
   39TMC2    O2  617   0.596   2.960   1.366  0.2970  0.1897  0.1304
   39TMC2    O5  618   0.470   2.979   1.562  0.0624  0.3983  0.0783
   39TMC2    H5  619   0.421   2.919   1.623  0.5220 -0.4998 -0.4453
   40MPD2     C  620   0.852   2.228   1.197 -0.8433 -0.9783 -0.4444
   40MPD2    C1  621   0.735   2.301   1.196  0.6633 -0.3185  0.6053
   40MPD2    C2  622   0.641   2.278   1.105 -0.0202 -0.2552 -0.2999
   40MPD2    C3  623   0.651   2.178   1.011  1.0271 -0.6356 -0.2446
   40MPD2    C4  624   0.767   2.108   1.007  0.0297  0.1817  0.7063
   40MPD2    C5  625   0.870   2.143   1.092 -0.0718  0.0755  0.3089
   40MPD2     H  626   0.547   2.331   1.116  0.3958  0.3793  0.1916
   40MPD2    H1  627   0.785   2.019   0.947  2.1705  1.7808 -1.0348
   40MPD2    H2  628   0.928   2.248   1.272 -0.5040 -0.5807 -0.8931
   40MPD2    H3  629   0.962   2.087   1.089  0.0714  0.2347  1.5058
   40MPD2     N  630   0.553   2.141   0.916  0.2059  0.2515  0.0020
   40MPD2    H5  631   0.569   2.064   0.853  1.6667 -1.7431  2.8479
   40MPD2    N1  632   0.718   2.404   1.296  0.6893 -0.3176  0.7720
   40MPD2    H7  633   0.780   2.404   1.376  1.8688 -0.4903 -0.1247
   41TMC2    C1  634   4.479   4.721  13.904  0.0889 -0.3566 -0.1709
   41TMC2    C2  635   4.579   4.645  13.958 -0.1883 -0.3324 -0.3337
   41TMC2    C3  636   4.707   4.673  13.916 -0.6492  0.3517  1.3292
   41TMC2    C4  637   4.494   0.080  13.812  0.7530  0.2954 -1.0415
   41TMC2    C5  638   4.620   0.102  13.768 -0.1016  0.0664  0.5906
   41TMC2    C6  639   4.727   0.035  13.821  0.4191 -0.7530  0.3746
   41TMC2     C  640   4.344   4.675  13.920  0.5654  0.0255 -0.3188
   41TMC2     O  641   4.259   4.706  13.836  0.0427  0.1072  0.3590
   41TMC2     H  642   4.558   4.560  14.022 -1.1554  0.7704  0.8052
   41TMC2    H1  643   4.413   0.142  13.775  0.7821  1.2264  0.4543
   41TMC2    H2  644   0.092   0.045  13.780 -0.3089 -0.1344 -1.2151
   41TMC2    C7  645   4.653   0.238  13.727 -0.1365 -0.6073 -0.4475
   41TMC2    C8  646   0.074   4.605  13.996 -0.1890 -0.1767 -0.1387
   41TMC2    O1  647   0.022   0.280  13.779  1.2851  0.2878  0.0113
   41TMC2    O2  648   0.057   4.498  14.057 -0.2897  0.0193 -0.3723
   41TMC2    O5  649   0.194   4.663  13.980 -0.8671 -0.1138  0.7429
   41TMC2    H5  650   0.195   0.004  13.918  0.2420 -0.6124  0.1489
   42MPD2     C  651   4.088   4.632  14.069 -0.1484  0.5105 -0.3887
   42MPD2    C1  652   4.211   4.632  14.128  0.4440 -0.3248 -0.1260
   42MPD2    C2  653   4.221   4.621  14.259  0.0070 -0.8583  0.0163
   42MPD2    C3  654   4.109   4.611  14.342 -0.1590 -0.7327  0.1433
   42MPD2    C4  655   3.982   4.610  14.285  0.8234  0.0884 -0.4748
   42MPD2    C5  656   3.969   4.618  14.146  0.5961  0.3205 -0.0198
   42MPD2     H  657   4.318   4.616  14.307  0.1220  0.9311 -0.0380
   42MPD2    H1  658   3.899   4.587  14.351  1.6549 -1.9767 -0.1368
   42MPD2    H2  659   4.076   4.633  13.961 -0.3596 -2.8910 -0.4051
   42MPD2    H3  660   3.873   4.618  14.097 -0.3205 -2.1165  1.8057
   42MPD2     N  661   4.121   4.611  14.480 -0.2895  0.9045 -0.6975
   42MPD2    H5  662   4.043   4.579  14.536  0.1462  1.6847  0.3469
   42MPD2    N1  663   4.334   4.639  14.053 -0.6375 -0.1391  0.1052
   42MPD2    H7  664   4.416   4.644  14.112  1.5878 -1.5117 -2.8845
   43TMC2    C1  665   1.210   3.173   0.583  0.9336  0.3814  0.4382
   43TMC2    C2  666   1.076   3.164   0.613 -0.2874  0.3668 -0.3358
   43TMC2    C3  667   1.033   3.269   0.689 -0.4819  0.1382  0.4699
   43TMC2    C4  668   1.287   3.279   0.612  0.9117 -0.6559  0.5071
   43TMC2    C5  669   1.238   3.378   0.691 -0.6368 -0.6101 -0.3037
   43TMC2    C6  670   1.106   3.375   0.735 -0.3007 -0.0599 -0.3720
   43TMC2     C  671   1.277   3.067   0.507  0.2278 -0.5436  0.0680
   43TMC2     O  672   1.397   3.060   0.514  0.0433 -0.0631  0.0422
   43TMC2     H  673   1.027   3.068   0.621 -1.3718  0.8902 -0.7402
   43TMC2    H1  674   1.387   3.281   0.569  0.6211 -1.6822 -0.2177
   43TMC2    H2  675   1.058   3.447   0.799 -0.2651  1.4586 -2.0556
   43TMC2    C7  676   1.328   3.481   0.732  0.0525  1.3380 -0.2205
   43TMC2    C8  677   0.901   3.257   0.742  0.4385 -0.2771  0.0951
   43TMC2    O1  678   1.429   3.499   0.667  0.0071  0.1984  0.7790
   43TMC2    O2  679   0.854   3.302   0.841 -0.2555 -0.0117  0.6233
   43TMC2    O5  680   0.830   3.227   0.635 -0.0141  0.3027  0.3143
   43TMC2    H5  681   0.882   3.203   0.556  0.0749 -0.5840  0.6371
   44MPD2     C  682   1.284   2.659   0.208  0.3862  0.2250 -0.2786
   44MPD2    C1  683   1.386   2.730   0.269  0.4056  0.1719 -0.2297
   44MPD2    C2  684   1.360   2.837   0.345  0.1353 -0.7477  0.3643
   44MPD2    C3  685   1.231   2.882   0.358 -0.8056  0.3516 -0.8783
   44MPD2    C4  686   1.125   2.813   0.302 -0.2156 -0.2787  0.5528
   44MPD2    C5  687   1.155   2.701   0.235  0.0616  0.1727 -0.9119
   44MPD2     H  688   1.443   2.894   0.385  2.0170 -2.7197 -0.6862
   44MPD2    H1  689   1.025   2.847   0.326  0.9079  1.2484  3.0465
   44MPD2    H2  690   1.315   2.569   0.157 -0.5409  0.5057 -1.3262
   44MPD2    H3  691   1.078   2.636   0.195  0.2281 -2.7774  3.5346
   44MPD2     N  692   1.194   2.994   0.430  0.1924 -0.8023  0.0247
   44MPD2    H5  693   1.098   3.027   0.428  1.2911  2.1878 -2.2454
   44MPD2    N1  694   1.525   2.685   0.260  0.0098  0.2648 -0.6826
   44MPD2    H7  695   1.587   2.718   0.333 -1.5652 -0.4357  0.9873
   45TMC2    C1  696   2.183   0.725   9.555  0.2242  0.0555 -0.4045
   45TMC2    C2  697   2.314   0.676   9.564  1.1822  0.7104 -0.5283
   45TMC2    C3  698   2.403   0.754   9.633 -0.4772  0.0185 -0.7449
   45TMC2    C4  699   2.136   0.829   9.633  0.8881  0.5712 -0.0521
   45TMC2    C5  700   2.226   0.896   9.708 -0.1813 -0.5643 -0.2877
   45TMC2    C6  701   2.363   0.859   9.709  0.2994  0.2947  0.0168
   45TMC2     C  702   2.087   0.648   9.479 -0.2475 -0.2031 -0.1755
   45TMC2     O  703   2.121   0.535   9.457  0.2924  0.2191  0.0977
   45TMC2     H  704   2.342   0.592   9.502 -1.0688  0.4362 -1.1761
   45TMC2    H1  705   2.030   0.854   9.642  1.4721  1.8225  3.2556
   45TMC2    H2  706   2.437   0.919   9.761  0.7174 -2.2942  2.3985
   45TMC2    C7  707   2.198   1.022   9.774  0.2055  0.1779  0.0445
   45TMC2    C8  708   2.537   0.718   9.650  0.3810 -0.1080  0.3147
   45TMC2    O1  709   2.286   1.067   9.844  0.2601 -0.5263 -0.0714
   45TMC2    O2  710   2.623   0.805   9.656  0.2821  0.0428 -0.2157
   45TMC2    O5  711   2.555   0.590   9.647  0.3657  0.2826  0.3693
   45TMC2    H5  712   2.473   0.540   9.629  0.7829 -1.4884  3.4185
   46MPD2     C  713   1.863   0.535   9.330  0.3147 -0.0591  0.1929
   46MPD2    C1  714   1.883   0.673   9.349 -0.2288  0.4110  0.1232
   46MPD2    C2  715   1.793   0.758   9.294  0.4213 -0.3967  0.0563
   46MPD2    C3  716   1.685   0.712   9.223  0.0462 -0.4840 -0.1707
   46MPD2    C4  717   1.674   0.573   9.201  0.2574 -0.3849 -0.6412
   46MPD2    C5  718   1.758   0.486   9.263  0.6609  0.3903  0.5694
   46MPD2     H  719   1.810   0.865   9.293 -1.2945 -0.1038  1.5161
   46MPD2    H1  720   1.595   0.523   9.146 -0.5501 -2.3160  2.2702
   46MPD2    H2  721   1.933   0.466   9.377 -1.6629 -1.4755  1.0870
   46MPD2    H3  722   1.758   0.381   9.237  2.3548  0.1262  1.6413
   46MPD2     N  723   1.595   0.805   9.163 -0.0663 -0.1350  0.3642
   46MPD2    H5  724   1.606   0.904   9.185  0.3979 -0.1447  0.1721
   46MPD2    N1  725   1.992   0.723   9.422 -0.5445  0.4094 -0.5166
   46MPD2    H7  726   2.001   0.824   9.431 -3.1624  0.8359 -2.7247
   47TMC2    C1  727   0.156   1.885   9.173  0.7697 -1.1352  0.2737
   47TMC2    C2  728   0.175   1.795   9.074 -0.1008 -0.3136  0.0885
   47TMC2    C3  729   0.075   1.764   8.984  0.0342  0.2873  0.0561
   47TMC2    C4  730   0.035   1.952   9.186  0.6086  0.4758  0.0894
   47TMC2    C5  731   4.670   1.932   9.092  0.2569 -0.5486  0.9010
   47TMC2    C6  732   4.688   1.837   8.990 -0.3979 -0.0664  0.4318
   47TMC2     C  733   0.257   1.924   9.272 -0.6551  0.2999  0.1152
   47TMC2     O  734   0.252   2.035   9.316  0.4865 -0.4749  0.0437
   47TMC2     H  735   0.260   1.730   9.056  0.1764  0.6951 -2.2489
   47TMC2    H1  736   0.021   2.018   9.271 -1.3073  2.9594 -2.1029
   47TMC2    H2  737   4.608   1.808   8.923 -1.2727  1.9622  0.6102
   47TMC2    C7  738   4.525   1.942   9.127  0.8805  0.1573 -0.3958
   47TMC2    C8  739   0.093   1.668   8.878  0.7708  0.2436 -0.6538
   47TMC2    O1  740   4.444   1.873   9.070  0.2395 -0.2687  0.7322
   47TMC2    O2  741   0.201   1.658   8.823 -0.3459  0.1993 -0.0425
   47TMC2    O5  742   4.705   1.609   8.848 -0.3516 -0.1452  0.3029
   47TMC2    H5  743   4.648   1.614   8.927 -2.4946  3.8561 -1.4989
   48MPD2     C  744   0.424   1.897   9.520  0.0397 -0.1811 -0.1226
   48MPD2    C1  745   0.401   1.793   9.430 -0.0153  0.0557 -0.2300
   48MPD2    C2  746   0.457   1.671   9.456  0.0487  0.8316 -0.7443
   48MPD2    C3  747   0.547   1.643   9.560 -0.3001 -0.0197 -0.5823
   48MPD2    C4  748   0.572   1.750   9.645  0.6407 -0.2639 -0.3549
   48MPD2    C5  749   0.518   1.878   9.625 -0.2526  0.3315 -0.6297
   48MPD2     H  750   0.428   1.582   9.403  2.4120 -0.1416 -0.4352
   48MPD2    H1  751   0.634   1.740   9.733  0.2147  2.0771  0.2129
   48MPD2    H2  752   0.381   1.996   9.514  0.7467  0.1169 -0.3382
   48MPD2    H3  753   0.547   1.958   9.692 -1.2051 -0.2123  0.4444
   48MPD2     N  754   0.582   1.514   9.581 -0.3607  0.0715 -0.6302
   48MPD2    H5  755   0.553   1.444   9.514 -0.3666  0.4723 -1.0397
   48MPD2    N1  756   0.320   1.808   9.317  0.7864  0.1418 -0.2907
   48MPD2    H7  757   0.290   1.724   9.269  2.7910 -0.4785 -0.4600
   49TMC2    C1  758   1.841   3.816   9.542  0.0079 -0.5887  0.5763
   49TMC2    C2  759   1.751   3.755   9.631  0.4292 -0.4754  0.0926
   49TMC2    C3  760   1.630   3.729   9.572 -0.2913 -0.2962 -0.6063
   49TMC2    C4  761   1.817   3.834   9.408 -0.1137 -0.0529  0.1479
   49TMC2    C5  762   1.691   3.799   9.356  0.2633  0.3659  0.3493
   49TMC2    C6  763   1.598   3.752   9.447 -0.1139 -0.4199  0.4502
   49TMC2     C  764   1.958   3.873   9.599 -0.5515 -0.4010  0.3536
   49TMC2     O  765   2.007   3.974   9.551  0.4385  0.3215  0.2308
   49TMC2     H  766   1.772   3.757   9.738  0.9030  0.9788 -0.0376
   49TMC2    H1  767   1.899   3.874   9.348 -0.5441  1.8746  0.8676
   49TMC2    H2  768   1.500   3.727   9.409  0.2117  2.8252 -2.5433
   49TMC2    C7  769   1.653   3.862   9.238 -0.1727 -0.0442  0.3164
   49TMC2    C8  770   1.540   3.644   9.648  0.0514  0.8104  0.3837
   49TMC2    O1  771   1.727   3.948   9.187 -0.4698 -0.7670  0.3512
   49TMC2    O2  772   1.432   3.611   9.603  0.6045 -0.8461 -0.4205
   49TMC2    O5  773   1.618   3.557   9.716 -0.3992 -0.0952  0.5734
   49TMC2    H5  774   1.710   3.587   9.737  0.3726 -2.0867  0.0688
   50MPD2     C  775   2.166   3.958   9.801 -0.5265  0.0579  0.1719
   50MPD2    C1  776   2.094   3.839   9.808 -0.1502 -0.1414  1.7386
   50MPD2    C2  777   2.109   3.764   9.919  0.0395 -0.0506  0.4600
   50MPD2    C3  778   2.200   3.799  10.020  0.0182 -0.7239  0.5613
   50MPD2    C4  779   2.280   3.915  10.006  0.0330 -0.9011  0.1375
   50MPD2    C5  780   2.257   3.994   9.901 -0.4210  0.0334 -0.2199
   50MPD2     H  781   2.053   3.671   9.911  1.6543 -1.1225  1.5728
   50MPD2    H1  782   2.340   3.953  10.088 -1.4647 -0.1822  0.8959
   50MPD2    H2  783   2.155   4.034   9.724 -0.2929  0.8217  0.8869
   50MPD2    H3  784   2.308   4.090   9.898  1.6669 -1.0890 -0.9594
   50MPD2     N  785   2.216   3.715  10.134  0.2467  1.0256 -0.0880
   50MPD2    H5  786   2.300   3.730  10.189 -0.3343 -0.7936  1.2909
   50MPD2    N1  787   2.000   3.804   9.713  0.3552 -0.1284  0.5346
   50MPD2    H7  788   1.962   3.715   9.741 -0.4424  0.4557  1.3164
   51TMC2    C1  789   3.514   2.859   1.771  0.2585 -0.9446  0.0908
   51TMC2    C2  790   3.462   2.951   1.858  0.0079 -0.2411 -0.2541
   51TMC2    C3  791   3.549   3.029   1.925  0.4424 -0.0983 -0.1632
   51TMC2    C4  792   3.648   2.844   1.752 -0.2475 -0.3567 -0.0847
   51TMC2    C5  793   3.734   2.923   1.818 -0.6073 -0.0205  0.2706
   51TMC2    C6  794   3.688   3.011   1.917  0.4500  0.5596 -0.4670
   51TMC2     C  795   3.435   2.739   1.742  0.1498 -0.3208  0.7048
   51TMC2     O  796   3.488   2.658   1.662  0.2020  0.2808  0.2058
   51TMC2     H  797   3.357   2.975   1.867 -0.7399 -2.7299 -2.5563
   51TMC2    H1  798   3.682   2.775   1.676  0.3679 -0.0855 -0.0623
   51TMC2    H2  799   3.752   3.086   1.961 -0.1147  0.5051  0.4568
   51TMC2    C7  800   3.878   2.905   1.801 -0.3118 -0.0607 -1.0829
   51TMC2    C8  801   3.492   3.113   2.028  0.4800 -0.2449 -0.9608
   51TMC2    O1  802   3.917   2.843   1.703 -0.1382 -0.0495 -0.1496
   51TMC2    O2  803   3.375   3.146   2.030  0.7923  0.4216  0.0639
   51TMC2    O5  804   3.576   3.097   2.140  0.6708  0.7328  0.1705
   51TMC2    H5  805   3.658   3.047   2.121  0.5327 -0.4927  2.7206
   52MPD2     C  806   3.060   2.412   1.835 -0.5889 -0.0819  0.1554
   52MPD2    C1  807   3.137   2.423   1.715  0.3784  0.3722  0.2086
   52MPD2    C2  808   3.241   2.519   1.719  0.0658  0.1044 -1.0175
   52MPD2    C3  809   3.241   2.617   1.817  0.1077 -0.6099 -0.5799
   52MPD2    C4  810   3.160   2.604   1.927  0.7722 -0.0618  0.8669
   52MPD2    C5  811   3.071   2.507   1.936 -0.5566  0.6234  0.1211
   52MPD2     H  812   3.291   2.545   1.626 -3.3005  0.3285 -2.7972
   52MPD2    H1  813   3.178   2.667   2.014 -0.1105 -0.4508  1.3366
   52MPD2    H2  814   2.981   2.337   1.843  0.3974 -1.1765 -0.3017
   52MPD2    H3  815   3.011   2.494   2.025 -0.8206  1.5384  0.0775
   52MPD2     N  816   3.327   2.723   1.819 -0.2836  0.4374 -0.4434
   52MPD2    H5  817   3.309   2.796   1.887  1.3335  0.4103  0.0080
   52MPD2    N1  818   3.121   2.335   1.602 -0.2718 -0.4145 -0.3172
   52MPD2    H7  819   3.173   2.369   1.522  0.0649 -0.8301 -0.2761
   53TMC2    C1  820   3.108   1.321  11.696  0.1105  0.0189  0.6758
   53TMC2    C2  821   3.224   1.266  11.647 -0.2027 -0.0568 -0.4893
   53TMC2    C3  822   3.252   1.142  11.685 -0.3809  0.1792 -0.6432
   53TMC2    C4  823   3.033   1.254  11.789  0.0595  0.1916  0.2754
   53TMC2    C5  824   3.070   1.136  11.838 -0.6109 -0.3002 -0.0986
   53TMC2    C6  825   3.173   1.072  11.777  0.0150  0.0486  0.1594
   53TMC2     C  826   3.048   1.425  11.618  0.2099 -0.5829  0.4041
   53TMC2     O  827   3.121   1.491  11.542  0.1649 -0.0297 -0.2939
   53TMC2     H  828   3.278   1.319  11.569 -0.2604 -1.1002 -1.2358
   53TMC2    H1  829   2.955   1.303  11.847  1.4848  2.2114  0.4733
   53TMC2    H2  830   3.208   0.973  11.805  0.0885 -0.5663 -2.1271
   53TMC2    C7  831   2.988   1.066  11.934  0.2205 -0.6197 -0.7244
   53TMC2    C8  832   3.336   1.059  11.598  0.2578 -0.7196  0.1424
   53TMC2    O1  833   2.871   1.099  11.947 -0.1999  1.1088 -0.1303
   53TMC2    O2  834   3.365   0.941  11.631  0.6509 -0.0563 -0.6827
   53TMC2    O5  835   3.337   1.109  11.475  0.5407  0.2888 -0.0199
   53TMC2    H5  836   3.289   1.195  11.474  0.3157  0.1904  1.9987
   54MPD2     C  837   2.839   1.481  11.393  0.4833  0.6003 -0.3977
   54MPD2    C1  838   2.812   1.441  11.521 -1.0914 -0.3735  0.2759
   54MPD2    C2  839   2.680   1.411  11.558 -0.5474 -0.3631 -0.4081
   54MPD2    C3  840   2.578   1.427  11.468 -0.7961  0.1275 -0.0660
   54MPD2    C4  841   2.611   1.467  11.340 -0.7354  0.1108  0.3177
   54MPD2    C5  842   2.741   1.501  11.306 -0.4082 -0.6634 -0.4466
   54MPD2     H  843   2.662   1.372  11.657 -0.6649 -0.5646 -0.5078
   54MPD2    H1  844   2.534   1.499  11.270  0.6403  0.9868 -0.7951
   54MPD2    H2  845   2.943   1.479  11.363  0.8786  1.5629  0.9263
   54MPD2    H3  846   2.764   1.529  11.204 -1.2768  1.4311 -0.0792
   54MPD2     N  847   2.443   1.402  11.497  0.5223 -0.3827 -0.3780
   54MPD2    H5  848   2.385   1.410  11.414  0.9171 -0.2084 -0.6369
   54MPD2    N1  849   2.914   1.411  11.616  0.0717 -0.2985  0.4715
   54MPD2    H7  850   2.885   1.370  11.704  0.5909  0.5676  1.0641
   55TMC2    C1  851   3.963   3.918   0.677 -1.2386 -0.3431  0.1851
   55TMC2    C2  852   3.906   3.901   0.552  0.1937 -0.0051 -0.3522
   55TMC2    C3  853   3.924   3.784   0.485 -0.1256 -0.0212  0.0283
   55TMC2    C4  854   4.021   3.808   0.735  0.0032 -0.7088  0.2178
   55TMC2    C5  855   4.039   3.692   0.661 -0.3278 -0.6912  0.7772
   55TMC2    C6  856   3.986   3.674   0.535  0.2587  0.4201 -0.1992
   55TMC2     C  857   3.880   3.984   0.770 -0.1762 -0.2770 -1.0870
   55TMC2     O  858   3.852   3.930   0.875  0.1599  0.1899 -0.1564
   55TMC2     H  859   3.840   3.975   0.508 -0.2692 -1.0353 -1.3796
   55TMC2    H1  860   4.078   3.812   0.827 -2.2784 -0.8889  1.6461
   55TMC2    H2  861   3.999   3.580   0.483 -0.7152  0.3195 -0.2499
   55TMC2    C7  862   4.115   3.585   0.717  0.3435  0.2395 -0.4448
   55TMC2    C8  863   3.846   3.762   0.365 -0.2678  0.3466 -0.8830
   55TMC2    O1  864   4.163   3.506   0.637  0.5018  1.0280 -0.3340
   55TMC2    O2  865   3.729   3.789   0.355  0.5718  0.5374  0.1235
   55TMC2    O5  866   3.907   3.668   0.295 -0.2278 -0.1474 -0.5005
   55TMC2    H5  867   4.003   3.681   0.306 -0.4887  0.6843  0.7541
   56MPD2     C  868   3.712   4.306   0.730 -0.2503  1.6169 -0.5096
   56MPD2    C1  869   3.738   4.183   0.778 -0.1718 -0.0426 -0.0486
   56MPD2    C2  870   3.656   4.137   0.872 -0.0161 -0.2312  0.3426
   56MPD2    C3  871   3.549   4.216   0.918 -0.0108 -1.2059  0.3563
   56MPD2    C4  872   3.517   4.336   0.857  0.0105 -0.2428  0.1863
   56MPD2    C5  873   3.599   4.379   0.762  0.1647  0.3096  0.4631
   56MPD2     H  874   3.657   4.034   0.906  0.6520 -0.7919 -1.3718
   56MPD2    H1  875   3.424   4.388   0.876  0.2914  0.8354 -1.3465
   56MPD2    H2  876   3.774   4.355   0.656  0.6233  1.6176  0.2340
   56MPD2    H3  877   3.566   4.462   0.700 -0.1500  1.7897  2.6409
   56MPD2     N  878   3.467   4.160   1.022 -0.5040  0.2062  0.0070
   56MPD2    H5  879   3.504   4.070   1.051  2.1013  1.0383 -0.7315
   56MPD2    N1  880   3.835   4.100   0.719  0.2428  0.1201  0.0005
   56MPD2    H7  881   3.888   4.145   0.645  0.4163 -1.2472 -0.6985
   57TMC2    C1  882   2.586   3.657  12.982  0.0943 -0.2349 -0.3333
   57TMC2    C2  883   2.499   3.699  12.887 -0.2135  0.1731 -0.9232
   57TMC2    C3  884   2.544   3.793  12.790  0.1380 -0.9075  0.0582
   57TMC2    C4  885   2.720   3.695  12.988  0.3793  0.4317  0.3058
   57TMC2    C5  886   2.756   3.797  12.895 -0.3591 -0.0138 -0.0133
   57TMC2    C6  887   2.670   3.848  12.802  0.4032 -0.5354 -0.0387
   57TMC2     C  888   2.526   3.580  13.092 -0.0858 -0.2670 -0.0994
   57TMC2     O  889   2.402   3.576  13.089  0.9725  0.7291  0.1909
   57TMC2     H  890   2.401   3.655  12.872 -0.5887  1.3066 -1.7468
   57TMC2    H1  891   2.785   3.659  13.067  0.8761  4.0239  1.5414
   57TMC2    H2  892   2.703   3.925  12.733  0.1328 -1.5017 -1.2503
   57TMC2    C7  893   2.888   3.854  12.909  0.3217 -0.2333  0.6985
   57TMC2    C8  894   2.479   3.797  12.662 -0.9066 -0.2417 -0.3813
   57TMC2    O1  895   2.887   3.979  12.899 -0.2782 -0.2703 -0.3779
   57TMC2    O2  896   2.421   3.703  12.611 -0.1190  0.4655  0.4868
   57TMC2    O5  897   2.497   3.918  12.601  0.0291 -0.0630 -0.0556
   57TMC2    H5  898   2.512   3.990  12.666 -1.4722  1.8693 -1.8755
   58MPD2     C  899   2.566   3.547  13.596 -0.2615  0.3830 -0.1622
   58MPD2    C1  900   2.468   3.586  13.514 -0.1553 -0.4299 -0.3194
   58MPD2    C2  901   2.478   3.576  13.379 -0.5894  0.1341  0.2446
   58MPD2    C3  902   2.589   3.519  13.324  0.0435  0.4509  0.1129
   58MPD2    C4  903   2.687   3.474  13.414  0.2536  0.3705 -0.6645
   58MPD2    C5  904   2.674   3.487  13.551 -0.0184  0.7630 -0.4403
   58MPD2     H  905   2.398   3.621  13.323 -1.7043  0.3920  2.0564
   58MPD2    H1  906   2.776   3.429  13.373  0.8240  1.0742 -0.2027
   58MPD2    H2  907   2.559   3.561  13.703 -2.4904 -1.3185 -0.0923
   58MPD2    H3  908   2.756   3.464  13.617  0.1193  0.3326 -0.7594
   58MPD2     N  909   2.616   3.543  13.188 -0.0505  0.6223 -0.2689
   58MPD2    H5  910   2.715   3.535  13.164  0.3379  1.6999  0.9897
   58MPD2    N1  911   2.375   3.678  13.561  0.2700 -0.5153 -0.6619
   58MPD2    H7  912   2.337   3.733  13.484  0.0793 -0.1195 -0.2810
   59TMC2    C1  913   0.493   4.240  12.741  0.2060  1.0638  0.1472
   59TMC2    C2  914   0.581   4.157  12.685 -0.0113  1.0145  0.2518
   59TMC2    C3  915   0.530   4.096  12.572  0.8082  0.2609 -0.4801
   59TMC2    C4  916   0.362   4.253  12.709  0.2185 -0.3894 -0.2951
   59TMC2    C5  917   0.315   4.174  12.613 -0.0065  0.0743  0.1649
   59TMC2    C6  918   0.398   4.098  12.536 -0.1821 -0.4061  0.2024
   59TMC2     C  919   0.546   4.344  12.830 -0.1034  0.3770  0.1764
   59TMC2     O  920   0.476   4.444  12.822  0.2698 -0.3931  0.3888
   59TMC2     H  921   0.686   4.150  12.713 -0.1490  2.5456  1.1776
   59TMC2    H1  922   0.300   4.333  12.747  0.4294  0.0310 -0.8388
   59TMC2    H2  923   0.363   4.033  12.457 -0.3273 -1.5269  1.1841
   59TMC2    C7  924   0.198   4.223  12.554  0.3938 -0.5666 -0.3583
   59TMC2    C8  925   0.604   3.993  12.511  0.6369 -0.2860  0.0241
   59TMC2    O1  926   0.118   4.274  12.634  0.2068 -0.0478 -0.4136
   59TMC2    O2  927   0.679   3.925  12.586  0.3385 -0.1741  0.1729
   59TMC2    O5  928   0.641   4.045  12.391  0.3744 -0.7950 -0.5170
   59TMC2    H5  929   0.596   4.131  12.380 -0.4267 -1.2228 -0.5180
   60MPD2     C  930   0.673   4.532  13.014  0.0387 -0.0650 -0.7735
   60MPD2    C1  931   0.707   4.400  13.011 -0.0520  0.2135 -0.3835
   60MPD2    C2  932   0.787   4.355  13.108 -0.4776 -0.2464  0.2434
   60MPD2    C3  933   0.837   4.439  13.207 -0.1420 -0.0555 -0.1675
   60MPD2    C4  934   0.811   4.575  13.205 -0.0720  0.0078  0.2751
   60MPD2    C5  935   0.733   4.620  13.100 -0.0607  0.0840  0.4997
   60MPD2     H  936   0.820   4.252  13.100  1.9922  0.6756 -1.4891
   60MPD2    H1  937   0.862   4.638  13.277  0.7362 -1.2558  0.8110
   60MPD2    H2  938   0.606   4.585  12.947 -2.6438  0.0216  1.9665
   60MPD2    H3  939   0.708   4.725  13.093 -0.5848 -0.2035 -1.7414
   60MPD2     N  940   0.938   4.400  13.298  0.5463  0.2067  0.1158
   60MPD2    H5  941   0.973   4.470  13.363  0.7771  1.3045 -1.1944
   60MPD2    N1  942   0.644   4.307  12.917  0.2490  0.4165  0.3219
   60MPD2    H7  943   0.673   4.210  12.917 -0.2557  0.2637  0.3971
   61TMC2    C1  944   0.207   0.817  15.793 -0.4364  0.5699 -0.0865
   61TMC2    C2  945   0.143   0.809  15.911 -0.1217  0.1418  0.3765
   61TMC2    C3  946   0.062   0.912  15.953  0.2056 -0.7140  0.6641
   61TMC2    C4  947   0.195   0.933  15.717 -0.6787 -0.8487  0.0309
   61TMC2    C5  948   0.107   1.031  15.757 -0.4638 -0.4684  0.0901
   61TMC2    C6  949   0.044   1.030  15.882 -0.1233  0.4202 -0.4981
   61TMC2     C  950   0.251   0.693  15.730  0.2547  0.5784  1.1949
   61TMC2     O  951   0.293   0.609  15.804  0.1630 -0.1940  0.6391
   61TMC2     H  952   0.150   0.719  15.971  0.1437  0.5962  1.0304
   61TMC2    H1  953   0.238   0.942  15.618  0.4991  1.6042  0.7762
   61TMC2    H2  954   4.716   1.114  15.912 -0.4421 -0.8799  2.5376
   61TMC2    C7  955   0.101   1.149  15.666  0.1757 -0.2515  0.2026
   61TMC2    C8  956   4.707   0.893  16.067  0.3486 -0.1678  0.2914
   61TMC2    O1  957   0.202   1.184  15.607 -0.2885  0.5642  0.1813
   61TMC2    O2  958   4.675   0.782  16.113  0.4014 -0.1129  0.8600
   61TMC2    O5  959   4.660   1.009  16.122  0.2383  0.1194 -1.1045
   61TMC2    H5  960   4.704   1.096  16.110 -0.6022  0.4569 -1.7154
   62MPD2     C  961   0.384   0.489  15.553 -0.1370 -0.3726  0.2000
   62MPD2    C1  962   0.335   0.611  15.514  0.0456  0.2023 -0.9439
   62MPD2    C2  963   0.333   0.646  15.381 -0.6859 -0.1488  0.7386
   62MPD2    C3  964   0.389   0.571  15.281 -0.0911 -0.4978 -0.3883
   62MPD2    C4  965   0.451   0.450  15.318 -0.1179  0.5424  0.2498
   62MPD2    C5  966   0.442   0.416  15.451  0.4734  0.0376 -0.0557
   62MPD2     H  967   0.292   0.742  15.350  0.8654  0.1391 -0.4923
   62MPD2    H1  968   0.501   0.381  15.251 -0.5956  0.7732 -0.3409
   62MPD2    H2  969   0.383   0.445  15.652  1.1989  1.3541  0.9692
   62MPD2    H3  970   0.481   0.316  15.466 -1.2803 -0.2486  2.4896
   62MPD2     N  971   0.375   0.617  15.152 -0.1551  0.2524 -0.2125
   62MPD2    H5  972   0.319   0.698  15.128 -2.3942 -2.5122 -4.2651
   62MPD2    N1  973   0.266   0.702  15.595  0.3096  0.2985 -0.6348
   62MPD2    H7  974   0.219   0.778  15.547  0.1054  1.0315  0.7216
   63TMC2    C1  975   0.169   1.251  10.645  0.5535 -0.0578 -0.0230
   63TMC2    C2  976   0.243   1.268  10.756 -0.2010 -0.2803  0.0720
   63TMC2    C3  977   0.361   1.339  10.755 -1.2230 -0.2086  0.6190
   63TMC2    C4  978   0.206   1.300  10.532 -0.4061 -0.6213  0.1010
   63TMC2    C5  979   0.314   1.384  10.533  0.2041  0.2590 -0.4301
   63TMC2    C6  980   0.395   1.405  10.639 -0.6193  0.3458 -0.1990
   63TMC2     C  981   0.038   1.187  10.656 -0.5534  0.1773  0.0874
   63TMC2     O  982   4.732   1.157  10.768 -0.0536 -0.0605  0.4595
   63TMC2     H  983   0.219   1.211  10.844  1.7719  0.0219  0.7822
   63TMC2    H1  984   0.155   1.277  10.439  1.3286  1.7205 -1.4098
   63TMC2    H2  985   0.492   1.453  10.633  0.4096 -1.8674 -1.5395
   63TMC2    C7  986   0.326   1.471  10.422 -0.0198  0.0909 -0.5142
   63TMC2    C8  987   0.443   1.338  10.880  0.7341  0.3007 -0.0997
   63TMC2    O1  988   0.241   1.456  10.335 -0.5530  0.5231  0.5489
   63TMC2    O2  989   0.405   1.282  10.985 -0.4247 -0.8752  0.1566
   63TMC2    O5  990   0.484   1.465  10.890 -0.7467 -0.0392 -0.0007
   63TMC2    H5  991   0.524   1.499  10.807 -0.5905  0.2128  0.1790
   64MPD2     C  992   4.360   0.927  10.534  0.6080 -0.4761  0.3870
   64MPD2    C1  993   4.460   0.911  10.436 -0.2297 -0.4775 -0.3336
   64MPD2    C2  994   4.577   0.988  10.434 -0.1729 -1.0303 -0.1059
   64MPD2    C3  995   4.595   1.079  10.533  0.4014  0.3929  0.3687
   64MPD2    C4  996   4.500   1.093  10.635 -0.0273  0.5140 -0.0435
   64MPD2    C5  997   4.379   1.027  10.627  0.2534 -0.0497 -0.2487
   64MPD2     H  998   4.657   0.960  10.368  0.5202  2.8129 -0.8971
   64MPD2    H1  999   4.496   1.170  10.712  1.4369  1.1708 -0.6179
   64MPD2    H2 1000   4.268   0.871  10.540  0.8151 -0.8622  0.0132
   64MPD2    H3 1001   4.298   1.045  10.697 -0.7430  4.6694 -2.6456
   64MPD2     N 1002   4.724   1.133  10.540  0.2396 -0.6082 -0.1817
   64MPD2    H5 1003   0.050   1.115  10.461  0.0764 -0.1728 -0.4041
   64MPD2    N1 1004   4.458   0.803  10.343 -0.0247  0.1601  0.6134
   64MPD2    H7 1005   4.545   0.787  10.295  0.1062  0.7646  0.6480
   65TMC2    C1 1006   0.859   0.281  15.424  0.6503  0.5115  0.1300
   65TMC2    C2 1007   0.924   0.215  15.328  0.4810  0.2055 -0.3466
   65TMC2    C3 1008   0.908   0.250  15.201 -0.1808  0.2747  0.3391
   65TMC2    C4 1009   0.787   0.394  15.390  0.3280 -0.6038 -0.5340
   65TMC2    C5 1010   0.794   0.443  15.262 -0.1209 -0.1241 -0.1038
   65TMC2    C6 1011   0.858   0.370  15.166  0.0794 -0.3496  0.1772
   65TMC2     C 1012   0.855   0.233  15.553 -0.3895  0.0621  0.5920
   65TMC2     O 1013   0.855   0.325  15.636 -0.0623  0.2040  0.8581
   65TMC2     H 1014   0.965   0.115  15.340 -0.4791  0.0170  1.4846
   65TMC2    H1 1015   0.720   0.435  15.464 -1.7206 -0.7096 -2.3193
   65TMC2    H2 1016   0.874   0.415  15.068 -2.7714 -2.4477 -1.2642
   65TMC2    C7 1017   0.722   0.567  15.234  0.0912  0.2619  0.1400
   65TMC2    C8 1018   0.988   0.188  15.101  0.0898 -0.2726 -0.2806
   65TMC2    O1 1019   0.714   0.591  15.115  0.3785 -0.5877  0.4729
   65TMC2    O2 1020   1.067   0.101  15.138  0.1957 -0.3451 -0.6475
   65TMC2    O5 1021   0.904   0.174  14.997 -0.1197  0.2753  0.2524
   65TMC2    H5 1022   0.818   0.221  14.997 -0.2602  0.0432  3.2778
   66MPD2     C 1023   0.928   0.064  15.796 -0.6120 -0.3729  0.0180
   66MPD2    C1 1024   0.889   0.013  15.675 -0.3516  0.3060  0.7661
   66MPD2    C2 1025   0.883   4.612  15.653 -0.0843  0.2715  0.3600
   66MPD2    C3 1026   0.891   4.528  15.763  0.0821  0.3538  0.1939
   66MPD2    C4 1027   0.918   4.583  15.892 -0.7050  0.1741 -0.1866
   66MPD2    C5 1028   0.938   4.719  15.907 -0.7453 -0.3087 -0.3743
   66MPD2     H 1029   0.855   4.585  15.552  6.3362  1.5223 -1.7174
   66MPD2    H1 1030   0.927   4.533  15.988  1.8572  0.3432 -0.3350
   66MPD2    H2 1031   0.948   0.170  15.806  4.8000 -1.4320  0.4427
   66MPD2    H3 1032   0.965   0.033  16.000 -1.4313 -1.0596  0.2172
   66MPD2     N 1033   0.884   4.388  15.751  0.0297  0.4841 -0.8389
   66MPD2    H5 1034   0.893   4.343  15.842  1.7525  0.4927 -1.0016
   66MPD2    N1 1035   0.854   0.095  15.562 -0.5724  0.0831  0.8100
   66MPD2    H7 1036   0.827   0.050  15.475 -0.8626 -0.8968  1.4096
   67TMC2    C1 1037   1.090   4.380  14.401 -0.9861 -0.1903  1.4626
   67TMC2    C2 1038   1.063   4.509  14.353  0.1493  0.1883  0.5910
   67TMC2    C3 1039   1.083   4.610  14.444  0.3719  0.9809  1.1299
   67TMC2    C4 1040   1.140   4.359  14.532 -0.6561  0.4229 -0.8125
   67TMC2    C5 1041   1.168   4.467  14.615  0.0812 -0.0860 -0.0899
   67TMC2    C6 1042   1.132   4.588  14.570  0.7404 -0.0286  0.3062
   67TMC2     C 1043   1.035   4.262  14.339  0.5507 -0.4971  0.7487
   67TMC2     O 1044   1.063   4.151  14.388  0.4706  0.2787 -0.3976
   67TMC2     H 1045   1.038   4.532  14.250 -2.0484  1.5092  1.4220
   67TMC2    H1 1046   1.159   4.259  14.570 -1.7113  0.2717 -0.7011
   67TMC2    H2 1047   1.155   4.663  14.644 -1.2683  1.1143 -0.2265
   67TMC2    C7 1048   1.291   4.451  14.684  0.2930 -0.2906 -0.2340
   67TMC2    C8 1049   1.055   0.007  14.392  0.3394  0.0981  0.6401
   67TMC2    O1 1050   1.386   4.401  14.620 -0.1917  0.2026 -0.1911
   67TMC2    O2 1051   0.990   0.012  14.287 -0.0161 -0.1455 -0.2258
   67TMC2    O5 1052   1.150   0.096  14.437  0.0920  0.0818  0.1427
   67TMC2    H5 1053   1.208   0.065  14.509 -1.5390  0.5769  1.6785
   68MPD2     C 1054   0.905   4.070  14.162 -0.0900 -0.7169  0.3005
   68MPD2    C1 1055   0.874   4.204  14.163 -0.6188 -0.0287 -0.4883
   68MPD2    C2 1056   0.756   4.254  14.108  0.0624 -0.4112  0.6804
   68MPD2    C3 1057   0.664   4.165  14.055 -0.5375 -0.0882 -0.1580
   68MPD2    C4 1058   0.701   4.031  14.055  0.1549  0.5688  0.0343
   68MPD2    C5 1059   0.822   3.983  14.098  0.4050 -0.3723  0.4861
   68MPD2     H 1060   0.734   4.359  14.121  1.2012 -0.1631  0.6471
   68MPD2    H1 1061   0.628   3.960  14.018  0.3108 -0.6767  2.1368
   68MPD2    H2 1062   0.994   4.028  14.207  0.9863  1.2961  0.0233
   68MPD2    H3 1063   0.854   3.880  14.098 -1.5712 -0.9970 -4.2421
   68MPD2     N 1064   0.544   4.194  13.989  0.2846  0.4344  0.4129
   68MPD2    H5 1065   0.491   4.120  13.944 -0.1347  0.8838  0.1671
   68MPD2    N1 1066   0.952   4.297  14.235 -0.4233  0.4763 -0.0569
   68MPD2    H7 1067   0.930   4.395  14.217  1.1003  0.8475  0.1162
   69TMC2    C1 1068   3.020   1.107  12.406  0.1538 -0.3740 -0.2092
   69TMC2    C2 1069   2.892   1.162  12.389 -0.4063  0.5065  0.1656
   69TMC2    C3 1070   2.869   1.253  12.289 -0.2390  0.3550 -0.5773
   69TMC2    C4 1071   3.125   1.141  12.327  0.4811  0.3189 -0.1087
   69TMC2    C5 1072   3.097   1.239  12.235 -0.4222 -0.4204 -0.1850
   69TMC2    C6 1073   2.973   1.293  12.207 -0.2479  1.3502  0.3447
   69TMC2     C 1074   3.030   1.011  12.511  0.0549 -0.0664 -0.5404
   69TMC2     O 1075   2.951   1.007  12.603  0.4895  0.1399 -0.1935
   69TMC2     H 1076   2.813   1.135  12.459  1.9767 -2.9467  1.5375
   69TMC2    H1 1077   3.226   1.108  12.351  0.0720 -0.7964  0.0860
   69TMC2    H2 1078   2.954   1.356  12.122  1.1461  1.3491  0.0350
   69TMC2    C7 1079   3.206   1.260  12.146  0.3456 -0.2188  0.0632
   69TMC2    C8 1080   2.730   1.302  12.287 -0.1576 -0.0157 -0.4522
   69TMC2    O1 1081   3.290   1.173  12.149  0.3367  0.3348 -0.1755
   69TMC2    O2 1082   2.648   1.249  12.354 -0.5974 -0.0779  0.0888
   69TMC2    O5 1083   2.741   1.439  12.277 -0.5834  0.2708  0.5371
   69TMC2    H5 1084   2.828   1.473  12.248 -0.5571  0.4627  0.8404
   70MPD2     C 1085   3.311   0.793  12.588  0.4962 -0.1752  0.1579
   70MPD2    C1 1086   3.179   0.825  12.589  0.3065  0.1244 -0.8914
   70MPD2    C2 1087   3.099   0.777  12.693  0.6176  0.7296  0.4837
   70MPD2    C3 1088   3.157   0.685  12.779  0.4283 -0.4423 -0.3715
   70MPD2    C4 1089   3.287   0.649  12.770  0.6532  0.4332 -0.2856
   70MPD2    C5 1090   3.369   0.710  12.680 -1.1314  0.1999 -0.0789
   70MPD2     H 1091   2.995   0.807  12.703  0.4321  0.9083 -1.7978
   70MPD2    H1 1092   3.317   0.566  12.832  1.8796  0.4874 -0.8120
   70MPD2    H2 1093   3.374   0.816  12.503 -0.8459  1.4382 -0.3901
   70MPD2    H3 1094   3.469   0.669  12.671 -1.0685  0.2324  0.4647
   70MPD2     N 1095   3.089   0.637  12.897 -0.7569 -0.1383 -0.5073
   70MPD2    H5 1096   3.137   0.582  12.966 -1.4823  1.6706  1.4550
   70MPD2    N1 1097   3.136   0.931  12.502 -0.3411 -0.8935  0.3440
   70MPD2    H7 1098   3.207   0.951  12.433 -2.0366  0.4718 -1.0188
   71TMC2    C1 1099   0.880   1.580   1.497 -0.8123  0.2664 -0.0187
   71TMC2    C2 1100   0.994   1.648   1.534 -0.3639 -0.3344  0.6884
   71TMC2    C3 1101   0.981   1.719   1.651 -0.1781  0.5178 -0.4816
   71TMC2    C4 1102   0.765   1.579   1.572  0.0967 -0.2646 -0.7391
   71TMC2    C5 1103   0.758   1.662   1.685  0.2317 -0.7124 -0.5268
   71TMC2    C6 1104   0.864   1.730   1.726 -0.4840 -0.7902 -0.0159
   71TMC2     C 1105   0.878   1.509   1.371  0.2202 -0.0029 -0.1321
   71TMC2     O 1106   0.984   1.498   1.312  0.4255 -0.1762 -0.2589
   71TMC2     H 1107   1.087   1.667   1.481 -0.6027  0.8211  0.6780
   71TMC2    H1 1108   0.672   1.527   1.549 -0.8613  1.8634 -1.7023
   71TMC2    H2 1109   0.850   1.796   1.811 -0.2187 -0.4076 -0.2720
   71TMC2    C7 1110   0.636   1.682   1.759 -0.2270  0.0656 -0.7426
   71TMC2    C8 1111   1.101   1.790   1.686  0.0244 -0.1221 -0.1488
   71TMC2    O1 1112   0.627   1.728   1.874  0.1709  0.2859 -0.3493
   71TMC2    O2 1113   1.191   1.822   1.607 -0.2375 -0.2254  0.0707
   71TMC2    O5 1114   1.115   1.787   1.826 -0.5026  0.1574  0.0025
   71TMC2    H5 1115   1.046   1.734   1.871 -1.2866 -0.2670 -1.6682
   72MPD2     C 1116   0.699   1.262   0.954  0.1201 -0.5312 -0.1542
   72MPD2    C1 1117   0.800   1.351   0.970  1.3113 -0.5753  0.4340
   72MPD2    C2 1118   0.821   1.412   1.089  0.0996  0.3781 -0.0751
   72MPD2    C3 1119   0.746   1.383   1.198 -0.5483  0.5298  0.9458
   72MPD2    C4 1120   0.645   1.295   1.184  0.2076  0.4042 -0.3041
   72MPD2    C5 1121   0.618   1.238   1.062  0.0134  0.9183  0.1358
   72MPD2     H 1122   0.904   1.481   1.090  2.8901 -2.9743  0.2745
   72MPD2    H1 1123   0.575   1.267   1.262  1.8746 -2.5845  0.0881
   72MPD2    H2 1124   0.668   1.225   0.857 -0.2696  2.3298 -1.1249
   72MPD2    H3 1125   0.536   1.167   1.057 -0.0188  1.0509 -1.3261
   72MPD2     N 1126   0.766   1.441   1.329  0.0871  0.5319  0.2990
   72MPD2    H5 1127   0.697   1.438   1.403  0.0719 -2.0483  0.1920
   72MPD2    N1 1128   0.887   1.390   0.872  0.4158  0.0459  0.0518
   72MPD2    H7 1129   0.950   1.466   0.896 -0.6842  0.5821  1.2309
   73TMC2    C1 1130   4.568   2.922  13.930 -0.9839  0.1042  0.3169
   73TMC2    C2 1131   4.547   3.020  14.021  0.1087  0.2777 -0.5445
   73TMC2    C3 1132   4.617   3.003  14.137 -0.0127 -1.2753  0.3779
   73TMC2    C4 1133   4.666   2.833  13.948  0.2943  0.1719  0.2573
   73TMC2    C5 1134   0.003   2.819  14.065  0.2170 -0.4168  0.8588
   73TMC2    C6 1135   4.710   2.898  14.168  0.4683 -0.0430 -0.3914
   73TMC2     C 1136   4.583   2.972  13.792  0.4122  0.5383  0.0877
   73TMC2     O 1137   4.682   2.930  13.737  0.4743  0.5978  0.0549
   73TMC2     H 1138   4.496   3.115  14.010 -1.4435 -0.5252 -0.3157
   73TMC2    H1 1139   4.677   2.761  13.867 -0.3063 -0.3889  0.6763
   73TMC2    H2 1140   0.015   2.890  14.269 -0.0253  2.3357 -0.0045
   73TMC2    C7 1141   0.148   2.812  14.046 -0.5318 -0.2833  0.1491
   73TMC2    C8 1142   4.586   3.096  14.246 -0.2630  0.0403 -0.3503
   73TMC2    O1 1143   0.207   2.823  14.149  0.3693  0.0744 -0.4566
   73TMC2    O2 1144   4.600   3.217  14.237  0.0400 -0.2940  0.2312
   73TMC2    O5 1145   4.545   3.031  14.357 -0.5969  0.2328  0.0054
   73TMC2    H5 1146   4.529   2.937  14.334 -0.5914 -0.2950  2.1544
   74MPD2     C 1147   4.609   3.368  13.475  0.0026  0.2926 -0.3495
   74MPD2    C1 1148   4.698   3.274  13.515 -0.3013 -0.7403  0.4478
   74MPD2    C2 1149   4.670   3.179  13.610  0.1248  0.4095  0.1558
   74MPD2    C3 1150   4.536   3.168  13.670  0.3288 -0.5842  0.1395
   74MPD2    C4 1151   4.449   3.274  13.635  0.2960  0.1600 -0.4791
   74MPD2    C5 1152   4.483   3.360  13.530  0.0229  0.3077  0.3155
   74MPD2     H 1153   0.016   3.109  13.628 -2.4515 -2.0944  1.8873
   74MPD2    H1 1154   4.352   3.286  13.682 -0.8431  0.2838 -2.8335
   74MPD2    H2 1155   4.631   3.447  13.404 -1.5624 -0.5387 -1.7684
   74MPD2    H3 1156   4.410   3.434  13.499 -1.4440 -0.4743  1.8612
   74MPD2     N 1157   4.500   3.074  13.760 -0.2763  0.7880  0.4025
   74MPD2    H5 1158   4.416   3.095  13.814 -0.0631  0.5831  0.8164
   74MPD2    N1 1159   0.090   3.269  13.466 -0.0079  0.1879  0.8832
   74MPD2    H7 1160   0.153   3.212  13.520 -0.2762 -0.5534  0.4253
   75TMC2    C1 1161   0.388   4.313  13.887 -0.4286  0.2351 -0.4397
   75TMC2    C2 1162   0.294   4.224  13.921 -0.3997 -0.7182  0.4822
   75TMC2    C3 1163   0.181   4.235  13.847 -0.0406  0.3116  0.1298
   75TMC2    C4 1164   0.374   4.411  13.799  0.2591  0.0196  0.2353
   75TMC2    C5 1165   0.261   4.414  13.716 -0.0596  0.0190  0.1001
   75TMC2    C6 1166   0.167   4.322  13.736 -0.1679 -1.0803 -0.7406
   75TMC2     C 1167   0.508   4.322  13.963 -1.0086  0.1617  0.2344
   75TMC2     O 1168   0.548   4.437  13.990  0.2908  0.4278 -0.3149
   75TMC2     H 1169   0.292   4.168  14.014  2.5191 -0.5600  0.6342
   75TMC2    H1 1170   0.445   4.493  13.792 -1.8077  1.9486  2.0938
   75TMC2    H2 1171   0.070   4.324  13.687 -1.4224  1.0574  1.8594
   75TMC2    C7 1172   0.240   4.531  13.633  0.0719  0.4422 -0.5100
   75TMC2    C8 1173   0.074   4.139  13.863 -0.1624 -0.6819  0.4413
   75TMC2    O1 1174   0.331   4.610  13.641 -0.0480  0.8189 -0.5990
   75TMC2    O2 1175   4.695   4.156  13.822 -0.1633  0.2847  0.1548
   75TMC2    O5 1176   0.132   4.018  13.880 -0.1012 -0.5512  0.2403
   75TMC2    H5 1177   0.230   4.019  13.884 -0.0082 -1.8223 -2.2769
   76TMC2    C1 1178   4.129   0.021  11.937  0.5022 -0.1893  0.4888
   76TMC2    C2 1179   4.151   4.639  11.861 -0.2885 -0.3945  0.8708
   76TMC2    C3 1180   4.118   4.527  11.925 -0.0844 -0.5788  0.2896
   76TMC2    C4 1181   4.063   0.020  12.057 -0.3536 -0.1370 -0.6535
   76TMC2    C5 1182   4.047   4.632  12.119  0.1024 -0.1687  0.3521
   76TMC2    C6 1183   4.074   4.522  12.054  0.2415  0.4013  0.1777
   76TMC2     C 1184   4.175   0.140  11.875 -0.0934 -0.3592 -0.3274
   76TMC2     O 1185   4.268   0.129  11.797  0.0741  0.2135 -0.3426
   76TMC2     H 1186   4.193   4.635  11.761 -2.7412  0.2510 -0.1863
   76TMC2    H1 1187   4.050   0.118  12.102 -0.5133 -0.8190  0.7682
   76TMC2    H2 1188   4.068   4.431  12.113  4.1965  0.6449  1.0100
   76TMC2    C7 1189   4.045   4.630  12.269  0.9364  0.7659 -0.2184
   76TMC2    C8 1190   4.135   4.405  11.842  0.2621 -0.2360  0.0168
   76TMC2    O1 1191   4.010   4.525  12.317 -0.0042 -0.1015  0.2636
   76TMC2    O2 1192   4.163   4.307  11.905  0.5763  0.2924 -0.0790
   76TMC2    O5 1193   4.045   4.420  11.744 -0.0545  0.4646  0.4403
   76TMC2    H5 1194   4.020   4.513  11.726  1.5215  0.9811  0.8776
   77MPD2     C 1195   4.188   0.653  11.824  0.3155  0.5993  0.1688
   77MPD2    C1 1196   4.057   0.610  11.839 -0.1521  0.4799 -0.3131
   77MPD2    C2 1197   4.024   0.482  11.868 -0.8165 -0.8488  0.8519
   77MPD2    C3 1198   4.127   0.382  11.885 -0.4006 -0.2070 -0.9232
   77MPD2    C4 1199   4.254   0.425  11.872  0.7063  0.4725  0.3090
   77MPD2    C5 1200   4.284   0.556  11.844 -0.1612 -0.3635  0.2584
   77MPD2     H 1201   3.922   0.453  11.892 -0.9688  0.2834  1.6108
   77MPD2    H1 1202   4.341   0.362  11.890  0.2784 -0.0443  0.5535
   77MPD2    H2 1203   4.223   0.751  11.794 -1.1475  1.3557  0.9520
   77MPD2    H3 1204   4.387   0.589  11.832 -0.6523  0.8040 -0.7269
   77MPD2     N 1205   4.087   0.248  11.903  0.2077  0.1111  0.0252
   77MPD2    H5 1206   3.995   0.224  11.939 -1.2443  0.8363 -3.1498
   77MPD2    N1 1207   3.953   0.702  11.829 -0.1205 -0.6428 -0.0779
   77MPD2    H7 1208   3.860   0.664  11.810  0.9968 -2.3960 -1.9997
   78TMC2    C1 1209   0.193   1.336   1.781  0.5402 -0.4007 -0.2591
   78TMC2    C2 1210   0.181   1.361   1.915  0.4905  0.0995  0.6177
   78TMC2    C3 1211   0.297   1.382   1.984 -0.6346  0.8239 -0.8806
   78TMC2    C4 1212   0.321   1.349   1.721  0.6078  0.1239  0.4256
   78TMC2    C5 1213   0.427   1.357   1.807  0.4558 -0.0094 -0.0315
   78TMC2    C6 1214   0.422   1.367   1.937  0.0709 -0.5384  0.4993
   78TMC2     C 1215   0.078   1.336   1.693 -0.4815  0.3800 -0.0409
   78TMC2     O 1216   4.707   1.368   1.742  0.9249 -0.6373 -0.3658
   78TMC2     H 1217   0.086   1.349   1.966 -0.0427  2.9338  0.2961
   78TMC2    H1 1218   0.347   1.325   1.618 -1.1498  2.4333 -0.5523
   78TMC2    H2 1219   0.502   1.384   2.008  0.1715  1.3808 -0.0752
   78TMC2    C7 1220   0.567   1.335   1.759 -0.1095  0.0137 -1.0040
   78TMC2    C8 1221   0.282   1.399   2.127 -0.8726  0.5184  0.3027
   78TMC2    O1 1222   0.654   1.379   1.839  0.7347 -0.0513 -0.1881
   78TMC2    O2 1223   0.351   1.480   2.184  0.1669 -0.5459  0.1956
   78TMC2    O5 1224   0.259   1.272   2.166  0.3710 -0.0383 -0.1856
   78TMC2    H5 1225   0.220   1.227   2.089 -0.1790 -2.1865  1.3377
   79MPD1     C 1226   4.618   1.334   1.206  0.4428 -0.2347  0.4045
   79MPD1    C1 1227   4.561   1.384   1.321 -0.5585  0.3997 -0.2679
   79MPD1    C2 1228   4.633   1.359   1.441  0.0952  0.0372  0.0290
   79MPD1    C3 1229   0.030   1.309   1.444 -0.2905  0.3613  0.1625
   79MPD1    C4 1230   0.090   1.287   1.324 -0.8693  0.8255 -0.2290
   79MPD1    C5 1231   0.016   1.294   1.205 -0.2837  0.1290 -0.1206
   79MPD1     H 1232   4.580   1.383   1.533 -1.3792 -0.4196 -0.6848
   79MPD1    H1 1233   0.195   1.262   1.313 -0.4703  2.7105 -0.7094
   79MPD1    H2 1234   4.574   1.334   1.107 -2.8902  0.6375  1.8904
   79MPD1    H3 1235   0.064   1.266   1.111 -1.3831  0.2791 -0.7338
   79MPD1     N 1236   0.112   1.306   1.562  0.1150  0.1066 -0.1296
   79MPD1    H5 1237   0.210   1.290   1.541  0.0224 -1.2336  0.4790
   79MPD1    N1 1238   4.431   1.425   1.339  0.0016 -0.4788 -0.5674
   79MPD1    H6 1239   4.394   1.475   1.259  1.8867  0.9616 -0.5408
   79MPD1    H7 1240   4.427   1.485   1.421  0.9232 -0.9991 -0.1384
   80TMC2    C1 1241   2.611   4.690  11.379  0.1291 -0.4926 -0.7284
   80TMC2    C2 1242   2.549   4.735  11.265  0.1444 -0.0024 -0.5853
   80TMC2    C3 1243   2.485   4.648  11.186  0.0070  0.5061 -1.3634
   80TMC2    C4 1244   2.602   4.555  11.419 -0.2013 -0.3693 -0.4746
   80TMC2    C5 1245   2.540   4.472  11.330 -0.2858 -0.5207  0.2401
   80TMC2    C6 1246   2.476   4.515  11.217 -0.5614  0.0830 -0.3373
   80TMC2     C 1247   2.673   0.058  11.462  0.2419 -0.1164  1.0357
   80TMC2     O 1248   2.688   0.035  11.579 -0.2231  0.0014  0.0727
   80TMC2     H 1249   2.541   0.106  11.247 -0.7036 -0.3837 -2.4052
   80TMC2    H1 1250   2.649   4.523  11.511  0.4831 -1.4477 -1.2068
   80TMC2    H2 1251   2.417   4.452  11.151 -0.2133  0.1358 -0.6954
   80TMC2    C7 1252   2.525   4.331  11.360  0.7311  0.0434 -0.0839
   80TMC2    C8 1253   2.456   4.700  11.051  0.0239 -0.5968 -0.9182
   80TMC2    O1 1254   2.445   4.281  11.285  0.1133  0.4072 -0.5306
   80TMC2    O2 1255   2.531   0.056  11.012 -0.4493 -0.0618  0.0770
   80TMC2    O5 1256   2.417   4.595  10.978  0.4157 -0.0165  0.3192
   80TMC2    H5 1257   2.334   4.554  11.012  1.5772 -1.8193  0.9645
   81MPD2     C 1258   2.811   0.385  11.352  0.3481 -0.7246  0.8039
   81MPD2    C1 1259   2.762   0.290  11.437 -0.0769 -0.1803  0.3429
   81MPD2    C2 1260   2.750   0.319  11.569 -0.0575 -0.4187 -0.3040
   81MPD2    C3 1261   2.782   0.434  11.619 -0.4795 -0.7785  0.2915
   81MPD2    C4 1262   2.847   0.524  11.539 -0.7383  0.5832  0.3465
   81MPD2    C5 1263   2.863   0.503  11.408  0.3668 -0.4234  0.1983
   81MPD2     H 1264   2.697   0.246  11.629  0.0100 -1.3924 -1.4283
   81MPD2    H1 1265   2.878   0.622  11.574  3.0887 -0.2412 -0.6978
   81MPD2    H2 1266   2.829   0.358  11.248 -1.2162  2.1224 -0.2092
   81MPD2    H3 1267   2.909   0.574  11.342  0.4644 -1.0799 -0.4404
   81MPD2     N 1268   2.765   0.462  11.755  0.7501  0.5189 -0.6918
   81MPD2    H5 1269   2.804   0.552  11.781  0.0591 -0.1725  2.8069
   81MPD2    N1 1270   2.721   0.160  11.388 -0.1527 -0.2698  0.3421
   81MPD2    H7 1271   2.724   0.140  11.289 -1.5303 -2.0264  0.6532
   82TMC2    C1 1272   1.528   4.284  11.036 -0.1788 -0.1015  0.7702
   82TMC2    C2 1273   1.627   4.194  11.036  0.7298 -0.2698 -0.2762
   82TMC2    C3 1274   1.638   4.106  11.141 -0.5061  0.1845  0.0790
   82TMC2    C4 1275   1.438   4.284  11.138  0.0825 -0.2013  0.1207
   82TMC2    C5 1276   1.464   4.212  11.249  0.1702  0.6922  1.0294
   82TMC2    C6 1277   1.558   4.117  11.252 -0.3581  0.3502 -0.1303
   82TMC2     C 1278   1.465   4.326  10.913  0.5344  0.4990 -1.2229
   82TMC2     O 1279   1.342   4.324  10.911 -0.2176 -0.1613  0.0531
   82TMC2     H 1280   1.699   4.192  10.955  0.0233 -0.6288 -0.8943
   82TMC2    H1 1281   1.355   4.354  11.138 -0.7212 -1.1596  0.8148
   82TMC2    H2 1282   1.566   4.046  11.334 -0.1353  2.0350  1.2933
   82TMC2    C7 1283   1.348   4.156  11.310 -0.2106  0.7235 -0.0473
   82TMC2    C8 1284   1.755   4.022  11.160 -0.2223 -0.0011  0.4909
   82TMC2    O1 1285   1.362   4.089  11.414 -0.1671 -0.4879  0.3823
   82TMC2    O2 1286   1.779   3.963  11.263 -0.4540  0.1593 -0.1116
   82TMC2    O5 1287   1.774   3.963  11.035 -0.5270 -0.9315  0.6403
   82TMC2    H5 1288   1.738   3.996  10.950 -3.2520  0.2005  2.2278
   83MPD2     C 1289   1.479   4.480  10.420 -0.1109 -0.0198 -0.0147
   83MPD2    C1 1290   1.377   4.455  10.506 -0.0603 -0.1541 -0.0400
   83MPD2    C2 1291   1.397   4.405  10.632  0.2548  0.0632  0.2603
   83MPD2    C3 1292   1.524   4.391  10.680  0.0084 -0.2142 -1.0025
   83MPD2    C4 1293   1.633   4.430  10.597 -0.2284 -0.2484 -0.1804
   83MPD2    C5 1294   1.609   4.464  10.465  0.0677 -0.3931  0.4238
   83MPD2     H 1295   1.311   4.370  10.688 -1.6454 -0.4648 -3.0262
   83MPD2    H1 1296   1.735   4.414  10.630  0.3779  1.6000 -1.1781
   83MPD2    H2 1297   1.450   4.523  10.324 -1.1089  1.6564  1.0456
   83MPD2    H3 1298   1.701   4.486  10.412  0.1393  0.6966  1.0145
   83MPD2     N 1299   1.553   4.352  10.812 -0.2191  0.3139  0.4612
   83MPD2    H5 1300   1.649   4.355  10.845  0.2295 -1.0557 -0.7412
   83MPD2    N1 1301   1.244   4.490  10.464 -0.1162 -0.3199 -0.0808
   83MPD2    H7 1302   1.235   4.512  10.366 -2.2305 -0.4795  0.0920
   84TMC2    C1 1303   2.121   3.369  10.446  0.3006 -0.1012 -0.1210
   84TMC2    C2 1304   2.251   3.352  10.473 -0.3501 -0.3059  0.4514
   84TMC2    C3 1305   2.344   3.416  10.394 -0.4534  0.1997  0.1260
   84TMC2    C4 1306   2.084   3.461  10.353  0.8648 -0.2916 -0.5631
   84TMC2    C5 1307   2.175   3.530  10.279 -0.3210  0.7929  0.8256
   84TMC2    C6 1308   2.311   3.504  10.287 -0.0814  0.9070  1.0049
   84TMC2     C 1309   2.032   3.352  10.561  0.6179 -0.7616  0.0873
   84TMC2     O 1310   1.945   3.434  10.576  0.0731 -0.1527  0.9835
   84TMC2     H 1311   2.286   3.282  10.547  1.0029  0.6790  0.7336
   84TMC2    H1 1312   1.984   3.501  10.342  1.1160 -0.0344 -1.9878
   84TMC2    H2 1313   2.388   3.565  10.239  1.7093 -0.3932  2.2197
   84TMC2    C7 1314   2.132   3.606  10.167  0.5663  0.6221 -0.3790
   84TMC2    C8 1315   2.472   3.356  10.381  0.4183  0.4358 -0.6618
   84TMC2    O1 1316   2.017   3.583  10.130  0.2064  0.0008  0.1359
   84TMC2    O2 1317   2.519   3.380  10.271 -0.5129  0.3004  1.1709
   84TMC2    O5 1318   2.547   3.370  10.495 -0.6061 -0.2594  0.3033
   84TMC2    H5 1319   2.490   3.382  10.573 -0.9054 -0.6716  0.1478
   85TMC2    C1 1320   3.372   1.680  15.908  0.7456 -0.0613 -0.0355
   85TMC2    C2 1321   3.237   1.653  15.886 -0.0588 -0.1581  0.0120
   85TMC2    C3 1322   3.171   1.736  15.801 -0.2401  0.4963 -0.1730
   85TMC2    C4 1323   3.419   1.805  15.883 -0.5238 -0.6792  0.7401
   85TMC2    C5 1324   3.346   1.894  15.809  0.2165 -0.6390 -0.0054
   85TMC2    C6 1325   3.218   1.863  15.770 -0.6739 -0.1548 -0.1683
   85TMC2     C 1326   3.446   1.620  16.019 -0.1357  0.5082 -0.1307
   85TMC2     O 1327   3.529   1.685  16.082  0.0124  0.0416  0.5748
   85TMC2     H 1328   3.183   1.564  15.915 -1.0809  0.4846  0.0885
   85TMC2    H1 1329   3.527   1.816  15.884 -0.6545  0.5565  3.1419
   85TMC2    H2 1330   3.157   1.929  15.708 -0.0225  0.4208 -0.2011
   85TMC2    C7 1331   3.419   1.994  15.730 -1.0294  0.3374  0.1213
   85TMC2    C8 1332   3.029   1.735  15.798  0.2437 -0.1070  0.3791
   85TMC2    O1 1333   3.532   1.963  15.686 -0.2047 -0.0718 -0.1739
   85TMC2    O2 1334   2.957   1.833  15.804 -0.5094 -0.1285  0.1384
   85TMC2    O5 1335   2.984   1.618  15.744  0.2399 -0.7597  0.5620
   85TMC2    H5 1336   3.057   1.565  15.706  1.5098 -0.5956  2.7596
   86MPD2     C 1337   3.367   1.308  16.419 -0.1285  0.0814  0.8137
   86MPD2    C1 1338   3.314   1.254  16.303 -0.2018 -0.7757  0.5190
   86MPD2    C2 1339   3.336   1.315  16.188 -0.8705 -0.2765  0.4529
   86MPD2    C3 1340   3.394   1.435  16.175  1.1338  0.6151 -0.8659
   86MPD2    C4 1341   3.449   1.489  16.285 -0.4715  0.0762 -0.4775
   86MPD2    C5 1342   3.437   1.426  16.411 -0.7237  0.0027  0.3435
   86MPD2     H 1343   3.299   1.267  16.098 -0.7886 -0.3636  0.4657
   86MPD2    H1 1344   3.496   1.586  16.284  0.8405 -0.6116 -3.9798
   86MPD2    H2 1345   3.364   1.250  16.511  0.8832  0.2809  0.9785
   86MPD2    H3 1346   3.492   1.461  16.498  2.2416 -1.1493 -1.0525
   86MPD2     N 1347   3.387   1.501  16.049  0.3211  0.2474 -0.2440
   86MPD2    H5 1348   3.331   1.453  15.979 -0.9467 -0.8594  1.5238
   86MPD2    N1 1349   3.236   1.133  16.297  0.7727  0.0566 -0.1236
   86MPD2    H7 1350   3.228   1.080  16.211  1.8769 -1.2027  0.5568
   87TMC2    C1 1351   0.840   4.168   1.306 -0.5104 -0.2404  0.4742
   87TMC2    C2 1352   0.724   4.094   1.346  0.5776  0.0332  0.6208
   87TMC2    C3 1353   0.720   4.065   1.480 -0.2752  0.3614  0.5126
   87TMC2    C4 1354   0.930   4.216   1.395  0.3536  0.2305 -0.0103
   87TMC2    C5 1355   0.921   4.183   1.524 -0.1127  0.0009  0.3205
   87TMC2    C6 1356   0.820   4.099   1.569 -0.4092  0.5231 -0.3820
   87TMC2     C 1357   0.854   4.191   1.165 -0.2282 -0.1020 -0.1756
   87TMC2     O 1358   0.752   4.174   1.094  0.1564  0.0201  0.1720
   87TMC2     H 1359   0.654   4.044   1.281  0.9126 -0.0591  0.3284
   87TMC2    H1 1360   1.009   4.286   1.370 -0.4917  1.3959  0.6283
   87TMC2    H2 1361   0.795   4.068   1.670  1.1307 -0.2763 -0.2450
   87TMC2    C7 1362   0.982   4.278   1.614  0.0562 -0.6046 -0.0551
   87TMC2    C8 1363   0.627   3.958   1.507  0.1616  0.6542  0.2490
   87TMC2    O1 1364   1.079   4.340   1.573 -0.0947 -0.2906 -0.0100
   87TMC2    O2 1365   0.575   3.886   1.426  0.1530  0.0254 -0.0722
   87TMC2    O5 1366   0.577   3.971   1.636  0.0623 -0.2754  0.1526
   87TMC2    H5 1367   0.608   4.053   1.680  0.3324  0.9798 -2.3689
   88MPD2     C 1368   0.885   4.358   1.952 -0.0387  0.2923 -0.0950
   88MPD2    C1 1369   0.940   4.379   1.833 -0.5738 -0.2073  0.3024
   88MPD2    C2 1370   0.968   4.512   1.792  0.0930 -0.7614 -0.2383
   88MPD2    C3 1371   0.961   4.618   1.885  0.6633  0.1225 -0.7831
   88MPD2    C4 1372   0.905   4.593   2.011  0.3159  0.2981 -0.5852
   88MPD2    C5 1373   0.855   4.466   2.040 -0.4163 -0.2655 -0.2522
   88MPD2     H 1374   0.996   4.533   1.690 -0.5708 -0.9743 -0.4677
   88MPD2    H1 1375   0.881   4.669   2.085  1.7897 -0.5027  0.7048
   88MPD2    H2 1376   0.825   4.269   1.967 -1.5174  1.1410 -0.9774
   88MPD2    H3 1377   0.800   4.441   2.130 -1.1245  0.5168 -0.4749
   88MPD2     N 1378   0.981   0.021   1.853  0.0368  0.1912  0.7330
   88MPD2    H5 1379   0.961   0.089   1.925 -0.4652  1.4368 -0.5810
   88MPD2    N1 1380   0.924   4.275   1.739 -0.1206 -0.0712  0.0128
   88MPD2    H7 1381   0.871   4.192   1.762 -0.1872 -0.2046 -0.6265
   89TMC2    C1 1382   1.401   2.947   2.046  0.5508 -0.1129 -0.5505
   89TMC2    C2 1383   1.537   2.937   2.054  0.5442  0.0792  0.1678
   89TMC2    C3 1384   1.622   3.016   1.975  0.4818  0.4333  0.6026
   89TMC2    C4 1385   1.349   3.035   1.955 -0.2135  0.1628 -0.1967
   89TMC2    C5 1386   1.431   3.125   1.890  0.0977 -0.2228  0.5658
   89TMC2    C6 1387   1.565   3.119   1.895  0.0061 -0.2277 -0.6058
   89TMC2     C 1388   1.312   2.844   2.091  0.0841  0.4774  0.5699
   89TMC2     O 1389   1.346   2.776   2.192  0.0639  0.0884  0.3817
   89TMC2     H 1390   1.577   2.875   2.133  0.7818  2.0739  1.6234
   89TMC2    H1 1391   1.248   3.070   1.974 -0.2230 -0.4581  0.9449
   89TMC2    H2 1392   1.633   3.181   1.837  1.3114  0.1172  1.2669
   89TMC2    C7 1393   1.360   3.189   1.778 -0.7931 -0.5643  0.0031
   89TMC2    C8 1394   1.762   2.976   1.969 -0.1439  0.4390  0.1722
   89TMC2    O1 1395   1.248   3.149   1.757  0.0880  0.0847 -0.2074
   89TMC2    O2 1396   1.816   2.933   2.072 -0.1302  0.2643 -0.1648
   89TMC2    O5 1397   1.776   2.939   1.844 -0.2486 -0.4928  0.4935
   89TMC2    H5 1398   1.718   2.982   1.777 -0.3949  0.7568  1.4255
   90MPD2     C 1399   0.906   2.550   1.990 -0.4445  1.0006 -0.1708
   90MPD2    C1 1400   0.912   2.658   1.903  0.7037  0.5786  0.2030
   90MPD2    C2 1401   1.016   2.745   1.912 -0.2350  0.6599  0.5345
   90MPD2    C3 1402   1.122   2.723   1.995 -0.0977  0.4984 -0.4673
   90MPD2    C4 1403   1.117   2.613   2.078 -0.4569 -1.0228 -0.9024
   90MPD2    C5 1404   1.018   2.529   2.071 -0.5667  0.4471 -0.5608
   90MPD2     H 1405   1.021   2.835   1.851 -0.5903  1.4807  1.7275
   90MPD2    H1 1406   1.205   2.592   2.138 -1.1787 -4.3076 -1.0411
   90MPD2    H2 1407   0.827   2.477   1.993  0.2143  0.3666  1.7230
   90MPD2    H3 1408   1.013   2.442   2.136  1.3176  0.5402 -0.3141
   90MPD2     N 1409   1.214   2.832   2.003 -0.4832  0.7032 -0.3382
   90MPD2    H5 1410   1.210   2.896   1.924  1.1583  1.6498  0.3637
   90MPD2    N1 1411   0.814   2.680   1.798  0.0421 -0.0294 -0.2208
   90MPD2    H7 1412   0.804   2.773   1.760 -0.3490  0.3417  0.8087
   91TMC2    C1 1413   2.788   2.605  16.066  0.0619 -0.4365  0.8998
   91TMC2    C2 1414   2.780   2.649  16.194  0.5159  0.0906  0.4661
   91TMC2    C3 1415   2.710   2.572  16.278 -0.4502 -0.5277  0.2061
   91TMC2    C4 1416   2.723   2.493  16.022  0.1702  0.0034  0.2448
   91TMC2    C5 1417   2.675   2.404  16.114  0.4998  0.2006 -0.9384
   91TMC2    C6 1418   2.662   2.450  16.243 -0.2385 -0.4303  0.0335
   91TMC2     C 1419   2.877   2.678  15.977  0.2877  0.3664 -0.3088
   91TMC2     O 1420   2.867   2.661  15.856  0.0495  0.0135  0.4415
   91TMC2     H 1421   2.827   2.743  16.223 -1.2421  1.2453 -0.4013
   91TMC2    H1 1422   2.728   2.464  15.918  0.6279 -2.1197  0.8717
   91TMC2    H2 1423   2.603   2.394  16.315  1.0645 -0.5629  1.0006
   91TMC2    C7 1424   2.638   2.267  16.081 -0.3331  0.4776  0.1502
   91TMC2    C8 1425   2.701   2.604  16.416 -0.0749  0.0753  0.3194
   91TMC2    O1 1426   2.639   2.194  16.179  0.1561  0.1600 -0.1406
   91TMC2    O2 1427   2.717   2.723  16.449  0.5624 -0.0466 -0.0037
   91TMC2    O5 1428   2.768   2.500  16.474 -0.0287  0.0066  0.2005
   91TMC2    H5 1429   2.776   2.416  16.424 -0.4301 -0.2562  0.5701
   92MPD2     C 1430   3.083   2.849  15.869 -0.5690  0.1112  0.0625
   92MPD2    C1 1431   3.097   2.786  15.990  0.1514  0.6858  0.6381
   92MPD2    C2 1432   3.220   2.792  16.054  0.1374 -0.0637 -0.0699
   92MPD2    C3 1433   3.322   2.866  15.996  1.0605  0.0654  0.6318
   92MPD2    C4 1434   3.306   2.938  15.877  0.1861  0.1326 -0.2087
   92MPD2    C5 1435   3.189   2.927  15.813  0.7788  0.1967  0.0706
   92MPD2     H 1436   3.238   2.737  16.145 -1.3467 -0.3943  0.0210
   92MPD2    H1 1437   3.389   2.992  15.834  1.2572 -1.1600  0.2198
   92MPD2    H2 1438   2.991   2.856  15.813 -0.8079 -0.7158  0.3497
   92MPD2    H3 1439   3.177   2.967  15.713 -0.8927  0.7987  0.5092
   92MPD2     N 1440   3.448   2.870  16.061 -0.0432 -0.3062 -0.5574
   92MPD2    H5 1441   3.461   2.799  16.132 -0.8386 -0.2283 -0.3360
   92MPD2    N1 1442   2.988   2.718  16.047 -0.2453  0.3075 -0.1342
   92MPD2    H7 1443   2.993   2.698  16.147  2.5905  1.0238 -0.1379
   93TMC2    C1 1444   0.202   2.366  13.829  0.8723 -0.4818  0.0532
   93TMC2    C2 1445   0.121   2.389  13.941 -0.2439  0.0701 -0.1225
   93TMC2    C3 1446   0.178   2.454  14.045  0.1279 -0.2026  0.0201
   93TMC2    C4 1447   0.331   2.414  13.818 -0.1298  0.5181  0.7033
   93TMC2    C5 1448   0.382   2.484  13.922 -0.2659  0.7484  0.1977
   93TMC2    C6 1449   0.309   2.494  14.035 -0.3080 -0.2104 -0.5114
   93TMC2     C 1450   0.149   2.288  13.719  0.2288 -0.3267  0.0039
   93TMC2     O 1451   0.220   2.275  13.623  0.0708  0.0150  0.0436
   93TMC2     H 1452   0.020   2.352  13.953 -0.4801  0.4533 -0.8731
   93TMC2    H1 1453   0.386   2.395  13.726 -0.2016 -2.0643  1.1974
   93TMC2    H2 1454   0.349   2.540  14.124 -0.9680  1.9856 -1.3439
   93TMC2    C7 1455   0.508   2.559  13.916 -0.3086 -0.2390  0.4750
   93TMC2    C8 1456   0.116   2.431  14.170  1.1746  0.7562 -0.2170
   93TMC2    O1 1457   0.557   2.593  14.024  0.7321 -0.1865  0.5243
   93TMC2    O2 1458   0.005   2.474  14.201 -0.7130  0.2064  0.4082
   93TMC2    O5 1459   0.144   2.301  14.190 -0.1378  0.0492 -0.2428
   93TMC2    H5 1460   0.219   2.270  14.134  0.7304 -1.3835  1.6990
   94MPD2     C 1461   4.715   2.154  13.515 -0.3521  0.2425  0.4560
   94MPD2    C1 1462   4.662   2.216  13.626 -0.2002 -0.4601 -0.5062
   94MPD2    C2 1463   4.526   2.207  13.652 -0.5138 -0.1977 -0.3129
   94MPD2    C3 1464   4.436   2.147  13.559 -0.5757 -0.4357  0.9141
   94MPD2    C4 1465   4.493   2.080  13.449 -0.1323  0.3403  0.6350
   94MPD2    C5 1466   4.631   2.095  13.424 -0.4314 -0.2720  0.8509
   94MPD2     H 1467   4.476   2.262  13.731  0.9244  0.7497 -0.0556
   94MPD2    H1 1468   4.437   2.029  13.371  2.3825 -2.7337  0.8841
   94MPD2    H2 1469   0.086   2.146  13.492 -0.1652 -0.0368  1.3918
   94MPD2    H3 1470   4.673   2.041  13.340 -1.2717  0.3221  0.0556
   94MPD2     N 1471   4.295   2.137  13.575  0.0537  0.1428  0.0889
   94MPD2    H5 1472   4.249   2.069  13.516 -0.5141 -2.0264  3.0366
   94MPD2    N1 1473   0.008   2.277  13.727 -0.2002  0.4064  0.1775
   94MPD2    H7 1474   4.694   2.323  13.804 -3.5057 -1.8406 -0.5976
   95TMC2    C1 1475   0.292   3.999  16.516 -0.6306  0.2595 -0.3430
   95TMC2    C2 1476   0.210   3.903  16.575  0.0838  0.7855 -0.4896
   95TMC2    C3 1477   0.159   3.934  16.696 -0.2693 -0.4134  0.7238
   95TMC2    C4 1478   0.327   4.112  16.582  0.4109 -0.3222 -0.5476
   95TMC2    C5 1479   0.275   4.137  16.701  0.0518  0.0833  0.0341
   95TMC2    C6 1480   0.189   4.052  16.761  0.2413 -0.3263  0.4023
   95TMC2     C 1481   0.324   3.994  16.367 -0.4742 -0.0660  0.3190
   95TMC2     O 1482   0.418   4.065  16.331  0.5490 -0.1969 -0.0159
   95TMC2     H 1483   0.177   3.814  16.523 -1.1933  2.1680 -2.0209
   95TMC2    H1 1484   0.405   4.177  16.546  1.2965 -0.7333  0.6130
   95TMC2    H2 1485   0.151   4.068  16.861 -0.6240  0.9658 -0.1308
   95TMC2    C7 1486   0.333   4.248  16.774 -0.7629  0.0308 -0.3639
   95TMC2    C8 1487   0.047   3.856  16.749 -0.4528  0.1483  0.0986
   95TMC2    O1 1488   0.372   4.338  16.701 -0.4880 -0.8252 -0.2186
   95TMC2    O2 1489   0.018   3.845  16.868  0.5673 -0.4361 -0.0320
   95TMC2    O5 1490   4.687   3.864  16.657 -0.5936 -0.0627 -0.5618
   95TMC2    H5 1491   4.721   3.903  16.574  0.8529 -0.2370 -0.0537
   96MPD2     C 1492   0.296   3.832  15.870  0.7736 -0.1788 -0.3477
   96MPD2    C1 1493   0.403   3.893  15.944  0.7135 -0.0740  0.0585
   96MPD2    C2 1494   0.383   3.929  16.078  1.0597  0.6331 -0.5751
   96MPD2    C3 1495   0.270   3.893  16.144 -0.2020 -0.1466  0.3451
   96MPD2    C4 1496   0.165   3.831  16.073 -0.3567 -0.7014  0.0158
   96MPD2    C5 1497   0.184   3.800  15.944 -0.1925 -0.8308 -0.7361
   96MPD2     H 1498   0.465   3.981  16.127  1.9180  1.4476 -2.9142
   96MPD2    H1 1499   0.072   3.799  16.118 -0.9999  1.0082 -0.0954
   96MPD2    H2 1500   0.302   3.807  15.765 -1.2791  0.0766 -0.5300
   96MPD2    H3 1501   0.100   3.749  15.898 -2.6477  1.4285  1.2157
   96MPD2     N 1502   0.242   3.921  16.286  0.6093 -0.6250  0.1721
   96MPD2    H5 1503   0.152   3.881  16.312 -0.0670  0.8712  0.1255
   96MPD2    N1 1504   0.517   3.929  15.871 -0.2317 -0.7854  0.1928
   96MPD2    H7 1505   0.513   3.902  15.773 -0.9111 -1.4018  0.3893
   97TMC2    C1 1506   2.746   2.377   0.861 -0.4435  0.4172 -0.0663
   97TMC2    C2 1507   2.619   2.345   0.821  0.1206  0.1527 -0.7556
   97TMC2    C3 1508   2.591   2.305   0.693 -0.2837  0.6627  0.0905
   97TMC2    C4 1509   2.845   2.365   0.771  1.1304 -0.1516  0.1843
   97TMC2    C5 1510   2.808   2.347   0.636 -0.2674  0.4636 -0.1882
   97TMC2    C6 1511   2.679   2.312   0.593 -0.2529  1.1935  0.5866
   97TMC2     C 1512   2.769   2.413   1.006  0.4833 -0.1443 -0.2822
   97TMC2     O 1513   2.680   2.382   1.087  0.1224  0.6034  0.5043
   97TMC2     H 1514   2.543   2.366   0.895 -0.4512 -2.7659 -0.5015
   97TMC2    H1 1515   2.947   2.389   0.799  1.2576  2.0365 -2.1619
   97TMC2    H2 1516   2.655   2.275   0.495 -0.9467 -0.3735  1.3576
   97TMC2    C7 1517   2.909   2.408   0.548 -1.2338 -0.0393 -0.3355
   97TMC2    C8 1518   2.465   2.257   0.650  0.7982  0.1059  0.6102
   97TMC2    O1 1519   3.015   2.440   0.609  0.0635 -0.3053  0.1311
   97TMC2    O2 1520   2.421   2.305   0.548 -0.6025  0.3832 -0.3111
   97TMC2    O5 1521   2.397   2.223   0.763 -0.0735  0.1131 -0.6034
   97TMC2    H5 1522   2.462   2.206   0.835  1.0372  1.1915 -1.3535
   98MPD2     C 1523   3.027   2.649   1.376  0.6901  0.2307  0.9913
   98MPD2    C1 1524   2.920   2.565   1.384 -0.4540 -0.4540  0.5034
   98MPD2    C2 1525   2.868   2.516   1.265 -0.6102 -0.0673 -0.3933
   98MPD2    C3 1526   2.924   2.548   1.144  0.5785 -0.0147  0.6819
   98MPD2    C4 1527   3.040   2.631   1.145 -0.2715  1.3886  0.3646
   98MPD2    C5 1528   3.083   2.687   1.263  0.5292 -0.7892  1.1144
   98MPD2     H 1529   2.773   2.466   1.279  0.3295 -1.0697  2.4721
   98MPD2    H1 1530   3.091   2.668   1.057 -0.1917  0.8141  0.1653
   98MPD2    H2 1531   3.067   2.691   1.467  0.7572  0.3611  0.9011
   98MPD2    H3 1532   3.162   2.761   1.260 -0.9025  0.6868 -0.8734
   98MPD2     N 1533   2.878   2.499   1.021  0.2179 -0.5660  0.4371
   98MPD2    H5 1534   2.911   2.552   0.941  0.8430 -0.2663  0.8892
   98MPD2    N1 1535   2.853   2.545   1.509 -1.1215 -0.5247 -0.0554
   98MPD2    H7 1536   2.890   2.607   1.580  0.5785 -0.6657 -0.8200
   99TMC2    C1 1537   1.412   3.694   1.549 -0.1940 -1.1801  0.4282
   99TMC2    C2 1538   1.476   3.748   1.661 -0.2157  0.0607 -0.2783
   99TMC2    C3 1539   1.431   3.716   1.785  0.4987  0.0454 -0.0217
   99TMC2    C4 1540   1.298   3.621   1.572  0.4542 -0.6207  0.2827
   99TMC2    C5 1541   1.253   3.594   1.696  0.4628  0.3412 -0.3680
   99TMC2    C6 1542   1.325   3.627   1.807 -0.4366  0.5636 -0.8911
   99TMC2     C 1543   1.463   3.733   1.418  0.0098 -0.8594 -0.2116
   99TMC2     O 1544   1.570   3.788   1.422  0.5866  0.8256 -0.7383
   99TMC2     H 1545   1.567   3.805   1.649  0.5217 -0.7750  1.3485
   99TMC2    H1 1546   1.246   3.588   1.483 -0.3466 -0.2506  0.6245
   99TMC2    H2 1547   1.305   3.594   1.909  0.5577 -0.9777 -1.1946
   99TMC2    C7 1548   1.136   3.518   1.720 -0.1515 -0.5890  1.0753
   99TMC2    C8 1549   1.536   3.715   1.885  0.4879 -0.0859 -0.8170
   99TMC2    O1 1550   1.110   3.499   1.835 -0.4735 -0.4197  0.2015
   99TMC2    O2 1551   1.537   3.631   1.975  0.1514  0.5825 -0.0255
   99TMC2    O5 1552   1.616   3.832   1.884  0.0394  0.5023 -0.1594
   99TMC2    H5 1553   1.586   3.900   1.820  0.0496  0.8208  0.1774
  100MPD2     C 1554   1.556   3.717   1.127  0.9380 -0.7427  0.9750
  100MPD2    C1 1555   1.431   3.669   1.175 -0.3990  0.3398  0.5550
  100MPD2    C2 1556   1.349   3.599   1.086 -0.0275  0.4886  0.3103
  100MPD2    C3 1557   1.379   3.593   0.951 -0.1232 -0.5487 -0.7246
  100MPD2    C4 1558   1.491   3.660   0.909 -0.1466  0.1306 -0.2602
  100MPD2    C5 1559   1.577   3.718   0.993  0.1662 -0.0316 -0.5137
  100MPD2     H 1560   1.271   3.537   1.129 -0.3087  0.4867 -0.1985
  100MPD2    H1 1561   1.520   3.665   0.805  1.9142 -1.0928  0.2539
  100MPD2    H2 1562   1.609   3.789   1.189 -1.5163  1.2747  0.7353
  100MPD2    H3 1563   1.663   3.773   0.957 -0.7131  0.9824 -1.0880
  100MPD2     N 1564   1.295   3.523   0.860 -0.1067 -0.1249 -0.4931
  100MPD2    H5 1565   1.213   3.484   0.906 -2.2007  3.1367 -1.5174
  100MPD2    N1 1566   1.390   3.673   1.314  0.4110 -0.3131 -0.3227
  100MPD2    H7 1567   1.306   3.619   1.331 -1.3270  2.0898 -1.2896
  101TMC2    C1 1568   2.023   0.005  13.199 -0.2064 -0.1316  0.1211
  101TMC2    C2 1569   2.142   4.702  13.254  0.6476  0.3092 -0.6020
  101TMC2    C3 1570   2.242   0.058  13.249 -0.1968  0.0404 -0.5915
  101TMC2    C4 1571   2.008   0.120  13.133 -0.8012  0.1035  0.1208
  101TMC2    C5 1572   2.113   0.205  13.129  0.2487 -0.1262 -0.3268
  101TMC2    C6 1573   2.229   0.184  13.197  0.2520 -0.3283  0.0154
  101TMC2     C 1574   1.911   4.649  13.210  0.7408  0.4049  0.1656
  101TMC2     O 1575   1.806   4.700  13.245 -0.3987 -0.6266  0.0125
  101TMC2     H 1576   2.148   4.603  13.298 -0.6993  0.4484 -0.0840
  101TMC2    H1 1577   1.914   0.133  13.079  0.2058  0.1164 -1.6362
  101TMC2    H2 1578   2.312   0.254  13.196  0.4708 -0.5996 -2.0501
  101TMC2    C7 1579   2.111   0.327  13.044 -0.1285 -0.4184  0.5381
  101TMC2    C8 1580   2.352   0.032  13.346  0.3510  0.7149 -0.0634
  101TMC2    O1 1581   2.213   0.388  13.051  0.2670 -0.0908  0.3356
  101TMC2    O2 1582   2.440   4.683  13.341 -0.0932  0.5571  0.4727
  101TMC2    O5 1583   2.274   0.039  13.462 -0.0713  0.4388 -0.0342
  101TMC2    H5 1584   2.191   0.091  13.457 -0.4830 -0.6631 -4.3557
  102MPD2     C 1585   1.941   4.286  13.162 -0.1291 -0.3383  0.2476
  102MPD2    C1 1586   1.883   4.399  13.206  0.4634  0.2820  0.5872
  102MPD2    C2 1587   1.762   4.396  13.264 -0.3366  0.2551  0.3715
  102MPD2    C3 1588   1.689   4.279  13.269  0.0012  0.2902 -0.0735
  102MPD2    C4 1589   1.746   4.164  13.220  0.0690  0.6468  0.6080
  102MPD2    C5 1590   1.877   4.168  13.170  0.3359 -0.1784 -0.2749
  102MPD2     H 1591   1.727   4.492  13.298  0.2156  1.0537 -1.3349
  102MPD2    H1 1592   1.688   4.072  13.223  0.3152  0.5196  1.5337
  102MPD2    H2 1593   2.043   4.282  13.124  0.2917  2.5227  1.0429
  102MPD2    H3 1594   1.911   4.072  13.133  2.4221  1.5012 -2.6929
  102MPD2     N 1595   1.563   4.283  13.337  0.0955 -0.2928  0.1676
  102MPD2    H5 1596   1.529   4.365  13.387  0.1308 -0.1248 -0.0805
  102MPD2    N1 1597   1.958   4.519  13.183  0.0751 -0.1889 -0.7595
  102MPD2    H7 1598   2.051   4.517  13.143 -0.0079 -2.5680 -0.8359
  103TMC2    C1 1599   4.476   0.382  12.753  0.0234  0.0151 -0.1598
  103TMC2    C2 1600   4.533   0.493  12.696 -0.2724 -0.1162 -0.6942
  103TMC2    C3 1601   4.590   0.586  12.774  0.1653  0.2573  0.1392
  103TMC2    C4 1602   4.478   0.354  12.888  0.2522 -0.1186 -0.5441
  103TMC2    C5 1603   4.536   0.451  12.964  0.6727  0.3584  0.0800
  103TMC2    C6 1604   4.596   0.563  12.916 -0.0163  0.8946 -0.1878
  103TMC2     C 1605   4.391   0.302  12.663  0.0959  0.0480  0.2932
  103TMC2     O 1606   4.398   0.332  12.545  0.3870  0.0054 -0.1694
  103TMC2     H 1607   4.515   0.519  12.592 -0.0733  1.9716 -0.2038
  103TMC2    H1 1608   4.434   0.259  12.916 -1.3894  1.2393  1.4646
  103TMC2    H2 1609   4.638   0.636  12.984  0.8101  0.2455 -0.0151
  103TMC2    C7 1610   4.539   0.414  13.103  0.2509 -0.1544  0.0440
  103TMC2    C8 1611   4.598   0.716  12.715  0.5443  0.1369 -0.1803
  103TMC2    O1 1612   4.462   0.326  13.134  0.1964 -0.4655  0.6415
  103TMC2    O2 1613   4.507   0.751  12.642  0.4822 -0.2445  0.4401
  103TMC2    O5 1614   4.626   0.796  12.816  0.0128 -0.0708 -0.0498
  103TMC2    H5 1615   4.716   0.782  12.853  0.2725 -0.2976 -0.7650
  104MPD2     C 1616   4.165   0.027  12.758 -0.4894  0.4171  0.1442
  104MPD2    C1 1617   4.231   0.107  12.670 -0.4535  0.3606  0.3509
  104MPD2    C2 1618   4.209   0.096  12.536 -0.4221  0.7651  0.4047
  104MPD2    C3 1619   4.120   0.004  12.479 -0.7282  0.6570  0.1948
  104MPD2    C4 1620   4.045   4.668  12.570 -0.2758  0.3396 -0.3659
  104MPD2    C5 1621   4.076   4.676  12.703  0.1695 -0.6681  0.9419
  104MPD2     H 1622   4.268   0.154  12.466 -0.1654  1.5911  1.3233
  104MPD2    H1 1623   3.975   4.598  12.526  0.2506 -0.0840 -0.5300
  104MPD2    H2 1624   4.173   0.034  12.866 -0.4954  1.0280  0.1086
  104MPD2    H3 1625   4.030   4.597  12.761 -1.1598 -1.5311 -1.2767
  104MPD2     N 1626   4.102   4.734  12.337 -0.1455 -0.0508  0.5767
  104MPD2    H5 1627   4.169   0.055  12.286  0.2263 -0.8591  0.1891
  104MPD2    N1 1628   4.313   0.209  12.730  0.1593  0.1376  0.5882
  104MPD2    H7 1629   4.317   0.195  12.830 -1.1900 -0.4184  0.5699
  105TMC2    C1 1630   0.892   3.821   0.278 -0.6154 -0.5216  0.3042
  105TMC2    C2 1631   0.761   3.802   0.313  0.7520  0.4064  0.2587
  105TMC2    C3 1632   0.703   3.866   0.415  0.5313 -0.7502  0.5145
  105TMC2    C4 1633   0.964   3.912   0.347  0.4820  0.0735  0.2764
  105TMC2    C5 1634   0.901   3.988   0.445  0.0827 -1.1757 -0.1995
  105TMC2    C6 1635   0.772   3.962   0.480 -0.3156 -0.0548 -0.1392
  105TMC2     C 1636   0.939   3.761   0.156  0.9704  0.2947 -0.4676
  105TMC2     O 1637   0.879   3.657   0.131 -0.2353  0.5510 -0.3186
  105TMC2     H 1638   0.700   3.735   0.253 -2.8169  2.3093  1.7356
  105TMC2    H1 1639   1.070   3.920   0.327  0.4871  0.8349  0.6160
  105TMC2    H2 1640   0.714   4.023   0.549 -1.8323  2.1129 -3.3485
  105TMC2    C7 1641   0.986   4.066   0.532  0.8882  0.3058  0.2469
  105TMC2    C8 1642   0.567   3.840   0.458  0.9082  0.1838 -0.3199
  105TMC2    O1 1643   1.091   4.102   0.483  0.1143  0.4951  0.3936
  105TMC2    O2 1644   0.527   3.898   0.560 -0.2384 -0.7755 -0.4518
  105TMC2    O5 1645   0.554   3.707   0.454  0.4790 -0.9640  0.2732
  105TMC2    H5 1646   0.575   3.671   0.366  1.4831 -0.8179  0.4559
  106MPD2     C 1647   1.289   3.628  17.539 -0.0933  0.2613  0.1811
  106MPD2    C1 1648   1.329   3.747  17.595  0.7070  0.1904 -0.5120
  106MPD2    C2 1649   1.248   3.797  17.697  0.0854  0.2489 -0.3351
  106MPD2    C3 1650   1.132   3.738   0.003  0.5208  0.5244  0.0003
  106MPD2    C4 1651   1.085   3.627  17.667 -0.2985 -0.4728  0.5627
  106MPD2    C5 1652   1.169   3.565  17.575  0.1487 -0.4441  0.3354
  106MPD2     H 1653   1.280   3.889   0.006 -0.9953  0.6404 -0.3873
  106MPD2    H1 1654   0.981   3.600  17.678 -0.5164  1.1012  2.5683
  106MPD2    H2 1655   1.328   3.595  17.444 -0.7763 -1.4284  0.4911
  106MPD2    H3 1656   1.135   3.477  17.520  1.9439 -2.3313  2.2372
  106MPD2     N 1657   1.047   3.812   0.096 -0.4670  0.4395 -0.3453
  106MPD2    H5 1658   1.077   3.906   0.120  1.5195  0.1282 -1.6071
  106MPD2    N1 1659   1.449   3.812  17.552 -0.0565 -0.4698 -0.5363
  106MPD2    H7 1660   1.460   3.909  17.581 -1.0252  0.4553 -3.2251
  107TMC2    C1 1661   1.692   3.629  11.383 -0.5791 -0.0822  0.1216
  107TMC2    C2 1662   1.613   3.705  11.298 -0.3721  0.1851  0.4810
  107TMC2    C3 1663   1.584   3.663  11.172 -0.4824 -0.0936  0.5540
  107TMC2    C4 1664   1.749   3.512  11.335  0.6497  0.7365  0.3565
  107TMC2    C5 1665   1.719   3.475  11.209  0.0363  0.0961  0.2582
  107TMC2    C6 1666   1.637   3.549  11.122 -0.2033  0.0404  0.5958
  107TMC2     C 1667   1.760   3.687  11.498  0.5962  0.6037  0.0819
  107TMC2     O 1668   1.809   3.605  11.576 -0.0838 -1.0601 -0.0911
  107TMC2     H 1669   1.551   3.785  11.336 -0.8662  0.1839 -0.3125
  107TMC2    H1 1670   1.816   3.448  11.391  0.7155  1.3900  1.0238
  107TMC2    H2 1671   1.627   3.509  11.022 -2.6652  2.5780 -0.1850
  107TMC2    C7 1672   1.774   3.355  11.158  0.0663 -0.1940 -0.9268
  107TMC2    C8 1673   1.469   3.726  11.104 -0.0744  0.5136 -0.3611
  107TMC2    O1 1674   1.751   3.254  11.222  0.1768 -0.2286 -0.1871
  107TMC2    O2 1675   1.413   3.822  11.156 -0.2652 -0.0178 -0.3480
  107TMC2    O5 1676   1.411   3.647  11.017 -0.3645 -0.2928  0.8439
  107TMC2    H5 1677   1.478   3.597  10.966 -0.9058  0.4655 -0.6314
  108MPD2     C 1678   1.841   4.042  11.580  0.5220 -0.1327  0.5443
  108MPD2    C1 1679   1.811   3.908  11.607 -0.5706 -0.5441  0.5145
  108MPD2    C2 1680   1.815   3.856  11.733  0.7652 -0.0847 -0.1565
  108MPD2    C3 1681   1.847   3.942  11.836  0.1612 -0.4000 -0.1402
  108MPD2    C4 1682   1.867   4.076  11.811  0.1658  0.0091 -0.1323
  108MPD2    C5 1683   1.870   4.121  11.686  0.4659 -0.5136 -0.2601
  108MPD2     H 1684   1.782   3.754  11.754  0.4906 -0.2884 -1.5847
  108MPD2    H1 1685   1.896   4.146  11.887 -0.6148  1.8664 -1.5464
  108MPD2    H2 1686   1.827   4.085  11.481  0.7308  0.2359  0.6740
  108MPD2    H3 1687   1.884   4.228  11.670 -0.6311 -0.1407  1.2718
  108MPD2     N 1688   1.837   3.904  11.973 -1.0174 -0.0459  0.4915
  108MPD2    H5 1689   1.848   3.981  12.038  0.3057  1.2763 -1.3171
  108MPD2    N1 1690   1.765   3.827  11.499 -0.2742 -0.7259  0.1325
  108MPD2    H7 1691   1.766   3.867  11.406 -2.8279  2.3374  1.4367
  109TMC2    C1 1692   1.877   1.874   2.389 -0.0162  0.4741  0.0882
  109TMC2    C2 1693   1.911   1.855   2.520 -0.1919  0.0349  0.3766
  109TMC2    C3 1694   2.047   1.863   2.556 -0.4480  0.6417  0.3745
  109TMC2    C4 1695   1.970   1.914   2.295 -0.6228 -0.9585  0.2503
  109TMC2    C5 1696   2.103   1.931   2.330 -0.2171  0.3605 -0.4276
  109TMC2    C6 1697   2.147   1.903   2.459  0.6628 -0.0520  0.7376
  109TMC2     C 1698   1.736   1.888   2.353 -0.6992 -0.3699  0.3749
  109TMC2     O 1699   1.661   1.911   2.449 -0.2698 -0.0026 -0.0217
  109TMC2     H 1700   1.837   1.818   2.590 -3.4035  1.3605 -2.3142
  109TMC2    H1 1701   1.933   1.959   2.204 -0.2299  1.2296  1.1802
  109TMC2    H2 1702   2.253   1.917   2.481  0.8286  0.1778 -0.1709
  109TMC2    C7 1703   2.203   1.958   2.225 -1.0367 -0.4560 -0.1377
  109TMC2    C8 1704   2.075   1.838   2.694 -0.4733 -0.3186  0.5346
  109TMC2    O1 1705   2.320   1.995   2.258 -0.4216 -0.1872  1.0456
  109TMC2    O2 1706   1.999   1.814   2.783  0.3322 -0.4716 -0.0615
  109TMC2    O5 1707   2.198   1.770   2.697  0.3700  0.1226  0.2458
  109TMC2    H5 1708   2.246   1.778   2.611  1.0274  1.6768  0.7423
  110MPD2     C 1709   1.324   1.779   2.087  0.6211 -0.0419  0.3675
  110MPD2    C1 1710   1.436   1.747   2.010  0.8682  0.1109 -0.0519
  110MPD2    C2 1711   1.561   1.780   2.051 -0.6744 -0.2132  0.5762
  110MPD2    C3 1712   1.582   1.854   2.166  0.1087  0.3180  0.9739
  110MPD2    C4 1713   1.470   1.876   2.249  0.1878  0.5089 -0.8972
  110MPD2    C5 1714   1.343   1.837   2.211 -0.1382 -0.6630 -0.6111
  110MPD2     H 1715   1.641   1.751   1.985  0.1101  1.1709  0.9310
  110MPD2    H1 1716   1.474   1.933   2.342  1.4069  1.3256 -1.4494
  110MPD2    H2 1717   1.224   1.745   2.060  1.5673 -1.7388 -1.0123
  110MPD2    H3 1718   1.257   1.859   2.273  2.5693 -0.0916  2.9115
  110MPD2     N 1719   1.713   1.862   2.222 -1.0505  0.2972 -0.3635
  110MPD2    H5 1720   1.795   1.826   2.174  0.4399 -0.3957  2.6717
  110MPD2    N1 1721   1.401   1.683   1.886 -0.1247  0.9285 -0.6084
  110MPD2    H7 1722   1.302   1.673   1.867 -0.2815  1.0124  0.1512
  111TMC2    C1 1723   1.616   1.081  12.021  0.0241  0.1172 -0.2937
  111TMC2    C2 1724   1.527   1.010  12.097  0.3028 -0.6189 -0.2957
  111TMC2    C3 1725   1.554   1.010  12.236  0.0250  0.0764  1.0304
  111TMC2    C4 1726   1.722   1.146  12.074 -0.8086  0.4042  0.1306
  111TMC2    C5 1727   1.745   1.136  12.208 -0.8798  0.3161 -0.4293
  111TMC2    C6 1728   1.661   1.069  12.292 -0.1911  0.0504  0.3086
  111TMC2     C 1729   1.611   1.060  11.877 -0.1774 -0.3816  0.0103
  111TMC2     O 1730   1.651   1.155  11.807  1.0591 -0.5497  0.0168
  111TMC2     H 1731   1.438   0.966  12.054  0.0612 -1.0738  0.6718
  111TMC2    H1 1732   1.795   1.178  12.000 -1.3373 -1.1984 -1.1069
  111TMC2    H2 1733   1.681   1.062  12.398  1.1868  1.2818  0.1339
  111TMC2    C7 1734   1.861   1.198  12.278  0.1885  0.4119 -0.1769
  111TMC2    C8 1735   1.475   0.930  12.323  1.1119  0.2435  0.1050
  111TMC2    O1 1736   1.881   1.175  12.396  0.4876  0.4544  0.0851
  111TMC2    O2 1737   1.470   0.944  12.447 -0.3241 -0.4574  0.4464
  111TMC2    O5 1738   1.397   0.846  12.252 -0.4866  0.3166 -0.0621
  111TMC2    H5 1739   1.446   0.828  12.169  0.7745 -0.0691  0.7693
  112MPD2     C 1740   1.714   0.753  11.481 -0.1295 -0.3138  0.2278
  112MPD2    C1 1741   1.717   0.888  11.493 -0.3191  0.0018 -0.1461
  112MPD2    C2 1742   1.660   0.952  11.603  0.1309 -0.3030  0.0816
  112MPD2    C3 1743   1.625   0.880  11.713  0.0047 -0.6978  0.3071
  112MPD2    C4 1744   1.638   0.746  11.702  0.4733 -0.0324 -0.4177
  112MPD2    C5 1745   1.670   0.676  11.588 -0.6114  0.5931 -0.7933
  112MPD2     H 1746   1.638   1.058  11.590  0.4806 -0.2652 -0.1910
  112MPD2    H1 1747   1.615   0.686  11.789  0.4049 -0.3317 -0.6449
  112MPD2    H2 1748   1.740   0.700  11.390 -0.0070  0.3400 -0.1173
  112MPD2    H3 1749   1.659   0.570  11.572 -1.8783  0.6200 -0.0815
  112MPD2     N 1750   1.590   0.929  11.843  0.2908 -0.0168  0.0266
  112MPD2    H5 1751   1.580   0.866  11.921  1.1721  1.4553  1.3237
  112MPD2    N1 1752   1.758   0.979  11.389 -1.3047 -0.4470  0.5005
  112MPD2    H7 1753   1.731   1.076  11.400 -0.8682 -0.2612 -0.0341
  113TMC2    C1 1754   0.079   3.825   0.787 -0.0135  0.5633  0.0471
  113TMC2    C2 1755   0.022   3.936   0.837  0.1894  0.6901 -0.2255
  113TMC2    C3 1756   4.656   3.995   0.765 -0.4520 -0.4333 -0.4352
  113TMC2    C4 1757   0.037   3.768   0.672 -0.4546 -0.6038  0.2585
  113TMC2    C5 1758   4.679   3.839   0.593 -0.3700 -0.7125 -0.2307
  113TMC2    C6 1759   4.622   3.957   0.642 -0.5864 -0.5870 -0.5421
  113TMC2     C 1760   0.185   3.770   0.866  0.2994 -0.3187  0.8397
  113TMC2     O 1761   0.205   3.817   0.977  0.1294  0.8975  0.3294
  113TMC2     H 1762   0.067   3.985   0.922 -0.0213  0.1860  0.1812
  113TMC2    H1 1763   0.075   3.670   0.645 -0.8017  0.0838 -2.6208
  113TMC2    H2 1764   4.556   4.010   0.575 -0.5758 -0.0182 -0.1043
  113TMC2    C7 1765   4.624   3.781   0.472  0.4334 -0.6724 -0.3548
  113TMC2    C8 1766   4.586   4.105   0.827  0.9004  0.6870 -0.8986
  113TMC2    O1 1767   4.534   3.849   0.419 -0.4715 -0.5053 -0.3310
  113TMC2    O2 1768   4.573   4.125   0.950 -0.4167  0.3384 -0.1705
  113TMC2    O5 1769   4.614   4.210   0.747  0.3718  0.2134 -0.1431
  113TMC2    H5 1770   4.650   4.190   0.659  0.6569  0.3668 -0.0622
  114MPD2     C 1771   0.616   3.485   0.923 -0.3711 -0.0176 -0.5313
  114MPD2    C1 1772   0.538   3.553   1.013 -0.4263  0.5979  0.1532
  114MPD2    C2 1773   0.419   3.603   0.975  0.0092  0.1344  0.3898
  114MPD2    C3 1774   0.373   3.605   0.844  0.0868  0.1600  0.0476
  114MPD2    C4 1775   0.462   3.543   0.755 -0.5514  0.4145  0.7851
  114MPD2    C5 1776   0.570   3.466   0.794 -0.4856  0.6616 -0.2065
  114MPD2     H 1777   0.359   3.663   1.042 -0.0562  0.9817 -0.4149
  114MPD2    H1 1778   0.424   3.537   0.653 -0.0595 -3.7428  0.8509
  114MPD2    H2 1779   0.710   3.446   0.958 -1.6850 -1.1581  1.6670
  114MPD2    H3 1780   0.628   3.406   0.726 -1.1380 -1.5596  1.2055
  114MPD2     N 1781   0.257   3.669   0.792  0.5777  0.1246  0.0210
  114MPD2    H5 1782   0.233   3.651   0.695 -0.6640  0.4808  0.2531
  114MPD2    N1 1783   0.566   3.568   1.151  0.5311  0.1985 -0.5988
  114MPD2    H7 1784   0.494   3.605   1.213  0.0972 -1.5025 -0.0881
  115TMC2    C1 1785   1.147   2.044  16.997  0.3207 -0.2326 -0.3635
  115TMC2    C2 1786   1.145   1.994  16.868  0.3488  0.3924  0.0464
  115TMC2    C3 1787   1.156   2.089  16.772 -0.6340 -0.0549  0.6293
  115TMC2    C4 1788   1.146   2.176  17.028  0.1341  0.0294  0.5045
  115TMC2    C5 1789   1.170   2.265  16.924  0.1007 -0.2086  0.4230
  115TMC2    C6 1790   1.177   2.218  16.798 -0.3751  0.4689 -0.8037
  115TMC2     C 1791   1.110   1.955  17.096 -0.4887  0.0971  0.6416
  115TMC2     O 1792   1.048   1.854  17.062 -0.2969 -0.7721  0.8042
  115TMC2     H 1793   1.150   1.889  16.841  1.2342  0.3562  0.3757
  115TMC2    H1 1794   1.146   2.216  17.129 -0.2104 -0.0599  0.5387
  115TMC2    H2 1795   1.180   2.281  16.710 -1.6530  0.7788 -0.6258
  115TMC2    C7 1796   1.180   2.404  16.970 -0.3380  0.3937  0.0047
  115TMC2    C8 1797   1.146   2.057  16.628  0.1708  0.5067  0.1821
  115TMC2    O1 1798   1.130   2.433  17.078 -0.4043  0.1700  0.1045
  115TMC2    O2 1799   1.053   2.097  16.560 -0.1778  0.2360  0.2733
  115TMC2    O5 1800   1.272   2.069  16.592  0.5019 -0.0125 -0.3109
  115TMC2    H5 1801   1.322   2.043  16.673  0.3977 -3.2718 -1.2803
  116MPD2     C 1802   1.201   1.768  17.559 -0.5086  0.1815 -0.4110
  116MPD2    C1 1803   1.085   1.751  17.476 -0.3105 -0.2623 -0.1641
  116MPD2    C2 1804   1.086   1.827  17.363  0.0240 -0.1534  0.1699
  116MPD2    C3 1805   1.185   1.914  17.328  0.1321  0.3226 -0.1240
  116MPD2    C4 1806   1.287   1.933  17.416  0.8570 -0.5791 -1.0864
  116MPD2    C5 1807   1.299   1.860  17.530  0.4777  0.3665  0.0385
  116MPD2     H 1808   0.991   1.828  17.310  0.6104 -2.4046 -0.9530
  116MPD2    H1 1809   1.371   1.997  17.391  1.3676 -0.2265  1.5186
  116MPD2    H2 1810   1.202   1.708  17.649  1.0952 -1.6910 -1.6748
  116MPD2    H3 1811   1.384   1.868  17.596 -1.0835  0.9613  1.9706
  116MPD2     N 1812   1.189   1.986  17.209 -0.0963 -0.1405  0.0977
  116MPD2    H5 1813   1.265   2.053  17.203 -1.1459  0.8623 -2.1480
  116MPD2    N1 1814   0.984   1.653  17.517  0.2686  0.0527 -0.2174
  116MPD2    H7 1815   1.010   1.599  17.599 -3.6979  0.5254  1.3478
  117TMC2    C1 1816   4.188   3.087  14.359 -0.4724  0.5920 -0.0927
  117TMC2    C2 1817   4.250   3.094  14.486 -0.7236  0.1480  0.0950
  117TMC2    C3 1818   4.330   3.206  14.511 -0.0852  0.0138 -0.3173
  117TMC2    C4 1819   4.210   3.176  14.258 -0.0716 -0.8220  0.4073
  117TMC2    C5 1820   4.285   3.288  14.288 -0.9087 -0.7776 -0.4383
  117TMC2    C6 1821   4.341   3.308  14.419  0.6591  0.2516  0.0135
  117TMC2     C 1822   4.104   2.980  14.330  0.9228  0.6842  0.2988
  117TMC2     O 1823   4.124   2.875  14.391  0.1203 -0.0981 -0.2550
  117TMC2     H 1824   4.220   3.027  14.565 -1.4492  1.7647  1.1778
  117TMC2    H1 1825   4.193   3.155  14.153  1.8926 -1.8579  0.3043
  117TMC2    H2 1826   4.394   3.400  14.439 -0.3549  0.7466  0.3726
  117TMC2    C7 1827   4.317   3.386  14.187  0.1057 -0.4958  0.1269
  117TMC2    C8 1828   4.378   3.212  14.648  0.3403  0.2278  0.4528
  117TMC2    O1 1829   4.414   3.458  14.198  0.9196 -0.3183  0.1222
  117TMC2    O2 1830   4.335   3.137  14.734  0.2538 -0.0959 -0.6479
  117TMC2    O5 1831   4.476   3.303  14.655 -0.0528  0.6518  0.4677
  117TMC2    H5 1832   4.516   3.335  14.572  0.9106 -2.3020 -0.2280
  118MPD2     C 1833   4.116   3.489  13.897 -0.2686 -0.5070 -0.7010
  118MPD2    C1 1834   4.230   3.468  13.970 -0.6474 -0.0600 -0.4568
  118MPD2    C2 1835   4.348   3.527  13.930 -0.2374 -0.1707 -0.3064
  118MPD2    C3 1836   4.352   3.591  13.805  0.1215 -0.1206 -0.5210
  118MPD2    C4 1837   4.236   3.605  13.732  0.3739  0.1876 -0.0606
  118MPD2    C5 1838   4.116   3.567  13.783  0.9635  0.0287 -0.4171
  118MPD2     H 1839   4.439   3.508  13.987 -0.3161  0.2914 -0.0258
  118MPD2    H1 1840   4.230   3.653  13.635  1.7787  2.1388  0.8391
  118MPD2    H2 1841   4.020   3.458  13.936  0.6994 -0.7457  1.5094
  118MPD2    H3 1842   4.027   3.602  13.731  0.8127 -1.6068 -1.2872
  118MPD2     N 1843   4.470   3.626  13.744 -0.0037 -0.3306  0.3263
  118MPD2    H5 1844   4.461   3.646  13.645  0.2693 -0.8582  0.1901
  118MPD2    N1 1845   4.224   3.389  14.089  0.0543  0.2817 -0.6707
  118MPD2    H7 1846   4.139   3.335  14.100 -0.5059  0.8681 -2.0834
  119TMC2    C1 1847   2.096   3.790  13.194  0.6099 -0.2404  0.9956
  119TMC2    C2 1848   2.093   3.750  13.067 -0.0510 -0.4055  0.2093
  119TMC2    C3 1849   1.965   3.721  13.020  0.2554 -0.3073  0.8343
  119TMC2    C4 1850   1.985   3.784  13.278  0.0355  0.4145 -0.0921
  119TMC2    C5 1851   1.864   3.739  13.226  0.3474 -0.0453  0.0370
  119TMC2    C6 1852   1.845   3.723  13.096  0.4519  0.4006 -0.1109
  119TMC2     C 1853   2.213   3.861  13.259  0.9381  0.0674  0.4944
  119TMC2     O 1854   2.226   3.849  13.378 -0.1780  0.3844 -0.4010
  119TMC2     H 1855   2.183   3.754  13.006  2.6037 -1.6939  4.1033
  119TMC2    H1 1856   1.999   3.813  13.382  0.8710 -0.6857  0.0972
  119TMC2    H2 1857   1.749   3.702  13.051  0.9593 -2.7259  0.1958
  119TMC2    C7 1858   1.748   3.770  13.304  0.4735 -0.2107  0.0460
  119TMC2    C8 1859   1.952   3.725  12.879  0.5413  0.0604 -0.4228
  119TMC2    O1 1860   1.644   3.787  13.243  0.2899 -0.1181  0.1606
  119TMC2    O2 1861   2.049   3.693  12.810 -0.4010  0.4235  0.2603
  119TMC2    O5 1862   1.867   3.815  12.829 -0.4671  0.4633  0.8050
  119TMC2    H5 1863   1.815   3.862  12.898 -0.7978  1.2709  0.0109
  120MPD2     C 1864   2.648   4.088  13.310 -0.7252  0.7286 -0.0999
  120MPD2    C1 1865   2.544   4.077  13.399 -0.0389  0.8424  0.1540
  120MPD2    C2 1866   2.427   4.021  13.346  0.2348  0.1330  0.5472
  120MPD2    C3 1867   2.424   3.974  13.223 -0.5736 -0.3056  0.2776
  120MPD2    C4 1868   2.526   3.996  13.132 -0.5728  0.6006  0.1787
  120MPD2    C5 1869   2.637   4.053  13.178  0.0927  0.8291  0.0701
  120MPD2     H 1870   2.338   4.016  13.408 -0.5487 -0.3024 -0.6194
  120MPD2    H1 1871   2.523   3.977  13.025  1.1102  0.0529  0.2236
  120MPD2    H2 1872   2.746   4.117  13.347 -1.0342  0.7668  0.6924
  120MPD2    H3 1873   2.730   4.055  13.121 -0.0826 -0.4703 -0.2674
  120MPD2     N 1874   2.304   3.920  13.168  0.0961  0.4834 -0.1456
  120MPD2    H5 1875   2.299   3.899  13.069  1.4368  2.3474 -0.6247
  120MPD2    N1 1876   2.559   4.137  13.528 -0.5357 -0.0904 -0.4166
  120MPD2    H7 1877   2.648   4.185  13.532 -0.5189 -0.2780  1.3615
  121TMC2    C1 1878   3.514   1.016  14.205 -0.3906 -0.4595  0.3797
  121TMC2    C2 1879   3.468   0.917  14.285 -0.0955  0.3945  0.5508
  121TMC2    C3 1880   3.330   0.909  14.297 -0.3910 -0.4285 -0.2082
  121TMC2    C4 1881   3.437   1.117  14.163 -0.2473  0.1557 -0.0750
  121TMC2    C5 1882   3.304   1.118  14.193 -0.8800  0.4742 -0.6100
  121TMC2    C6 1883   3.246   1.011  14.250  0.1165 -0.5604 -0.3075
  121TMC2     C 1884   3.656   1.026  14.182 -0.0973  0.4110  0.1570
  121TMC2     O 1885   3.742   0.990  14.255  0.6920 -0.4318 -0.0742
  121TMC2     H 1886   3.540   0.847  14.325 -1.2986  0.3583  2.6738
  121TMC2    H1 1887   3.478   1.200  14.106 -0.0567  0.2458  0.1876
  121TMC2    H2 1888   3.140   0.998  14.269  0.2109 -0.6873  0.1405
  121TMC2    C7 1889   3.222   1.208  14.112  0.0466 -0.3932  0.4111
  121TMC2    C8 1890   3.286   0.808  14.385  0.9498 -0.5308  0.1931
  121TMC2    O1 1891   3.269   1.319  14.080 -1.1583 -0.1877 -0.2283
  121TMC2    O2 1892   3.192   0.814  14.468  0.0334 -0.9625 -0.1067
  121TMC2    O5 1893   3.345   0.697  14.352  0.8577  0.8877  0.0374
  121TMC2    H5 1894   3.394   0.703  14.267  1.8942 -0.1793  0.5559
  122MPD2     C 1895   3.915   1.128  14.058  0.2869 -0.3395 -0.7280
  122MPD2    C1 1896   3.794   1.127  13.998 -0.2127  0.4061 -0.5459
  122MPD2    C2 1897   3.781   1.187  13.876  0.3280  1.0117  0.5292
  122MPD2    C3 1898   3.893   1.249  13.816 -0.4284  0.0465 -0.2141
  122MPD2    C4 1899   4.014   1.255  13.880 -0.7478 -0.1746  0.2168
  122MPD2    C5 1900   4.028   1.189  14.000  0.2624 -0.1192 -0.1859
  122MPD2     H 1901   3.680   1.191  13.836  0.4405 -2.7396 -0.0843
  122MPD2    H1 1902   4.103   1.294  13.831  1.0692 -1.2354  2.6837
  122MPD2    H2 1903   3.925   1.075  14.151 -1.1058  2.0876  0.8052
  122MPD2    H3 1904   4.123   1.181  14.052 -0.4607  1.7298  1.4305
  122MPD2     N 1905   3.892   1.317  13.690  0.7021 -0.1555 -0.4395
  122MPD2    H5 1906   3.971   1.378  13.668  1.6875 -0.8462  1.1417
  122MPD2    N1 1907   3.675   1.084  14.059 -0.4955 -0.4665  0.0429
  122MPD2    H7 1908   3.595   1.121  14.008 -0.7655 -1.1201 -0.0107
  123TMC2    C1 1909   1.150   3.703   9.819  0.1266  0.6604 -0.5575
  123TMC2    C2 1910   1.056   3.648   9.730  0.2419 -0.7301  0.2392
  123TMC2    C3 1911   0.991   3.532   9.762 -0.7144  0.1662  0.4668
  123TMC2    C4 1912   1.164   3.655   9.945 -0.7236  0.7742  0.4062
  123TMC2    C5 1913   1.080   3.547   9.979 -0.0499 -0.4408 -0.4663
  123TMC2    C6 1914   1.004   3.480   9.890  0.0630  0.0304  0.3486
  123TMC2     C 1915   1.230   3.813   9.766 -0.4125 -0.2215 -0.5095
  123TMC2     O 1916   1.208   3.858   9.653  0.2766  0.5374 -0.2869
  123TMC2     H 1917   1.037   3.704   9.640  0.0471  0.1613  0.8321
  123TMC2    H1 1918   1.215   3.724  10.011 -0.2934  1.2849 -0.4539
  123TMC2    H2 1919   0.952   3.391   9.923  0.5985 -0.6329 -0.5995
  123TMC2    C7 1920   1.086   3.496  10.114  0.1159 -0.7951 -0.2887
  123TMC2    C8 1921   0.923   3.472   9.650 -0.1272 -0.1643 -0.4430
  123TMC2    O1 1922   1.002   3.417  10.150 -0.1763  0.4995 -0.0294
  123TMC2    O2 1923   0.963   3.469   9.536  0.2855  0.0241  0.2052
  123TMC2    O5 1924   0.836   3.388   9.703  0.0712  0.3509 -0.4418
  123TMC2    H5 1925   0.799   3.411   9.791  1.5908 -0.1334  0.3248
  124MPD2     C 1926   1.678   4.063   9.759 -0.0410 -0.3931  0.6276
  124MPD2    C1 1927   1.668   3.990   9.876 -0.6289 -0.1508 -0.0412
  124MPD2    C2 1928   1.561   3.907   9.892  0.3164 -0.1127  0.6201
  124MPD2    C3 1929   1.460   3.904   9.803  0.2938  0.0625  0.1416
  124MPD2    C4 1930   1.470   3.983   9.684 -0.0686 -0.8247 -0.1033
  124MPD2    C5 1931   1.582   4.063   9.669  0.1671 -0.9607  0.0197
  124MPD2     H 1932   1.545   3.854   9.985 -0.3498  2.6821  2.0945
  124MPD2    H1 1933   1.390   3.998   9.613 -0.2163 -0.3715  0.1629
  124MPD2    H2 1934   1.764   4.124   9.737 -0.4635 -0.3072 -0.7921
  124MPD2    H3 1935   1.598   4.130   9.585 -2.4836  1.0229  1.1045
  124MPD2     N 1936   1.347   3.828   9.840  0.3927 -0.4080 -0.1867
  124MPD2    H5 1937   1.358   3.766   9.919 -2.3014  0.5259  0.9135
  124MPD2    N1 1938   1.776   4.004   9.967  0.0528 -0.2319  0.0001
  124MPD2    H7 1939   1.851   4.066   9.938  0.8419 -0.3124  1.8332
  125TMC2    C1 1940   3.602   1.798   9.248  0.0341 -0.2017 -0.2536
  125TMC2    C2 1941   3.644   1.693   9.170 -0.6707  0.1688  0.2387
  125TMC2    C3 1942   3.774   1.684   9.123 -0.0373 -0.1691  0.7867
  125TMC2    C4 1943   3.685   1.897   9.288  0.2413  0.4326 -0.0634
  125TMC2    C5 1944   3.821   1.877   9.255 -0.5645 -0.5457 -0.9246
  125TMC2    C6 1945   3.863   1.774   9.169  0.3824 -0.5386  0.3629
  125TMC2     C 1946   3.461   1.792   9.288  0.2322 -0.8576  0.0810
  125TMC2     O 1947   3.416   1.678   9.288 -0.4178  0.0026 -0.4361
  125TMC2     H 1948   3.569   1.619   9.143  0.6023 -1.7617  2.0699
  125TMC2    H1 1949   3.655   1.978   9.353  1.2145  1.0143 -0.3372
  125TMC2    H2 1950   3.968   1.777   9.141  0.5526  3.0912  1.3863
  125TMC2    C7 1951   3.904   1.958   9.333  0.2607 -0.3017 -0.1323
  125TMC2    C8 1952   3.816   1.592   9.024 -0.2113 -0.6097 -0.7229
  125TMC2    O1 1953   3.859   2.006   9.433  0.1828 -0.2110 -0.3996
  125TMC2    O2 1954   3.751   1.554   8.931 -0.5721  0.1346 -0.1123
  125TMC2    O5 1955   3.924   1.528   9.072 -0.4473  0.1460 -0.3033
  125TMC2    H5 1956   3.954   1.571   9.155  1.3306  0.2588 -1.0095
  126MPD1     C 1957   2.988   1.965   9.391  0.0428 -0.5701  0.4720
  126MPD1    C1 1958   3.065   2.073   9.348 -0.0350  0.2142  0.1692
  126MPD1    C2 1959   3.199   2.048   9.305 -0.9403 -0.7265  0.1506
  126MPD1    C3 1960   3.258   1.923   9.312 -0.2572 -0.5045  0.8134
  126MPD1    C4 1961   3.179   1.823   9.365 -0.3810  0.6794  0.4402
  126MPD1    C5 1962   3.047   1.840   9.390  0.0898 -0.3802  0.0821
  126MPD1     H 1963   3.243   2.138   9.265 -1.0477 -1.4297 -1.5645
  126MPD1    H1 1964   3.213   1.720   9.369 -0.7732  0.5370  0.0915
  126MPD1    H2 1965   2.880   1.976   9.402  0.1310  0.4484  0.3778
  126MPD1    H3 1966   2.990   1.758   9.432 -0.6180  0.4835  0.8090
  126MPD1     N 1967   3.398   1.906   9.274 -0.2939  1.4516 -0.3385
  126MPD1    H5 1968   3.455   1.987   9.254  2.0946  0.2378  1.5415
  126MPD1    N1 1969   3.009   2.202   9.321  0.1762  0.0570  0.3957
  126MPD1    H6 1970   3.077   2.275   9.334  0.0328  0.4863 -1.2100
  126MPD1    H7 1971   2.928   2.227   9.378 -0.7804 -0.6636 -0.6379
  127TMC2    C1 1972   0.043   0.427   9.550  0.6442 -0.3818 -0.6411
  127TMC2    C2 1973   0.056   0.359   9.668  0.0217  0.6710  0.3580
  127TMC2    C3 1974   4.715   0.254   9.694  0.2703 -0.3471 -0.2386
  127TMC2    C4 1975   4.690   0.391   9.445 -0.9165  0.3650  0.0080
  127TMC2    C5 1976   4.623   0.275   9.477  0.1513  0.3024 -0.2759
  127TMC2    C6 1977   4.626   0.207   9.600 -0.0991  0.0220 -0.3891
  127TMC2     C 1978   0.153   0.517   9.527  0.9302 -0.9454  0.1561
  127TMC2     O 1979   0.185   0.579   9.629 -0.1620  0.2194 -0.1940
  127TMC2     H 1980   0.126   0.398   9.742  1.0052  0.8344 -0.6579
  127TMC2    H1 1981   4.671   0.454   9.359 -3.2072  0.7936  0.8402
  127TMC2    H2 1982   4.572   0.114   9.610  0.7951 -0.3539  0.9315
  127TMC2    C7 1983   4.523   0.228   9.377 -0.1156  0.1690 -0.1589
  127TMC2    C8 1984   4.701   0.210   9.830  0.4272  0.2339  0.1994
  127TMC2    O1 1985   4.536   0.271   9.263  0.0734  0.1492 -0.1315
  127TMC2    O2 1986   4.708   0.299   9.916  0.3268 -0.1561  0.0166
  127TMC2    O5 1987   0.011   0.083   9.851 -0.4971  0.2483  0.6967
  127TMC2    H5 1988   0.022   0.030   9.770 -2.4924 -0.6406  1.0269
  128MPD2     C 1989   0.271   0.696   9.231  0.4032  0.8089 -0.0111
  128MPD2    C1 1990   0.269   0.660   9.367 -0.3417  0.1449  0.4928
  128MPD2    C2 1991   0.345   0.734   9.460  0.2156  0.0175  0.2348
  128MPD2    C3 1992   0.410   0.850   9.411 -0.5491 -0.0763  0.8414
  128MPD2    C4 1993   0.415   0.878   9.278 -0.2052  0.1154 -0.1785
  128MPD2    C5 1994   0.346   0.796   9.188 -0.3127  0.4801  0.3038
  128MPD2     H 1995   0.349   0.723   9.568 -1.0799 -0.0491  0.2785
  128MPD2    H1 1996   0.449   0.969   9.230 -0.2679  0.8688  1.2428
  128MPD2    H2 1997   0.215   0.645   9.153 -0.6712  2.4621 -0.3134
  128MPD2    H3 1998   0.353   0.813   9.081 -0.4276  0.9573  0.3687
  128MPD2     N 1999   0.470   0.928   9.512  0.1445  0.3068 -0.4085
  128MPD2    H5 2000   0.472   0.885   9.603 -1.0914  0.9392 -0.0799
  128MPD2    N1 2001   0.185   0.555   9.400  0.5249 -0.8978  0.2464
  128MPD2    H7 2002   0.147   0.502   9.322  0.8926  1.6180 -1.6029
  129TMC2    C1 2003   2.378   1.268   1.401 -0.3399  0.9908  0.4939
  129TMC2    C2 2004   2.313   1.336   1.503 -0.1623  0.1658 -0.0889
  129TMC2    C3 2005   2.269   1.254   1.609 -0.7428  0.1157 -1.4201
  129TMC2    C4 2006   2.392   1.131   1.411 -0.2255  0.5817 -0.4754
  129TMC2    C5 2007   2.338   1.063   1.514 -0.1880  0.0220 -0.4191
  129TMC2    C6 2008   2.280   1.121   1.617  1.0381 -0.6350  0.5724
  129TMC2     C 2009   2.457   1.345   1.303  0.1212 -0.1044  0.7405
  129TMC2     O 2010   2.491   1.279   1.208  0.0805  0.6255 -0.9578
  129TMC2     H 2011   2.311   1.443   1.519 -0.6515  0.2662 -0.8460
  129TMC2    H1 2012   2.448   1.084   1.330 -0.7809  0.4220 -0.7659
  129TMC2    H2 2013   2.244   1.064   1.702 -0.2339  0.4750  0.7908
  129TMC2    C7 2014   2.368   0.922   1.517 -0.1729  1.2622  0.1605
  129TMC2    C8 2015   2.179   1.308   1.708  0.5784 -0.3619  0.2839
  129TMC2    O1 2016   2.276   0.856   1.559  0.6921  0.7992 -0.6371
  129TMC2    O2 2017   2.107   1.240   1.781 -0.0568 -0.3374  0.7089
  129TMC2    O5 2018   2.251   1.405   1.764  0.1772  0.0929 -0.2342
  129TMC2    H5 2019   2.328   1.442   1.715  0.6163 -1.0942 -0.4449
  130MPD2     C 2020   2.531   1.544   1.114  0.0867 -0.1888 -0.4375
  130MPD2    C1 2021   2.536   1.575   1.244 -0.0468  0.7350 -0.3243
  130MPD2    C2 2022   2.600   1.687   1.285 -0.7222  0.5464 -0.1211
  130MPD2    C3 2023   2.656   1.771   1.185  0.0603  0.4986  0.4563
  130MPD2    C4 2024   2.637   1.743   1.056 -0.3525  0.0200 -0.1128
  130MPD2    C5 2025   2.573   1.629   1.017  1.1221  0.2655 -0.4012
  130MPD2     H 2026   2.596   1.716   1.389  0.9995 -1.0744  0.3996
  130MPD2    H1 2027   2.684   1.808   0.984  0.9875 -0.4468  0.3418
  130MPD2    H2 2028   2.497   1.446   1.080 -0.4950  1.1042 -3.5472
  130MPD2    H3 2029   2.573   1.593   0.915  0.1380  1.2702 -0.7502
  130MPD2     N 2030   2.745   1.875   1.214  0.1006 -0.6410  0.6055
  130MPD2    H5 2031   2.795   1.900   1.129 -0.5252  0.4590  0.5654
  130MPD2    N1 2032   2.476   1.484   1.335 -0.6416 -0.2893  0.4542
  130MPD2    H7 2033   2.474   1.518   1.431 -1.9889  0.9692 -0.0277
  131TMC2    C1 2034   2.111   0.131   9.848 -0.3083  0.0854  0.7056
  131TMC2    C2 2035   2.002   0.137   9.763 -0.5809 -0.3697  0.4952
  131TMC2    C3 2036   1.985   0.256   9.696 -0.2363 -0.2964  0.2162
  131TMC2    C4 2037   2.203   0.231   9.863 -0.5750  0.0703 -0.1916
  131TMC2    C5 2038   2.176   0.350   9.799  0.5088  0.6746 -0.0821
  131TMC2    C6 2039   2.062   0.365   9.726 -0.5054  0.0310 -0.2293
  131TMC2     C 2040   2.128   0.004   9.911  0.7526  0.0562  0.0368
  131TMC2     O 2041   2.039   4.658   9.893  0.7875 -0.2825 -0.2910
  131TMC2     H 2042   1.924   0.063   9.756  0.2051 -0.7269 -4.6105
  131TMC2    H1 2043   2.268   0.232   9.950  0.5104  0.4157 -1.0030
  131TMC2    H2 2044   2.053   0.456   9.668 -0.9349  0.2214  0.1389
  131TMC2    C7 2045   2.221   0.466   9.871 -0.2134  0.1611 -0.4106
  131TMC2    C8 2046   1.862   0.279   9.622 -0.0219 -0.4846 -0.1472
  131TMC2    O1 2047   2.139   0.558   9.887  0.4941 -0.5938 -0.3760
  131TMC2    O2 2048   1.782   0.187   9.605 -0.5080  0.2840 -0.4448
  131TMC2    O5 2049   1.820   0.405   9.652 -0.2125 -0.0021 -0.2954
  131TMC2    H5 2050   1.877   0.467   9.703  2.7143 -2.5196 -0.5078
  132MPD2     C 2051   2.429   4.587  10.025 -0.1185 -0.2513  0.5139
  132MPD2    C1 2052   2.299   4.590  10.006  0.1700 -0.2349  0.5213
  132MPD2    C2 2053   2.221   4.482  10.033 -0.9207  0.2038 -0.9719
  132MPD2    C3 2054   2.270   4.370  10.100  0.5957 -0.2354 -0.5646
  132MPD2    C4 2055   2.406   4.368  10.122 -0.6085  0.2989  0.1546
  132MPD2    C5 2056   2.488   4.472  10.073  0.2205  0.4532 -0.7528
  132MPD2     H 2057   2.115   4.495  10.013 -1.4558  0.0566  1.7305
  132MPD2    H1 2058   2.448   4.272  10.150  1.0976  0.7848 -0.6918
  132MPD2    H2 2059   2.489   4.669   9.987 -1.3992  0.5630  0.2778
  132MPD2    H3 2060   2.596   4.479  10.079  0.0848  1.1117  0.9072
  132MPD2     N 2061   2.177   4.267  10.137  0.1499 -0.8138  0.3077
  132MPD2    H5 2062   2.081   4.280  10.108  0.0158 -0.7280  0.7947
  132MPD2    N1 2063   2.254   4.714   9.954 -0.6835  0.0658 -0.6265
  132MPD2    H7 2064   2.326   0.050   9.940 -0.3608  0.1807  1.7717
  133TMC2    C1 2065   1.623   1.915   9.388 -0.1029  0.8189  0.0525
  133TMC2    C2 2066   1.652   1.997   9.495  0.1265 -0.0666 -0.5805
  133TMC2    C3 2067   1.585   2.112   9.510  0.4659  0.1934  0.2404
  133TMC2    C4 2068   1.537   1.958   9.290 -0.1499 -0.3447 -0.0319
  133TMC2    C5 2069   1.473   2.081   9.301 -0.0901  0.0796  0.2324
  133TMC2    C6 2070   1.494   2.160   9.415 -0.3361  0.7685 -0.3775
  133TMC2     C 2071   1.712   1.805   9.362  0.0268  0.1841 -0.2769
  133TMC2     O 2072   1.824   1.823   9.409 -0.3570 -0.1760 -0.1293
  133TMC2     H 2073   1.715   1.957   9.574 -2.3003 -0.6398  1.0643
  133TMC2    H1 2074   1.531   1.905   9.195  1.6292  0.4746 -0.5897
  133TMC2    H2 2075   1.447   2.255   9.434 -1.9640  0.1185 -1.1628
  133TMC2    C7 2076   1.411   2.139   9.185  0.0729  0.3989 -0.1706
  133TMC2    C8 2077   1.640   2.216   9.592 -0.2611 -0.0776 -0.5764
  133TMC2    O1 2078   1.400   2.071   9.086 -0.4136 -0.4889 -0.1072
  133TMC2    O2 2079   1.643   2.324   9.534 -0.0224  0.4776 -0.6139
  133TMC2    O5 2080   1.744   2.170   9.666 -0.4095  0.3534 -0.1042
  133TMC2    H5 2081   1.730   2.098   9.731 -1.6751  2.4789  1.9974
  134MPD2     C 2082   1.853   1.589   9.233  0.3855  0.0946 -0.0410
  134MPD2    C1 2083   1.714   1.593   9.248  0.4404  0.4599  0.7417
  134MPD2    C2 2084   1.630   1.485   9.211  0.1207  0.0592 -0.5431
  134MPD2    C3 2085   1.680   1.371   9.152  0.0829  0.6451  0.8218
  134MPD2    C4 2086   1.818   1.370   9.131 -0.0311  0.2118  0.1231
  134MPD2    C5 2087   1.904   1.473   9.173 -0.7501  0.2053  0.1106
  134MPD2     H 2088   1.525   1.486   9.239  0.8098  0.3583  2.0275
  134MPD2    H1 2089   1.861   1.286   9.077 -0.4978  0.1295 -0.1228
  134MPD2    H2 2090   1.915   1.677   9.245 -1.4107  1.0587  2.2400
  134MPD2    H3 2091   2.009   1.468   9.148 -0.0378  0.9060  2.9296
  134MPD2     N 2092   1.606   1.252   9.112 -0.7566 -0.4223  0.3137
  134MPD2    H5 2093   1.650   1.162   9.094  0.8235  0.5827 -0.8816
  134MPD2    N1 2094   1.648   1.707   9.298  0.3172 -0.7865  0.2255
  134MPD2    H7 2095   1.548   1.710   9.280  0.1860  0.3864  1.1303
  135TMC2    C1 2096   3.932   2.330   9.214 -0.0947  0.1258 -0.7702
  135TMC2    C2 2097   4.042   2.415   9.205  0.7643  0.0204 -0.7583
  135TMC2    C3 2098   4.073   2.490   9.316  0.6119 -0.3829 -1.0231
  135TMC2    C4 2099   3.864   2.315   9.333  0.1894 -0.0645  0.2818
  135TMC2    C5 2100   3.905   2.380   9.447 -0.0917 -0.2791  0.5882
  135TMC2    C6 2101   4.007   2.471   9.438  0.0485 -0.1700  0.2126
  135TMC2     C 2102   3.914   2.224   9.120  0.5161 -0.6813 -0.3729
  135TMC2     O 2103   3.810   2.161   9.125 -0.0798  0.2251  0.2402
  135TMC2     H 2104   4.089   2.437   9.109  0.0191  0.1694 -1.0872
  135TMC2    H1 2105   3.779   2.247   9.337  0.0602  0.1161  0.6027
  135TMC2    H2 2106   4.024   2.527   9.529  0.0348  1.3943 -0.7527
  135TMC2    C7 2107   3.834   2.367   9.567  1.1924 -0.0649 -0.4097
  135TMC2    C8 2108   4.184   2.590   9.318  0.0122  0.2028  0.2864
  135TMC2    O1 2109   3.835   2.474   9.630 -0.1342 -0.1342 -0.0186
  135TMC2    O2 2110   4.194   2.668   9.413  0.6422 -0.0605  0.2951
  135TMC2    O5 2111   4.291   2.522   9.274 -0.2459  0.6217  0.0312
  135TMC2    H5 2112   4.275   2.451   9.208 -0.6322 -0.1447  0.9376
  136MPD2     C 2113   3.934   1.991   8.936 -0.1505  0.0027 -0.2158
  136MPD2    C1 2114   4.037   2.081   8.966  0.7232  0.1576 -0.4590
  136MPD2    C2 2115   4.161   2.068   8.912 -0.7705 -0.7583 -0.3710
  136MPD2    C3 2116   4.187   1.966   8.826  0.1177  0.5588 -0.0186
  136MPD2    C4 2117   4.089   1.877   8.805  0.2213  0.1050  0.1864
  136MPD2    C5 2118   3.962   1.880   8.861 -0.8477  0.2123 -0.4199
  136MPD2     H 2119   4.240   2.137   8.938 -0.0366 -1.8253  0.2128
  136MPD2    H1 2120   4.108   1.787   8.749 -1.7549 -1.3569  1.8885
  136MPD2    H2 2121   3.835   1.999   8.979  0.8628  0.6423  2.0266
  136MPD2    H3 2122   3.879   1.817   8.831 -0.5224 -1.2264  1.6914
  136MPD2     N 2123   4.308   1.936   8.758  0.2364  0.1183  0.4633
  136MPD2    H5 2124   4.304   1.856   8.696 -1.2086  0.0714  0.6144
  136MPD2    N1 2125   4.022   2.192   9.048 -0.4508  0.0357 -0.3530
  136MPD2    H7 2126   4.099   2.258   9.049  1.9319 -2.7294  0.3622
  137TMC2    C1 2127   3.833   0.374   9.327  0.2444 -0.4719 -0.0352
  137TMC2    C2 2128   3.911   0.337   9.223  0.1803 -0.1212  0.5526
  137TMC2    C3 2129   3.842   0.284   9.120  0.3058  0.4468 -0.5744
  137TMC2    C4 2130   3.696   0.381   9.321  0.1211  0.8801  0.1657
  137TMC2    C5 2131   3.630   0.321   9.216 -0.8091 -0.8742 -0.1176
  137TMC2    C6 2132   3.708   0.270   9.115 -0.2946 -0.2254 -0.0426
  137TMC2     C 2133   3.902   0.439   9.432  0.5946  0.9671  0.0924
  137TMC2     O 2134   4.022   0.461   9.418  0.4667 -0.2040 -0.4257
  137TMC2     H 2135   4.019   0.330   9.224  0.3136  1.9354  1.2274
  137TMC2    H1 2136   3.648   0.451   9.388  1.1600  2.1852 -0.4482
  137TMC2    H2 2137   3.661   0.217   9.033  1.7870 -1.3039 -0.5500
  137TMC2    C7 2138   3.487   0.305   9.207  0.3800  0.6619  0.0219
  137TMC2    C8 2139   3.915   0.235   9.009 -0.2265 -0.1699 -0.0087
  137TMC2    O1 2140   3.450   0.234   9.115  0.0127 -0.0420 -0.4939
  137TMC2    O2 2141   3.881   0.137   8.946 -0.1430 -0.5768  0.2153
  137TMC2    O5 2142   3.991   0.332   8.950 -0.2909 -0.6091 -0.2590
  137TMC2    H5 2143   3.984   0.414   9.004 -1.0275 -0.0001 -1.2676
  138MPD2     C 2144   3.798   0.516   9.774 -0.5586  0.2867 -0.4166
  138MPD2    C1 2145   3.875   0.525   9.665 -0.4052  0.2459 -0.1377
  138MPD2    C2 2146   3.986   0.605   9.676 -0.6363 -0.1423 -0.6250
  138MPD2    C3 2147   4.022   0.677   9.791 -0.0569  0.5107 -0.0737
  138MPD2    C4 2148   3.943   0.659   9.901 -0.5398 -0.2295  0.3844
  138MPD2    C5 2149   3.826   0.580   9.894  0.5356  0.2698  0.4666
  138MPD2     H 2150   4.052   0.613   9.590 -2.0549  1.4073 -1.5680
  138MPD2    H1 2151   3.960   0.704   9.998  0.7862 -1.5728  0.7751
  138MPD2    H2 2152   3.707   0.459   9.762  1.5273 -2.8113 -1.3379
  138MPD2    H3 2153   3.763   0.562   9.980 -1.2079 -0.3445 -0.9407
  138MPD2     N 2154   4.145   0.753   9.797 -0.8426  0.4968 -0.1805
  138MPD2    H5 2155   4.199   0.751   9.711  0.5654  1.0935  0.7014
  138MPD2    N1 2156   3.825   0.458   9.547 -0.2594  0.7091  0.3688
  138MPD2    H7 2157   3.731   0.419   9.554  0.7129 -1.4543  1.3915
  139TMC2    C1 2158   3.954   3.985  13.449 -0.6128 -0.6901 -0.0555
  139TMC2    C2 2159   4.057   4.017  13.371 -0.5501  0.1755 -0.3408
  139TMC2    C3 2160   4.103   4.143  13.383 -0.8605 -0.0082 -0.8087
  139TMC2    C4 2161   3.905   4.072  13.542 -0.1906  0.1097  0.3435
  139TMC2    C5 2162   3.954   4.203  13.549 -1.0141 -0.1479  0.2784
  139TMC2    C6 2163   4.063   4.233  13.471 -0.7614  0.1991 -0.0630
  139TMC2     C 2164   3.920   3.847  13.442  0.3632 -0.1246  0.0233
  139TMC2     O 2165   3.934   3.796  13.336 -0.6611  0.6819  0.3029
  139TMC2     H 2166   4.091   3.958  13.286  1.1466 -0.2827  0.6645
  139TMC2    H1 2167   3.809   4.048  13.586 -0.1893 -0.6830 -0.0902
  139TMC2    H2 2168   4.112   4.330  13.469 -1.7317  0.7176  1.3225
  139TMC2    C7 2169   3.888   4.302  13.625 -1.0120 -0.0405 -0.4685
  139TMC2    C8 2170   4.221   4.179  13.299  0.5272  0.0384  0.2015
  139TMC2    O1 2171   3.775   4.270  13.660  0.5131  0.2751 -0.6185
  139TMC2    O2 2172   4.313   4.256  13.331 -0.1430 -0.6302 -0.0628
  139TMC2    O5 2173   4.210   4.121  13.173  0.1117 -0.1645 -0.1270
  139TMC2    H5 2174   4.118   4.086  13.168  0.4969 -1.1063 -0.6800
  140MPD2     C 2175   3.748   3.635  13.678 -0.0046 -0.0466  0.0576
  140MPD2    C1 2176   3.836   3.663  13.578  0.1476  0.2251  0.5136
  140MPD2    C2 2177   3.904   3.568  13.510 -0.1453 -0.0983  0.7158
  140MPD2    C3 2178   3.884   3.431  13.541 -0.6809 -0.0406  0.2629
  140MPD2    C4 2179   3.791   3.398  13.635 -0.2468 -0.1340  0.0123
  140MPD2    C5 2180   3.727   3.500  13.698  0.4461  0.3303 -0.2570
  140MPD2     H 2181   3.978   3.592  13.435  0.1672 -3.0786  0.0673
  140MPD2    H1 2182   3.774   3.296  13.668 -0.3482 -0.2252 -0.3154
  140MPD2    H2 2183   3.695   3.704  13.743 -0.7184 -1.1774  0.6664
  140MPD2    H3 2184   3.652   3.477  13.773  0.1623 -0.6954 -0.8607
  140MPD2     N 2185   3.968   3.334  13.476 -0.6341  0.8151 -0.2421
  140MPD2    H5 2186   4.032   3.366  13.405 -1.3585 -0.6171 -1.5421
  140MPD2    N1 2187   3.860   3.802  13.553  0.0203 -1.0911  0.1461
  140MPD2    H7 2188   3.834   3.872  13.622 -1.8285 -1.0807 -0.5652
  141TMC2    C1 2189   4.209   4.662  14.691  0.1563  0.1522 -0.0445
  141TMC2    C2 2190   4.158   4.548  14.751  0.5889  0.4531 -0.1884
  141TMC2    C3 2191   4.169   4.530  14.885  0.1773 -0.2108 -1.3259
  141TMC2    C4 2192   4.270   0.026  14.759  0.0699 -0.0848  0.1288
  141TMC2    C5 2193   4.264   0.004  14.895  0.1711 -0.3399 -0.4086
  141TMC2    C6 2194   4.221   4.628  14.963 -0.3212 -0.2867  0.0077
  141TMC2     C 2195   4.224   4.672  14.548  0.2859 -0.5264  0.0287
  141TMC2     O 2196   4.314   0.010  14.507  0.0170 -0.4412  0.4076
  141TMC2     H 2197   4.132   4.460  14.693 -0.3393  1.2994 -1.0462
  141TMC2    H1 2198   4.306   0.115  14.708  1.4817  0.9516  2.9496
  141TMC2    H2 2199   4.220   4.641  15.071 -0.7393 -1.0467  0.0938
  141TMC2    C7 2200   4.274   0.122  14.971 -0.5399 -0.4840 -0.6490
  141TMC2    C8 2201   4.132   4.395  14.937  0.5619 -0.0809  0.5043
  141TMC2    O1 2202   4.205   0.141  15.075  0.1440  0.1114  0.1196
  141TMC2    O2 2203   4.047   4.322  14.880 -0.3163  0.6889 -0.1280
  141TMC2    O5 2204   4.152   4.396  15.072 -0.3767  0.8377 -0.1050
  141TMC2    H5 2205   4.242   4.435  15.082 -0.1785  0.0977  1.0182
  142TMC2    C1 2206   0.936   3.157  10.923 -0.0688 -0.5120 -0.2229
  142TMC2    C2 2207   0.809   3.102  10.929 -1.1823  0.1794  0.3576
  142TMC2    C3 2208   0.721   3.141  10.832 -0.9199  0.2767 -0.5337
  142TMC2    C4 2209   0.965   3.265  10.848 -0.6852  0.2781  1.0138
  142TMC2    C5 2210   0.867   3.316  10.770 -0.0007  0.2263 -0.1056
  142TMC2    C6 2211   0.742   3.256  10.758 -0.1483 -0.5381 -0.5927
  142TMC2     C 2212   1.033   3.106  11.015 -0.8323 -0.6604 -0.4375
  142TMC2     O 2213   1.006   3.006  11.076  0.1234  0.3979 -0.1404
  142TMC2     H 2214   0.798   3.012  10.989 -3.0276 -1.9444 -3.2127
  142TMC2    H1 2215   1.065   3.308  10.851  0.4836 -2.2493 -2.5404
  142TMC2    H2 2216   0.668   3.298  10.691  2.7736  3.7381 -1.1645
  142TMC2    C7 2217   0.900   3.396  10.652 -0.0042 -0.1269  0.0352
  142TMC2    C8 2218   0.629   3.042  10.783  0.3619  0.1977 -0.4948
  142TMC2    O1 2219   0.819   3.391  10.560 -0.7883  0.1882  0.2324
  142TMC2    O2 2220   0.559   2.981  10.860 -0.1925  0.0689  0.2435
  142TMC2    O5 2221   0.680   2.994  10.666  0.0555 -0.1600  0.1507
  142TMC2    H5 2222   0.770   3.034  10.656  0.6656 -1.3722  0.8401
  143MPD2     C 2223   1.430   3.229  11.316  0.6229  0.0593  0.9518
  143MPD2    C1 2224   1.366   3.106  11.297 -0.3535  0.7775  0.3757
  143MPD2    C2 2225   1.248   3.106  11.227 -0.8557 -0.6668  0.3121
  143MPD2    C3 2226   1.205   3.221  11.157 -0.2173 -0.6964 -0.1521
  143MPD2    C4 2227   1.277   3.337  11.169 -0.0693  0.5082  0.9863
  143MPD2    C5 2228   1.385   3.344  11.252 -0.3746 -0.2278 -0.4228
  143MPD2     H 2229   1.200   3.011  11.208 -0.0154 -0.9230 -0.5530
  143MPD2    H1 2230   1.256   3.430  11.116 -0.5478  0.3840  0.9661
  143MPD2    H2 2231   1.521   3.247  11.372  0.8304 -0.2333  0.7105
  143MPD2    H3 2232   1.434   3.439  11.273  0.7316 -0.8850 -0.0313
  143MPD2     N 2233   1.098   3.218  11.066  0.0356  0.4118  0.2028
  143MPD2    H5 2234   1.081   3.308  11.022 -0.7529  1.4738  2.6607
  143MPD2    N1 2235   1.421   2.989  11.362  0.1291  0.3373  0.4587
  143MPD2    H7 2236   1.514   3.002  11.401  0.2278  1.5548 -0.1873
  144TMC2    C1 2237   0.630   2.275   0.399  0.1483  0.2447 -0.4046
  144TMC2    C2 2238   0.668   2.149   0.362  0.4577 -0.2312  0.0630
  144TMC2    C3 2239   0.800   2.116   0.375 -0.9687  0.5558 -0.3165
  144TMC2    C4 2240   0.723   2.369   0.436  0.3797  0.1745 -0.3317
  144TMC2    C5 2241   0.858   2.324   0.437  0.4533 -0.4992  0.0450
  144TMC2    C6 2242   0.899   2.202   0.402  0.5310 -0.1253  0.0483
  144TMC2     C 2243   0.489   2.318   0.379 -0.1406  0.0990 -0.1641
  144TMC2     O 2244   0.428   2.234   0.314  0.2540  0.2593  0.3777
  144TMC2     H 2245   0.588   2.086   0.327 -1.4630  0.7822  2.6661
  144TMC2    H1 2246   0.684   2.468   0.460  1.0866  0.1713  0.8185
  144TMC2    H2 2247   1.004   2.175   0.402 -0.1196 -2.6354 -0.1420
  144TMC2    C7 2248   0.963   2.409   0.490  0.1230 -0.4879 -0.0548
  144TMC2    C8 2249   0.850   2.008   0.291 -0.5251  0.5692 -0.1996
  144TMC2    O1 2250   1.077   2.368   0.493 -0.3442 -0.3594 -0.2892
  144TMC2    O2 2251   0.973   1.974   0.295 -0.1369  0.3081  0.2461
  144TMC2    O5 2252   0.781   2.017   0.178  0.0190  0.1138 -0.4224
  144TMC2    H5 2253   0.714   2.088   0.185 -1.9445 -1.6796 -0.9329
  145MPD2     C 2254   0.097   2.655   0.403 -0.4937 -1.0252 -1.0539
  145MPD2    C1 2255   0.128   2.558   0.310  0.2834 -0.3741 -0.3332
  145MPD2    C2 2256   0.233   2.467   0.332  0.1260  0.6551  0.7424
  145MPD2    C3 2257   0.319   2.492   0.441  0.9241  0.0559 -1.0558
  145MPD2    C4 2258   0.282   2.584   0.533 -0.4030  0.1602 -1.2437
  145MPD2    C5 2259   0.170   2.661   0.521  0.1948 -0.2896  0.0135
  145MPD2     H 2260   0.241   2.379   0.270 -1.5706 -0.2489  1.7909
  145MPD2    H1 2261   0.339   2.594   0.625 -0.6075  1.9280 -1.2933
  145MPD2    H2 2262   0.007   2.714   0.411  1.5887  1.5332  3.3866
  145MPD2    H3 2263   0.132   2.724   0.600 -0.0679 -0.6618  0.1880
  145MPD2     N 2264   0.441   2.425   0.453  0.0179 -0.3336  1.0671
  145MPD2    H5 2265   0.499   2.463   0.527 -0.7397  2.5578  0.1609
  145MPD2    N1 2266   0.039   2.528   0.205  0.5584  0.6693 -0.2987
  145MPD2    H7 2267   0.058   2.441   0.155 -4.7624 -1.8327  2.0264
  146TMC2    C1 2268   0.999   1.521  12.820 -0.2057  0.1152  0.3689
  146TMC2    C2 2269   0.922   1.593  12.731 -0.0767 -0.3901  0.3738
  146TMC2    C3 2270   0.873   1.538  12.619 -0.7032  0.0661 -0.1650
  146TMC2    C4 2271   1.013   1.385  12.806 -0.4396 -0.2109  0.3225
  146TMC2    C5 2272   0.960   1.333  12.695  0.3160 -0.1922  0.7628
  146TMC2    C6 2273   0.890   1.407  12.602  0.1233 -0.3614  0.1536
  146TMC2     C 2274   1.043   1.582  12.950 -0.0831  0.2913 -0.6425
  146TMC2     O 2275   0.992   1.689  12.979 -0.2489  0.9490 -0.4261
  146TMC2     H 2276   0.894   1.694  12.759 -2.0879 -0.7655 -0.2692
  146TMC2    H1 2277   1.041   1.324  12.892 -0.6927  0.9894  1.2557
  146TMC2    H2 2278   0.846   1.354  12.518 -0.1832  1.5069 -0.8802
  146TMC2    C7 2279   0.968   1.191  12.675 -0.6184  0.6015 -0.2148
  146TMC2    C8 2280   0.780   1.623  12.553 -0.3119 -0.7473  0.6415
  146TMC2    O1 2281   0.883   1.137  12.604 -0.0091 -0.0800  0.3614
  146TMC2    O2 2282   0.800   1.741  12.532 -0.2661 -0.3176  0.1712
  146TMC2    O5 2283   0.650   1.572  12.562 -0.2447 -0.2063  0.7663
  146TMC2    H5 2284   0.648   1.477  12.587  0.5205 -0.3046  0.4479
  147MPD2     C 2285   1.230   0.743  12.754 -0.1939  0.0846 -0.6105
  147MPD2    C1 2286   1.307   0.844  12.799 -0.0809 -0.1403  0.4543
  147MPD2    C2 2287   1.248   0.973  12.790 -0.8430 -0.7778  0.1400
  147MPD2    C3 2288   1.125   0.999  12.734 -1.4715 -0.3914 -0.4294
  147MPD2    C4 2289   1.054   0.888  12.678  0.0633 -0.1669 -0.2539
  147MPD2    C5 2290   1.112   0.763  12.685 -0.3693 -0.2597 -0.4944
  147MPD2     H 2291   1.288   1.055  12.848  1.5046 -0.0536 -2.4742
  147MPD2    H1 2292   0.963   0.902  12.621 -0.8398  1.6016  1.6043
  147MPD2    H2 2293   1.255   0.638  12.762 -3.1585 -0.4995  1.1692
  147MPD2    H3 2294   1.063   0.674  12.647  0.3056 -0.0435 -1.9040
  147MPD2     N 2295   1.084   1.137  12.734 -0.4459 -0.3611 -0.3749
  147MPD2    H5 2296   1.142   1.209  12.776  1.5286 -4.3638  3.7267
  147MPD2    N1 2297   1.428   0.816  12.863  0.3207  0.0176 -0.1528
  147MPD2    H7 2298   1.464   0.722  12.877  0.8649  0.3212  0.4867
  148TMC2    C1 2299   1.784   0.654  10.110 -0.1061 -0.0218  0.6663
  148TMC2    C2 2300   1.802   0.724  10.226 -0.0801  0.3827  0.3329
  148TMC2    C3 2301   1.895   0.671  10.308  0.8171  0.4016  0.0189
  148TMC2    C4 2302   1.854   0.541  10.075 -0.3542  0.1185 -0.1183
  148TMC2    C5 2303   1.950   0.498  10.163  0.3420 -0.1969  0.7646
  148TMC2    C6 2304   1.978   0.565  10.277 -0.0954 -0.7134  0.5398
  148TMC2     C 2305   1.648   0.665  10.052 -1.1050  0.4232  0.0184
  148TMC2     O 2306   1.595   0.776  10.074 -0.0786 -0.0561  0.4129
  148TMC2     H 2307   1.743   0.811  10.253 -1.9018 -0.9542  0.6122
  148TMC2    H1 2308   1.839   0.493   9.980 -0.2876  0.8075 -0.4815
  148TMC2    H2 2309   2.047   0.533  10.353 -0.4984  0.8369  1.5567
  148TMC2    C7 2310   1.997   0.366  10.151  0.2173 -0.2051  0.6201
  148TMC2    C8 2311   1.953   0.766  10.395 -0.3352 -0.3318  0.2517
  148TMC2    O1 2312   1.961   0.314  10.048  0.1512 -0.0953 -0.0814
  148TMC2    O2 2313   2.072   0.799  10.399 -0.5041  0.3587  0.3829
  148TMC2    O5 2314   1.867   0.783  10.493  0.5530 -0.0462  0.1403
  148TMC2    H5 2315   1.773   0.762  10.471  0.3371  1.0585  0.0064
  149MPD2     C 2316   1.387   0.647   9.906 -0.4897  0.5859 -0.6318
  149MPD2    C1 2317   1.460   0.537   9.945  0.4222  0.6530  0.3434
  149MPD2    C2 2318   1.409   0.413   9.931 -0.3775 -0.6075 -0.1358
  149MPD2    C3 2319   1.279   0.398   9.884  0.3587  0.1263  0.5814
  149MPD2    C4 2320   1.206   0.503   9.832 -1.3375 -0.6217 -0.0163
  149MPD2    C5 2321   1.258   0.632   9.853 -0.2948  0.3218  0.9466
  149MPD2     H 2322   1.472   0.327   9.952 -2.2034 -2.1283 -0.8227
  149MPD2    H1 2323   1.108   0.487   9.789 -0.1943 -1.4427 -2.2981
  149MPD2    H2 2324   1.428   0.745   9.927  0.4272  0.3638 -1.3757
  149MPD2    H3 2325   1.203   0.712   9.806 -0.1931  0.3659  0.9029
  149MPD2     N 2326   1.210   0.273   9.889  0.6685 -0.6058  0.2069
  149MPD2    H5 2327   1.124   0.264   9.835  0.3829 -0.7165  0.6839
  149MPD2    N1 2328   1.592   0.550   9.999  0.4861 -0.1642  0.6260
  149MPD2    H7 2329   1.637   0.460  10.009  0.5665  0.1492  3.1734
  150TMC2    C1 2330   3.310   4.209  12.161 -0.3069 -0.2135 -0.0480
  150TMC2    C2 2331   3.290   4.318  12.083  0.8896 -0.7705  0.3874
  150TMC2    C3 2332   3.329   4.436  12.134  0.2872 -0.4854  0.3441
  150TMC2    C4 2333   3.368   4.222  12.282  0.0485 -0.0605 -0.7798
  150TMC2    C5 2334   3.413   4.347  12.326  0.2680  0.0599  0.0545
  150TMC2    C6 2335   3.394   4.457  12.255 -0.7314 -0.5065  0.2188
  150TMC2     C 2336   3.219   4.104  12.151  0.3280  0.5160  0.2429
  150TMC2     O 2337   3.217   4.019  12.239  0.2729 -0.7513 -0.1572
  150TMC2     H 2338   3.248   4.317  11.983  1.4362 -2.5967  0.1785
  150TMC2    H1 2339   3.388   4.139  12.349  0.4689  0.9735  0.3867
  150TMC2    H2 2340   3.437   4.554  12.276 -0.2529 -0.2793 -1.8560
  150TMC2    C7 2341   3.509   4.363  12.436 -0.3863 -1.0248  0.3515
  150TMC2    C8 2342   3.327   4.547  12.040 -1.2817  0.0671 -0.3601
  150TMC2    O1 2343   3.528   4.474  12.472  0.5903  0.7119 -0.9232
  150TMC2    O2 2344   3.306   4.523  11.925  0.0592 -0.7650  0.0554
  150TMC2    O5 2345   3.281   4.657  12.114  0.1450 -0.0716 -0.1539
  150TMC2    H5 2346   3.290   4.650  12.212 -1.1755  1.8501  0.1049
  151MPD2     C 2347   2.847   3.842  11.925  0.0986 -0.3488  0.4019
  151MPD2    C1 2348   2.898   3.928  11.837  0.1560  0.5522 -0.9798
  151MPD2    C2 2349   2.998   4.012  11.881  0.4443 -0.4030 -0.1204
  151MPD2    C3 2350   3.042   4.009  12.010 -0.0301  0.2590 -0.8995
  151MPD2    C4 2351   2.983   3.915  12.092  0.0179  0.6741  0.0554
  151MPD2    C5 2352   2.887   3.830  12.052 -0.5298  0.0416  0.4639
  151MPD2     H 2353   3.041   4.090  11.818  0.1948 -0.1096  0.0696
  151MPD2    H1 2354   3.015   3.904  12.195 -1.0538  1.3702  0.4639
  151MPD2    H2 2355   2.781   3.762  11.896  0.9366 -0.5738 -0.8781
  151MPD2    H3 2356   2.853   3.749  12.116  0.9886 -1.0558 -0.1393
  151MPD2     N 2357   3.156   4.094  12.031  0.0377  0.7311  0.6952
  151MPD2    H5 2358   3.190   4.152  11.955  0.5361  0.1173  0.4510
  151MPD2    N1 2359   2.853   3.918  11.703  0.0298 -0.3050 -0.2368
  151MPD2    H7 2360   2.798   3.834  11.688  0.7370 -1.4220  3.3301
  152TMC2    C1 2361   3.413   3.941  12.714 -0.0856 -0.3363 -0.3596
  152TMC2    C2 2362   3.486   3.830  12.745 -0.4261 -0.0865  0.5924
  152TMC2    C3 2363   3.604   3.844  12.803  0.1191 -0.8108  0.3312
  152TMC2    C4 2364   3.438   4.071  12.755  0.7180 -0.5618 -0.3742
  152TMC2    C5 2365   3.563   4.084  12.802  0.0042  0.2466  0.3344
  152TMC2    C6 2366   3.649   3.973  12.837 -0.0431 -0.0896 -0.3423
  152TMC2     C 2367   3.289   3.929  12.642 -0.7777 -0.2683  0.2164
  152TMC2     O 2368   3.222   4.032  12.645  0.3612 -0.0474 -0.4518
  152TMC2     H 2369   3.442   3.731  12.754  1.5488 -1.0307 -0.0849
  152TMC2    H1 2370   3.386   4.160  12.721  0.8009  0.5122  2.3412
  152TMC2    H2 2371   3.751   3.986  12.872  0.0495  0.2102 -0.7158
  152TMC2    C7 2372   3.579   4.201  12.879 -0.5865  0.0832 -0.0497
  152TMC2    C8 2373   3.684   3.727  12.804  0.7996  0.8668 -0.2678
  152TMC2    O1 2374   3.472   4.256  12.920 -0.1170 -0.2723  0.3942
  152TMC2    O2 2375   3.643   3.622  12.756  0.2536 -0.4947 -1.1291
  152TMC2    O5 2376   3.767   3.733  12.912  0.5400  0.6839 -0.6531
  152TMC2    H5 2377   3.782   3.817  12.961  0.1966  0.8533 -0.8384
  153MPD2     C 2378   3.115   3.633  12.508  0.0557  0.4334  0.4211
  153MPD2    C1 2379   3.130   3.765  12.538 -0.5963  0.2517  0.6913
  153MPD2    C2 2380   3.028   3.854  12.508 -0.3659  0.3003  0.0537
  153MPD2    C3 2381   2.910   3.810  12.451  0.5684 -0.8626  0.7390
  153MPD2    C4 2382   2.894   3.671  12.424  1.0817 -0.6753 -0.3332
  153MPD2    C5 2383   2.994   3.578  12.458 -0.2147 -0.1114 -0.0153
  153MPD2     H 2384   3.043   3.962  12.512  0.4485  0.1712  0.5765
  153MPD2    H1 2385   2.807   3.639  12.369 -0.1433  1.8836  0.1081
  153MPD2    H2 2386   3.197   3.562  12.511  1.2190  1.7417 -0.0682
  153MPD2    H3 2387   2.979   3.473  12.436  0.8447 -0.0606 -0.9724
  153MPD2     N 2388   2.823   3.912  12.410 -0.1167  0.1703  0.4597
  153MPD2    H5 2389   2.857   4.008  12.408 -0.1049  0.1871  1.5104
  153MPD2    N1 2390   3.257   3.801  12.593 -0.0587  0.8106  0.2450
  153MPD2    H7 2391   3.330   3.732  12.582  0.4646  1.4649 -0.3964
  154TMC2    C1 2392   0.680   3.860   0.948 -0.3680  0.5170  0.0709
  154TMC2    C2 2393   0.756   3.850   1.060  0.0801  0.0179 -0.5913
  154TMC2    C3 2394   0.887   3.823   1.056  0.6947 -0.0047 -0.0809
  154TMC2    C4 2395   0.729   3.810   0.827 -0.7939  0.2419  0.4801
  154TMC2    C5 2396   0.854   3.756   0.829  0.1957 -0.4604  0.5114
  154TMC2    C6 2397   0.937   3.760   0.941  0.1873  0.0881  0.1472
  154TMC2     C 2398   0.551   3.929   0.958 -0.5021  0.0899 -0.6036
  154TMC2     O 2399   0.524   3.972   1.070  0.1980  0.1222 -0.1759
  154TMC2     H 2400   0.721   3.899   1.151  1.0166  0.8086 -0.6588
  154TMC2    H1 2401   0.673   3.795   0.736 -2.4548 -0.5143  1.6334
  154TMC2    H2 2402   1.032   3.708   0.951  1.4426  2.7385  1.8276
  154TMC2    C7 2403   0.922   3.735   0.703 -0.5479 -0.2848  0.0146
  154TMC2    C8 2404   0.961   3.827   1.185 -0.0478 -0.2186 -1.0387
  154TMC2    O1 2405   1.042   3.762   0.693  0.5087 -0.0701 -0.3177
  154TMC2    O2 2406   0.898   3.794   1.283 -0.4556  0.4088  0.3617
  154TMC2    O5 2407   1.086   3.785   1.153  0.2857  0.5983 -0.0413
  154TMC2    H5 2408   1.120   3.838   1.078 -3.4891 -0.5776 -2.6026
  155MPD2     C 2409   0.384   4.134   0.700 -0.3620  0.2119 -0.6698
  155MPD2    C1 2410   0.402   4.074   0.821 -0.4103  0.5834 -0.0289
  155MPD2    C2 2411   0.322   4.117   0.925  0.2204 -0.0663  0.1049
  155MPD2    C3 2412   0.230   4.220   0.917  0.3665 -0.1257  0.2289
  155MPD2    C4 2413   0.220   4.284   0.795 -0.2415 -0.3393  0.2067
  155MPD2    C5 2414   0.287   4.233   0.688 -0.2949  0.4881  0.1731
  155MPD2     H 2415   0.329   4.077   1.025 -0.0098 -1.0260 -0.2647
  155MPD2    H1 2416   0.149   4.362   0.768  0.0510 -0.5816 -1.2373
  155MPD2    H2 2417   0.447   4.127   0.611  0.1372  0.3823 -0.3323
  155MPD2    H3 2418   0.272   4.271   0.588  0.7568  0.2056 -0.0838
  155MPD2     N 2419   0.150   4.261   1.032 -0.1566 -0.2980  0.2807
  155MPD2    H5 2420   0.153   4.199   1.112  0.9160  2.3762  2.2937
  155MPD2    N1 2421   0.496   3.968   0.838 -0.2462  0.1971  0.2333
  155MPD2    H7 2422   0.540   3.941   0.750  2.0541  0.5641  1.2605
  156TMC2    C1 2423   3.877   1.218  11.236  0.6079 -0.3164 -0.6511
  156TMC2    C2 2424   3.940   1.149  11.141  0.4485  0.4166  0.2194
  156TMC2    C3 2425   3.930   1.202  11.009 -0.3772  0.0574  0.2902
  156TMC2    C4 2426   3.791   1.320  11.221  0.3512 -0.3637 -0.1582
  156TMC2    C5 2427   3.788   1.365  11.092 -1.1592 -0.3447 -0.6262
  156TMC2    C6 2428   3.855   1.308  10.991 -0.0972 -0.9069  0.6905
  156TMC2     C 2429   3.946   1.203  11.374  0.3190  0.6075  0.0398
  156TMC2     O 2430   3.972   1.086  11.396  0.3042 -0.0229 -0.0871
  156TMC2     H 2431   4.008   1.070  11.171 -2.3619 -1.7018  1.0302
  156TMC2    H1 2432   3.759   1.379  11.306  2.1389  1.7430 -0.9499
  156TMC2    H2 2433   3.835   1.341  10.890 -0.6013 -1.4524  0.6154
  156TMC2    C7 2434   3.727   1.493  11.064  0.8182 -0.0116 -0.0068
  156TMC2    C8 2435   4.000   1.148  10.897  0.1076 -0.4660  0.0999
  156TMC2    O1 2436   3.786   1.560  10.976 -0.7334 -0.1159 -0.5558
  156TMC2    O2 2437   3.948   1.178  10.787 -0.5951  0.2102 -0.0432
  156TMC2    O5 2438   4.054   1.026  10.924  0.3763  0.1252  0.4056
  156TMC2    H5 2439   4.112   1.005  11.000 -0.2269 -0.4392  0.7131
  157MPD2     C 2440   4.050   1.209  11.651  0.0554  0.6726 -0.4614
  157MPD2    C1 2441   3.977   1.314  11.590 -0.2040  0.0109 -0.1489
  157MPD2    C2 2442   3.965   1.433  11.658 -0.0055 -0.1411 -1.0672
  157MPD2    C3 2443   4.017   1.454  11.787 -0.2289  0.3950  0.3652
  157MPD2    C4 2444   4.080   1.351  11.849 -0.1779  0.2128 -0.1836
  157MPD2    C5 2445   4.087   1.229  11.785  0.1985  0.3101  0.8894
  157MPD2     H 2446   3.924   1.514  11.598 -0.2317  1.2202  0.9152
  157MPD2    H1 2447   4.112   1.355  11.953  0.2789 -3.0746 -0.2084
  157MPD2    H2 2448   4.062   1.109  11.610 -2.3620 -0.5643  1.8503
  157MPD2    H3 2449   4.137   1.148  11.836 -2.5705 -0.1914  2.7794
  157MPD2     N 2450   4.008   1.577  11.848  0.0754 -0.2787 -0.1602
  157MPD2    H5 2451   3.968   1.652  11.793 -1.0627 -0.6462  0.1814
  157MPD2    N1 2452   3.938   1.314  11.456 -0.7648  0.4861 -0.2697
  157MPD2    H7 2453   3.903   1.403  11.421 -0.8029  0.9390  0.9186
  158TMC2    C1 2454   3.903   0.624  13.276 -0.1438 -0.0790  0.9966
  158TMC2    C2 2455   3.935   0.649  13.148  0.0026 -0.0223 -0.0983
  158TMC2    C3 2456   3.837   0.686  13.062 -0.5730  0.1909  0.0574
  158TMC2    C4 2457   3.772   0.623  13.319  0.5224 -0.0068 -1.0569
  158TMC2    C5 2458   3.679   0.669  13.231  0.2421  0.1115  0.3224
  158TMC2    C6 2459   3.707   0.703  13.106 -0.0608 -0.1313  0.4313
  158TMC2     C 2460   4.011   0.558  13.352  0.1249 -0.1243 -0.2144
  158TMC2     O 2461   4.118   0.532  13.297 -0.4844 -0.4316 -0.3062
  158TMC2     H 2462   4.037   0.656  13.113 -0.8367 -1.3230 -2.7976
  158TMC2    H1 2463   3.749   0.613  13.425  2.0346  1.1108 -0.6138
  158TMC2    H2 2464   3.634   0.748  13.039 -1.4087  0.3135  2.1989
  158TMC2    C7 2465   3.547   0.698  13.273  0.3929 -0.2426 -0.6858
  158TMC2    C8 2466   3.882   0.749  12.944  0.6430 -0.4403  0.1996
  158TMC2    O1 2467   3.483   0.783  13.219  0.0216 -0.2869  0.4250
  158TMC2    O2 2468   3.963   0.842  12.935  0.1395  0.0849  0.3284
  158TMC2    O5 2469   3.783   0.729  12.855 -0.3504 -0.0502 -0.3993
  158TMC2    H5 2470   3.731   0.647  12.869 -0.2988  0.1966  1.2379
  159MPD2     C 2471   4.177   0.394  13.799  0.1528 -0.1520 -0.4298
  159MPD2    C1 2472   4.039   0.415  13.813 -0.0768  0.1424 -0.2489
  159MPD2    C2 2473   3.979   0.474  13.708 -0.0201  0.0005  0.2699
  159MPD2    C3 2474   4.049   0.498  13.596 -0.0741  0.1641 -0.1626
  159MPD2    C4 2475   4.184   0.473  13.581 -0.3495  0.7296  1.0586
  159MPD2    C5 2476   4.252   0.426  13.690  0.0656 -0.0505 -0.0738
  159MPD2     H 2477   3.871   0.481  13.698  0.0858  0.9875 -0.1944
  159MPD2    H1 2478   4.244   0.494  13.493  0.0091 -1.5515  0.7522
  159MPD2    H2 2479   4.233   0.354  13.883 -1.3568  0.3272  0.7991
  159MPD2    H3 2480   4.357   0.401  13.677 -0.0512 -0.0325 -1.0887
  159MPD2     N 2481   3.975   0.554  13.484 -0.4142  0.2654 -0.4440
  159MPD2    H5 2482   3.885   0.595  13.506  0.2823  0.6274  1.7096
  159MPD2    N1 2483   3.993   0.365  13.932 -0.4859 -0.3149  0.2677
  159MPD2    H7 2484   4.070   0.337  13.992 -0.5318 -1.9077 -0.4287
  160TMC2    C1 2485   3.594   3.735   1.824  0.7563 -0.1874 -0.5467
  160TMC2    C2 2486   3.479   3.710   1.900 -0.5734 -0.1945 -0.3036
  160TMC2    C3 2487   3.472   3.583   1.949 -0.3718  0.1593  0.5251
  160TMC2    C4 2488   3.699   3.655   1.822 -1.3278 -0.3202  0.1176
  160TMC2    C5 2489   3.687   3.529   1.870  0.3341 -0.0822  0.2400
  160TMC2    C6 2490   3.569   3.489   1.931 -0.2624  0.0486 -0.5218
  160TMC2     C 2491   3.614   3.871   1.778 -0.5687 -0.9402 -0.4242
  160TMC2     O 2492   3.727   3.905   1.746  0.9190  0.1433  0.1694
  160TMC2     H 2493   3.413   3.784   1.944 -2.0665 -1.9558  0.4479
  160TMC2    H1 2494   3.792   3.686   1.776 -1.1326  1.7679  1.9082
  160TMC2    H2 2495   3.569   3.391   1.978 -2.1344  1.4042  2.2951
  160TMC2    C7 2496   3.799   3.426   1.858 -0.3136  0.3228  0.0430
  160TMC2    C8 2497   3.345   3.544   2.009  0.2632 -0.1988 -0.6220
  160TMC2    O1 2498   3.785   3.316   1.913  0.4281  0.5968 -0.3371
  160TMC2    O2 2499   3.244   3.616   2.002 -0.0614  0.2173  0.3517
  160TMC2    O5 2500   3.364   3.430   2.086  0.4218 -0.0987  0.2111
  160TMC2    H5 2501   3.451   3.431   2.132 -0.0695  2.5471  1.0952
  161MPD2     C 2502   3.587   4.132   1.620  0.4503 -0.1645 -0.6350
  161MPD2    C1 2503   3.483   4.044   1.659 -0.0477 -0.0318  0.3127
  161MPD2    C2 2504   3.353   4.076   1.627  0.2647 -0.2360 -0.1818
  161MPD2    C3 2505   3.338   4.183   1.537 -0.0991 -0.7222  0.2796
  161MPD2    C4 2506   3.437   4.266   1.509 -0.5465 -0.2074  0.1644
  161MPD2    C5 2507   3.558   4.236   1.546  0.0690 -0.0374 -0.2837
  161MPD2     H 2508   3.277   4.001   1.648  0.4220 -0.5296 -0.6772
  161MPD2    H1 2509   3.418   4.350   1.442  0.7529  0.4409  0.6159
  161MPD2    H2 2510   3.691   4.113   1.645  0.2110 -1.5352 -0.6612
  161MPD2    H3 2511   3.633   4.310   1.521 -1.6008  1.3795 -1.1245
  161MPD2     N 2512   3.211   4.214   1.483  0.1306 -0.8256 -0.0751
  161MPD2    H5 2513   3.205   4.304   1.436 -1.5550 -0.8444  0.0805
  161MPD2    N1 2514   3.500   3.931   1.747 -0.0425 -0.1910 -0.1791
  161MPD2    H7 2515   3.412   3.893   1.783 -0.1455  2.1019  1.9424
  162TMC2    C1 2516   1.556   0.886   1.373  0.3019 -0.5711  0.2462
  162TMC2    C2 2517   1.502   0.995   1.435 -0.1486 -0.5826  0.0071
  162TMC2    C3 2518   1.422   0.970   1.547  0.4309  0.0240 -0.1391
  162TMC2    C4 2519   1.549   0.765   1.433  0.8037 -0.7092  0.0432
  162TMC2    C5 2520   1.476   0.750   1.551 -0.5040 -0.0375  0.4186
  162TMC2    C6 2521   1.411   0.855   1.613 -0.3109  0.4631  0.8149
  162TMC2     C 2522   1.640   0.903   1.253 -0.5578 -0.5382  0.4502
  162TMC2     O 2523   1.694   0.803   1.214  0.2537 -0.1574  0.4506
  162TMC2     H 2524   1.506   1.092   1.388 -2.9056 -0.6508 -0.3740
  162TMC2    H1 2525   1.602   0.686   1.381  0.2794 -0.6331 -0.5972
  162TMC2    H2 2526   1.354   0.838   1.704  1.0378  3.1864  2.1523
  162TMC2    C7 2527   1.468   0.616   1.604  0.2066  0.2749  0.3481
  162TMC2    C8 2528   1.327   1.069   1.579 -0.1370 -0.0252 -0.0356
  162TMC2    O1 2529   1.382   0.580   1.684 -0.3136 -0.5699  0.7466
  162TMC2    O2 2530   1.280   1.130   1.486  0.2461 -0.2776  0.5911
  162TMC2    O5 2531   1.290   1.060   1.705  0.0429 -0.2083  0.1677
  162TMC2    H5 2532   1.367   1.029   1.757 -0.2635 -0.5369  0.4240
  163MPD2     C 2533   1.852   1.153   0.856 -0.3147  0.0700 -0.3931
  163MPD2    C1 2534   1.872   1.023   0.896 -0.2584  0.2492  0.5422
  163MPD2    C2 2535   1.814   0.981   1.020  1.0161 -0.1943 -0.2042
  163MPD2    C3 2536   1.719   1.059   1.083  0.2177 -0.8084  0.0275
  163MPD2    C4 2537   1.701   1.185   1.031 -0.8999 -0.3799 -1.0742
  163MPD2    C5 2538   1.767   1.229   0.925  0.3259  0.0559 -0.0816
  163MPD2     H 2539   1.855   0.894   1.069  0.7137 -0.7468 -0.9328
  163MPD2    H1 2540   1.638   1.256   1.082  0.1145  0.8652 -1.5476
  163MPD2    H2 2541   1.900   1.197   0.769  0.4770  0.1942  0.1055
  163MPD2    H3 2542   1.761   1.335   0.901 -2.2108 -0.5202 -1.8828
  163MPD2     N 2543   1.649   1.028   1.201 -0.7476  0.2797 -0.5048
  163MPD2    H5 2544   1.585   1.100   1.230 -1.6411 -0.9815  0.6541
  163MPD2    N1 2545   1.966   0.942   0.824 -0.1888  0.0611  0.0069
  163MPD2    H7 2546   2.003   0.981   0.739  1.1129 -2.2744 -0.5071
  164TMC2    C1 2547   2.683   0.507  10.404  0.7063 -0.1522  0.7551
  164TMC2    C2 2548   2.697   0.391  10.333  0.4130  0.0255 -0.4091
  164TMC2    C3 2549   2.587   0.313  10.321  0.3279 -0.6499 -0.0259
  164TMC2    C4 2550   2.570   0.538  10.475 -0.1994  0.1672 -0.5164
  164TMC2    C5 2551   2.458   0.460  10.454  0.5898  0.1390  0.3903
  164TMC2    C6 2552   2.468   0.354  10.376  0.1027 -0.7252  0.2565
  164TMC2     C 2553   2.805   0.593  10.399  0.8444  0.4714 -0.0042
  164TMC2     O 2554   2.897   0.572  10.319  0.0043  0.3253 -0.2218
  164TMC2     H 2555   2.789   0.364  10.283  0.3271 -0.5228 -0.2773
  164TMC2    H1 2556   2.561   0.638  10.516  1.0638 -0.1889  0.6553
  164TMC2    H2 2557   2.379   0.299  10.348 -0.2216 -0.0287 -0.0825
  164TMC2    C7 2558   2.329   0.501  10.511 -0.1227 -0.1401 -0.8939
  164TMC2    C8 2559   2.591   0.205  10.225 -0.2542  0.5240  0.0842
  164TMC2    O1 2560   2.228   0.454  10.454  0.1397 -0.2394  0.4974
  164TMC2    O2 2561   2.681   0.192  10.144 -0.2518  0.0740  0.3254
  164TMC2    O5 2562   2.521   0.099  10.266  0.0165  0.1451  0.2031
  164TMC2    H5 2563   2.488   0.098  10.358 -1.8299 -0.9251 -0.4682
  165TMC2    C1 2564   4.484   2.749   1.550 -0.4623  0.5475 -0.3524
  165TMC2    C2 2565   4.575   2.665   1.616 -0.1032 -1.2390  0.4518
  165TMC2    C3 2566   4.676   2.621   1.537 -0.4790 -0.3859 -0.2572
  165TMC2    C4 2567   4.475   2.754   1.410 -0.0818  0.3655  0.0691
  165TMC2    C5 2568   4.570   2.686   1.338 -0.4391  0.2164 -0.4669
  165TMC2    C6 2569   4.683   2.629   1.402 -0.2033 -0.7308  0.4581
  165TMC2     C 2570   4.371   2.798   1.628  0.0426 -0.4987 -0.2248
  165TMC2     O 2571   4.266   2.802   1.563 -0.0087  0.0753 -0.3030
  165TMC2     H 2572   4.573   2.639   1.721 -1.0987 -1.3851  0.3883
  165TMC2    H1 2573   4.394   2.807   1.362 -0.6294  0.0959  0.6885
  165TMC2    H2 2574   0.033   2.598   1.341  0.6378 -1.3101  1.9344
  165TMC2    C7 2575   4.603   2.728   1.203  0.5445 -0.1046 -0.0422
  165TMC2    C8 2576   0.045   2.543   1.591 -0.2092 -0.0771 -0.1735
  165TMC2    O1 2577   4.676   2.660   1.133 -0.2758 -0.0006  0.4089
  165TMC2    O2 2578   0.126   2.474   1.529 -0.5434  0.3179 -0.0739
  165TMC2    O5 2579   0.085   2.614   1.698  0.3732 -0.5579 -0.2842
  165TMC2    H5 2580   0.033   2.694   1.721  0.7782 -0.5900  0.7336
  166MPD2     C 2581   4.133   2.939   2.072 -0.6811  0.4979  0.3511
  166MPD2    C1 2582   4.084   2.920   1.940 -0.0223 -0.5115 -0.0670
  166MPD2    C2 2583   4.172   2.887   1.837  0.1508 -0.1144 -0.4215
  166MPD2    C3 2584   4.304   2.873   1.858 -0.0165  0.1381  0.2376
  166MPD2    C4 2585   4.355   2.884   1.991  0.0373  0.1761 -0.8914
  166MPD2    C5 2586   4.269   2.906   2.092 -0.3496  0.5754  0.4203
  166MPD2     H 2587   4.133   2.867   1.738 -2.4328 -0.2944  0.6422
  166MPD2    H1 2588   4.461   2.873   2.013 -0.3816 -1.5150  0.2491
  166MPD2    H2 2589   4.066   2.969   2.152  0.4881  2.4784  0.5853
  166MPD2    H3 2590   4.310   2.924   2.190  0.6940 -0.8777  0.2553
  166MPD2     N 2591   4.399   2.839   1.752 -0.6696 -0.4315 -0.8743
  166MPD2    H5 2592   4.496   2.856   1.775 -1.2219 -2.0122  2.7210
  166MPD2    N1 2593   3.946   2.942   1.919 -0.3999 -0.5950  0.2710
  166MPD2    H7 2594   3.900   2.981   2.000  1.8564 -1.7984  2.1102
  167TMC2    C1 2595   2.229   4.360  12.698 -0.6952 -0.8476  0.1178
  167TMC2    C2 2596   2.189   4.269  12.794  0.1555  0.2462 -0.9285
  167TMC2    C3 2597   2.197   4.139  12.761 -0.3581  0.5995  0.6233
  167TMC2    C4 2598   2.276   4.326  12.568 -0.5249 -0.1173  0.1474
  167TMC2    C5 2599   2.282   4.190  12.545  0.8290  0.1639 -0.1846
  167TMC2    C6 2600   2.245   4.091  12.640 -0.1201 -0.2325  0.6098
  167TMC2     C 2601   2.146   4.482  12.687 -0.9889 -0.3239 -0.0012
  167TMC2     O 2602   2.181   4.572  12.612  0.1147  0.1662 -0.1009
  167TMC2     H 2603   2.167   4.291  12.898  0.5883 -1.4643 -0.4654
  167TMC2    H1 2604   2.295   4.391  12.483  1.0569 -0.6562  0.0850
  167TMC2    H2 2605   2.247   3.983  12.629 -0.6828 -0.2194  0.3902
  167TMC2    C7 2606   2.281   4.157  12.411 -0.4908  0.4045  0.2330
  167TMC2    C8 2607   2.175   4.043  12.863  0.4175 -0.1611  0.0330
  167TMC2    O1 2608   2.273   4.247  12.325  0.6008 -0.2880  0.1951
  167TMC2    O2 2609   2.249   3.944  12.875 -0.0334 -0.1983 -0.3071
  167TMC2    O5 2610   2.055   4.055  12.918  0.6511  0.9069  0.1396
  167TMC2    H5 2611   1.999   4.130  12.886 -0.9157 -1.1504 -1.9225
  168MPD2     C 2612   1.984   4.727  12.764 -0.1614  0.2319 -0.0153
  168MPD2    C1 2613   1.966   4.596  12.805 -0.6474  0.2644  0.0246
  168MPD2    C2 2614   1.849   4.575  12.876  0.2742  0.5798 -0.6639
  168MPD2    C3 2615   1.755   4.672  12.903  0.3082 -0.2867  1.0469
  168MPD2    C4 2616   1.773   0.071  12.868  0.1256  0.5488  0.4276
  168MPD2    C5 2617   1.890   0.092  12.797 -0.2372 -0.7572  0.1707
  168MPD2     H 2618   1.841   4.474  12.913  3.0161  0.3716 -0.6463
  168MPD2    H1 2619   1.702   0.150  12.891 -1.5167 -0.6488 -0.5591
  168MPD2    H2 2620   2.070   0.021  12.704  0.9979  0.3399  1.6927
  168MPD2    H3 2621   1.916   0.193  12.767  1.2353 -0.9820  0.7084
  168MPD2     N 2622   1.638   4.648  12.980 -0.7098 -0.2243 -0.3953
  168MPD2    H5 2623   1.583   4.726  13.015  0.0324 -0.3552  1.0451
  168MPD2    N1 2624   2.041   4.481  12.770  0.0082  0.2232 -0.2001
  168MPD2    H7 2625   2.016   4.392  12.811  0.3054  0.2054 -0.0585
  169MPD1     C 2626   3.568   4.419   9.176  0.0024 -0.1803  0.7174
  169MPD1    C1 2627   3.695   4.376   9.188  0.2187 -0.2619  0.2440
  169MPD1    C2 2628   3.726   4.287   9.290 -0.0178 -1.0226 -0.0492
  169MPD1    C3 2629   3.641   4.255   9.394 -0.9173  0.6044  0.0068
  169MPD1    C4 2630   3.520   4.328   9.394  0.2861 -0.1667 -0.4014
  169MPD1    C5 2631   3.475   4.391   9.278  0.0261  0.2917  0.0495
  169MPD1     H 2632   3.825   4.244   9.293  0.5933  0.4496  1.3183
  169MPD1    H1 2633   3.448   4.320   9.474  1.8370  0.6241  1.0584
  169MPD1    H2 2634   3.534   4.487   9.099  1.2988  0.8085  1.0279
  169MPD1    H3 2635   3.375   4.432   9.287  0.4277  0.9589  1.4173
  169MPD1     N 2636   3.687   4.173   9.497 -0.4717  0.1543  0.2417
  169MPD1    H5 2637   3.775   4.124   9.485 -1.1859 -0.4960 -2.5115
  169MPD1    N1 2638   3.778   4.390   9.075 -0.2170 -0.1099  0.2236
  169MPD1    H6 2639   3.877   4.401   9.099 -0.5081  2.1607  0.4157
  169MPD1    H7 2640   3.750   4.464   9.010 -0.3699 -1.3179 -1.0852
  170MPD1     C 2641   2.824   1.986  13.240  0.2379  0.1855 -0.0749
  170MPD1    C1 2642   2.861   2.048  13.360 -0.7617  0.2257  0.2757
  170MPD1    C2 2643   2.793   2.159  13.402 -0.9827  0.0952  0.3427
  170MPD1    C3 2644   2.685   2.204  13.329 -0.3260  0.2054 -0.3686
  170MPD1    C4 2645   2.649   2.143  13.216  0.3408  0.2087  0.0674
  170MPD1    C5 2646   2.728   2.039  13.167 -0.2004 -0.1435  0.1056
  170MPD1     H 2647   2.813   2.201  13.500 -1.9428  1.3884 -0.0074
  170MPD1    H1 2648   2.554   2.161  13.167 -0.2346  1.6537  1.7279
  170MPD1    H2 2649   2.867   1.894  13.201  0.6884  0.8431 -1.1209
  170MPD1    H3 2650   2.701   1.985  13.077 -1.9343  0.8849  0.0184
  170MPD1     N 2651   2.604   2.310  13.387  0.0245  0.1447 -0.3816
  170MPD1    H5 2652   2.620   2.334  13.484 -0.7181 -0.1359 -0.1881
  170MPD1    N1 2653   2.968   1.998  13.438  0.1011  0.5849 -0.1003
  170MPD1    H6 2654   2.954   2.028  13.535 -1.1168  0.7657 -0.3331
  170MPD1    H7 2655   2.964   1.896  13.435  0.0469  0.5035  2.5059
  171MPD1     C 2656   0.697   3.005  15.311  0.5256  0.2451  0.4344
  171MPD1    C1 2657   0.805   3.089  15.292  0.5410  0.4344 -0.0765
  171MPD1    C2 2658   0.917   3.073  15.372  0.5336 -0.2621  0.4144
  171MPD1    C3 2659   0.916   2.968  15.464  0.1417  0.3639  0.1225
  171MPD1    C4 2660   0.811   2.889  15.481 -0.5466  0.9763  0.0677
  171MPD1    C5 2661   0.698   2.902  15.400  0.0115  0.0836 -0.1299
  171MPD1     H 2662   1.001   3.138  15.351 -0.7870  1.3575  0.1362
  171MPD1    H1 2663   0.815   2.809  15.554 -1.5984  1.1774  0.3357
  171MPD1    H2 2664   0.610   3.006  15.247  0.2961 -0.7831  0.7372
  171MPD1    H3 2665   0.610   2.839  15.412  0.9394 -1.1344  0.2387
  171MPD1     N 2666   1.028   2.931  15.537 -0.1803 -0.1475  0.3890
  171MPD1    H5 2667   1.009   2.844  15.585 -1.0409  0.7425  1.6646
  171MPD1    N1 2668   0.805   3.189  15.194  0.2176  0.4561  0.0709
  171MPD1    H6 2669   0.712   3.223  15.169  0.7852  1.4181 -0.7181
  171MPD1    H7 2670   0.845   3.272  15.236  0.7265 -0.6989  1.8743
  172MPD1     C 2671   0.371   2.529  17.535  0.7741 -0.1517  0.2633
  172MPD1    C1 2672   0.281   2.629  17.525 -0.1385  0.0386  0.0947
  172MPD1    C2 2673   0.256   2.714  17.629  0.4114  0.1845  0.3329
  172MPD1    C3 2674   0.336   2.713   0.011  0.5210 -0.2410  0.5166
  172MPD1    C4 2675   0.445   2.622   0.011  0.1494  0.4310  0.1247
  172MPD1    C5 2676   0.457   2.527  17.645 -0.2897  0.8639 -0.4745
  172MPD1     H 2677   0.199   2.805  17.612 -1.6134 -0.9055  1.2828
  172MPD1    H1 2678   0.521   2.617   0.088  1.3258 -2.8708 -1.2305
  172MPD1    H2 2679   0.393   2.462  17.453 -0.2687 -1.1134  0.7732
  172MPD1    H3 2680   0.533   2.451  17.654  0.5245  1.7803  0.3432
  172MPD1     N 2681   0.327   2.801   0.120  0.0327  0.6089  0.9073
  172MPD1    H5 2682   0.399   2.805   0.191  0.1288 -1.2316  0.9038
  172MPD1    N1 2683   0.227   2.655  17.396 -0.3118 -0.4940  0.1256
  172MPD1    H6 2684   0.135   2.698  17.397 -0.3301 -0.5222 -0.2336
  172MPD1    H7 2685   0.222   2.573  17.336 -0.5043 -0.7988  0.5606
  173MPD1     C 2686   1.404   2.970  14.245 -0.6909 -0.1130 -0.5025
  173MPD1    C1 2687   1.512   2.899  14.296 -0.3372  0.1258  0.2633
  173MPD1    C2 2688   1.491   2.771  14.336 -0.5051  0.5929  0.2423
  173MPD1    C3 2689   1.375   2.709  14.313 -0.0544  0.4707 -0.8581
  173MPD1    C4 2690   1.266   2.777  14.269 -0.1157 -0.5732  0.3582
  173MPD1    C5 2691   1.284   2.911  14.231  0.1865  0.6250  0.2950
  173MPD1     H 2692   1.574   2.715  14.377 -0.1511  0.2702 -0.9134
  173MPD1    H1 2693   1.169   2.730  14.256 -0.6182  0.3232  0.8454
  173MPD1    H2 2694   1.417   3.074  14.217 -0.1727 -0.1587 -0.4333
  173MPD1    H3 2695   1.197   2.967  14.201 -0.6823 -1.2452 -0.6821
  173MPD1     N 2696   1.371   2.571  14.355  0.0006 -0.5173 -0.1163
  173MPD1    H5 2697   1.454   2.533  14.398  1.2897  0.5805 -1.6347
  173MPD1    N1 2698   1.639   2.959  14.305  0.0028 -0.8143 -0.7140
  173MPD1    H6 2699   1.703   2.890  14.266  2.0642 -1.3999  3.7942
  173MPD1    H7 2700   1.649   3.044  14.249 -1.8520 -0.7317 -0.9259
  174MPD1     C 2701   1.686   1.793  13.997  0.1862 -0.4337 -0.9837
  174MPD1    C1 2702   1.580   1.730  14.060  0.1857 -0.4934 -0.2449
  174MPD1    C2 2703   1.489   1.818  14.118 -0.1812 -1.1539 -0.0793
  174MPD1    C3 2704   1.501   1.960  14.119  0.8135 -0.1329  0.0803
  174MPD1    C4 2705   1.611   2.016  14.061  0.3221 -0.4661 -0.1793
  174MPD1    C5 2706   1.702   1.930  14.005 -0.1293 -1.3826 -0.0483
  174MPD1     H 2707   1.407   1.777  14.176  0.8557 -1.3496  1.2387
  174MPD1    H1 2708   1.628   2.123  14.060 -0.2468 -0.3744  0.3249
  174MPD1    H2 2709   1.764   1.742  13.941  0.7223  1.0724 -1.6060
  174MPD1    H3 2710   1.791   1.961  13.953 -0.7379  1.0276  0.3156
  174MPD1     N 2711   1.405   2.043  14.183 -0.2439  0.3731  0.0838
  174MPD1    H5 2712   1.404   2.141  14.156  0.2313  0.0862 -0.9774
  174MPD1    N1 2713   1.569   1.593  14.049 -0.3225 -0.0749 -0.1584
  174MPD1    H6 2714   1.656   1.549  14.020  0.3281  1.8276 -1.1143
  174MPD1    H7 2715   1.521   1.552  14.129  1.0120  0.0896  0.7319
  175MPD1     C 2716   4.483   3.405  14.992 -0.0931 -0.4700  0.4308
  175MPD1    C1 2717   4.607   3.354  15.027 -0.4488  0.3391  1.0638
  175MPD1    C2 2718   4.655   3.401  15.153  0.0493 -0.6241  0.2949
  175MPD1    C3 2719   4.586   3.494  15.236 -0.1120 -0.0119 -0.2323
  175MPD1    C4 2720   4.462   3.532  15.194 -0.0107 -0.3626 -0.1737
  175MPD1    C5 2721   4.411   3.478  15.078 -0.5454  0.2273 -0.0828
  175MPD1     H 2722   0.027   3.387  15.171  0.3164 -0.1556 -0.9342
  175MPD1    H1 2723   4.401   3.590  15.263 -0.2751  1.6442 -2.1027
  175MPD1    H2 2724   4.437   3.383  14.896  0.1976 -1.7980  0.6004
  175MPD1    H3 2725   4.317   3.515  15.039 -1.1142 -3.3253 -2.0744
  175MPD1     N 2726   4.626   3.537  15.366  0.4334 -0.6401  0.6742
  175MPD1    H5 2727   4.564   3.597  15.421 -0.1816  1.0912 -1.9062
  175MPD1    N1 2728   4.683   3.278  14.935 -0.2967 -0.1911  0.1695
  175MPD1    H6 2729   0.012   3.212  14.979 -0.9402 -0.6876  0.3649
  175MPD1    H7 2730   4.620   3.237  14.866  0.4585 -1.9888  0.5416
  176MPD1     C 2731   2.126   0.773  16.490 -0.1880  0.6212  0.5374
  176MPD1    C1 2732   2.158   0.903  16.468  0.5748 -0.0547  0.4869
  176MPD1    C2 2733   2.118   1.000  16.552 -0.1229 -0.3283 -1.1998
  176MPD1    C3 2734   2.082   0.962  16.682  0.2064 -0.4073 -0.4003
  176MPD1    C4 2735   2.080   0.833  16.715  0.3141 -0.2107 -0.0847
  176MPD1    C5 2736   2.095   0.734  16.618 -0.2040  0.9137 -0.4578
  176MPD1     H 2737   2.130   1.102  16.519  0.3978 -0.6836 -2.1290
  176MPD1    H1 2738   2.047   0.799  16.813 -1.0050  2.6923  0.4777
  176MPD1    H2 2739   2.140   0.700  16.411 -0.3432  0.5449  0.5807
  176MPD1    H3 2740   2.081   0.628  16.634 -0.6295  0.9124 -0.8236
  176MPD1     N 2741   2.068   1.068  16.777 -0.3616  0.1081 -0.0974
  176MPD1    H5 2742   2.077   1.163  16.744  1.0292  0.0477  0.1119
  176MPD1    N1 2743   2.204   0.941  16.339 -0.0059  0.1596 -0.2698
  176MPD1    H6 2744   2.262   0.873  16.291 -0.1585 -0.4684  0.4321
  176MPD1    H7 2745   2.271   1.013  16.364  1.4785 -0.9968 -0.9470
  177MPD1     C 2746   0.624   0.713  10.310 -0.4292  0.5706  0.2972
  177MPD1    C1 2747   0.560   0.676  10.194 -0.0259 -0.9513 -0.6894
  177MPD1    C2 2748   0.558   0.764  10.087 -0.5110 -0.5811  0.2315
  177MPD1    C3 2749   0.637   0.872  10.078 -0.1424  0.2206  0.3916
  177MPD1    C4 2750   0.706   0.905  10.197  0.2045  0.5273 -0.2906
  177MPD1    C5 2751   0.705   0.825  10.307  0.6192 -0.3408  0.3027
  177MPD1     H 2752   0.507   0.732   9.997  1.5843 -2.2679 -0.3698
  177MPD1    H1 2753   0.758   0.999  10.202 -0.9146  1.1664 -0.7292
  177MPD1    H2 2754   0.636   0.648  10.396  1.0535  1.4964  0.7798
  177MPD1    H3 2755   0.766   0.846  10.395  0.2212  2.1137 -0.0024
  177MPD1     N 2756   0.654   0.948   9.957  0.2558 -0.5121  0.2460
  177MPD1    H5 2757   0.612   0.903   9.876 -2.5413  4.0822 -0.9257
  177MPD1    N1 2758   0.490   0.558  10.195  0.5259  0.1364 -0.0527
  177MPD1    H6 2759   0.494   0.513  10.104 -1.2050 -2.0315  0.9325
  177MPD1    H7 2760   0.502   0.498  10.276  0.6398  1.8780  1.2298
  178MPD1     C 2761   2.429   2.054  17.731  0.8349 -0.2644 -0.2003
  178MPD1    C1 2762   2.360   1.952  17.681 -0.4841 -0.3464 -0.2606
  178MPD1    C2 2763   2.419   1.889  17.568  0.0459 -0.0851 -0.1117
  178MPD1    C3 2764   2.551   1.913  17.532  0.1183  0.5768 -0.7154
  178MPD1    C4 2765   2.627   2.008  17.600  0.3182  0.4152  0.5308
  178MPD1    C5 2766   2.557   2.076  17.695  0.4458  0.3382  0.1981
  178MPD1     H 2767   2.358   1.818  17.513 -1.3522  0.9249  0.1347
  178MPD1    H1 2768   2.727   2.040  17.574  0.0638  1.3512  0.7148
  178MPD1    H2 2769   2.381   2.123   0.062 -6.2135 -3.3295 -2.0282
  178MPD1    H3 2770   2.612   2.157   0.006  1.0258 -0.3913  0.7542
  178MPD1     N 2771   2.624   1.864  17.426 -0.2139  0.1843  0.1929
  178MPD1    H5 2772   2.720   1.897  17.426 -0.2968  0.4247  0.0975
  178MPD1    N1 2773   2.225   1.950  17.697 -0.0780  0.3948  0.0726
  178MPD1    H6 2774   2.176   1.865  17.670 -2.2911  1.1633  1.7079
  178MPD1    H7 2775   2.192   1.986   0.049  0.9881 -0.6191  0.8836
  179MPD1     C 2776   1.618   0.088  15.343  0.7530  0.1817 -0.7550
  179MPD1    C1 2777   1.663   0.083  15.468  0.0631  0.1746  0.3969
  179MPD1    C2 2778   1.722   4.702  15.509 -0.6847 -0.1606 -0.3459
  179MPD1    C3 2779   1.749   4.594  15.431 -0.5617 -0.6625 -0.3292
  179MPD1    C4 2780   1.715   4.607  15.294  0.3824  0.4310  0.6013
  179MPD1    C5 2781   1.646   4.720  15.256 -1.2510  0.4815 -0.2678
  179MPD1     H 2782   1.739   4.694  15.616  3.0228  0.7938 -0.8551
  179MPD1    H1 2783   1.753   4.536  15.221  0.3209  0.7296  0.2838
  179MPD1    H2 2784   1.560   0.165  15.293 -1.3941 -0.9187  0.0273
  179MPD1    H3 2785   1.645   4.719  15.148 -0.1408  0.7618 -0.2801
  179MPD1     N 2786   1.806   4.470  15.469 -0.2101 -0.2095 -0.5654
  179MPD1    H5 2787   1.811   4.397  15.398 -1.6539 -0.8094 -0.0335
  179MPD1    N1 2788   1.623   0.176  15.567  0.1452  0.1755 -0.1506
  179MPD1    H6 2789   1.694   0.196  15.637  1.1988 -0.3642 -1.0702
  179MPD1    H7 2790   1.592   0.264  15.527  3.6263  1.2045 -0.5882
  180MPD1     C 2791   2.406   0.627  15.437 -0.2649  0.1774  0.0130
  180MPD1    C1 2792   2.477   0.630  15.323 -0.2134  0.3133 -0.1416
  180MPD1    C2 2793   2.414   0.644  15.208 -0.1107 -0.3120 -0.1309
  180MPD1    C3 2794   2.278   0.637  15.198  0.2000 -1.0758 -0.5732
  180MPD1    C4 2795   2.205   0.642  15.312 -0.0294 -0.1455  0.0819
  180MPD1    C5 2796   2.273   0.636  15.430 -0.0454  0.1168 -0.4135
  180MPD1     H 2797   2.456   0.640  15.108  2.1777  0.1904  0.8111
  180MPD1    H1 2798   2.096   0.648  15.308 -0.0083 -0.3997 -0.8975
  180MPD1    H2 2799   2.462   0.619  15.530  0.3989  1.6674 -0.2574
  180MPD1    H3 2800   2.206   0.632  15.515 -2.8356  2.7380 -2.4842
  180MPD1     N 2801   2.220   0.637  15.064 -0.6862  0.2275 -0.5691
  180MPD1    H5 2802   2.284   0.656  14.988 -1.1328  0.1586 -0.9617
  180MPD1    N1 2803   2.616   0.605  15.334  0.6899  0.2998 -0.0357
  180MPD1    H6 2804   2.654   0.644  15.421  2.4886  0.5981 -0.9463
  180MPD1    H7 2805   2.657   0.628  15.244 -0.7949 -1.3176 -1.1126
  181MPD1     C 2806   3.363   2.883  10.187  0.7951 -0.1464  0.6766
  181MPD1    C1 2807   3.376   3.010  10.237 -0.8026  0.4952 -0.7036
  181MPD1    C2 2808   3.487   3.085  10.200  0.4167  0.4757  0.3255
  181MPD1    C3 2809   3.588   3.029  10.135 -0.0973  0.5422 -0.6289
  181MPD1    C4 2810   3.574   2.903  10.086  0.4338 -0.4104  0.0302
  181MPD1    C5 2811   3.461   2.830  10.116 -0.0892 -0.3418 -0.6268
  181MPD1     H 2812   3.484   3.189  10.233  2.4371  1.4545 -2.5866
  181MPD1    H1 2813   3.657   2.859  10.033  2.3968  1.5115  1.5080
  181MPD1    H2 2814   3.272   2.825  10.197  0.4213  0.1993 -0.7233
  181MPD1    H3 2815   3.444   2.734  10.069  0.0975 -0.0434 -1.3009
  181MPD1     N 2816   3.708   3.095  10.096  0.4968  0.2437 -0.5005
  181MPD1    H5 2817   3.759   3.039  10.028 -2.3644 -2.6581 -0.2457
  181MPD1    N1 2818   3.264   3.063  10.294 -0.1193 -0.1043 -0.4129
  181MPD1    H6 2819   3.280   3.139  10.360 -1.5857  0.2329 -0.4311
  181MPD1    H7 2820   3.204   2.997  10.344 -0.1310 -1.2990 -1.9986
  182MPD1     C 2821   1.001   2.085   1.966  0.0079 -0.5550  0.1864
  182MPD1    C1 2822   1.014   2.087   1.831  0.2567  0.2079  0.1887
  182MPD1    C2 2823   0.902   2.076   1.748  0.1747 -0.2347  0.0406
  182MPD1    C3 2824   0.779   2.059   1.804 -0.1709  0.2518  0.4967
  182MPD1    C4 2825   0.766   2.062   1.941  0.3800  0.1162  0.4491
  182MPD1    C5 2826   0.871   2.068   2.017  0.4079  0.0659 -0.1009
  182MPD1     H 2827   0.918   2.048   1.644  0.6405  0.3805 -0.0500
  182MPD1    H1 2828   0.673   2.057   1.997  1.9696 -0.3462  3.0122
  182MPD1    H2 2829   1.088   2.085   2.031  0.4963 -1.3944 -0.4692
  182MPD1    H3 2830   0.878   2.062   2.125 -1.1891  1.4173  0.0762
  182MPD1     N 2831   0.662   2.049   1.728  0.0881 -0.7048  0.1470
  182MPD1    H5 2832   0.580   2.044   1.787  0.2693 -3.1775  0.2100
  182MPD1    N1 2833   1.137   2.099   1.774 -0.3931 -0.4541 -0.1210
  182MPD1    H6 2834   1.151   2.072   1.677 -0.6541  0.5534 -0.4464
  182MPD1    H7 2835   1.207   2.060   1.837  0.8132 -1.1628 -1.8981
  183MPD1     C 2836   4.656   2.237   8.347 -0.5103 -0.3479  0.3812
  183MPD1    C1 2837   4.542   2.301   8.399 -0.3163 -0.3456 -0.5372
  183MPD1    C2 2838   4.560   2.394   8.498  0.1238 -0.3505 -0.8453
  183MPD1    C3 2839   4.685   2.434   8.544 -0.6386  0.0178  0.1352
  183MPD1    C4 2840   0.060   2.374   8.492 -0.1893  0.2250  0.0790
  183MPD1    C5 2841   0.045   2.269   8.400 -0.1186  0.1847 -0.1333
  183MPD1     H 2842   4.474   2.443   8.542 -0.5986 -2.4353  0.0855
  183MPD1    H1 2843   0.153   2.398   8.541 -0.3625  2.8910 -0.8471
  183MPD1    H2 2844   4.650   2.150   8.281  0.7771  0.0847 -0.3075
  183MPD1    H3 2845   0.134   2.217   8.366 -1.9327 -2.0225 -1.4997
  183MPD1     N 2846   4.687   2.537   8.639  0.4673  0.8606  0.4466
  183MPD1    H5 2847   4.596   2.575   8.664  0.4918  1.0167  0.2974
  183MPD1    N1 2848   4.415   2.258   8.351 -0.0716 -0.8968  0.2309
  183MPD1    H6 2849   4.337   2.281   8.413  1.8498 -0.4141  2.4946
  183MPD1    H7 2850   4.413   2.157   8.353  0.2564 -0.8898  1.0748
  184MPD1     C 2851   4.374   0.484   9.789  0.2338 -0.0188 -0.8077
  184MPD1    C1 2852   4.310   0.483   9.664 -0.0391 -0.1953 -0.4454
  184MPD1    C2 2853   4.381   0.545   9.565 -0.2352 -0.0878  0.0427
  184MPD1    C3 2854   4.498   0.619   9.592  0.2592 -0.4415 -0.1073
  184MPD1    C4 2855   4.548   0.626   9.726  0.9710  0.1679 -0.0433
  184MPD1    C5 2856   4.477   0.568   9.826  0.1981 -0.0336  0.5394
  184MPD1     H 2857   4.340   0.538   9.465 -0.2381 -1.4606  0.1388
  184MPD1    H1 2858   4.641   0.677   9.748  0.8046  0.4858 -0.0764
  184MPD1    H2 2859   4.332   0.414   9.860  2.1309 -1.0103 -0.6509
  184MPD1    H3 2860   4.508   0.568   9.930 -0.0907  0.1573  0.6272
  184MPD1     N 2861   4.572   0.693   9.501 -0.4219 -0.3465 -0.2331
  184MPD1    H5 2862   4.646   0.752   9.538  0.4948 -1.8213  0.2996
  184MPD1    N1 2863   4.210   0.387   9.630  0.3653 -0.2720 -0.3628
  184MPD1    H6 2864   4.153   0.410   9.548 -0.1612  0.6491  0.2577
  184MPD1    H7 2865   4.157   0.364   9.714  0.8953 -1.7881 -0.4539
  185MPD1     C 2866   4.534   0.727   8.500 -0.0025  0.4940 -0.3567
  185MPD1    C1 2867   4.656   0.776   8.528  0.1801  0.5934 -0.2565
  185MPD1    C2 2868   4.687   0.789   8.659 -0.7764 -0.3416  0.2921
  185MPD1    C3 2869   4.588   0.791   8.757  0.1627 -0.4376 -0.5565
  185MPD1    C4 2870   4.457   0.756   8.725  0.3089  0.9009 -0.1115
  185MPD1    C5 2871   4.432   0.729   8.592  0.5465  0.0917 -0.0992
  185MPD1     H 2872   0.057   0.798   8.685 -1.2571 -0.2180  2.1584
  185MPD1    H1 2873   4.374   0.758   8.794  1.1760 -2.9633  1.0636
  185MPD1    H2 2874   4.508   0.701   8.398  0.7450  0.8156 -0.6237
  185MPD1    H3 2875   4.339   0.691   8.549  0.1808  2.1519 -1.1278
  185MPD1     N 2876   4.615   0.803   8.896  0.2006 -0.1464  0.1685
  185MPD1    H5 2877   4.536   0.793   8.958  0.4789  2.4415  0.9274
  185MPD1    N1 2878   0.020   0.769   8.426  0.2808  0.1698 -0.0744
  185MPD1    H6 2879   0.101   0.827   8.442 -0.5497  1.1579  0.5145
  185MPD1    H7 2880   4.710   0.803   8.341  1.0018 -1.1482 -0.9810
  186MPD1     C 2881   3.349   4.266  16.375 -0.1031 -0.2474 -0.1949
  186MPD1    C1 2882   3.377   4.257  16.508 -0.3735 -0.4827  0.7721
  186MPD1    C2 2883   3.321   4.359  16.584 -0.2217  0.0099  0.8038
  186MPD1    C3 2884   3.250   4.469  16.531 -0.6732  0.2045 -0.0060
  186MPD1    C4 2885   3.222   4.468  16.396  0.4390  0.0349 -0.7574
  186MPD1    C5 2886   3.279   4.368  16.313 -0.2566 -0.6135 -0.6645
  186MPD1     H 2887   3.337   4.356  16.691  1.5482 -2.0030  0.4733
  186MPD1    H1 2888   3.157   4.545  16.358  0.3120  0.7989  1.0081
  186MPD1    H2 2889   3.372   4.181  16.312  2.4932  1.6676 -1.7997
  186MPD1    H3 2890   3.247   4.354  16.210 -0.2747 -0.3472 -0.6958
  186MPD1     N 2891   3.193   4.579  16.602  0.3759  0.0120 -0.5380
  186MPD1    H5 2892   3.148   4.652  16.548 -1.2507 -0.9507 -0.4884
  186MPD1    N1 2893   3.422   4.140  16.572  0.0847 -0.1776  0.2247
  186MPD1    H6 2894   3.455   4.173  16.662  1.4288 -0.0850 -0.2955
  186MPD1    H7 2895   3.486   4.086  16.513  1.8401 -0.0525  2.0247
  187MPD1     C 2896   1.987   1.747   0.108 -0.0953 -0.0804 -0.2797
  187MPD1    C1 2897   2.049   1.667   0.006 -0.7437  0.0691  0.4410
  187MPD1    C2 2898   2.007   1.686  17.617  0.1660 -0.4994  0.0564
  187MPD1    C3 2899   1.930   1.795  17.594  0.4484 -0.1401  0.4118
  187MPD1    C4 2900   1.866   1.862  17.691 -0.1531 -0.3809 -0.9591
  187MPD1    C5 2901   1.888   1.834   0.085  0.3368 -0.7151 -0.2418
  187MPD1     H 2902   2.023   1.608  17.544 -2.3528 -1.0318  0.0924
  187MPD1    H1 2903   1.794   1.939  17.665 -1.9226 -1.3852  0.9237
  187MPD1    H2 2904   2.007   1.723   0.212  1.0902 -0.7883 -0.6731
  187MPD1    H3 2905   1.834   1.887   0.163  0.0640 -0.8499 -0.3410
  187MPD1     N 2906   1.902   1.830  17.462 -0.1082 -0.3275  0.1706
  187MPD1    H5 2907   1.853   1.917  17.452  1.1792  0.5452  1.3612
  187MPD1    N1 2908   2.135   1.559   0.042  0.1286  0.2487  0.4909
  187MPD1    H6 2909   2.179   1.557   0.134 -0.0098 -0.8729  0.5321
  187MPD1    H7 2910   2.208   1.550  17.708 -1.3024 -3.3175 -0.5249
  188MPD1     C 2911   1.624   2.111  10.616 -0.4168  0.3080  0.6463
  188MPD1    C1 2912   1.760   2.087  10.590  0.1695  0.5885  0.4719
  188MPD1    C2 2913   1.795   2.000  10.495 -0.0778 -0.1689  0.7029
  188MPD1    C3 2914   1.696   1.940  10.412  0.4702  0.1550 -0.1883
  188MPD1    C4 2915   1.570   1.990  10.426 -0.5086 -0.4168  0.2369
  188MPD1    C5 2916   1.534   2.056  10.540 -0.4409 -0.0364  0.1586
  188MPD1     H 2917   1.898   1.973  10.476  0.3360  0.9852  1.3004
  188MPD1    H1 2918   1.483   1.951  10.375 -0.4346 -1.3295  0.8057
  188MPD1    H2 2919   1.587   2.186  10.684 -2.1572  0.1362 -0.1268
  188MPD1    H3 2920   1.427   2.072  10.551 -0.5384 -0.2479 -0.4873
  188MPD1     N 2921   1.720   1.843  10.312 -0.1435 -0.2491  0.6720
  188MPD1    H5 2922   1.634   1.820  10.262 -0.5088  0.7633  0.8295
  188MPD1    N1 2923   1.863   2.164  10.642 -0.1388 -0.1091  0.5317
  188MPD1    H6 2924   1.957   2.126  10.635 -0.2645 -0.2291 -0.5128
  188MPD1    H7 2925   1.839   2.199  10.734  0.6138  0.7182  0.4110
  189MPD1     C 2926   3.941   2.865   0.961  0.0425 -0.3637 -0.2829
  189MPD1    C1 2927   3.890   2.784   0.863  0.2023 -0.6535  0.1437
  189MPD1    C2 2928   3.774   2.824   0.801 -0.2205 -0.1059  0.2725
  189MPD1    C3 2929   3.736   2.955   0.816  0.1227 -0.0536 -0.6827
  189MPD1    C4 2930   3.804   3.049   0.889 -0.3047  0.1994 -0.9470
  189MPD1    C5 2931   3.903   2.997   0.964  0.5412 -0.7322  0.3588
  189MPD1     H 2932   3.723   2.757   0.733  2.7502 -0.6750 -1.4026
  189MPD1    H1 2933   3.773   3.152   0.904  0.2320  0.3374 -0.7890
  189MPD1    H2 2934   4.017   2.835   1.032  0.6553  2.0904  0.0888
  189MPD1    H3 2935   3.962   3.060   1.029  3.1545 -3.2386  0.4438
  189MPD1     N 2936   3.617   2.981   0.746 -0.9642 -0.5959 -0.3094
  189MPD1    H5 2937   3.585   2.912   0.679  1.1023 -0.0699 -1.8388
  189MPD1    N1 2938   3.941   2.653   0.841  0.0602  0.0967 -0.3987
  189MPD1    H6 2939   4.031   2.644   0.888  0.5243  2.5696 -0.8451
  189MPD1    H7 2940   3.957   2.637   0.742 -1.9969 -0.7405 -0.6002
  190MPD1     C 2941   2.534   1.795  15.470  1.0507  0.6044  0.1793
  190MPD1    C1 2942   2.673   1.774  15.476  0.0527 -0.2636 -0.7981
  190MPD1    C2 2943   2.710   1.640  15.445 -0.2564  0.2696 -0.0067
  190MPD1    C3 2944   2.620   1.539  15.423  0.4296 -0.0771 -0.3607
  190MPD1    C4 2945   2.480   1.564  15.426 -0.1869  0.6637 -0.7588
  190MPD1    C5 2946   2.440   1.698  15.450 -0.3360 -0.1337 -0.4654
  190MPD1     H 2947   2.812   1.611  15.422 -1.8175 -4.2783 -1.0852
  190MPD1    H1 2948   2.407   1.488  15.400  0.8931 -0.4212 -0.6128
  190MPD1    H2 2949   2.489   1.891  15.493 -2.0471 -0.5050 -1.2092
  190MPD1    H3 2950   2.339   1.733  15.434 -0.8312 -2.3328 -2.1621
  190MPD1     N 2951   2.673   1.411  15.395  0.0857 -0.5415 -0.1774
  190MPD1    H5 2952   2.775   1.406  15.397  0.1266  0.9004  1.0789
  190MPD1    N1 2953   2.760   1.877  15.483  0.2628  0.3013 -0.0250
  190MPD1    H6 2954   2.855   1.855  15.513 -0.8158 -0.3668  2.9307
  190MPD1    H7 2955   2.730   1.966  15.523  0.3864  0.4856 -0.3455
  191MPD1     C 2956   1.768   2.834  13.083  0.8203 -0.4429 -0.4021
  191MPD1    C1 2957   1.842   2.880  12.978  0.4520 -0.6239 -0.0330
  191MPD1    C2 2958   1.771   2.949  12.882  0.4711 -0.9887 -0.3081
  191MPD1    C3 2959   1.633   2.937  12.877  0.0815 -0.0003 -0.5072
  191MPD1    C4 2960   1.564   2.882  12.982 -0.7532 -0.1976  0.1371
  191MPD1    C5 2961   1.634   2.830  13.085 -0.1182 -0.2850  0.0603
  191MPD1     H 2962   1.820   3.007  12.805  0.1271 -0.1786  0.0788
  191MPD1    H1 2963   1.456   2.878  12.972 -0.6177  1.3696 -1.8705
  191MPD1    H2 2964   1.808   2.810  13.181 -0.9893 -0.2105  0.3917
  191MPD1    H3 2965   1.586   2.788  13.173  1.5687 -1.1162  0.5904
  191MPD1     N 2966   1.575   2.995  12.759  0.0142  0.2327  0.0317
  191MPD1    H5 2967   1.640   3.031  12.690 -1.9243  1.7065 -1.0238
  191MPD1    N1 2968   1.984   2.895  12.994 -0.7621  0.5462 -0.0669
  191MPD1    H6 2969   2.030   2.913  12.905  0.1260 -0.3255  0.2107
  191MPD1    H7 2970   2.026   2.817  13.044 -0.6942  0.1481 -0.7391
  192MPD1     C 2971   0.942   3.759  12.423 -0.2134  0.0852 -0.0855
  192MPD1    C1 2972   0.876   3.649  12.454  0.5647  0.1775  0.0982
  192MPD1    C2 2973   0.946   3.527  12.463 -0.4376  0.2515 -0.8020
  192MPD1    C3 2974   1.088   3.522  12.456  0.0587  0.0156  0.0369
  192MPD1    C4 2975   1.158   3.649  12.441  0.0156 -0.2839 -0.3510
  192MPD1    C5 2976   1.081   3.759  12.427  0.3916  0.1774  0.2033
  192MPD1     H 2977   0.888   3.436  12.474  0.0843  0.0088 -0.0427
  192MPD1    H1 2978   1.266   3.649  12.431 -0.1966 -0.8228 -2.6936
  192MPD1    H2 2979   0.890   3.855  12.422 -0.2598  0.0684  0.3602
  192MPD1    H3 2980   1.135   3.852  12.412 -0.6089  0.4627 -1.6249
  192MPD1     N 2981   1.166   3.404  12.463 -0.1825  0.9155  0.5383
  192MPD1    H5 2982   1.264   3.405  12.438 -0.9345  0.0488 -2.4255
  192MPD1    N1 2983   0.737   3.639  12.449 -0.2146 -0.0414 -0.0661
  192MPD1    H6 2984   0.706   3.594  12.535  3.4118  0.2705  1.3932
  192MPD1    H7 2985   0.698   3.733  12.448 -1.4010 -0.5407 -0.7596
  193MPD1     C 2986   0.861   3.096  16.451 -0.1158  0.1149  0.2235
  193MPD1    C1 2987   0.879   3.150  16.578  0.4371  0.6244  0.2181
  193MPD1    C2 2988   0.987   3.226  16.605  0.2219 -0.3010 -0.3691
  193MPD1    C3 2989   1.073   3.271  16.508 -0.8436 -0.0217  0.1137
  193MPD1    C4 2990   1.053   3.212  16.386  0.1800  0.1913 -0.5460
  193MPD1    C5 2991   0.954   3.123  16.357  0.6149 -0.4549  0.2756
  193MPD1     H 2992   1.012   3.248  16.708  0.1498 -0.0513 -0.4035
  193MPD1    H1 2993   1.116   3.241  16.303  2.0975 -4.0700 -0.5757
  193MPD1    H2 2994   0.788   3.016  16.438  0.3378 -0.4063  0.8547
  193MPD1    H3 2995   0.959   3.076  16.260 -2.4795  1.6484 -0.9014
  193MPD1     N 2996   1.183   3.348  16.546 -0.4636  0.6843 -0.1166
  193MPD1    H5 2997   1.202   3.366  16.644  1.2668  1.1518 -0.5351
  193MPD1    N1 2998   0.802   3.099  16.686  0.2761  0.7281  0.7081
  193MPD1    H6 2999   0.711   3.068  16.654  1.9393 -1.8923 -1.5148
  193MPD1    H7 3000   0.792   3.159  16.767 -2.7934 -1.1621  1.7296
  194MPD1     C 3001   3.917   0.878  17.154  0.6282 -1.0165  0.0713
  194MPD1    C1 3002   3.950   0.806  17.264 -0.2564 -0.5862 -0.4170
  194MPD1    C2 3003   3.977   0.674  17.245 -0.6555 -0.7112 -0.1288
  194MPD1    C3 3004   3.980   0.603  17.120  0.5377  0.6495  0.3380
  194MPD1    C4 3005   3.948   0.683  17.010 -0.3398  0.1738 -0.3182
  194MPD1    C5 3006   3.922   0.816  17.031 -0.3658  0.2193  0.1711
  194MPD1     H 3007   4.008   0.627  17.337 -1.2233  1.9936  1.4216
  194MPD1    H1 3008   3.934   0.641  16.911  0.1114 -2.0478  0.5712
  194MPD1    H2 3009   3.897   0.984  17.158 -0.4084 -1.1733 -0.8281
  194MPD1    H3 3010   3.916   0.865  16.935  2.7181 -0.8304 -0.5531
  194MPD1     N 3011   4.003   0.458  17.113 -0.5649 -0.0962 -0.5816
  194MPD1    H5 3012   4.011   0.424  17.018 -1.3237 -2.2549  0.1291
  194MPD1    N1 3013   3.922   0.858  17.396  0.6638  0.5747 -0.0035
  194MPD1    H6 3014   3.975   0.810  17.469  0.5259  0.2998 -0.0830
  194MPD1    H7 3015   3.944   0.957  17.404 -0.2448  0.9170 -1.6925
  195MPD1     C 3016   1.251   1.267   0.903 -0.6087 -0.3869  0.1931
  195MPD1    C1 3017   1.247   1.402   0.901 -0.0069 -0.6311  0.2863
  195MPD1    C2 3018   1.322   1.471   0.814 -0.0026 -0.0718 -0.9429
  195MPD1    C3 3019   1.408   1.396   0.730 -0.3801 -0.3534 -0.1137
  195MPD1    C4 3020   1.416   1.258   0.736 -0.7071 -0.3248 -0.1259
  195MPD1    C5 3021   1.329   1.194   0.823  0.1557  0.1816 -0.0664
  195MPD1     H 3022   1.317   1.579   0.819  2.5318 -0.0323  1.3774
  195MPD1    H1 3023   1.479   1.206   0.665  1.5897  1.3029  0.7088
  195MPD1    H2 3024   1.192   1.214   0.976 -1.5793  1.5725  0.8341
  195MPD1    H3 3025   1.329   1.086   0.829 -0.7174  0.1265 -1.0176
  195MPD1     N 3026   1.496   1.456   0.638  0.1304  0.2447  0.6218
  195MPD1    H5 3027   1.566   1.392   0.601 -0.5802 -0.3158  0.2327
  195MPD1    N1 3028   1.157   1.467   0.989  0.1068  0.0972 -0.4908
  195MPD1    H6 3029   1.167   1.566   1.011 -1.5683  0.3050 -0.6496
  195MPD1    H7 3030   1.134   1.415   1.074 -0.7685  0.3770 -0.5545
  196MPD1     C 3031   1.556   1.070   0.185 -0.4785 -0.0261 -0.1639
  196MPD1    C1 3032   1.500   1.183   0.133  0.0385  0.6949  0.0393
  196MPD1    C2 3033   1.407   1.255   0.201 -0.0885  0.3475  0.0816
  196MPD1    C3 3034   1.362   1.211   0.324  0.8252  0.2506 -0.4714
  196MPD1    C4 3035   1.425   1.102   0.379  0.2499 -0.2056 -0.2316
  196MPD1    C5 3036   1.515   1.026   0.314 -0.6671 -0.2296 -0.4359
  196MPD1     H 3037   1.369   1.347   0.158 -0.1296  1.4364  2.4320
  196MPD1    H1 3038   1.391   1.063   0.474  0.2802  0.1484 -0.0776
  196MPD1    H2 3039   1.629   1.010   0.131 -0.6994 -1.5639  1.2161
  196MPD1    H3 3040   1.559   0.934   0.349 -0.6993 -0.2717 -0.5060
  196MPD1     N 3041   1.255   1.279   0.390 -0.2990  0.4860 -0.1139
  196MPD1    H5 3042   1.219   1.238   0.476 -1.1841 -1.4065 -1.3688
  196MPD1    N1 3043   1.540   1.224   0.003 -0.1299 -0.1141  0.3217
  196MPD1    H6 3044   1.525   1.323  17.722  0.0881  0.2099  1.8881
  196MPD1    H7 3045   1.629   1.191  17.704 -0.8788  0.5682 -2.1818
  197MPD1     C 3046   4.562   2.760  17.218 -0.0015 -0.2107  0.3792
  197MPD1    C1 3047   4.641   2.828  17.318  0.2546 -0.6424 -0.3988
  197MPD1    C2 3048   4.685   2.959  17.288  0.0389 -0.4322  0.3638
  197MPD1    C3 3049   4.630   3.029  17.177 -0.6518 -0.5509 -0.9309
  197MPD1    C4 3050   4.546   2.959  17.089  0.6328 -0.0489 -0.5660
  197MPD1    C5 3051   4.506   2.828  17.110 -0.3845  0.1214 -0.1588
  197MPD1     H 3052   0.020   3.008  17.356  0.4596 -0.5739  0.0318
  197MPD1    H1 3053   4.495   3.011  17.009  1.2619 -1.8134 -2.1230
  197MPD1    H2 3054   4.546   2.654  17.228 -4.6902  0.5369  0.5539
  197MPD1    H3 3055   4.446   2.771  17.040  0.5183  0.5649 -1.3081
  197MPD1     N 3056   4.662   3.163  17.149  0.2554 -0.8303  0.4885
  197MPD1    H5 3057   4.633   3.207  17.062  0.3385  1.9268  1.8577
  197MPD1    N1 3058   4.681   2.762  17.438 -0.1224  0.4192  0.2664
  197MPD1    H6 3059   4.627   2.679  17.463 -1.8837  1.2686 -0.7289
  197MPD1    H7 3060   4.686   2.824  17.518  2.3015  3.2525 -2.0939
  198MPD1     C 3061   1.774   1.447  15.066 -0.5227 -0.5290  0.1891
  198MPD1    C1 3062   1.894   1.450  15.125  0.1075 -0.0785  0.2945
  198MPD1    C2 3063   1.933   1.567  15.199 -0.2845 -0.3849  0.1835
  198MPD1    C3 3064   1.845   1.663  15.216 -0.0452  0.4279 -0.2496
  198MPD1    C4 3065   1.723   1.656  15.165 -0.3496 -0.1679  0.3177
  198MPD1    C5 3066   1.683   1.548  15.084 -0.0399 -0.9666  0.3096
  198MPD1     H 3067   2.033   1.578  15.240 -0.8901  0.9521  1.2590
  198MPD1    H1 3068   1.638   1.720  15.184  1.0625  1.6193  0.5901
  198MPD1    H2 3069   1.748   1.363  15.002  0.8343 -1.4367  0.8344
  198MPD1    H3 3070   1.583   1.538  15.043  0.4244  0.2985 -1.1557
  198MPD1     N 3071   1.900   1.780  15.283 -0.4687 -0.0061  0.8804
  198MPD1    H5 3072   1.994   1.782  15.322 -0.6089 -0.2329  1.2335
  198MPD1    N1 3073   1.996   1.359  15.093  0.6381 -0.2485 -0.3752
  198MPD1    H6 3074   2.057   1.339  15.172 -0.7238  1.3610  1.0619
  198MPD1    H7 3075   1.955   1.270  15.064  1.3374  0.2871 -3.0041
  199MPD1     C 3076   4.681   3.403   9.372  0.7631  0.3216  0.1713
  199MPD1    C1 3077   4.627   3.337   9.260  0.1158 -0.0606 -0.0852
  199MPD1    C2 3078   4.498   3.285   9.282  0.0024  0.7675  0.6944
  199MPD1    C3 3079   4.442   3.286   9.407  0.3795  0.5561 -0.3673
  199MPD1    C4 3080   4.493   3.365   9.509  0.4623 -0.0042 -0.2063
  199MPD1    C5 3081   4.620   3.419   9.492  0.4398 -0.6640  0.2138
  199MPD1     H 3082   4.449   3.224   9.208  1.0775 -1.2360  1.6510
  199MPD1    H1 3083   4.439   3.390   9.599  0.9389 -0.3832  0.1887
  199MPD1    H2 3084   0.043   3.450   9.353  0.8098  0.6508  1.2279
  199MPD1    H3 3085   4.666   3.478   9.571 -1.7100 -0.6073  1.4377
  199MPD1     N 3086   4.320   3.215   9.439 -0.0137 -0.5952  0.0061
  199MPD1    H5 3087   4.295   3.214   9.537 -2.0329 -0.5824 -0.4977
  199MPD1    N1 3088   4.711   3.312   9.150 -0.1670  0.2510 -0.0080
  199MPD1    H6 3089   4.658   3.277   9.070 -1.2656 -0.3762  0.9915
  199MPD1    H7 3090   0.021   3.400   9.127 -0.6389  0.6668  0.6490
  200MPD1     C 3091   2.802   3.448  15.178  0.7549  0.3719 -0.2869
  200MPD1    C1 3092   2.777   3.416  15.047 -0.0700  0.9512  0.5796
  200MPD1    C2 3093   2.887   3.355  14.973  0.6656  0.4884  0.0863
  200MPD1    C3 3094   3.019   3.344  15.026 -0.0692 -0.1917  0.5374
  200MPD1    C4 3095   3.037   3.379  15.156 -0.0768  0.1880 -0.5513
  200MPD1    C5 3096   2.925   3.419  15.234  0.4262 -0.2197 -0.6336
  200MPD1     H 3097   2.878   3.334  14.867  0.2038 -1.3639  0.4935
  200MPD1    H1 3098   3.133   3.383  15.208 -0.1039 -2.7229 -0.3124
  200MPD1    H2 3099   2.722   3.490  15.238  1.3897  0.8221  0.2433
  200MPD1    H3 3100   2.944   3.438  15.339 -1.6424 -1.1828 -0.0944
  200MPD1     N 3101   3.122   3.304  14.938  0.0178  0.8589  0.1897
  200MPD1    H5 3102   3.098   3.270  14.845 -2.1985 -0.0080  1.1017
  200MPD1    N1 3103   2.646   3.433  14.994  0.2542  0.1908 -0.3810
  200MPD1    H6 3104   2.642   3.467  14.898 -2.6509  0.2175 -0.2528
  200MPD1    H7 3105   2.593   3.509  15.036 -0.5881 -0.4331 -0.3170
  201MPD1     C 3106   1.287   2.631  12.848  0.0613  0.2396  0.2042
  201MPD1    C1 3107   1.360   2.540  12.919  0.0269 -0.3531 -0.0640
  201MPD1    C2 3108   1.291   2.433  12.977 -0.7348 -0.5566  1.1310
  201MPD1    C3 3109   1.154   2.437  12.987 -0.7179 -0.2635 -0.3136
  201MPD1    C4 3110   1.081   2.536  12.928 -0.5021  0.1696  0.0380
  201MPD1    C5 3111   1.149   2.630  12.854  0.0833 -0.0261  0.6755
  201MPD1     H 3112   1.351   2.352  13.016 -1.0720 -1.9934 -1.3345
  201MPD1    H1 3113   0.974   2.551  12.935 -0.7894 -1.8008 -0.1484
  201MPD1    H2 3114   1.344   2.700  12.787 -1.4708  1.6602  0.3787
  201MPD1    H3 3115   1.088   2.713  12.820  0.0831  0.4957  1.9570
  201MPD1     N 3116   1.095   2.329  13.052  0.0460 -0.5979  0.3688
  201MPD1    H5 3117   1.157   2.254  13.077 -0.3303 -1.0080  0.0824
  201MPD1    N1 3118   1.502   2.548  12.916  0.6552  0.6047  0.3052
  201MPD1    H6 3119   1.535   2.517  13.007  0.1642 -0.2284  0.2054
  201MPD1    H7 3120   1.543   2.641  12.909 -0.5951  1.1035 -0.3582
  202MPD1     C 3121   0.838   2.122   8.517  0.2145  0.1969  0.2474
  202MPD1    C1 3122   0.929   2.050   8.588 -0.6485  0.2493 -0.4571
  202MPD1    C2 3123   0.916   2.069   8.722  0.4094  0.2336  0.5894
  202MPD1    C3 3124   0.858   2.176   8.780 -0.0952 -0.5632 -0.9226
  202MPD1    C4 3125   0.784   2.259   8.703 -0.1163  0.5242 -0.1128
  202MPD1    C5 3126   0.773   2.225   8.575  0.1855 -0.0778  0.1303
  202MPD1     H 3127   0.978   2.008   8.786  1.6939  1.9083  0.9422
  202MPD1    H1 3128   0.729   2.340   8.749 -1.1443 -1.5669  2.3424
  202MPD1    H2 3129   0.823   2.091   8.414 -1.1962 -1.6947  1.0063
  202MPD1    H3 3130   0.693   2.277   8.523  0.6669 -0.8056 -1.3391
  202MPD1     N 3131   0.868   2.211   8.917 -0.3319 -0.6340 -0.5300
  202MPD1    H5 3132   0.819   2.296   8.942  0.2712 -0.1428 -0.9877
  202MPD1    N1 3133   0.980   1.926   8.540 -0.0956  0.0693 -0.3576
  202MPD1    H6 3134   1.018   1.933   8.445 -0.2291 -1.7085 -0.5464
  202MPD1    H7 3135   1.064   1.901   8.590  0.1160  0.6521 -0.4233
  203MPD1     C 3136   3.344   2.485  12.371  0.8456 -0.0302 -0.0151
  203MPD1    C1 3137   3.405   2.375  12.315  0.1717  0.3922 -0.5117
  203MPD1    C2 3138   3.527   2.330  12.360 -0.0539 -0.6241 -0.0991
  203MPD1    C3 3139   3.588   2.401  12.457  0.5962 -0.2139 -0.6879
  203MPD1    C4 3140   3.536   2.516  12.510 -0.2631 -0.1398 -0.0145
  203MPD1    C5 3141   3.406   2.549  12.474  0.7448 -0.0787  0.5152
  203MPD1     H 3142   3.581   2.245  12.319 -0.2497 -0.4442 -0.7255
  203MPD1    H1 3143   3.586   2.575  12.587 -0.7581 -2.8065  2.3430
  203MPD1    H2 3144   3.251   2.527  12.333 -0.0811 -1.2163  0.9486
  203MPD1    H3 3145   3.346   2.624  12.524 -0.0157 -0.5327  0.2829
  203MPD1     N 3146   3.706   2.337  12.507 -1.0627 -0.1528 -0.7895
  203MPD1    H5 3147   3.737   2.260  12.449 -1.1755  0.3347 -1.4922
  203MPD1    N1 3148   3.343   2.290  12.206 -0.3503  0.3073  0.5876
  203MPD1    H6 3149   3.415   2.270  12.137  0.1585  1.9909  0.6367
  203MPD1    H7 3150   3.269   2.344  12.162  0.6530  2.9671  2.1756
  204MPD1     C 3151   3.861   4.421  17.691 -0.2143  0.0934  0.9499
  204MPD1    C1 3152   3.894   4.408  17.564 -0.6254 -0.1757 -0.3047
  204MPD1    C2 3153   3.933   4.283  17.519  0.4644  0.0349  0.4316
  204MPD1    C3 3154   3.943   4.172  17.605 -0.2962 -0.3090 -0.9483
  204MPD1    C4 3155   3.894   4.196  17.736 -0.0706 -0.3023 -0.6757
  204MPD1    C5 3156   3.863   4.322   0.045 -0.1954  0.3459  0.0304
  204MPD1     H 3157   3.975   4.260  17.422  1.7180 -0.7160  1.1536
  204MPD1    H1 3158   3.894   4.118   0.073 -0.0393 -1.2359 -1.6487
  204MPD1    H2 3159   3.818   4.515  17.724  0.5699  0.0372  2.1061
  204MPD1    H3 3160   3.843   4.340   0.150 -0.1759 -0.4619  0.1701
  204MPD1     N 3161   3.985   4.051  17.554 -0.1735 -0.4478  0.0263
  204MPD1    H5 3162   3.999   4.029  17.456 -1.9476 -2.1528  0.1550
  204MPD1    N1 3163   3.883   4.517  17.478  0.1630  0.1129 -0.2901
  204MPD1    H6 3164   3.957   4.504  17.409 -1.7681  1.0646 -2.5199
  204MPD1    H7 3165   3.879   4.612  17.516  2.1509 -0.0040  0.2300
  205MPD1     C 3166   3.354   2.411  17.177 -0.3674  0.9111  0.5693
  205MPD1    C1 3167   3.420   2.529  17.148 -0.2363  1.0271 -0.2456
  205MPD1    C2 3168   3.519   2.562  17.243  0.0556  0.7007  0.0374
  205MPD1    C3 3169   3.524   2.512  17.371  0.3733 -0.2659 -0.4699
  205MPD1    C4 3170   3.437   2.407  17.399  0.4707 -0.5206  0.2011
  205MPD1    C5 3171   3.357   2.364  17.304  0.1771 -0.8664  0.0418
  205MPD1     H 3172   3.597   2.631  17.211  0.9488 -0.0325  0.6561
  205MPD1    H1 3173   3.429   2.362  17.497  3.6372 -0.1535  0.6437
  205MPD1    H2 3174   3.283   2.369  17.106 -0.3719  0.3535  0.9019
  205MPD1    H3 3175   3.289   2.282  17.320  1.2987 -1.9137 -0.5569
  205MPD1     N 3176   3.617   2.557  17.469 -0.5410  0.5474 -0.0425
  205MPD1    H5 3177   3.600   2.531  17.565 -0.1311  1.5844  0.3042
  205MPD1    N1 3178   3.421   2.575  17.012  0.2038  0.0136 -0.6363
  205MPD1    H6 3179   3.443   2.674  17.008 -0.3310  0.1899  0.7632
  205MPD1    H7 3180   3.327   2.564  16.974 -0.2305 -1.9281  0.9676
  206MPD1     C 3181   4.289   0.571  16.802 -0.1583  0.8766  0.6479
  206MPD1    C1 3182   4.194   0.667  16.778  0.5191 -0.0594 -0.1663
  206MPD1    C2 3183   4.132   0.655  16.653 -0.2998  0.3766 -0.4745
  206MPD1    C3 3184   4.160   0.557  16.563  0.0745  0.2128  0.5366
  206MPD1    C4 3185   4.254   0.466  16.592 -0.4902 -0.0462  0.2185
  206MPD1    C5 3186   4.316   0.474  16.715 -0.1618  0.1117  0.6663
  206MPD1     H 3187   4.058   0.731  16.631 -1.1516  0.1769  1.6331
  206MPD1    H1 3188   4.280   0.392  16.517  1.5484  0.4889  0.4129
  206MPD1    H2 3189   4.359   0.573  16.885 -0.2505 -1.2708  0.7734
  206MPD1    H3 3190   4.395   0.405  16.746  0.1484  1.2566  2.4752
  206MPD1     N 3191   4.099   0.546  16.433  0.7620  0.1513 -0.2443
  206MPD1    H5 3192   4.135   0.477  16.368  0.0914  0.0441 -0.5044
  206MPD1    N1 3193   4.212   0.791  16.831 -0.4528 -0.1484 -0.4551
  206MPD1    H6 3194   4.236   0.787  16.930  1.0364  2.8468 -0.6937
  206MPD1    H7 3195   4.133   0.855  16.827  0.1614  0.6182 -0.3558
  207MPD1     C 3196   1.126   2.174  11.866 -0.1864  0.6284 -0.2735
  207MPD1    C1 3197   1.258   2.158  11.839  0.5116  0.3831 -0.3254
  207MPD1    C2 3198   1.328   2.263  11.780 -0.4695 -0.3164 -0.4371
  207MPD1    C3 3199   1.272   2.390  11.758 -0.1715  0.0324  0.2794
  207MPD1    C4 3200   1.142   2.409  11.801  0.0285 -0.3370 -0.0881
  207MPD1    C5 3201   1.069   2.303  11.854 -0.0752 -0.2178 -0.0015
  207MPD1     H 3202   1.424   2.233  11.739  1.3056  4.1458  0.4905
  207MPD1    H1 3203   1.096   2.507  11.792 -1.0355 -0.6765  1.5763
  207MPD1    H2 3204   1.077   2.098  11.926 -0.5798 -1.9675 -3.9286
  207MPD1    H3 3205   0.978   2.331  11.906 -1.1549 -1.7458 -1.0840
  207MPD1     N 3206   1.342   2.494  11.691  0.4456 -0.1106  0.0858
  207MPD1    H5 3207   1.292   2.578  11.663  0.3056 -0.4974 -0.8351
  207MPD1    N1 3208   1.316   2.025  11.849 -0.2190 -0.3374  0.1170
  207MPD1    H6 3209   1.271   1.961  11.914  0.8996 -0.7549  0.4957
  207MPD1    H7 3210   1.417   2.020  11.861 -0.4376 -0.4879  1.9493
  208MPD1     C 3211   4.490   1.358   0.097  0.8403 -0.1372 -0.2648
  208MPD1    C1 3212   4.605   1.426   0.133  0.0864  0.0784 -0.0148
  208MPD1    C2 3213   4.596   1.535   0.213 -0.6200 -0.3092  0.5121
  208MPD1    C3 3214   4.477   1.574   0.270  0.8215  0.0348  0.7486
  208MPD1    C4 3215   4.362   1.500   0.242 -0.4187  0.0302  0.3240
  208MPD1    C5 3216   4.372   1.388   0.162 -0.3170  0.6810  0.0687
  208MPD1     H 3217   4.688   1.588   0.235 -0.9964 -0.3398  2.1972
  208MPD1    H1 3218   4.269   1.527   0.292  1.5697  2.7587  2.4910
  208MPD1    H2 3219   4.487   1.273   0.030 -0.5144 -0.1965 -0.1349
  208MPD1    H3 3220   4.281   1.338   0.136  1.5403  0.2367 -5.4545
  208MPD1     N 3221   4.486   1.690   0.354 -1.1166  0.0258  0.3710
  208MPD1    H5 3222   4.576   1.723   0.388 -0.3366 -2.1552  0.4464
  208MPD1    N1 3223   4.720   1.428   0.049  0.7943  0.0849 -0.6167
  208MPD1    H6 3224   0.002   1.342  17.733  0.1291 -0.4406  0.0283
  208MPD1    H7 3225   0.071   1.444   0.101 -1.0299  3.8527  1.2257
  209MPD1     C 3226   2.632   2.316  12.076  0.0797 -0.0964 -0.0049
  209MPD1    C1 3227   2.510   2.345  12.026  0.7217  0.2653  0.6607
  209MPD1    C2 3228   2.500   2.396  11.897 -0.1872 -0.2895  0.0049
  209MPD1    C3 3229   2.619   2.431  11.835  0.0606  0.2429  0.4652
  209MPD1    C4 3230   2.739   2.428  11.901  0.1158  0.2722  0.3303
  209MPD1    C5 3231   2.748   2.369  12.020  0.0990  0.0868 -0.2919
  209MPD1     H 3232   2.403   2.397  11.848  0.3573 -0.3062 -1.0623
  209MPD1    H1 3233   2.834   2.469  11.868 -0.6036 -0.7617 -2.9532
  209MPD1    H2 3234   2.649   2.273  12.174  1.8277  1.4181  0.3733
  209MPD1    H3 3235   2.842   2.353  12.070  0.3786 -1.5049 -1.3342
  209MPD1     N 3236   2.610   2.469  11.698 -0.1918 -0.3937 -0.5624
  209MPD1    H5 3237   2.520   2.490  11.655  0.1671  0.1202 -1.0579
  209MPD1    N1 3238   2.397   2.290  12.092 -0.3965 -0.4020  0.2398
  209MPD1    H6 3239   2.427   2.289  12.189 -3.0126 -0.1438  1.0471
  209MPD1    H7 3240   2.323   2.359  12.079 -1.4438 -2.0501 -2.7502
  210MPD1     C 3241   3.168   2.406  10.833 -0.1533  0.5562 -0.7055
  210MPD1    C1 3242   3.049   2.466  10.803 -0.1209 -0.4059 -0.3621
  210MPD1    C2 3243   2.946   2.493  10.896  0.1044  0.0387  0.5770
  210MPD1    C3 3244   2.981   2.456  11.025  1.1242  0.3211 -0.4079
  210MPD1    C4 3245   3.102   2.394  11.061 -1.1503  0.3401 -0.2257
  210MPD1    C5 3246   3.196   2.363  10.963 -0.4369 -0.5835  0.3657
  210MPD1     H 3247   2.849   2.536  10.873 -0.0487 -0.8818 -0.5476
  210MPD1    H1 3248   3.135   2.349  11.154 -2.6749 -1.7973 -0.7157
  210MPD1    H2 3249   3.245   2.382  10.760  1.4039 -0.5054  1.2767
  210MPD1    H3 3250   3.283   2.304  10.992  0.5274  0.5333 -0.2527
  210MPD1     N 3251   2.893   2.469  11.133  0.4430  0.1368 -0.2780
  210MPD1    H5 3252   2.925   2.461  11.229  1.1438 -3.2817 -0.8102
  210MPD1    N1 3253   3.040   2.519  10.670  0.4791  0.3547 -0.2072
  210MPD1    H6 3254   2.946   2.518  10.632  1.8759 -0.3736 -3.6130
  210MPD1    H7 3255   3.093   2.473  10.597  1.7869  0.2577  0.8113
  211MPD1     C 3256   4.288   2.355  16.239 -0.4183  0.6284  0.3658
  211MPD1    C1 3257   4.346   2.476  16.209  0.3164  0.7969 -0.2195
  211MPD1    C2 3258   4.262   2.586  16.185 -0.4239  0.0885 -0.9944
  211MPD1    C3 3259   4.128   2.575  16.171 -1.2451  0.0312  0.1391
  211MPD1    C4 3260   4.068   2.446  16.186 -0.0355  0.0080 -0.0298
  211MPD1    C5 3261   4.149   2.340  16.229 -0.0376  0.7125 -0.7188
  211MPD1     H 3262   4.303   2.685  16.170 -1.8413  0.8517  0.0837
  211MPD1    H1 3263   3.963   2.431  16.167  0.0044 -1.2582  0.7277
  211MPD1    H2 3264   4.348   2.269  16.268 -0.6992 -0.1942 -1.5016
  211MPD1    H3 3265   4.098   2.247  16.250 -0.3584  0.8726 -0.7919
  211MPD1     N 3266   4.052   2.696  16.158 -0.1435 -0.7556 -0.5022
  211MPD1    H5 3267   4.097   2.786  16.167  1.7698 -1.8002  0.3365
  211MPD1    N1 3268   4.484   2.489  16.233  0.4653  0.5892 -0.0252
  211MPD1    H6 3269   4.528   2.572  16.193 -1.3966  2.0695  0.9960
  211MPD1    H7 3270   4.534   2.402  16.213 -0.7333  0.4292 -2.2942
  212MPD1     C 3271   3.673   1.129  16.585  0.0207  0.4599  0.6891
  212MPD1    C1 3272   3.708   1.002  16.588  0.2076 -0.0286 -0.6418
  212MPD1    C2 3273   3.664   0.921  16.687  0.1808  0.8190  0.6969
  212MPD1    C3 3274   3.589   0.970  16.788 -0.6216 -0.2180  0.4873
  212MPD1    C4 3275   3.549   1.097  16.781  0.3944  0.1483 -0.7805
  212MPD1    C5 3276   3.593   1.179  16.683  0.4542 -0.1089 -0.1891
  212MPD1     H 3277   3.688   0.816  16.678 -0.7625  0.8176 -1.8556
  212MPD1    H1 3278   3.492   1.141  16.863  1.2315 -0.1859 -0.0254
  212MPD1    H2 3279   3.704   1.186  16.498 -2.2021 -0.5403 -0.7605
  212MPD1    H3 3280   3.554   1.281  16.677  2.2358  0.5792  0.0809
  212MPD1     N 3281   3.529   0.888  16.885 -0.3437 -0.1768 -0.1851
  212MPD1    H5 3282   3.471   0.936  16.952  0.5676 -0.4982  0.8449
  212MPD1    N1 3283   3.775   0.951  16.471  0.4327 -0.2561 -0.0520
  212MPD1    H6 3284   3.840   1.020  16.434 -0.0273 -0.2564 -0.8525
  212MPD1    H7 3285   3.831   0.872  16.502  0.6513  0.6450  1.8673
  213MPD1     C 3286   1.469   1.156  15.807 -0.0531 -0.5561 -0.6203
  213MPD1    C1 3287   1.479   1.034  15.743 -0.0832 -0.3160 -0.0686
  213MPD1    C2 3288   1.483   1.049  15.602 -0.7691  0.5305  0.0933
  213MPD1    C3 3289   1.432   1.157  15.534 -0.2338  0.2329  0.1257
  213MPD1    C4 3290   1.397   1.269  15.608  0.1964  0.2574  0.4060
  213MPD1    C5 3291   1.409   1.265  15.746 -0.6014  0.2442  0.0324
  213MPD1     H 3292   1.517   0.966  15.542  1.1346  2.1392 -1.0381
  213MPD1    H1 3293   1.346   1.354  15.563  1.7849  0.6926 -0.5688
  213MPD1    H2 3294   1.482   1.168  15.914 -0.6209 -1.5024 -0.4488
  213MPD1    H3 3295   1.388   1.352  15.806 -0.3166 -0.5061  1.2165
  213MPD1     N 3296   1.411   1.142  15.397 -0.1856  0.3701 -0.2476
  213MPD1    H5 3297   1.434   1.051  15.358 -0.3463 -0.2077  0.9978
  213MPD1    N1 3298   1.564   0.941  15.801  0.2731  0.1012 -0.5398
  213MPD1    H6 3299   1.554   0.934  15.902 -1.2924 -1.8980 -0.8429
  213MPD1    H7 3300   1.554   0.848  15.761 -2.1133  0.3276 -0.4546
  214MPD1     C 3301   0.855   0.706  14.655 -0.0159  0.1456  0.1402
  214MPD1    C1 3302   0.838   0.703  14.794 -0.0664 -0.3651 -0.0657
  214MPD1    C2 3303   0.925   0.784  14.869  0.2885  0.0859  0.1004
  214MPD1    C3 3304   1.009   0.870  14.809  0.3147  0.0398  0.0413
  214MPD1    C4 3305   1.021   0.873  14.673  0.0717 -0.7292 -0.4403
  214MPD1    C5 3306   0.958   0.778  14.603  0.1954  0.4140  0.5144
  214MPD1     H 3307   0.917   0.786  14.977 -0.6265 -0.5597  0.0405
  214MPD1    H1 3308   1.087   0.945  14.626 -0.5483 -0.3518 -0.7304
  214MPD1    H2 3309   0.792   0.645  14.592 -1.0676 -0.3496  1.6630
  214MPD1    H3 3310   0.968   0.771  14.496 -1.7639  1.4497  0.2764
  214MPD1     N 3311   1.076   0.966  14.887  0.2194 -0.5521 -0.4576
  214MPD1    H5 3312   1.119   1.037  14.828  1.0526 -1.1795 -0.6057
  214MPD1    N1 3313   0.769   0.598  14.855 -0.5033 -0.9389 -0.7239
  214MPD1    H6 3314   0.693   0.555  14.803 -1.5165  1.9261 -1.6619
  214MPD1    H7 3315   0.732   0.619  14.947  2.9185 -2.0216  0.8996
  215MPD1     C 3316   0.562   2.386  11.910 -0.5437  0.6796 -0.2116
  215MPD1    C1 3317   0.686   2.398  11.963 -0.7238 -0.7723 -0.8592
  215MPD1    C2 3318   0.757   2.516  11.932 -0.1830  0.2206  0.4248
  215MPD1    C3 3319   0.699   2.621  11.859 -0.2872 -0.2056 -0.3317
  215MPD1    C4 3320   0.569   2.608  11.817 -0.2665  0.1792  1.0639
  215MPD1    C5 3321   0.509   2.485  11.834 -0.6418  0.2366 -0.4896
  215MPD1     H 3322   0.853   2.530  11.982  0.6030 -1.1466 -0.6952
  215MPD1    H1 3323   0.517   2.684  11.760  1.7529  0.6987 -0.0561
  215MPD1    H2 3324   0.504   2.295  11.918  0.8409 -0.1601  0.1703
  215MPD1    H3 3325   0.413   2.465  11.789 -0.2464  0.5801 -1.4765
  215MPD1     N 3326   0.781   2.738  11.848  0.5497 -0.1021  0.0563
  215MPD1    H5 3327   0.874   2.733  11.887  0.4829 -0.0829  0.2180
  215MPD1    N1 3328   0.748   2.292  12.027 -0.0733  0.6403 -0.1746
  215MPD1    H6 3329   0.671   2.241  12.070 -0.9097  1.0104 -1.2651
  215MPD1    H7 3330   0.812   2.327  12.098 -0.5225  0.6650  0.2123
  216MPD1     C 3331   4.542   1.148   0.881 -0.0442  0.8703 -1.0892
  216MPD1    C1 3332   4.589   1.018   0.875 -0.0664  0.2876  0.6837
  216MPD1    C2 3333   4.495   0.919   0.873  0.0107 -0.6156  0.5685
  216MPD1    C3 3334   4.360   0.944   0.901 -0.1610  0.1482  0.3666
  216MPD1    C4 3335   4.312   1.078   0.898 -0.4692 -0.9132 -0.3135
  216MPD1    C5 3336   4.402   1.176   0.898  0.1274 -0.1810  0.5989
  216MPD1     H 3337   4.528   0.816   0.867  0.1823 -0.7748  4.0159
  216MPD1    H1 3338   4.208   1.105   0.907 -0.6582 -2.1990  1.3869
  216MPD1    H2 3339   4.611   1.230   0.860  0.9502 -0.0266 -1.3052
  216MPD1    H3 3340   4.364   1.278   0.893 -1.3831 -0.9690 -4.0542
  216MPD1     N 3341   4.272   0.835   0.906 -0.0848 -0.4007 -0.0824
  216MPD1    H5 3342   4.318   0.744   0.904  0.7961  0.0068  2.1162
  216MPD1    N1 3343   4.723   0.985   0.853 -0.3419 -0.0850  0.3027
  216MPD1    H6 3344   0.047   1.051   0.903  0.1872 -1.2247  1.1935
  216MPD1    H7 3345   0.003   0.890   0.886 -2.3632 -0.1189  1.0452
  217MPD1     C 3346   4.370   1.174   8.507 -0.4288  0.4616 -0.4865
  217MPD1    C1 3347   4.504   1.204   8.532  0.8706  0.8592  1.0063
  217MPD1    C2 3348   4.545   1.338   8.540  0.1302  1.1886  0.4977
  217MPD1    C3 3349   4.453   1.436   8.529  0.2350 -0.0840  0.2344
  217MPD1    C4 3350   4.326   1.408   8.506 -0.3640  0.0136  0.5387
  217MPD1    C5 3351   4.280   1.278   8.482 -0.4588 -0.2082  0.4256
  217MPD1     H 3352   4.648   1.365   8.561 -0.0612  1.2191  1.3995
  217MPD1    H1 3353   4.256   1.490   8.497  0.7738  1.0590  1.2208
  217MPD1    H2 3354   4.325   1.076   8.514 -0.9624  0.9065  2.0934
  217MPD1    H3 3355   4.177   1.253   8.461  0.0268 -1.6335 -0.2208
  217MPD1     N 3356   4.494   1.573   8.532  0.6831 -0.4982  0.4232
  217MPD1    H5 3357   4.417   1.639   8.537  1.6367  0.7534 -1.5276
  217MPD1    N1 3358   4.596   1.095   8.571  0.2096  0.3653  0.4601
  217MPD1    H6 3359   4.572   1.002   8.540 -0.8265  1.0114 -0.6808
  217MPD1    H7 3360   4.693   1.116   8.549  0.4133 -1.2195 -0.0998
  218MPD1     C 3361   0.649   3.080  12.548 -0.0705  0.0145  0.5337
  218MPD1    C1 3362   0.634   2.954  12.591  0.6587 -0.5189  0.1921
  218MPD1    C2 3363   0.739   2.866  12.591 -0.7032 -0.7394 -0.0122
  218MPD1    C3 3364   0.852   2.892  12.516  0.2369  0.5981 -0.2324
  218MPD1    C4 3365   0.858   3.016  12.452  0.8372 -0.2412  0.6090
  218MPD1    C5 3366   0.764   3.109  12.478 -0.3057 -0.4066  0.1259
  218MPD1     H 3367   0.736   2.780  12.657  0.3599 -0.5934  0.2279
  218MPD1    H1 3368   0.941   3.048  12.390 -0.7200  1.3227 -0.6769
  218MPD1    H2 3369   0.576   3.160  12.544 -0.8330 -0.8787 -3.3399
  218MPD1    H3 3370   0.769   3.208  12.433 -0.9022 -0.5729 -0.3003
  218MPD1     N 3371   0.950   2.794  12.515 -0.8295  0.2690  0.1948
  218MPD1    H5 3372   0.934   2.712  12.573 -0.3914  0.2826  0.3416
  218MPD1    N1 3373   0.513   2.927  12.668  0.3068 -0.4522 -0.0873
  218MPD1    H6 3374   0.437   2.983  12.630 -0.7735 -0.6191  1.8538
  218MPD1    H7 3375   0.484   2.830  12.670  0.7975 -0.5827  0.5755
  219MPD1     C 3376   1.963   2.863  12.295  0.5064  1.0269  0.1206
  219MPD1    C1 3377   1.936   2.798  12.415 -0.4902  0.3092 -0.1230
  219MPD1    C2 3378   1.812   2.755  12.442  0.3117  0.1252 -0.1969
  219MPD1    C3 3379   1.706   2.791  12.362 -0.4531 -0.4826 -0.0536
  219MPD1    C4 3380   1.730   2.854  12.243  0.1694 -0.5688  0.1379
  219MPD1    C5 3381   1.856   2.880  12.207  0.8018 -0.6631  0.9975
  219MPD1     H 3382   1.804   2.694  12.532  1.9118  0.2125  0.0074
  219MPD1    H1 3383   1.651   2.874  12.172 -0.7635 -1.2751  0.9762
  219MPD1    H2 3384   2.063   2.896  12.268  0.8955 -1.0554 -1.0223
  219MPD1    H3 3385   1.871   2.931  12.113 -0.2607 -2.1762  0.0058
  219MPD1     N 3386   1.572   2.756  12.383  0.4069  0.1516  0.2917
  219MPD1    H5 3387   1.510   2.793  12.311  0.4938  0.7973  0.5475
  219MPD1    N1 3388   2.041   2.756  12.500 -0.3165 -0.3179 -0.1382
  219MPD1    H6 3389   2.116   2.823  12.515 -0.9743  0.2816  0.4244
  219MPD1    H7 3390   2.017   2.725  12.594  0.7101  1.3976  0.6870
  220MPD1     C 3391   0.185   2.477  11.402  1.2599  0.8271  0.2730
  220MPD1    C1 3392   0.296   2.510  11.328  0.5587 -0.4373  0.3295
  220MPD1    C2 3393   0.289   2.631  11.256 -0.1825  0.0597  0.0831
  220MPD1    C3 3394   0.167   2.695  11.234 -0.0848 -1.3445  0.1502
  220MPD1    C4 3395   0.057   2.646  11.296  0.3878  0.2306 -0.4266
  220MPD1    C5 3396   0.074   2.549  11.389  0.8722 -0.5215  0.1234
  220MPD1     H 3397   0.374   2.666  11.199  0.7443 -1.8436  0.2874
  220MPD1    H1 3398   4.693   2.688  11.281 -0.0008 -1.0722 -1.5655
  220MPD1    H2 3399   0.182   2.398  11.476  1.9859 -0.6541 -1.2597
  220MPD1    H3 3400   4.720   2.509  11.438  0.6707 -2.0751 -1.4900
  220MPD1     N 3401   0.160   2.814  11.163  0.0611 -0.0881 -0.3613
  220MPD1    H5 3402   0.247   2.842  11.118  1.0534  2.4403  3.1047
  220MPD1    N1 3403   0.417   2.448  11.349 -0.3256 -0.3939  0.5050
  220MPD1    H6 3404   0.409   2.352  11.381 -0.8354 -0.3145  0.6141
  220MPD1    H7 3405   0.482   2.450  11.270  0.0207 -1.1685  0.7731
  221MPD1     C 3406   4.646   1.264  16.370 -0.4876 -0.1733 -0.7155
  221MPD1    C1 3407   4.663   1.397  16.363 -0.0589  0.4240  0.6030
  221MPD1    C2 3408   4.551   1.479  16.338 -0.0707  0.1097  0.2873
  221MPD1    C3 3409   4.429   1.428  16.302  0.2675  0.0858  0.1515
  221MPD1    C4 3410   4.419   1.292  16.304  0.3976  0.0836 -0.1657
  221MPD1    C5 3411   4.523   1.210  16.345  0.0378  0.1295 -0.4926
  221MPD1     H 3412   4.566   1.586  16.336 -0.0922  0.1157  0.3952
  221MPD1    H1 3413   4.330   1.242  16.265  0.3182 -0.8105  1.1506
  221MPD1    H2 3414   4.731   1.197  16.366 -0.8428 -0.7357  0.8317
  221MPD1    H3 3415   4.509   1.104  16.329 -1.4490  0.3507 -0.7134
  221MPD1     N 3416   4.320   1.499  16.255  0.3150 -0.0658 -0.3080
  221MPD1    H5 3417   4.237   1.442  16.249  0.3461 -0.2537  1.0442
  221MPD1    N1 3418   0.055   1.455  16.366  0.0410  0.4781 -0.0766
  221MPD1    H6 3419   0.122   1.404  16.422  0.5258 -0.5747 -1.6378
  221MPD1    H7 3420   0.056   1.553  16.395 -1.1254  0.3343  0.4901
  222MPD1     C 3421   2.061   1.830   1.196 -0.3477 -0.5730 -0.1665
  222MPD1    C1 3422   2.181   1.770   1.161 -1.2223  0.1788  0.2805
  222MPD1    C2 3423   2.248   1.797   1.043 -0.3854 -0.2145  0.0800
  222MPD1    C3 3424   2.188   1.891   0.961 -0.0125 -0.0205 -0.1856
  222MPD1    C4 3425   2.067   1.953   0.995  0.0420  0.4957 -0.0691
  222MPD1    C5 3426   2.007   1.926   1.114  0.2721  0.1738  0.2056
  222MPD1     H 3427   2.340   1.751   1.008 -0.5250  0.2668 -0.9472
  222MPD1    H1 3428   2.015   2.027   0.934 -0.0721 -0.4019 -1.0498
  222MPD1    H2 3429   2.016   1.803   1.290 -0.1603  0.6486  0.2625
  222MPD1    H3 3430   1.915   1.977   1.138  0.8696  0.5525  1.6793
  222MPD1     N 3431   2.237   1.928   0.833 -0.1099 -0.0103  0.1530
  222MPD1    H5 3432   2.177   1.994   0.783 -1.1916 -0.3325  1.0290
  222MPD1    N1 3433   2.227   1.664   1.241 -0.0151 -0.0764 -0.1260
  222MPD1    H6 3434   2.329   1.662   1.244 -0.0846 -1.0865  1.8101
  222MPD1    H7 3435   2.200   1.689   1.336 -0.4131  1.4982 -0.6546
  223MPD1     C 3436   1.727   2.202   0.210  0.4775  0.2209 -0.8309
  223MPD1    C1 3437   1.738   2.227   0.345  0.1537 -0.4047 -0.1815
  223MPD1    C2 3438   1.862   2.196   0.407  0.1213  0.0483 -0.2898
  223MPD1    C3 3439   1.968   2.136   0.338  0.2308  0.6585 -0.0703
  223MPD1    C4 3440   1.954   2.120   0.203  0.0413 -0.0523 -0.2544
  223MPD1    C5 3441   1.838   2.159   0.139 -0.4894  0.2113  0.3090
  223MPD1     H 3442   1.868   2.208   0.515  0.0048 -0.2477 -0.2498
  223MPD1    H1 3443   2.026   2.082   0.131 -1.9138 -3.8234 -0.2633
  223MPD1    H2 3444   1.630   2.212   0.161 -0.0510 -0.4604  0.0861
  223MPD1    H3 3445   1.828   2.130   0.035  0.8980  1.7777 -0.2620
  223MPD1     N 3446   2.087   2.105   0.408  0.3596  0.1110 -0.1033
  223MPD1    H5 3447   2.104   2.139   0.502 -1.7401 -0.7648  0.5785
  223MPD1    N1 3448   1.622   2.245   0.420 -0.1189 -0.3098  0.7938
  223MPD1    H6 3449   1.546   2.286   0.367  1.8375  1.5696 -0.5883
  223MPD1    H7 3450   1.639   2.300   0.504  2.2731  0.7796 -0.4030
  224MPD1     C 3451   3.987   2.666   8.864 -0.6737  0.2182 -0.0053
  224MPD1    C1 3452   4.092   2.578   8.871 -0.7023 -0.7866  0.0166
  224MPD1    C2 3453   4.204   2.621   8.944 -0.0601  0.2227  0.3085
  224MPD1    C3 3454   4.209   2.744   9.007 -0.6733 -0.4858  0.1653
  224MPD1    C4 3455   4.101   2.825   8.996 -0.0520  0.1339  0.5085
  224MPD1    C5 3456   3.992   2.790   8.927  0.7455  0.5238 -0.0330
  224MPD1     H 3457   4.283   2.549   8.964  0.6792  1.0278  0.3133
  224MPD1    H1 3458   4.099   2.922   9.046  0.3779  2.0961 -3.2388
  224MPD1    H2 3459   3.894   2.643   8.813 -0.7649  0.0044  0.2564
  224MPD1    H3 3460   3.901   2.848   8.941 -0.1888 -1.1586  0.8186
  224MPD1     N 3461   4.315   2.777   9.093  0.2587  0.1222  0.1527
  224MPD1    H5 3462   4.300   2.852   9.160 -0.6214 -1.9361  2.2402
  224MPD1    N1 3463   4.082   2.450   8.829  0.5953 -0.5522  0.1964
  224MPD1    H6 3464   4.175   2.419   8.803  0.1378 -1.2994 -0.5422
  224MPD1    H7 3465   4.013   2.428   8.757 -0.9181  2.0709  0.8167
  225MPD1     C 3466   1.198   3.884  12.911 -0.0885  0.4344  0.1265
  225MPD1    C1 3467   1.116   3.935  13.010  0.3556 -0.1409 -0.1018
  225MPD1    C2 3468   0.978   3.914  12.988 -0.2972 -0.0452  0.1332
  225MPD1    C3 3469   0.926   3.888  12.864  0.5423  0.1612  0.3785
  225MPD1    C4 3470   1.014   3.852  12.761  0.2584  0.7993  0.1634
  225MPD1    C5 3471   1.146   3.844  12.790 -0.1623  0.3444  0.5531
  225MPD1     H 3472   0.922   3.947  13.075 -0.4415 -0.3841  0.1696
  225MPD1    H1 3473   0.977   3.824  12.663  1.0435  0.3124  0.0060
  225MPD1    H2 3474   1.304   3.864  12.926  0.2337  2.4140  0.4766
  225MPD1    H3 3475   1.212   3.795  12.720 -1.3301 -0.8688  0.3063
  225MPD1     N 3476   0.792   3.885  12.837  0.4862  0.0587  0.0026
  225MPD1    H5 3477   0.763   3.861  12.743  3.0376 -2.2212 -0.2104
  225MPD1    N1 3478   1.154   3.942  13.142  0.0803 -0.0163 -0.3338
  225MPD1    H6 3479   1.245   3.985  13.151 -0.0136  0.1167 -0.0137
  225MPD1    H7 3480   1.087   4.008  13.182 -2.1919 -2.2826 -0.3535
  226MPD1     C 3481   4.528   3.827   9.391 -0.3870 -0.5776  0.2604
  226MPD1    C1 3482   4.555   3.740   9.294  0.3042 -0.5862  0.2673
  226MPD1    C2 3483   4.454   3.658   9.250 -0.4300  1.4276  0.4273
  226MPD1    C3 3484   4.337   3.661   9.325 -0.0345  0.6462  0.0449
  226MPD1    C4 3485   4.313   3.751   9.429 -0.5286 -0.1561  0.2763
  226MPD1    C5 3486   4.411   3.841   9.455  0.4053 -0.3416 -0.1128
  226MPD1     H 3487   4.456   3.598   9.160 -0.2972  1.6209  0.3003
  226MPD1    H1 3488   4.215   3.776   9.468 -2.2302 -1.5569 -3.0289
  226MPD1    H2 3489   4.597   3.907   9.416 -0.1645 -0.7079  0.0628
  226MPD1    H3 3490   4.404   3.915   9.534 -3.7184  0.2384 -1.0276
  226MPD1     N 3491   4.238   3.562   9.285  0.3722 -0.3291 -0.2797
  226MPD1    H5 3492   4.257   3.515   9.198 -0.6000 -0.2550 -0.5326
  226MPD1    N1 3493   4.680   3.748   9.231 -0.6115  0.1002 -0.0087
  226MPD1    H6 3494   0.021   3.782   9.291 -1.8635 -0.1709  1.7083
  226MPD1    H7 3495   4.719   3.657   9.205  2.0535  1.4404 -0.6917
  227MPD1     C 3496   3.278   3.413   9.613 -0.1312  0.6019  0.4279
  227MPD1    C1 3497   3.368   3.513   9.641 -0.0965 -0.1414  0.2984
  227MPD1    C2 3498   3.480   3.522   9.562  0.0338  0.2626  0.4278
  227MPD1    C3 3499   3.517   3.422   9.483 -0.4421  0.8134  1.2550
  227MPD1    C4 3500   3.431   3.312   9.464 -0.3767 -0.4177  0.4614
  227MPD1    C5 3501   3.311   3.311   9.529  0.0982  0.1490 -0.2100
  227MPD1     H 3502   3.553   3.602   9.567 -1.5784  1.6367  1.8730
  227MPD1    H1 3503   3.458   3.223   9.408 -0.7226  0.2784 -0.8222
  227MPD1    H2 3504   3.189   3.394   9.672 -0.8173  2.0326 -0.1563
  227MPD1    H3 3505   3.246   3.225   9.514  1.2055 -0.9677  1.3614
  227MPD1     N 3506   3.642   3.428   9.417 -0.0990  0.7350  0.2337
  227MPD1    H5 3507   3.705   3.507   9.429  0.8400  0.2898 -1.9515
  227MPD1    N1 3508   3.340   3.619   9.730 -0.0997 -1.0219 -0.3510
  227MPD1    H6 3509   3.287   3.590   9.812 -1.6874 -0.3083 -1.1129
  227MPD1    H7 3510   3.417   3.675   9.765 -0.5016 -1.8798  1.8757
  228MPD1     C 3511   2.486   1.058  12.917  0.0954 -0.0029  0.2334
  228MPD1    C1 3512   2.448   0.928  12.922  0.4196 -0.5724  1.0806
  228MPD1    C2 3513   2.322   0.892  12.957 -0.5992  0.8016 -0.0196
  228MPD1    C3 3514   2.222   0.997  12.967 -0.3667 -0.7100 -0.7614
  228MPD1    C4 3515   2.254   1.127  12.948  0.1382  0.9433 -0.0325
  228MPD1    C5 3516   2.391   1.160  12.927  0.0321 -0.0761  0.8108
  228MPD1     H 3517   2.292   0.789  12.971 -0.2771  0.4461 -2.0344
  228MPD1    H1 3518   2.175   1.199  12.959 -0.3985  0.7883 -2.8286
  228MPD1    H2 3519   2.590   1.074  12.893 -0.3629 -0.3044 -1.9543
  228MPD1    H3 3520   2.425   1.262  12.912  2.6844 -1.0684  0.2053
  228MPD1     N 3521   2.093   0.946  12.991  0.0470 -0.5771 -0.3541
  228MPD1    H5 3522   2.074   0.847  12.997 -0.0058 -0.6004 -0.9544
  228MPD1    N1 3523   2.541   0.826  12.907  0.5269 -0.2132  0.2118
  228MPD1    H6 3524   2.506   0.731  12.895 -0.2276  0.0836  0.0388
  228MPD1    H7 3525   2.620   0.856  12.851 -2.2890  3.1026 -2.0077
  229MPD1     C 3526   2.055   4.591  15.233 -0.6160 -0.4898  0.1551
  229MPD1    C1 3527   2.123   4.602  15.351  0.4088  0.0640 -0.3979
  229MPD1    C2 3528   2.228   4.514  15.382  0.3552 -0.4082 -0.5766
  229MPD1    C3 3529   2.266   4.425  15.289 -0.2147 -0.1840 -0.2974
  229MPD1    C4 3530   2.196   4.416  15.174 -0.5400 -0.5270 -0.3749
  229MPD1    C5 3531   2.091   4.495  15.142 -0.0179  0.1372 -0.1990
  229MPD1     H 3532   2.277   4.530  15.478  2.2527 -0.1030 -1.5896
  229MPD1    H1 3533   2.219   4.335  15.106 -0.4393 -0.5658 -0.2939
  229MPD1    H2 3534   1.978   4.663  15.205  0.0211  0.0283 -0.2517
  229MPD1    H3 3535   2.046   4.479  15.045 -0.8787  0.0069  0.2284
  229MPD1     N 3536   2.368   4.332  15.309 -0.1318  0.6136 -0.1188
  229MPD1    H5 3537   2.377   4.249  15.252 -0.7092  0.2047  0.3785
  229MPD1    N1 3538   2.090   4.714  15.432 -0.7198 -0.3558 -0.6018
  229MPD1    H6 3539   1.990   4.728  15.441 -0.6655  0.8050 -1.6229
  229MPD1    H7 3540   2.124   4.704  15.527 -0.7548  0.2028 -0.5267
  230MPD1     C 3541   3.130   3.899  15.990 -0.0470  0.3604  0.5348
  230MPD1    C1 3542   3.117   3.803  15.889 -0.3281  0.0864 -0.2524
  230MPD1    C2 3543   3.054   3.848  15.767  0.1480 -0.0731 -0.0140
  230MPD1    C3 3544   2.981   3.966  15.767  0.2478  0.0289 -0.3907
  230MPD1    C4 3545   2.979   4.046  15.876 -0.0500  0.2589  0.7565
  230MPD1    C5 3546   3.057   4.008  15.981  0.1995 -0.4458 -0.0385
  230MPD1     H 3547   3.055   3.777  15.685 -2.9562  0.9083 -0.9038
  230MPD1    H1 3548   2.932   4.143  15.882  0.8141  0.7654 -0.7383
  230MPD1    H2 3549   3.179   3.873  16.083  1.5821 -2.0124 -0.9616
  230MPD1    H3 3550   3.051   4.062  16.075  1.4729 -1.3668  0.5584
  230MPD1     N 3551   2.906   3.996  15.655  0.4554  0.2534  0.0950
  230MPD1    H5 3552   2.912   3.930  15.578  1.1560 -1.4279  1.5891
  230MPD1    N1 3553   3.186   3.681  15.905 -0.3759 -0.2714 -0.2045
  230MPD1    H6 3554   3.169   3.649  16.000 -0.5429  0.6438  0.0720
  230MPD1    H7 3555   3.158   3.608  15.840 -1.7247  1.5157 -1.6499
  231MPD1     C 3556   0.620   1.486  15.978 -0.0993  0.0457 -0.2841
  231MPD1    C1 3557   0.591   1.610  15.925 -0.3383  0.3147 -0.1061
  231MPD1    C2 3558   0.636   1.636  15.797 -0.1219 -0.4252 -0.3717
  231MPD1    C3 3559   0.682   1.536  15.714  0.0419 -0.3049 -0.6542
  231MPD1    C4 3560   0.716   1.411  15.769  0.0093 -0.1674  0.3334
  231MPD1    C5 3561   0.690   1.395  15.904  0.8046 -0.0960 -0.7854
  231MPD1     H 3562   0.617   1.736  15.759 -1.3651 -0.2536  0.7235
  231MPD1    H1 3563   0.761   1.339  15.702  0.8457 -1.7097  2.5496
  231MPD1    H2 3564   0.602   1.457  16.081  0.5675  3.1962  0.7095
  231MPD1    H3 3565   0.710   1.296  15.944 -0.5351 -1.3200 -3.1166
  231MPD1     N 3566   0.686   1.558  15.574  0.1241  0.2235  0.4073
  231MPD1    H5 3567   0.663   1.652  15.544 -1.7364  0.3941  2.4240
  231MPD1    N1 3568   0.528   1.702  16.004 -0.2299 -0.1524 -0.9063
  231MPD1    H6 3569   0.460   1.656  16.064 -0.9690  0.8383 -0.9784
  231MPD1    H7 3570   0.481   1.773  15.948 -0.3246 -0.2419 -0.9408
  232MPD1     C 3571   3.191   3.883   0.309 -0.0019 -0.3162  0.4055
  232MPD1    C1 3572   3.093   3.979   0.299 -0.0271  0.2629 -0.4716
  232MPD1    C2 3573   2.963   3.946   0.288  0.0505 -0.3265 -0.2339
  232MPD1    C3 3574   2.921   3.816   0.270 -0.1932 -0.1288  0.2376
  232MPD1    C4 3575   3.018   3.719   0.280 -0.0246  0.3117 -0.1013
  232MPD1    C5 3576   3.150   3.753   0.300 -0.5856  0.2291  0.3633
  232MPD1     H 3577   2.892   4.026   0.275  1.3536  1.3261  2.8219
  232MPD1    H1 3578   2.988   3.615   0.290 -1.8334  1.0004  1.8302
  232MPD1    H2 3579   3.297   3.904   0.300 -0.2964  1.9394  1.8423
  232MPD1    H3 3580   3.229   3.679   0.302  0.6850  1.5447 -0.4975
  232MPD1     N 3581   2.784   3.797   0.240  0.1446 -0.2613  1.0919
  232MPD1    H5 3582   2.725   3.879   0.233  2.1787  1.1483  0.3740
  232MPD1    N1 3583   3.121   4.118   0.324 -0.4709 -0.2338  0.4224
  232MPD1    H6 3584   3.222   4.136   0.317 -0.6477  0.4145 -0.4686
  232MPD1    H7 3585   3.067   4.189   0.275  2.9087  2.2282  0.2253
  233MPD1     C 3586   3.624   2.546   2.273 -0.0809  0.2267  0.2906
  233MPD1    C1 3587   3.596   2.517   2.144  0.7421  0.3790 -0.0661
  233MPD1    C2 3588   3.701   2.546   2.057 -0.5847  0.0647 -0.2529
  233MPD1    C3 3589   3.828   2.582   2.096  0.0580  0.0382  0.1429
  233MPD1    C4 3590   3.851   2.596   2.233  0.2646 -0.1176  0.7454
  233MPD1    C5 3591   3.746   2.580   2.319  0.2451  0.0759 -0.0606
  233MPD1     H 3592   3.677   2.516   1.955 -0.2822  1.2837 -0.6805
  233MPD1    H1 3593   3.937   2.641   2.282  0.1527  0.4217  0.4408
  233MPD1    H2 3594   3.540   2.550   2.341  0.0244 -1.4742  0.5418
  233MPD1    H3 3595   3.765   2.617   2.420  1.5179  0.0094 -0.2826
  233MPD1     N 3596   3.944   2.586   2.011  0.9487 -0.1262 -0.7701
  233MPD1    H5 3597   4.035   2.600   2.054  0.1868  0.7882  0.5682
  233MPD1    N1 3598   3.463   2.494   2.103  0.1832 -0.6387 -0.1535
  233MPD1    H6 3599   3.464   2.455   2.009  0.1351 -2.9394  0.7770
  233MPD1    H7 3600   3.429   2.418   2.162 -0.5092 -0.5263 -0.4024
  234MPD1     C 3601   0.812   1.245   9.325  0.2373  1.3815  0.1717
  234MPD1    C1 3602   0.746   1.289   9.212 -0.5355 -0.4116 -0.2080
  234MPD1    C2 3603   0.729   1.427   9.189  0.0791  0.0836  0.9009
  234MPD1    C3 3604   0.772   1.514   9.281 -0.1487 -0.1212  0.4992
  234MPD1    C4 3605   0.840   1.472   9.391 -0.5629  0.5073  0.1209
  234MPD1    C5 3606   0.870   1.337   9.410 -0.7301  0.3871 -0.1401
  234MPD1     H 3607   0.674   1.461   9.102 -2.0744 -2.1415  1.3697
  234MPD1    H1 3608   0.871   1.538   9.472  2.2475  0.3202 -0.7749
  234MPD1    H2 3609   0.836   1.141   9.343 -1.1583  1.1278  0.5841
  234MPD1    H3 3610   0.929   1.308   9.496 -0.2503  1.7020 -0.0240
  234MPD1     N 3611   0.748   1.650   9.256 -0.4373 -0.1390 -0.2395
  234MPD1    H5 3612   0.675   1.663   9.187 -0.6502  2.5753  0.4966
  234MPD1    N1 3613   0.700   1.199   9.114  0.2164 -0.1829  0.5862
  234MPD1    H6 3614   0.696   1.100   9.139 -0.8293  0.3621  2.5048
  234MPD1    H7 3615   0.632   1.236   9.048  1.1860  0.6148  0.0229
  235MPD1     C 3616   2.322   3.594  10.870 -0.7508  0.3846  0.7113
  235MPD1    C1 3617   2.407   3.636  10.770 -0.0902 -0.2672 -0.2614
  235MPD1    C2 3618   2.353   3.699  10.659 -1.0498 -0.3594 -0.2186
  235MPD1    C3 3619   2.216   3.713  10.630  0.6255 -0.4942  0.3463
  235MPD1    C4 3620   2.132   3.655  10.724 -0.1223 -0.0854 -0.4141
  235MPD1    C5 3621   2.188   3.611  10.842  0.3871 -0.2406  0.1840
  235MPD1     H 3622   2.417   3.753  10.590 -1.9513 -0.5307 -1.1959
  235MPD1    H1 3623   2.026   3.638  10.708 -0.3920  1.0903  0.0968
  235MPD1    H2 3624   2.347   3.531  10.954 -1.4913  1.3917  1.6966
  235MPD1    H3 3625   2.115   3.551  10.894  0.3793 -0.5356 -0.1704
  235MPD1     N 3626   2.176   3.774  10.513 -0.4102 -0.1971 -0.7294
  235MPD1    H5 3627   2.255   3.812  10.461  1.0219 -1.1738  0.7442
  235MPD1    N1 3628   2.541   3.642  10.789 -0.1479 -0.2603 -0.2528
  235MPD1    H6 3629   2.597   3.647  10.704  1.1031 -2.7609  0.4235
  235MPD1    H7 3630   2.576   3.563  10.842  0.3502 -0.6760 -1.2087
  236MPD1     C 3631   0.611   0.088   9.336 -0.8348 -0.4148  0.5744
  236MPD1    C1 3632   0.604   4.701   9.403 -0.2581  0.2245  0.4808
  236MPD1    C2 3633   0.700   4.675   9.502  0.3037 -0.9075  0.4747
  236MPD1    C3 3634   0.769   0.045   9.557 -0.3275 -0.0274 -0.0061
  236MPD1    C4 3635   0.765   0.170   9.491 -0.6528  0.3679  0.5928
  236MPD1    C5 3636   0.687   0.193   9.382 -0.4441 -0.1336  0.1102
  236MPD1     H 3637   0.687   4.583   9.558  0.1847 -0.7911  0.6373
  236MPD1    H1 3638   0.820   0.252   9.536 -0.3037 -0.0510  0.9169
  236MPD1    H2 3639   0.560   0.109   9.243 -2.4392 -0.7262  1.3900
  236MPD1    H3 3640   0.684   0.296   9.348  0.4901  0.2259  1.1183
  236MPD1     N 3641   0.862   0.034   9.666  0.2682 -0.0938  0.0557
  236MPD1    H5 3642   0.911   0.118   9.692  0.7745  0.3401 -2.3340
  236MPD1    N1 3643   0.528   4.596   9.352  0.2965 -0.0688  0.2191
  236MPD1    H6 3644   0.513   4.522   9.420 -1.9873  1.0235  0.9046
  236MPD1    H7 3645   0.441   4.627   9.308 -0.3879  0.2355  1.8117
  237MPD1     C 3646   1.508   3.035  14.960 -0.3560 -0.5376  0.6235
  237MPD1    C1 3647   1.531   2.933  15.046 -0.1556  0.2525 -0.6079
  237MPD1    C2 3648   1.423   2.869  15.106 -0.1087 -0.3462  0.4264
  237MPD1    C3 3649   1.297   2.913  15.082 -0.0888 -0.1227  0.8925
  237MPD1    C4 3650   1.275   3.024  15.000 -0.5276  0.2921 -0.6977
  237MPD1    C5 3651   1.382   3.084  14.944  0.5604 -0.0490  0.3420
  237MPD1     H 3652   1.447   2.783  15.167  1.0932  1.0739  1.9822
  237MPD1    H1 3653   1.175   3.065  14.984 -0.7962  0.3680  1.1341
  237MPD1    H2 3654   1.582   3.089  14.903 -1.5036  0.6646  0.2625
  237MPD1    H3 3655   1.370   3.171  14.881  0.0366 -0.3813 -0.0179
  237MPD1     N 3656   1.180   2.847  15.130  0.1932 -0.4058 -0.6470
  237MPD1    H5 3657   1.098   2.874  15.076  0.6143  0.6396 -0.7518
  237MPD1    N1 3658   1.661   2.872  15.051  0.1116  0.1277  0.5840
  237MPD1    H6 3659   1.741   2.927  15.020  0.3346  0.3334  1.5375
  237MPD1    H7 3660   1.684   2.836  15.143 -0.0684  0.1351  0.6318
  238MPD1     C 3661   2.991   0.832  14.863  0.4039 -0.5991  0.2745
  238MPD1    C1 3662   2.887   0.743  14.865 -0.1897 -1.0714  0.6143
  238MPD1    C2 3663   2.763   0.795  14.854  0.6692  0.3850  0.0028
  238MPD1    C3 3664   2.739   0.919  14.808 -0.2119  0.0924 -0.2294
  238MPD1    C4 3665   2.841   1.007  14.805  0.1401  0.6607 -0.3859
  238MPD1    C5 3666   2.969   0.963  14.827  1.0777  0.0905 -1.1502
  238MPD1     H 3667   2.680   0.726  14.867  1.2861 -0.3425  0.0170
  238MPD1    H1 3668   2.826   1.111  14.779 -0.4416  0.1616 -2.0635
  238MPD1    H2 3669   3.093   0.801  14.886  1.4251 -0.0098 -3.4571
  238MPD1    H3 3670   3.059   1.024  14.826  1.4984 -0.5062  0.7381
  238MPD1     N 3671   2.611   0.967  14.771 -0.1565  0.0040 -0.1045
  238MPD1    H5 3672   2.602   1.061  14.733 -1.4747 -0.2234 -0.3658
  238MPD1    N1 3673   2.910   0.615  14.923 -0.0370  0.0893  0.4573
  238MPD1    H6 3674   2.996   0.564  14.906  0.1419 -0.6791  3.6638
  238MPD1    H7 3675   2.835   0.546  14.925  0.7284 -0.7754 -0.6448
  239MPD1     C 3676   2.637   2.181  14.938  0.6705 -0.0325  0.0416
  239MPD1    C1 3677   2.735   2.275  14.927 -0.0303  0.0509  0.3209
  239MPD1    C2 3678   2.712   2.378  14.842  0.3866  0.2278  0.3356
  239MPD1    C3 3679   2.612   2.378  14.750 -0.8071 -0.0438  0.6158
  239MPD1    C4 3680   2.514   2.284  14.757  0.0911 -0.1503 -0.6476
  239MPD1    C5 3681   2.524   2.185  14.854 -0.2441 -0.1102 -0.5352
  239MPD1     H 3682   2.780   2.462  14.852  3.4513 -2.1593 -0.1102
  239MPD1    H1 3683   2.424   2.297  14.698 -0.5964  1.1733  0.6712
  239MPD1    H2 3684   2.641   2.105  15.016 -0.4827  0.2490  0.3769
  239MPD1    H3 3685   2.453   2.104  14.859 -2.3460  1.9423  2.8177
  239MPD1     N 3686   2.602   2.475  14.652 -0.3108  0.4463  0.1033
  239MPD1    H5 3687   2.517   2.476  14.596  0.9980 -0.0097 -1.8775
  239MPD1    N1 3688   2.830   2.283  15.027 -0.4351  0.0713 -0.1308
  239MPD1    H6 3689   2.880   2.196  15.043  2.6735  1.2137 -3.5790
  239MPD1    H7 3690   2.898   2.356  15.003 -0.3390  0.3612  1.0182
  240MPD1     C 3691   2.450   2.108  13.932 -0.3552  0.1399 -0.4615
  240MPD1    C1 3692   2.535   2.049  14.018 -0.8404  0.4394  0.7240
  240MPD1    C2 3693   2.481   1.981  14.126 -0.4095 -0.4414  0.0199
  240MPD1    C3 3694   2.343   1.976  14.151  0.1895 -0.5565  0.0833
  240MPD1    C4 3695   2.258   2.059  14.071 -0.5867  0.5086  0.2792
  240MPD1    C5 3696   2.313   2.111  13.959  0.5846 -0.6133 -0.1458
  240MPD1     H 3697   2.544   1.919  14.189 -0.9804  1.0272  2.0586
  240MPD1    H1 3698   2.151   2.063  14.091 -1.2642 -0.5170 -3.1512
  240MPD1    H2 3699   2.477   2.172  13.849  0.3118  0.0581 -0.3078
  240MPD1    H3 3700   2.249   2.179  13.904 -0.7574 -0.2854  1.8606
  240MPD1     N 3701   2.292   1.904  14.263 -0.3082  0.0190  0.0332
  240MPD1    H5 3702   2.349   1.858  14.333  0.4804 -0.2827 -0.8037
  240MPD1    N1 3703   2.681   2.060  14.004  0.8753 -0.1043 -0.6941
  240MPD1    H6 3704   2.705   2.091  13.910  2.8733  1.3844  0.3120
  240MPD1    H7 3705   2.739   1.983  14.036  0.3877 -0.2063 -0.0479
  241MPD1     C 3706   2.527   1.316  14.990 -0.7324 -0.6020 -0.5281
  241MPD1    C1 3707   2.586   1.390  14.890  0.0546 -0.0359  0.2665
  241MPD1    C2 3708   2.490   1.442  14.797  0.3140 -0.1343  0.1554
  241MPD1    C3 3709   2.355   1.446  14.831  0.3672  0.7049  1.0672
  241MPD1    C4 3710   2.303   1.367  14.928  0.0243  0.4620 -0.0331
  241MPD1    C5 3711   2.392   1.304  15.013  0.0109  0.2328  0.0771
  241MPD1     H 3712   2.530   1.491  14.709  1.4913 -2.0132 -0.3537
  241MPD1    H1 3713   2.198   1.351  14.949  0.3528 -0.2135  1.0914
  241MPD1    H2 3714   2.596   1.259  15.052  0.1868  0.6491 -0.4136
  241MPD1    H3 3715   2.354   1.249  15.098 -2.0217  0.7385 -0.4917
  241MPD1     N 3716   2.264   1.510  14.743  0.0173 -0.9485 -0.0752
  241MPD1    H5 3717   2.164   1.498  14.748 -0.1911  1.0897  0.6291
  241MPD1    N1 3718   2.732   1.384  14.871  0.5432  0.0444  0.7117
  241MPD1    H6 3719   2.788   1.359  14.952  2.8526  0.4692 -0.7627
  241MPD1    H7 3720   2.774   1.469  14.833 -0.2183  0.3846  0.6241
  242MPD1     C 3721   1.438   0.600  15.784 -0.6550  0.4620 -0.0635
  242MPD1    C1 3722   1.519   0.493  15.825 -0.9498  0.3693 -0.2648
  242MPD1    C2 3723   1.625   0.449  15.740 -0.1769  0.0925  0.0581
  242MPD1    C3 3724   1.646   0.507  15.618 -0.3763  0.2730  0.4537
  242MPD1    C4 3725   1.562   0.613  15.577  0.1116  0.2883  0.1326
  242MPD1    C5 3726   1.463   0.658  15.664 -0.3965 -0.3188  0.7738
  242MPD1     H 3727   1.704   0.382  15.775  1.8017  2.0373 -0.6688
  242MPD1    H1 3728   1.586   0.670  15.488  1.6392  1.0427  1.0158
  242MPD1    H2 3729   1.350   0.628  15.840  0.1364  0.6948  1.0789
  242MPD1    H3 3730   1.402   0.744  15.638 -2.7127 -1.8186  1.2111
  242MPD1     N 3731   1.758   0.484  15.530  0.8198 -0.4159  0.3639
  242MPD1    H5 3732   1.769   0.538  15.445 -0.7167 -1.5996 -0.5898
  242MPD1    N1 3733   1.499   0.443  15.954 -0.5824 -0.0727  0.0755
  242MPD1    H6 3734   1.509   0.342  15.952  0.5731  0.0409 -0.1151
  242MPD1    H7 3735   1.415   0.475  16.002 -1.5402  0.7291 -2.1561
  243MPD1     C 3736   3.482   3.840   0.746 -0.1921  0.3109 -0.1514
  243MPD1    C1 3737   3.397   3.782   0.652 -0.0780 -0.5604  0.9966
  243MPD1    C2 3738   3.451   3.687   0.568  0.4891 -0.5966  0.7726
  243MPD1    C3 3739   3.575   3.633   0.596 -0.5989  0.2800  0.3490
  243MPD1    C4 3740   3.652   3.682   0.697 -0.4321  0.0482 -0.6100
  243MPD1    C5 3741   3.603   3.786   0.770  0.2183  0.4571  0.3016
  243MPD1     H 3742   3.390   3.659   0.483  0.0538 -1.7055  1.4511
  243MPD1    H1 3743   3.752   3.645   0.717 -1.1323 -0.6069  1.6505
  243MPD1    H2 3744   3.453   3.916   0.817 -2.3108 -0.0227 -0.6698
  243MPD1    H3 3745   3.651   3.832   0.856 -1.5277  1.0672  0.9540
  243MPD1     N 3746   3.613   3.520   0.524 -0.1829 -0.2794  0.5072
  243MPD1    H5 3747   3.558   3.487   0.445  0.4017  0.8684 -0.3757
  243MPD1    N1 3748   3.279   3.850   0.624 -0.2069 -0.3349 -0.0306
  243MPD1    H6 3749   3.232   3.866   0.712  0.5682 -1.1668  0.5364
  243MPD1    H7 3750   3.221   3.784   0.571 -0.3621  1.6456 -2.3194
  244MPD1     C 3751   4.195   2.709   0.631 -0.0578  0.7518  0.3914
  244MPD1    C1 3752   4.186   2.824   0.697  0.5089  0.2300  0.6844
  244MPD1    C2 3753   4.100   2.924   0.662  0.1405  0.3131  0.0655
  244MPD1    C3 3754   4.012   2.897   0.559  0.0254  0.5383 -0.0251
  244MPD1    C4 3755   4.018   2.773   0.499 -0.1638 -0.4744 -0.7429
  244MPD1    C5 3756   4.108   2.677   0.533 -0.6271 -0.0620 -1.0377
  244MPD1     H 3757   4.104   3.019   0.713  0.9206 -0.9064  2.2745
  244MPD1    H1 3758   3.947   2.751   0.420  0.6234  0.0978 -1.6134
  244MPD1    H2 3759   4.270   2.634   0.651 -1.4172 -0.5065  0.7373
  244MPD1    H3 3760   4.094   2.578   0.491  1.1181 -2.3983  3.9340
  244MPD1     N 3761   3.916   2.998   0.525  0.0415 -0.5095  0.4186
  244MPD1    H5 3762   3.930   3.085   0.576 -1.7425  0.0628 -0.0720
  244MPD1    N1 3763   4.276   2.846   0.799  0.2164 -0.1010 -0.2264
  244MPD1    H6 3764   4.248   2.929   0.851 -0.6828 -1.1082  0.9005
  244MPD1    H7 3765   4.374   2.860   0.774 -0.6337  1.9723 -2.3737
  245MPD1     C 3766   0.305   3.673  13.208  0.1594  0.0656 -0.2293
  245MPD1    C1 3767   0.441   3.702  13.190  0.6768  0.2525  0.2867
  245MPD1    C2 3768   0.479   3.825  13.216 -0.3026 -0.0984 -0.4262
  245MPD1    C3 3769   0.383   3.925  13.247 -0.0294  0.1321 -0.6086
  245MPD1    C4 3770   0.248   3.902  13.254  0.1089 -0.1176 -0.5504
  245MPD1    C5 3771   0.216   3.776  13.231  0.1815  0.5296  0.4886
  245MPD1     H 3772   0.586   3.842  13.224 -0.5832  1.3066  0.2572
  245MPD1    H1 3773   0.173   3.975  13.281 -0.1696 -0.8218  0.5614
  245MPD1    H2 3774   0.264   3.574  13.191 -4.8536  2.0559  0.1520
  245MPD1    H3 3775   0.109   3.760  13.223  0.6518 -1.3516 -2.2292
  245MPD1     N 3776   0.438   4.053  13.277 -0.2627  0.1953  0.3893
  245MPD1    H5 3777   0.538   4.067  13.280 -0.1511 -0.8925  1.6959
  245MPD1    N1 3778   0.529   3.601  13.178  0.4306 -0.5611 -0.3459
  245MPD1    H6 3779   0.497   3.536  13.107  0.4570 -0.1038 -0.7784
  245MPD1    H7 3780   0.622   3.643  13.168 -0.1020  0.1803 -2.1091
  246MPD1     C 3781   1.155   2.510   8.958 -0.1310  0.1955 -0.4559
  246MPD1    C1 3782   1.177   2.554   9.087 -0.0826 -0.0612 -0.4441
  246MPD1    C2 3783   1.236   2.466   9.168  0.8423  1.0405  0.2287
  246MPD1    C3 3784   1.270   2.338   9.121 -0.3644 -1.3173  0.1759
  246MPD1    C4 3785   1.248   2.302   8.991  1.0621  0.1623 -0.1285
  246MPD1    C5 3786   1.191   2.390   8.911 -0.3963 -0.3058 -0.0365
  246MPD1     H 3787   1.256   2.482   9.273 -0.7924 -0.5219  0.7711
  246MPD1    H1 3788   1.268   2.202   8.956 -3.7546 -1.3237  1.4204
  246MPD1    H2 3789   1.077   2.562   8.902 -1.2936 -0.2166  0.7951
  246MPD1    H3 3790   1.160   2.356   8.813 -0.0619 -0.4752 -0.0832
  246MPD1     N 3791   1.348   2.260   9.215 -0.1445 -0.2248 -0.2345
  246MPD1    H5 3792   1.385   2.304   9.299  2.2497 -0.9907 -0.8812
  246MPD1    N1 3793   1.109   2.671   9.123  0.6170 -0.2780  0.4512
  246MPD1    H6 3794   1.112   2.735   9.043  1.6975  0.7386  1.2996
  246MPD1    H7 3795   1.151   2.718   9.203 -1.5880  0.9885  0.8829
  247MPD1     C 3796   0.514   4.468  17.197 -1.5377 -0.5200 -0.1105
  247MPD1    C1 3797   0.509   4.518  17.068 -0.3639 -0.0255 -0.3730
  247MPD1    C2 3798   0.446   4.438  16.972  0.0274 -0.3219  0.2473
  247MPD1    C3 3799   0.402   4.308  17.006  0.1564  0.1229 -0.2201
  247MPD1    C4 3800   0.417   4.256  17.133 -0.7776  0.2479 -0.2595
  247MPD1    C5 3801   0.472   4.341  17.226  0.2331 -0.9880 -0.0473
  247MPD1     H 3802   0.420   4.482  16.877 -0.8677 -1.0090  0.1719
  247MPD1    H1 3803   0.378   4.162  17.169  1.1880  0.7847  3.2648
  247MPD1    H2 3804   0.558   4.526  17.278 -0.8459 -0.7776 -0.3019
  247MPD1    H3 3805   0.479   4.309  17.329 -0.9075 -1.0117  0.0179
  247MPD1     N 3806   0.335   4.227  16.909  0.5236  0.0657  0.2672
  247MPD1    H5 3807   0.317   4.131  16.937  0.5926  0.4907  1.7725
  247MPD1    N1 3808   0.519   4.653  17.049 -0.4584  0.2226 -0.0160
  247MPD1    H6 3809   0.564   4.683  16.962 -1.9226  0.8607 -0.5444
  247MPD1    H7 3810   0.586   4.693  17.114 -1.6018  1.3586  0.4447
  248MPD1     C 3811   0.948   3.410   0.320 -0.0944  0.6007 -0.4498
  248MPD1    C1 3812   0.819   3.406   0.363  0.2646  0.3102 -0.4349
  248MPD1    C2 3813   0.798   3.482   0.479 -0.0616  0.4744 -0.4367
  248MPD1    C3 3814   0.890   3.570   0.525  0.5264 -0.2470 -0.7268
  248MPD1    C4 3815   1.014   3.588   0.465  0.7059 -0.4898 -0.7366
  248MPD1    C5 3816   1.044   3.493   0.372 -0.0290 -0.0569  0.5073
  248MPD1     H 3817   0.708   3.461   0.534 -0.0115 -1.7086 -1.1868
  248MPD1    H1 3818   1.094   3.652   0.501  0.6558 -0.7217 -0.2170
  248MPD1    H2 3819   0.970   3.352   0.231 -0.1592  1.8429 -1.2683
  248MPD1    H3 3820   1.136   3.506   0.316  0.9063 -1.5460  1.6898
  248MPD1     N 3821   0.851   3.646   0.627  0.1276  0.0207 -0.3555
  248MPD1    H5 3822   0.758   3.621   0.656  0.1767 -0.3516 -0.5179
  248MPD1    N1 3823   0.731   3.306   0.306  0.3232 -0.9862  0.0977
  248MPD1    H6 3824   0.752   3.296   0.207 -0.4349  4.5871 -0.6803
  248MPD1    H7 3825   0.639   3.348   0.316  0.9429  0.7461 -1.4818
  249MPD1     C 3826   1.324   3.997   8.865  0.3075  0.8716  0.0515
  249MPD1    C1 3827   1.249   3.924   8.960 -0.4326 -0.3594 -0.3979
  249MPD1    C2 3828   1.316   3.881   9.073  0.7173  0.3103 -0.2286
  249MPD1    C3 3829   1.449   3.902   9.091  0.9178  0.1032  0.7074
  249MPD1    C4 3830   1.507   3.989   9.003  0.0532 -0.0502 -1.0337
  249MPD1    C5 3831   1.449   4.042   8.895 -0.0593 -0.4425 -0.1731
  249MPD1     H 3832   1.271   3.811   9.143  0.4948  2.4479  1.7579
  249MPD1    H1 3833   1.609   4.023   9.016 -0.3924  0.2745  1.6780
  249MPD1    H2 3834   1.285   4.028   8.768 -0.9995  1.4554  0.7651
  249MPD1    H3 3835   1.503   4.102   8.823  0.9990  1.5829  2.2916
  249MPD1     N 3836   1.520   3.841   9.196 -0.9362  0.4424 -0.2865
  249MPD1    H5 3837   1.460   3.786   9.256  1.2947 -1.6663  0.0536
  249MPD1    N1 3838   1.125   3.875   8.918  0.4323  0.0151 -0.2925
  249MPD1    H6 3839   1.079   3.924   8.842  1.8849 -0.5279 -1.5098
  249MPD1    H7 3840   1.051   3.846   8.982 -0.7131  2.3046 -0.5690
  250MPD2     C 3841   3.645   2.760  13.282 -0.0719  0.4924 -0.9674
  250MPD2    C1 3842   3.591   2.801  13.160 -0.1711 -0.2888 -0.7086
  250MPD2    C2 3843   3.547   2.710  13.067  0.0746 -0.0778  0.0898
  250MPD2    C3 3844   3.558   2.574  13.085  0.4855  0.1708 -0.9444
  250MPD2    C4 3845   3.610   2.537  13.207  0.3266 -0.5466  0.0605
  250MPD2    C5 3846   3.648   2.622  13.306 -0.2719  0.6365 -0.2394
  250MPD2     H 3847   3.518   2.746  12.969  1.8888 -1.6152 -1.0255
  250MPD2    H1 3848   3.625   2.435  13.239  0.4871 -0.2617  0.8983
  250MPD2    H2 3849   3.679   2.840  13.347 -0.5569 -0.4658  0.4890
  250MPD2    H3 3850   3.697   2.587  13.396 -2.3069  0.2403  0.7049
  250MPD2     N 3851   3.521   2.472  12.991 -0.4198 -0.2585 -0.4916
  250MPD2    H5 3852   3.526   2.377  13.027 -0.9195  0.5740  1.7725
  250MPD2    N1 3853   3.588   2.941  13.142 -0.2216  0.8166  0.5664
  250MPD2    H7 3854   3.634   2.999  13.212  1.6590  1.3536 -1.1124
  251TMC3    C1 3855   3.567   3.158  13.051 -0.3671  0.9788 -0.1065
  251TMC3    C2 3856   3.480   3.242  12.989  0.1663 -0.5413  0.5438
  251TMC3    C3 3857   3.514   3.376  12.986  0.3176 -0.3164 -0.0072
  251TMC3    C4 3858   3.683   3.196  13.112 -0.3405 -0.0735 -0.1299
  251TMC3    C5 3859   3.717   3.329  13.100 -0.3156 -0.4589  0.0593
  251TMC3    C6 3860   3.633   3.426  13.041 -0.4256  0.1456 -0.8625
  251TMC3     C 3861   3.537   3.017  13.037  0.7438 -0.5011 -0.4507
  251TMC3     O 3862   3.471   2.981  12.943 -0.1763  0.0665  0.5943
  251TMC3     H 3863   3.397   3.205  12.931  0.7318 -0.8150 -0.0937
  251TMC3    H1 3864   3.759   3.124  13.140 -0.3716 -0.3059 -0.6442
  251TMC3    H2 3865   3.668   3.523  13.008  0.2697  0.0168 -0.5056
  251TMC3    C7 3866   3.858   3.353  13.135 -0.2224  0.3997 -0.3250
  251TMC3    C8 3867   3.403   3.472  12.981  0.4174 -0.1395  0.3687
  251TMC3    O1 3868   3.923   3.260  13.177  0.1059 -0.3317  0.6363
  251TMC3    O2 3869   3.298   3.428  12.940  0.6365  0.1902 -0.0774
  252TMC3    C1 3870   3.676   4.044   9.694 -0.1538  0.2392  0.1603
  252TMC3    C2 3871   3.814   4.065   9.704  0.1160  0.7878 -0.2608
  252TMC3    C3 3872   3.889   3.983   9.779 -0.0764  0.2134 -0.7356
  252TMC3    C4 3873   3.609   3.956   9.768  0.0097  0.8850 -0.4732
  252TMC3    C5 3874   3.686   3.879   9.846  0.1345  0.0774  0.1459
  252TMC3    C6 3875   3.825   3.883   9.848 -0.5972  0.1362 -0.2001
  252TMC3     C 3876   3.604   4.123   9.603 -0.0637  0.2693 -0.1576
  252TMC3     O 3877   3.488   4.145   9.633 -0.6162 -0.2494  0.3250
  252TMC3     H 3878   3.866   4.140   9.644  1.8312  0.2674  0.5739
  252TMC3    H1 3879   3.501   3.945   9.766  0.1011  0.0276 -0.3772
  252TMC3    H2 3880   3.882   3.819   9.914 -1.6322 -1.2439 -0.6347
  252TMC3    C7 3881   3.626   3.763   9.907  0.1580 -0.1620 -0.6278
  252TMC3    C8 3882   4.031   3.973   9.762 -0.3709  1.3963 -0.3008
  252TMC3    O1 3883   3.506   3.772   9.926  0.5558  0.1757 -0.5176
  252TMC3    O2 3884   4.084   3.868   9.803  0.3872 -0.6842 -0.2243
  253MPD2     C 3885   0.312   2.598  15.163 -0.0159 -0.0265 -0.0317
  253MPD2    C1 3886   0.182   2.624  15.167 -0.1735 -0.1967  0.1497
  253MPD2    C2 3887   0.131   2.693  15.277 -0.8309 -0.2404 -0.0167
  253MPD2    C3 3888   0.210   2.747  15.379 -0.1955  0.1735  0.2977
  253MPD2    C4 3889   0.349   2.722  15.371 -0.4686 -0.3543 -0.7157
  253MPD2    C5 3890   0.397   2.648  15.258  1.0000  0.9119 -0.1598
  253MPD2     H 3891   0.025   2.718  15.287 -1.3555 -1.7751 -1.8872
  253MPD2    H1 3892   0.422   2.766  15.438 -0.1865 -1.4280 -0.3275
  253MPD2    H2 3893   0.351   2.557  15.070 -1.6429  0.8655 -1.1002
  253MPD2    H3 3894   0.505   2.646  15.250  1.1479  0.6336  1.7779
  253MPD2     N 3895   0.173   2.817  15.497 -0.7005 -0.3683 -0.1897
  253MPD2    H5 3896   0.244   2.851  15.561  0.2918 -1.3694 -0.7581
  253MPD2    N1 3897   0.092   2.575  15.066  0.3301 -0.7110  0.5445
  253MPD2    H7 3898   4.727   2.589  15.082  0.3545 -0.7880  0.7702
  254TMC3    C1 3899   0.043   2.926  15.664 -0.0302 -0.1421 -0.0765
  254TMC3    C2 3900   4.657   2.980  15.699  0.5793 -0.1558  0.5411
  254TMC3    C3 3901   4.630   3.010  15.831 -0.5186 -0.3614 -0.4477
  254TMC3    C4 3902   0.147   2.906  15.757 -0.5816 -0.2740 -0.0180
  254TMC3    C5 3903   0.106   2.914  15.887  0.6227  0.1073  0.1406
  254TMC3    C6 3904   4.722   2.962  15.926 -0.3538  0.2893  0.3867
  254TMC3     C 3905   0.041   2.851  15.540 -0.6278  0.3945 -0.0252
  254TMC3     O 3906   4.667   2.833  15.488  0.1765  0.5995 -0.1004
  254TMC3     H 3907   4.585   3.008  15.623 -1.6110 -0.9450  2.3713
  254TMC3    H1 3908   0.232   2.841  15.738  0.0630  0.2718  1.0028
  254TMC3    H2 3909   4.708   2.972  16.033  0.1329  1.9855  0.2906
  254TMC3    C7 3910   0.196   2.868  15.984  0.3026  0.0857  0.2460
  254TMC3    C8 3911   4.528   3.106  15.879 -0.3167  0.2985  0.8992
  254TMC3    O1 3912   0.148   2.818  16.085 -0.3112 -0.2253  0.0460
  254TMC3    O2 3913   4.524   3.118  16.001 -0.2355  0.1795 -0.7809
  255MPD2     C 3914   4.004   1.314  10.339 -0.0872  0.0445  0.3654
  255MPD2    C1 3915   3.990   1.342  10.206  0.4771 -0.3799 -0.2526
  255MPD2    C2 3916   4.099   1.320  10.123  0.3986 -0.3168 -0.5635
  255MPD2    C3 3917   4.210   1.247  10.173  0.3393  0.0793  0.2498
  255MPD2    C4 3918   4.225   1.231  10.307  0.3119  0.7414 -0.4655
  255MPD2    C5 3919   4.120   1.256  10.388 -0.3159  0.6574 -0.0695
  255MPD2     H 3920   4.079   1.332  10.017 -0.1090  0.8687 -0.3364
  255MPD2    H1 3921   4.314   1.191  10.353 -0.9390  0.8247  2.0311
  255MPD2    H2 3922   3.929   1.325  10.417 -1.7536 -2.8437 -0.8501
  255MPD2    H3 3923   4.115   1.227  10.492 -0.5279 -0.8961 -0.5099
  255MPD2     N 3924   4.296   1.181  10.080 -0.1326  0.1288  0.6293
  255MPD2    H5 3925   4.265   1.186   9.983  1.2729 -2.0300  0.0609
  255MPD2    N1 3926   3.868   1.407  10.175  0.2890  0.2338  0.5879
  255MPD2    H7 3927   3.787   1.404  10.235 -0.4477  1.6394 -0.3314
  256TMC3    C1 3928   3.715   1.524  10.048 -0.0721 -0.4345  0.0084
  256TMC3    C2 3929   3.705   1.645   9.994  0.1547  0.3379  1.1447
  256TMC3    C3 3930   3.584   1.710  10.013  0.9157  0.2524 -0.0777
  256TMC3    C4 3931   3.619   1.449  10.117  0.5249 -0.3332  0.1209
  256TMC3    C5 3932   3.514   1.522  10.147  0.1470  0.9708  0.0445
  256TMC3    C6 3933   3.494   1.651  10.104 -0.2024  0.1806  0.2877
  256TMC3     C 3934   3.845   1.472  10.055  0.3431  0.4502  0.0854
  256TMC3     O 3935   3.935   1.513   9.985  0.3697  0.3149 -0.1891
  256TMC3     H 3936   3.792   1.704   9.968 -2.6976  3.6469 -0.9353
  256TMC3    H1 3937   3.634   1.354  10.167  3.0202 -0.2954 -0.5547
  256TMC3    H2 3938   3.399   1.701  10.121  0.4813  1.6819 -0.3861
  256TMC3    C7 3939   3.411   1.475  10.234  0.2302  0.2151  0.3149
  256TMC3    C8 3940   3.575   1.851   9.998 -0.1349  0.1962 -0.0960
  256TMC3    O1 3941   3.366   1.545  10.327  0.2040 -0.3637  0.2035
  256TMC3    O2 3942   3.485   1.901  10.058 -0.0501  0.3533 -0.3492
  257MPD2     C 3943   2.366   3.169  13.075 -0.0398 -0.1296 -0.0734
  257MPD2    C1 3944   2.343   3.060  12.998  0.9106 -0.4436 -0.1748
  257MPD2    C2 3945   2.302   2.948  13.059  0.6324 -0.0306 -0.1448
  257MPD2    C3 3946   2.285   2.937  13.194 -0.1340 -0.0291 -0.9769
  257MPD2    C4 3947   2.306   3.045  13.272  0.0489  0.4548 -0.1902
  257MPD2    C5 3948   2.347   3.165  13.211 -0.3716 -0.1961 -0.0798
  257MPD2     H 3949   2.290   2.865  12.990 -1.1633  0.9348 -1.0017
  257MPD2    H1 3950   2.289   3.053  13.378 -0.7774  1.6349 -0.4231
  257MPD2    H2 3951   2.404   3.263  13.036  0.2267 -0.3804 -0.4189
  257MPD2    H3 3952   2.362   3.260  13.261 -1.0072 -0.1026 -0.0625
  257MPD2     N 3953   2.277   2.807  13.250 -0.0550 -0.3666  0.1034
  257MPD2    H5 3954   2.295   2.733  13.182 -0.6454  0.3271 -0.8033
  257MPD2    N1 3955   2.350   3.066  12.858 -0.2986  0.4983 -0.0263
  257MPD2    H7 3956   2.311   2.986  12.810 -0.1961 -0.5012  1.5402
  258TMC3    C1 3957   2.273   2.637  13.408 -0.4913 -0.0585 -0.5559
  258TMC3    C2 3958   2.350   2.566  13.326 -0.8398 -0.1470  0.0462
  258TMC3    C3 3959   2.423   2.465  13.397 -1.0129  0.5720 -0.7000
  258TMC3    C4 3960   2.245   2.608  13.542  0.1253  0.1174  0.3425
  258TMC3    C5 3961   2.314   2.507  13.598  0.1971 -0.5658 -0.2808
  258TMC3    C6 3962   2.402   2.431  13.532  0.1995  0.3443  0.4035
  258TMC3     C 3963   2.251   2.777  13.379  0.0669 -0.3153  0.0246
  258TMC3     O 3964   2.213   2.850  13.472 -0.4048 -0.1086  0.7523
  258TMC3     H 3965   2.374   2.594  13.224 -2.3659 -1.2595 -0.6207
  258TMC3    H1 3966   2.185   2.677  13.601 -1.3128 -0.9900  0.1940
  258TMC3    H2 3967   2.455   2.347  13.574  0.9786  0.8452  0.4230
  258TMC3    C7 3968   2.303   2.480  13.738 -0.5076 -0.7070 -0.2494
  258TMC3    C8 3969   2.508   2.381  13.314  0.4961  0.2522 -0.6330
  258TMC3    O1 3970   2.198   2.514  13.788  0.2231 -0.2339 -0.0357
  258TMC3    O2 3971   2.501   2.397  13.194 -0.6480  0.7811 -0.6039
  259MPD2     C 3972   1.586   4.513   0.919 -0.0998  0.3849 -0.7997
  259MPD2    C1 3973   1.583   4.384   0.882  0.5536 -0.0944 -0.5280
  259MPD2    C2 3974   1.581   4.353   0.745 -0.0256  0.3610 -0.0740
  259MPD2    C3 3975   1.585   4.448   0.644  0.3873 -0.0081 -0.1703
  259MPD2    C4 3976   1.602   4.581   0.687 -0.7929 -0.3344 -0.5359
  259MPD2    C5 3977   1.604   4.614   0.820  0.3292  0.1562  0.2420
  259MPD2     H 3978   1.574   4.248   0.718  1.9154  0.3853 -0.6515
  259MPD2    H1 3979   1.619   4.666   0.621  0.8729 -0.4570 -0.2701
  259MPD2    H2 3980   1.571   4.543   1.022  0.8394 -1.2582 -0.1795
  259MPD2    H3 3981   1.627   4.716   0.850 -0.3559  0.5956 -0.7375
  259MPD2     N 3982   1.582   4.407   0.506  0.4196  0.2884  0.2614
  259MPD2    H5 3983   1.573   4.307   0.497  1.2931  0.1002  1.3694
  259MPD2    N1 3984   1.564   4.292   0.987  0.1070 -0.2664 -1.2702
  259MPD2    H7 3985   1.575   4.334   1.079 -0.3457  0.2164 -1.4357
  260TMC3    C1 3986   1.604   4.424   0.276  1.0387 -0.2913  0.5819
  260TMC3    C2 3987   1.694   4.491   0.200  0.1436  0.0028  0.5171
  260TMC3    C3 3988   1.774   4.426   0.104 -0.8400 -0.5356  0.3113
  260TMC3    C4 3989   1.591   4.291   0.262  0.3045  0.7517  0.4314
  260TMC3    C5 3990   1.660   4.227   0.160 -0.3855 -0.0368  0.6789
  260TMC3    C6 3991   1.753   4.291   0.082  0.2862  0.2346  0.5969
  260TMC3     C 3992   1.572   4.486   0.397 -0.4696 -0.4260 -0.4946
  260TMC3     O 3993   1.554   4.606   0.394 -0.4047  0.2985 -0.1183
  260TMC3     H 3994   1.718   4.595   0.219 -1.2576  0.1107  1.6935
  260TMC3    H1 3995   1.541   4.233   0.339 -0.5595 -1.3428 -1.6965
  260TMC3    H2 3996   1.794   4.239  17.734 -0.1979 -2.7045  2.1731
  260TMC3    C7 3997   1.640   4.085   0.146 -0.1814 -0.2637  0.6076
  260TMC3    C8 3998   1.915   4.459   0.093  0.0621 -0.4720  0.0214
  260TMC3    O1 3999   1.722   4.028   0.073 -0.5129  0.3656  0.0478
  260TMC3    O2 4000   1.943   4.579   0.110 -0.5711  0.2923 -0.2313
  261MPD2     C 4001   2.866   2.412  12.471  0.0092 -0.0691 -0.2638
  261MPD2    C1 4002   2.983   2.481  12.484 -0.1155  0.3759  1.0309
  261MPD2    C2 4003   2.999   2.599  12.419 -0.8779  0.1804 -0.5171
  261MPD2    C3 4004   2.904   2.656  12.339 -0.6335  0.1682 -1.0489
  261MPD2    C4 4005   2.790   2.584  12.329  0.5530  0.5426  0.2676
  261MPD2    C5 4006   2.762   2.472  12.405  0.5685  0.6974 -0.6266
  261MPD2     H 4007   3.098   2.643  12.409 -0.9046  0.7126  1.6367
  261MPD2    H1 4008   2.706   2.626  12.275  1.2406  1.2265 -0.2601
  261MPD2    H2 4009   2.837   2.319  12.519 -0.3374  0.1168 -0.1090
  261MPD2    H3 4010   2.666   2.425  12.390  0.9586  0.4400 -2.3223
  261MPD2     N 4011   2.933   2.782  12.273 -0.1502 -0.3929  0.1432
  261MPD2    H5 4012   3.026   2.823  12.283 -1.0488  1.5086  0.6649
  261MPD2    N1 4013   3.094   2.428  12.564  0.1296  1.0787 -0.1284
  261MPD2    H7 4014   3.179   2.482  12.579  0.6048  0.6072 -1.0789
  262TMC3    C1 4015   2.899   2.963  12.124 -0.1305 -0.8964 -0.4092
  262TMC3    C2 4016   2.804   3.045  12.064  0.3999  0.3501 -0.5489
  262TMC3    C3 4017   2.844   3.115  11.948  0.6867 -0.4222 -0.0636
  262TMC3    C4 4018   3.025   2.935  12.070 -0.3940 -0.5556 -0.9507
  262TMC3    C5 4019   3.055   3.013  11.964 -0.1488 -0.0345 -0.1823
  262TMC3    C6 4020   2.972   3.108  11.900  0.1697 -1.2739  0.4252
  262TMC3     C 4021   2.843   2.852  12.204 -0.2515 -0.5519  0.2788
  262TMC3     O 4022   2.721   2.849  12.212 -0.5089 -0.8020  0.5343
  262TMC3     H 4023   2.700   3.044  12.094  0.0653  0.0505 -1.7377
  262TMC3    H1 4024   3.098   2.865  12.108  0.4799  1.0310  0.3220
  262TMC3    H2 4025   3.021   3.170  11.825 -1.0504  1.9816  2.3494
  262TMC3    C7 4026   3.173   2.975  11.900 -0.6536  0.0586 -0.3394
  262TMC3    C8 4027   2.741   3.173  11.863 -0.6690  0.5179 -0.1504
  262TMC3    O1 4028   3.256   2.914  11.964  0.2889 -0.5226  0.2305
  262TMC3    O2 4029   2.629   3.178  11.909  0.3276 -0.4234  0.1785
  263MPD2     C 4030   3.986   2.063  11.347 -0.2324  1.0162 -0.6719
  263MPD2    C1 4031   4.066   2.172  11.351  0.6243  0.4588  0.3534
  263MPD2    C2 4032   4.046   2.264  11.253  0.1422  0.1465  0.4317
  263MPD2    C3 4033   3.979   2.234  11.136  0.3953 -0.0531  1.0132
  263MPD2    C4 4034   3.903   2.119  11.130  0.1721 -0.0120 -0.1990
  263MPD2    C5 4035   3.907   2.035  11.236  0.2093  0.8778  0.0774
  263MPD2     H 4036   4.116   2.346  11.251 -2.4387  2.3881  1.0613
  263MPD2    H1 4037   3.848   2.088  11.042  3.8104 -0.2486 -2.3536
  263MPD2    H2 4038   3.966   1.987  11.423  1.4889  0.7867 -0.4556
  263MPD2    H3 4039   3.851   1.942  11.228 -0.4879  1.3265 -0.2129
  263MPD2     N 4040   3.976   2.327  11.042  0.2498  0.1359  0.2735
  263MPD2    H5 4041   4.027   2.413  11.062 -2.0607  1.6258 -0.2894
  263MPD2    N1 4042   4.154   2.193  11.459 -0.1825 -0.1848  0.3341
  263MPD2    H7 4043   4.153   2.120  11.529  2.2198 -0.7198 -0.2154
  264TMC3    C1 4044   3.932   2.440  10.835  0.2307 -0.0572 -0.7584
  264TMC3    C2 4045   3.919   2.559  10.905  0.1198  0.0020 -0.1329
  264TMC3    C3 4046   3.938   2.675  10.833 -0.7449 -0.5241 -0.0869
  264TMC3    C4 4047   3.970   2.445  10.704  0.7422  0.7855 -0.3998
  264TMC3    C5 4048   3.976   2.568  10.634  0.3014  0.5447 -0.2360
  264TMC3    C6 4049   3.963   2.686  10.699  0.0355  0.3962 -1.1118
  264TMC3     C 4050   3.927   2.317  10.910 -0.1245  0.9933 -0.2995
  264TMC3     O 4051   3.887   2.218  10.847  0.3125 -0.1976  0.4204
  264TMC3     H 4052   3.914   2.551  11.013  2.3018  1.6315  0.0907
  264TMC3    H1 4053   3.989   2.355  10.647 -2.0689  1.1764 -1.9340
  264TMC3    H2 4054   3.958   2.785  10.654  1.5976  0.1729 -1.7659
  264TMC3    C7 4055   4.021   2.569  10.500  0.4503  0.0636 -0.2748
  264TMC3    C8 4056   3.915   2.798  10.908 -0.3331 -0.4413 -0.6197
  264TMC3    O1 4057   4.012   2.680  10.450 -0.7299  0.4332  0.4791
  264TMC3    O2 4058   3.835   2.868  10.847  0.2161  0.0308  0.0024
  265MPD2     C 4059   1.457   2.336  15.561 -0.1754  0.3069  0.1558
  265MPD2    C1 4060   1.429   2.445  15.481 -1.5451  0.4570  0.8054
  265MPD2    C2 4061   1.455   2.437  15.345  0.5879 -0.4471 -0.0391
  265MPD2    C3 4062   1.506   2.321  15.290  0.5200  0.6792 -0.3317
  265MPD2    C4 4063   1.544   2.217  15.375 -0.2134  0.3903  0.1113
  265MPD2    C5 4064   1.520   2.228  15.510  0.4016  0.3038  0.1302
  265MPD2     H 4065   1.430   2.520  15.279  0.9588 -1.4989 -1.5067
  265MPD2    H1 4066   1.596   2.129  15.339 -1.0049  1.2648 -3.1156
  265MPD2    H2 4067   1.440   2.331  15.668 -1.0043 -3.2004 -0.1595
  265MPD2    H3 4068   1.560   2.159  15.584  1.3216  0.7091  0.0156
  265MPD2     N 4069   1.532   2.305  15.148 -0.1513 -0.1411  0.4908
  265MPD2    H5 4070   1.555   2.211  15.117  3.0320  0.4770  1.0293
  265MPD2    N1 4071   1.375   2.565  15.529 -0.0367 -0.4816  0.2405
  265MPD2    H7 4072   1.349   2.630  15.455 -1.4150 -0.9494  0.3188
  266TMC3    C1 4073   1.362   2.742  15.679  0.1569 -0.0086 -0.0693
  266TMC3    C2 4074   1.429   2.809  15.778 -0.5513 -0.1503  0.1871
  266TMC3    C3 4075   1.401   2.938  15.795 -0.1768  0.3813 -0.2254
  266TMC3    C4 4076   1.261   2.796  15.607 -0.3839  0.1725  0.3375
  266TMC3    C5 4077   1.240   2.926  15.625  0.0455  0.2939  0.1317
  266TMC3    C6 4078   1.317   2.999  15.715 -0.7599 -0.5655  0.3966
  266TMC3     C 4079   1.388   2.607  15.661  0.0085 -0.2563  0.2404
  266TMC3     O 4080   1.445   2.553  15.755  0.6994 -0.6842  0.5629
  266TMC3     H 4081   1.514   2.768  15.832  0.5491  0.9397 -0.7279
  266TMC3    H1 4082   1.195   2.741  15.541  1.0372 -1.1616 -0.0001
  266TMC3    H2 4083   1.307   3.107  15.703  0.3756 -0.9427 -3.8308
  266TMC3    C7 4084   1.150   2.995  15.539 -0.9971 -0.0429 -0.1297
  266TMC3    C8 4085   1.512   3.014  15.841  0.4023 -0.2726  0.0232
  266TMC3    O1 4086   1.189   3.099  15.486  0.7018  0.1187 -0.3293
  266TMC3    O2 4087   1.619   2.957  15.823 -0.0142 -0.1956  0.2131
  267MPD2     C 4088   4.409   0.238   0.284 -0.3757 -0.2816 -0.4741
  267MPD2    C1 4089   4.334   0.166   0.378  0.4814  0.1154 -0.1285
  267MPD2    C2 4090   4.258   0.239   0.474 -0.0839  1.1038 -0.9194
  267MPD2    C3 4091   4.260   0.379   0.483 -0.1508  0.0815 -0.2043
  267MPD2    C4 4092   4.352   0.446   0.395 -0.4292  0.5945 -0.0365
  267MPD2    C5 4093   4.415   0.376   0.301 -0.6127  0.7344  0.4357
  267MPD2     H 4094   4.194   0.181   0.540 -0.5473  0.7313 -1.7030
  267MPD2    H1 4095   4.364   0.553   0.389  0.0017  0.4491 -2.0107
  267MPD2    H2 4096   4.473   0.184   0.215  0.2125 -1.1965  0.7944
  267MPD2    H3 4097   4.475   0.416   0.220 -1.2200 -0.4943 -0.6198
  267MPD2     N 4098   4.198   0.458   0.584 -0.2495 -0.0690 -0.3570
  267MPD2    H5 4099   4.221   0.557   0.588 -0.9391  0.1282 -1.3822
  267MPD2    N1 4100   4.326   0.026   0.363  0.2656  0.3296 -0.1296
  267MPD2    H7 4101   4.392   4.722   0.296  0.7630  1.4267 -0.2748
  268TMC3    C1 4102   4.289   4.532   0.426 -0.3011  0.2796  0.0718
  268TMC3    C2 4103   4.304   4.489   0.296  0.8552 -0.2914  0.5129
  268TMC3    C3 4104   4.329   4.361   0.272  0.6031  0.5441  0.1639
  268TMC3    C4 4105   4.279   4.442   0.527 -0.1753 -0.6413  0.4121
  268TMC3    C5 4106   4.286   4.312   0.499 -0.8516  0.1463 -0.5854
  268TMC3    C6 4107   4.311   4.269   0.374 -0.2618  0.4372  0.8438
  268TMC3     C 4108   4.254   4.675   0.449 -0.6301 -0.1567  0.4047
  268TMC3     O 4109   4.191   4.696   0.554  0.1761 -0.3089 -0.1513
  268TMC3     H 4110   4.298   4.560   0.215 -1.9107  0.4496  1.3838
  268TMC3    H1 4111   4.266   4.475   0.630 -4.2002  1.2310 -0.6818
  268TMC3    H2 4112   4.329   4.166   0.344 -0.6218  1.0010 -1.3302
  268TMC3    C7 4113   4.257   4.208   0.601 -0.4031 -0.4000  0.3871
  268TMC3    C8 4114   4.335   4.300   0.137 -0.1809  0.2931  0.3179
  268TMC3    O1 4115   4.309   4.100   0.583 -0.4593  0.4690 -0.0992
  268TMC3    O2 4116   4.300   4.183   0.130 -0.2605  0.5014  0.0525
  269MPD2     C 4117   4.041   3.300  15.440  0.9192 -0.3331 -0.2728
  269MPD2    C1 4118   3.960   3.314  15.547  0.2443  0.7281 -0.4710
  269MPD2    C2 4119   3.928   3.443  15.578 -0.3141 -0.4519  0.8003
  269MPD2    C3 4120   3.984   3.554  15.512 -0.2024  0.0544  0.3072
  269MPD2    C4 4121   4.062   3.534  15.405  0.4114  0.4810  0.3068
  269MPD2    C5 4122   4.086   3.405  15.363 -0.2432 -0.2684 -0.0029
  269MPD2     H 4123   3.873   3.458  15.670 -1.1531 -1.5173  0.4721
  269MPD2    H1 4124   4.106   3.618  15.353 -0.2994  1.0461  0.6169
  269MPD2    H2 4125   4.067   3.202  15.402  0.1832 -0.9028  0.6847
  269MPD2    H3 4126   4.144   3.381  15.274  1.5631 -0.3176  1.1867
  269MPD2     N 4127   3.954   3.683  15.561 -0.2860  0.2748 -0.2702
  269MPD2    H5 4128   3.896   3.690  15.643  0.3275  0.2389  0.1684
  269MPD2    N1 4129   3.921   3.200  15.615 -0.1893 -0.1505  0.4646
  269MPD2    H7 4130   3.949   3.115  15.567 -0.5717 -0.9191  1.5987
  270TMC3    C1 4131   3.820   3.064  15.769  0.1126 -0.0613 -0.7745
  270TMC3    C2 4132   3.685   3.029  15.741  0.1519 -0.0881 -0.3731
  270TMC3    C3 4133   3.664   2.903  15.704  0.4231  0.2847 -0.2478
  270TMC3    C4 4134   3.920   2.976  15.755 -0.1718 -0.5509  0.0655
  270TMC3    C5 4135   3.887   2.844  15.743 -0.4158  0.1945 -0.2403
  270TMC3    C6 4136   3.759   2.806  15.704 -0.0205 -0.4602  0.7321
  270TMC3     C 4137   3.845   3.201  15.727  0.0879  0.6748  0.2338
  270TMC3     O 4138   3.793   3.287  15.798 -0.3255  0.5168  0.3317
  270TMC3     H 4139   3.611   3.107  15.728  2.0315  1.1586 -3.6092
  270TMC3    H1 4140   4.023   3.008  15.758 -0.1383 -0.5681 -0.9061
  270TMC3    H2 4141   3.729   2.702  15.694 -1.4273 -0.1030  1.1811
  270TMC3    C7 4142   3.999   2.755  15.723  0.5112  0.3161 -0.4955
  270TMC3    C8 4143   3.563   2.889  15.599  0.4687 -0.1217 -0.4413
  270TMC3    O1 4144   4.099   2.806  15.780 -0.5239 -0.1306  0.1231
  270TMC3    O2 4145   3.466   2.966  15.596  0.1117 -1.1706 -0.2396
  271MPD2     C 4146   3.158   2.884  13.779 -0.6543 -0.8682 -0.0352
  271MPD2    C1 4147   3.089   2.890  13.898 -0.6679 -0.3745 -1.0694
  271MPD2    C2 4148   2.964   2.951  13.893  0.2339 -0.7613  0.1527
  271MPD2    C3 4149   2.917   3.010  13.772  0.2787  0.2221 -0.4762
  271MPD2    C4 4150   2.990   3.000  13.662 -0.4593 -0.8121  0.0442
  271MPD2    C5 4151   3.112   2.937  13.663  0.5489 -0.6502 -0.0388
  271MPD2     H 4152   2.903   2.962  13.982 -1.4576 -1.3027 -0.9293
  271MPD2    H1 4153   2.951   3.042  13.570 -0.5798  3.6018  2.1390
  271MPD2    H2 4154   3.241   2.815  13.774  0.7017  0.7267  0.1965
  271MPD2    H3 4155   3.150   2.920  13.563  0.3877 -2.2219  0.1726
  271MPD2     N 4156   2.799   3.092  13.764 -0.3681  0.3825 -0.0112
  271MPD2    H5 4157   2.776   3.123  13.671 -0.7202 -0.7217 -0.3001
  271MPD2    N1 4158   3.138   2.823  14.008 -0.0263  0.8230  0.1527
  271MPD2    H7 4159   3.068   2.817  14.082  0.3293 -5.8232 -0.0754
  272TMC3    C1 4160   3.277   2.700  14.165  0.6209  0.1514  0.2507
  272TMC3    C2 4161   3.385   2.616  14.176 -0.3061  0.4736 -0.1455
  272TMC3    C3 4162   3.429   2.566  14.293  0.3569 -0.4122 -1.1938
  272TMC3    C4 4163   3.194   2.717  14.274 -0.4999  0.4107 -1.1452
  272TMC3    C5 4164   3.230   2.648  14.389 -0.2026 -0.0056 -0.2563
  272TMC3    C6 4165   3.354   2.576  14.404  0.0038  0.3344 -0.3845
  272TMC3     C 4166   3.260   2.756  14.028 -0.6945 -0.2273  0.0475
  272TMC3     O 4167   3.371   2.766  13.969 -0.1685  0.4794 -0.4100
  272TMC3     H 4168   3.446   2.602  14.087 -0.5830  1.5503 -0.4986
  272TMC3    H1 4169   3.106   2.780  14.268  0.4554  1.8310 -0.1241
  272TMC3    H2 4170   3.377   2.525  14.497 -2.2634  2.3397  1.2794
  272TMC3    C7 4171   3.174   2.698  14.510 -0.4358 -0.7820  0.2466
  272TMC3    C8 4172   3.527   2.456  14.277 -0.0028  0.1555 -0.6200
  272TMC3    O1 4173   3.061   2.743  14.492  0.2762 -0.2116  0.8065
  272TMC3    O2 4174   3.546   2.410  14.167  0.6119 -0.2395  0.2461
  273MPD2     C 4175   0.367   0.882  11.342 -0.0956 -0.3764 -0.1330
  273MPD2    C1 4176   0.339   0.964  11.446 -0.2699 -0.3656 -0.0392
  273MPD2    C2 4177   0.307   1.100  11.420  0.9283  0.2120 -0.2964
  273MPD2    C3 4178   0.312   1.138  11.288  0.5882  0.3956 -0.1608
  273MPD2    C4 4179   0.336   1.046  11.184  0.2338 -0.6616  0.0815
  273MPD2    C5 4180   0.352   0.915  11.211  0.5948 -0.2467  0.1700
  273MPD2     H 4181   0.285   1.168  11.502  1.5522 -0.0932  0.1176
  273MPD2    H1 4182   0.327   1.072  11.079 -0.7687  0.4711  0.4311
  273MPD2    H2 4183   0.399   0.780  11.357  0.2953 -0.0965  0.9802
  273MPD2    H3 4184   0.370   0.846  11.130  2.0646 -1.4742  1.5320
  273MPD2     N 4185   0.284   1.271  11.249 -0.1886  0.0599 -0.5456
  273MPD2    H5 4186   0.310   1.304  11.157  0.0043  2.2203  0.2846
  273MPD2    N1 4187   0.372   0.934  11.576  0.1274  0.0828  0.1137
  273MPD2    H7 4188   0.327   0.985  11.651 -0.2899  0.9028 -0.6990
  274TMC3    C1 4189   0.276   1.503  11.259 -0.1154  0.0898  0.2328
  274TMC3    C2 4190   0.245   1.499  11.124  0.7301 -0.0706 -0.3315
  274TMC3    C3 4191   0.227   1.621  11.062  0.8140 -0.8575  0.4192
  274TMC3    C4 4192   0.300   1.614  11.328  0.2570 -0.7415 -0.3406
  274TMC3    C5 4193   0.296   1.731  11.260 -0.2376  0.3252 -0.5363
  274TMC3    C6 4194   0.269   1.734  11.127  0.3293 -0.0239 -0.5895
  274TMC3     C 4195   0.257   1.373  11.334 -0.1223 -0.7025 -0.8885
  274TMC3     O 4196   0.235   1.386  11.457  0.5910 -0.2050 -0.4861
  274TMC3     H 4197   0.223   1.404  11.076 -2.6992  0.2711  0.5638
  274TMC3    H1 4198   0.306   1.609  11.436 -1.5671  1.0868 -0.1318
  274TMC3    H2 4199   0.247   1.831  11.083  0.2670 -0.0518 -0.6200
  274TMC3    C7 4200   0.267   1.849  11.340  0.1936  0.0450 -0.3073
  274TMC3    C8 4201   0.171   1.618  10.926  0.7313  0.3138  0.1480
  274TMC3    O1 4202   0.191   1.924  11.284  0.2910  0.3802  0.5328
  274TMC3    O2 4203   0.109   1.517  10.895 -0.0916 -0.5256  0.0298
  275MPD2     C 4204   4.531   3.903  14.921 -0.2721 -0.3646 -0.6393
  275MPD2    C1 4205   4.547   3.772  14.872  0.1775 -0.1062  0.9129
  275MPD2    C2 4206   4.441   3.727  14.800 -0.0738 -0.1711 -0.0618
  275MPD2    C3 4207   4.327   3.800  14.775 -0.0817  0.3597 -0.2051
  275MPD2    C4 4208   4.314   3.929  14.828 -0.6026  0.5340 -0.1979
  275MPD2    C5 4209   4.421   3.978  14.894  0.0266  0.1416  0.0296
  275MPD2     H 4210   4.443   3.629  14.754 -1.1860  0.4218 -1.4099
  275MPD2    H1 4211   4.237   3.997  14.793 -1.3263 -0.4680 -0.5992
  275MPD2    H2 4212   4.608   3.953  14.979  1.2725 -1.1815 -1.9922
  275MPD2    H3 4213   4.416   4.080  14.929  0.2298  0.5519 -1.1453
  275MPD2     N 4214   4.219   3.750  14.704  0.3097 -0.3494 -0.0596
  275MPD2    H5 4215   4.134   3.805  14.714 -0.5413 -1.3203 -1.9305
  275MPD2    N1 4216   4.651   3.686  14.884  0.1865 -0.6732 -0.0725
  275MPD2    H7 4217   4.639   3.605  14.825 -1.2592  0.4100 -1.2465
  276TMC3    C1 4218   0.127   3.604  14.956  0.1777 -0.6368 -0.4465
  276TMC3    C2 4219   0.143   3.521  14.849  0.0274 -0.7408 -0.2768
  276TMC3    C3 4220   0.251   3.433  14.855  0.3127 -0.0773  0.0546
  276TMC3    C4 4221   0.208   3.611  15.061  0.0336 -0.4423  0.2087
  276TMC3    C5 4222   0.306   3.519  15.067  1.1025  0.5493 -0.1324
  276TMC3    C6 4223   0.327   3.429  14.966  0.6545  0.5382  0.2781
  276TMC3     C 4224   0.037   3.714  14.950  0.5649 -0.4895 -0.7149
  276TMC3     O 4225   0.071   3.831  14.979  0.4626 -0.0154  0.3312
  276TMC3     H 4226   0.094   3.543  14.754  1.6312  0.9287 -0.7265
  276TMC3    H1 4227   0.186   3.675  15.146  0.2248  0.6230 -0.5554
  276TMC3    H2 4228   0.410   3.360  14.961 -0.6677 -0.9111 -1.3025
  276TMC3    C7 4229   0.398   3.551  15.168  0.3762 -0.1091 -0.2876
  276TMC3    C8 4230   0.279   3.331  14.760 -0.3260 -0.4049 -0.1649
  276TMC3    O1 4231   0.364   3.618  15.260 -0.0521  0.6399 -0.0905
  276TMC3    O2 4232   0.397   3.304  14.749 -0.5443 -0.3150 -0.3539
  277MPD2     C 4233   1.845   2.941  13.467 -0.2136  0.4880 -0.2642
  277MPD2    C1 4234   1.712   2.979  13.472 -0.2050  0.8117 -0.0436
  277MPD2    C2 4235   1.631   2.940  13.579  0.7662 -0.1363  0.2441
  277MPD2    C3 4236   1.682   2.863  13.676  0.4029 -0.1246 -0.1253
  277MPD2    C4 4237   1.817   2.829  13.680  0.2202  1.1936  0.3686
  277MPD2    C5 4238   1.894   2.872  13.578 -0.9088 -0.5379 -0.1483
  277MPD2     H 4239   1.527   2.972  13.578  0.5213 -0.9696 -1.2268
  277MPD2    H1 4240   1.864   2.765  13.753  0.5485  1.2040  0.1678
  277MPD2    H2 4241   1.916   2.975  13.392 -1.0463 -1.1402 -1.8009
  277MPD2    H3 4242   1.998   2.842  13.576 -0.7900 -0.1596  0.7861
  277MPD2     N 4243   1.591   2.803  13.771 -0.7914  0.0135 -0.2521
  277MPD2    H5 4244   1.493   2.813  13.749 -0.9929 -2.2678 -0.3268
  277MPD2    N1 4245   1.660   3.053  13.356  0.3569 -0.1261  0.3860
  277MPD2    H7 4246   1.723   3.088  13.284 -0.5378 -0.5765 -0.6105
  278TMC3    C1 4247   1.487   2.667  13.933 -0.5680 -0.8314  1.0439
  278TMC3    C2 4248   1.480   2.530  13.949 -0.5726  0.6730  0.2362
  278TMC3    C3 4249   1.357   2.474  13.943  0.1941  0.1847  0.4422
  278TMC3    C4 4250   1.374   2.746  13.914  0.6509 -0.3905 -0.0355
  278TMC3    C5 4251   1.254   2.684  13.913  0.8131 -0.3297 -0.2997
  278TMC3    C6 4252   1.246   2.545  13.911 -0.1355 -0.1333 -0.0565
  278TMC3     C 4253   1.618   2.714  13.877 -0.1652 -0.0798  0.0238
  278TMC3     O 4254   1.720   2.649  13.900  0.0393 -0.2633  0.3525
  278TMC3     H 4255   1.560   2.464  13.983 -1.5707 -0.4617  0.3847
  278TMC3    H1 4256   1.372   2.853  13.900 -2.6341 -0.2154  1.9099
  278TMC3    H2 4257   1.149   2.496  13.909 -1.2173  2.0330 -0.6105
  278TMC3    C7 4258   1.140   2.753  13.845 -0.4539  0.7009  0.1171
  278TMC3    C8 4259   1.353   2.331  13.928  0.4955 -0.4227  0.2113
  278TMC3    O1 4260   1.163   2.849  13.769 -0.0364 -0.0804  0.0403
  278TMC3    O2 4261   1.423   2.263  14.001 -0.4139  0.1228 -0.3323
  279MPD2     C 4262   0.712   2.767   0.368  0.0164 -0.3019  0.1489
  279MPD2    C1 4263   0.647   2.889   0.343 -0.6059 -0.3811 -0.0493
  279MPD2    C2 4264   0.645   2.942   0.217 -0.0041 -0.0767  0.6312
  279MPD2    C3 4265   0.700   2.871   0.111 -0.5876 -0.3878  0.3015
  279MPD2    C4 4266   0.767   2.751   0.134  0.3073  0.1245 -0.2805
  279MPD2    C5 4267   0.773   2.701   0.264 -1.1257 -0.4148  0.1609
  279MPD2     H 4268   0.605   3.042   0.216 -2.4705 -1.0712 -1.7072
  279MPD2    H1 4269   0.821   2.693   0.060 -1.0487 -0.8913 -0.4721
  279MPD2    H2 4270   0.703   2.722   0.466  0.5252  0.9377  0.7709
  279MPD2    H3 4271   0.818   2.603   0.278 -0.3040 -0.3890 -2.3517
  279MPD2     N 4272   0.689   2.926  17.719  0.4465  0.3894  0.1137
  279MPD2    H5 4273   0.722   2.854  17.656  0.0165  0.9015 -0.6913
  279MPD2    N1 4274   0.595   2.948   0.462 -0.2191  0.5315  0.2677
  279MPD2    H7 4275   0.639   2.918   0.548 -0.6734 -0.6147  0.1050
  280TMC3    C1 4276   0.404   3.069   0.375 -0.1040  0.1687 -0.0850
  280TMC3    C2 4277   0.345   2.958   0.314 -0.5234 -0.0771  0.6055
  280TMC3    C3 4278   0.241   2.986   0.240 -1.6125 -0.0191  0.9560
  280TMC3    C4 4279   0.357   3.198   0.358 -0.3551  0.3100 -0.5778
  280TMC3    C5 4280   0.244   3.216   0.278  0.5654  0.5200  0.0663
  280TMC3    C6 4281   0.187   3.110   0.223 -0.4896  0.4975  0.6833
  280TMC3     C 4282   0.510   3.052   0.474 -0.1211  0.6297 -0.4864
  280TMC3     O 4283   0.495   3.121   0.576 -0.5660 -0.0387  0.0509
  280TMC3     H 4284   0.381   2.859   0.342 -0.4810 -0.3925 -0.5787
  280TMC3    H1 4285   0.414   3.274   0.409 -0.6399  0.5304 -0.5867
  280TMC3    H2 4286   0.097   3.120   0.163  0.6703 -0.2387 -1.1671
  280TMC3    C7 4287   0.228   3.345   0.228 -0.5065 -0.6401 -0.1120
  280TMC3    C8 4288   0.222   2.892   0.131 -0.5042  0.1469  0.6964
  280TMC3    O1 4289   0.305   3.420   0.283  0.6457 -0.4279  1.0854
  280TMC3    O2 4290   0.127   2.905   0.064 -0.7261 -0.0431 -0.0689
  281TMC3    C1 4291   4.102   3.159  13.440  0.2115 -0.7175 -0.0189
  281TMC3    C2 4292   4.201   3.237  13.397  0.2565 -0.5378 -0.4158
  281TMC3    C3 4293   4.265   3.192  13.281 -0.6097  0.1606  0.5890
  281TMC3    C4 4294   4.078   3.037  13.392 -0.0440  0.4078  0.5087
  281TMC3    C5 4295   4.145   2.996  13.275 -0.1341 -0.4744 -0.0756
  281TMC3    C6 4296   4.237   3.076  13.219  0.6689  0.2192 -0.2734
  281TMC3     C 4297   3.984   3.205  13.519 -0.1560  0.3244 -0.2366
  281TMC3     O 4298   3.902   3.132  13.581  0.0861 -0.1492  0.4631
  281TMC3     H 4299   4.237   3.331  13.437 -1.0481 -0.0132 -0.4608
  281TMC3    H1 4300   4.008   2.974  13.445  1.0523  0.0641  1.5381
  281TMC3    H2 4301   4.287   3.052  13.127 -0.0265 -0.5368 -0.4601
  281TMC3    C7 4302   4.127   2.862  13.218  0.0523  0.6766  0.0734
  281TMC3    C8 4303   4.387   3.258  13.227  0.1699 -0.4278  0.7349
  281TMC3    O1 4304   4.187   2.835  13.113  0.1728 -0.1548  0.5107
  281TMC3    O2 4305   4.487   3.183  13.224  0.0842 -0.0436  0.1999
  282MPD2     C 4306   1.550   4.366  15.116 -0.1749  0.6414  0.0369
  282MPD2    C1 4307   1.443   4.446  15.147  0.3275 -0.2695 -0.2643
  282MPD2    C2 4308   1.360   4.488  15.044  0.0710  0.8497  0.6556
  282MPD2    C3 4309   1.377   4.443  14.916  0.5086 -0.2195 -0.1610
  282MPD2    C4 4310   1.479   4.353  14.900 -0.2189  0.0380 -0.3000
  282MPD2    C5 4311   1.569   4.319  14.996  0.1391  0.2758 -0.8388
  282MPD2     H 4312   1.278   4.557  15.062 -1.2142 -0.1382 -1.3558
  282MPD2    H1 4313   1.504   4.303  14.808  4.1709 -0.0163  0.9290
  282MPD2    H2 4314   1.623   4.343  15.193 -1.8625 -1.0317  1.1415
  282MPD2    H3 4315   1.646   4.248  14.967 -0.1717 -1.8592  3.5303
  282MPD2     N 4316   1.287   4.483  14.817  0.1392 -0.1729 -0.5693
  282MPD2    H5 4317   1.210   4.540  14.849  0.9772  1.9907 -2.4157
  282MPD2    N1 4318   1.411   4.486  15.285 -0.2034 -0.7026 -0.0894
  282MPD2    H7 4319   1.334   4.552  15.289 -1.6775 -2.3462 -1.6859
  283TMC3    C1 4320   1.389   4.448  15.513 -0.2554  0.0954  0.6409
  283TMC3    C2 4321   1.350   4.577  15.530 -1.0837  0.5419 -0.2190
  283TMC3    C3 4322   1.287   4.606  15.652 -0.5054 -0.2342 -0.1996
  283TMC3    C4 4323   1.362   4.350  15.596 -0.1407 -0.1905 -0.0820
  283TMC3    C5 4324   1.275   4.378  15.701 -0.5062 -0.2565 -0.2076
  283TMC3    C6 4325   1.243   4.504  15.735  0.0039  0.2666 -0.4677
  283TMC3     C 4326   1.458   4.419  15.394  0.4079  0.5251 -0.0213
  283TMC3     O 4327   1.521   4.314  15.399  0.1819  0.0420 -0.3563
  283TMC3     H 4328   1.390   4.658  15.471 -2.6746  0.8449 -0.9025
  283TMC3    H1 4329   1.391   4.247  15.579 -0.9777 -0.1970 -1.4574
  283TMC3    H2 4330   1.186   4.522  15.825 -1.4039 -1.4364 -1.0226
  283TMC3    C7 4331   1.218   4.276  15.787  0.3903 -0.0694  0.7138
  283TMC3    C8 4332   1.272   0.004  15.706  0.1144 -0.3897 -0.1721
  283TMC3    O1 4333   1.189   4.306  15.904 -0.4895  0.5210  0.0615
  283TMC3    O2 4334   1.285   0.018  15.827  0.3005 -0.5471 -0.3841
  284MPD2     C 4335   3.961   3.696  12.275 -0.0184  0.7615  0.4907
  284MPD2    C1 4336   4.053   3.803  12.252  0.8823 -0.4909 -0.0181
  284MPD2    C2 4337   4.170   3.801  12.328  0.5749  0.5444  0.2421
  284MPD2    C3 4338   4.214   3.688  12.397  0.6121 -0.0880 -0.1287
  284MPD2    C4 4339   4.131   3.577  12.393 -0.3169 -0.1946  0.7443
  284MPD2    C5 4340   4.002   3.588  12.345  0.1235 -0.3867 -0.3532
  284MPD2     H 4341   4.237   3.886  12.328  0.4661  0.6471  2.7771
  284MPD2    H1 4342   4.152   3.487  12.449 -1.0237 -0.1329  1.1083
  284MPD2    H2 4343   3.858   3.698  12.241  0.4936  0.0951 -1.0569
  284MPD2    H3 4344   3.943   3.497  12.348 -0.7278  0.0938 -2.4592
  284MPD2     N 4345   4.338   3.678  12.467 -0.5111 -0.0053  0.4061
  284MPD2    H5 4346   4.360   3.582  12.489  0.6941  0.7884  2.6719
  284MPD2    N1 4347   4.014   3.912  12.172 -0.5533 -0.0659 -0.6618
  284MPD2    H7 4348   4.078   3.989  12.157 -0.0625 -0.4120 -0.3165
  285TMC3    C1 4349   3.897   4.025  12.018  0.1621 -0.0563  0.0256
  285TMC3    C2 4350   3.971   3.998  11.910  0.1552 -0.1015  0.2876
  285TMC3    C3 4351   3.945   4.060  11.794 -0.2480 -0.0870  0.0823
  285TMC3    C4 4352   3.801   4.123  12.007 -0.0117  0.1184 -0.1217
  285TMC3    C5 4353   3.780   4.178  11.888  0.0496  0.4559  0.4552
  285TMC3    C6 4354   3.846   4.154  11.778  0.1491  0.3973  0.1857
  285TMC3     C 4355   3.888   3.933  12.126  0.4423 -0.8221  0.9193
  285TMC3     O 4356   3.775   3.887  12.156 -0.6928 -0.1198 -0.3678
  285TMC3     H 4357   4.060   3.936  11.921  1.2265  0.6580 -4.3232
  285TMC3    H1 4358   3.749   4.148  12.098 -1.0190 -1.8311 -0.1535
  285TMC3    H2 4359   3.813   4.179  11.678 -2.2577 -0.3798  0.7864
  285TMC3    C7 4360   3.709   4.304  11.885 -0.1564  0.6450  0.2805
  285TMC3    C8 4361   3.999   4.004  11.676  0.2127  0.1575  0.2910
  285TMC3    O1 4362   3.659   4.347  11.779 -0.3325 -0.3971 -0.1942
  285TMC3    O2 4363   3.996   3.884  11.668 -0.1407 -0.1277  0.0833
  286MPD2     C 4364   4.414   2.369   0.284 -0.2488 -0.2385 -0.2683
  286MPD2    C1 4365   4.473   2.450   0.376  0.2403  0.5623  0.3936
  286MPD2    C2 4366   4.573   2.388   0.447  0.3818 -0.8827 -0.7659
  286MPD2    C3 4367   4.632   2.265   0.404  0.3941  0.0576  0.1186
  286MPD2    C4 4368   4.572   2.188   0.310 -0.2778  0.7026 -0.2351
  286MPD2    C5 4369   4.460   2.245   0.253  0.5333  0.2497 -0.0260
  286MPD2     H 4370   4.630   2.443   0.521 -0.3790 -1.1557  0.0350
  286MPD2    H1 4371   4.617   2.097   0.272 -0.7660  0.4567 -0.2197
  286MPD2    H2 4372   4.332   2.408   0.225  1.1750  1.0017 -1.4399
  286MPD2    H3 4373   4.406   2.197   0.172  2.1577 -0.5921 -0.6389
  286MPD2     N 4374   0.018   2.219   0.458  0.3922  0.0851 -0.0383
  286MPD2    H5 4375   0.067   2.148   0.404 -2.5430 -1.6937 -0.3789
  286MPD2    N1 4376   4.438   2.580   0.415  0.6230 -0.1442  0.2516
  286MPD2    H7 4377   4.499   2.618   0.486 -0.6001  0.1786  1.1250
  287TMC3    C1 4378   0.209   2.200   0.608 -0.1920  0.3833 -0.3867
  287TMC3    C2 4379   0.260   2.094   0.535 -0.2120  0.3659  0.9377
  287TMC3    C3 4380   0.354   2.015   0.589  0.1831 -0.2101 -0.5457
  287TMC3    C4 4381   0.262   2.233   0.725  0.3808  0.2720  0.0404
  287TMC3    C5 4382   0.364   2.152   0.780 -0.4582 -0.1886 -0.2766
  287TMC3    C6 4383   0.411   2.040   0.717  0.1513 -0.5613  0.3551
  287TMC3     C 4384   0.079   2.265   0.576 -0.0996  0.0109 -0.3639
  287TMC3     O 4385   0.031   2.335   0.668  0.5077 -0.5797  0.0858
  287TMC3     H 4386   0.217   2.059   0.442 -0.4352  2.1995  0.3503
  287TMC3    H1 4387   0.223   2.320   0.777  0.9436  1.1851 -1.0576
  287TMC3    H2 4388   0.495   1.979   0.749 -0.4870 -0.1895  2.7159
  287TMC3    C7 4389   0.443   2.219   0.887 -0.1880 -0.0417 -0.0834
  287TMC3    C8 4390   0.386   1.888   0.518  0.1543 -0.0604 -0.1428
  287TMC3    O1 4391   0.412   2.332   0.927 -0.1962  0.1698  0.1281
  287TMC3    O2 4392   0.303   1.844   0.442  1.0114 -0.4690 -0.6577
  288TMC3    C1 4393   1.298   2.128  14.370 -0.1478  0.2528 -0.1213
  288TMC3    C2 4394   1.296   2.110  14.502 -0.0755  0.2479 -0.0473
  288TMC3    C3 4395   1.279   2.223  14.581 -0.4548 -0.4301 -0.1253
  288TMC3    C4 4396   1.293   2.252  14.312 -0.4705  0.5073  0.8270
  288TMC3    C5 4397   1.289   2.360  14.389  1.7563  0.6260 -1.2028
  288TMC3    C6 4398   1.287   2.347  14.523 -0.0249  0.5438  0.1911
  288TMC3     C 4399   1.336   2.011  14.294 -0.2814  0.7318  0.1677
  288TMC3     O 4400   1.336   1.905  14.356  0.4250  0.0184  0.3893
  288TMC3     H 4401   1.298   2.014  14.552  1.4130 -1.2463 -2.9734
  288TMC3    H1 4402   1.268   2.273  14.208  0.4126  0.8532  0.6844
  288TMC3    H2 4403   1.278   2.438  14.581 -1.0686  0.2085  0.5639
  288TMC3    C7 4404   1.270   2.486  14.330 -0.5743 -0.7204  0.2014
  288TMC3    C8 4405   1.288   2.218  14.720  0.7805  0.8027  0.1781
  288TMC3    O1 4406   1.174   2.495  14.252 -0.5360 -0.1849 -0.5179
  288TMC3    O2 4407   1.314   2.329  14.769 -0.3662  0.5582 -0.8708
  289MPD2     C 4408   1.754   1.197  14.543 -0.3158  0.5044 -0.3249
  289MPD2    C1 4409   1.753   1.308  14.458  0.1985  0.0436  0.0068
  289MPD2    C2 4410   1.633   1.362  14.412 -0.3205  0.1374  0.0320
  289MPD2    C3 4411   1.513   1.287  14.441 -0.2493 -0.3325  0.1988
  289MPD2    C4 4412   1.522   1.169  14.515 -1.1938  0.6241 -0.5245
  289MPD2    C5 4413   1.647   1.125  14.561 -0.5438  0.0367  0.1500
  289MPD2     H 4414   1.629   1.451  14.350  0.6181  0.1108 -0.0596
  289MPD2    H1 4415   1.442   1.096  14.512  1.7603 -2.6384  0.6448
  289MPD2    H2 4416   1.845   1.160  14.589 -0.3124 -0.6347 -1.2502
  289MPD2    H3 4417   1.654   1.032  14.616  2.1660 -0.5245 -1.1638
  289MPD2     N 4418   1.377   1.327  14.413 -1.1414  0.1772 -0.2045
  289MPD2    H5 4419   1.299   1.273  14.450  0.9599 -1.6466  1.5716
  289MPD2    N1 4420   1.877   1.375  14.459 -0.5713 -0.9065  0.1926
  289MPD2    H7 4421   1.953   1.338  14.515  1.6629  0.2990 -2.0246
  290TMC3    C1 4422   1.212   1.456  14.302  0.0036  0.4912 -0.0009
  290TMC3    C2 4423   1.183   1.572  14.239 -0.0936  0.2276 -0.5224
  290TMC3    C3 4424   1.066   1.587  14.180 -0.1789  0.0437 -0.7725
  290TMC3    C4 4425   1.125   1.354  14.301 -0.1573  0.1229  0.4608
  290TMC3    C5 4426   0.998   1.372  14.242  0.1221 -0.3082  0.2782
  290TMC3    C6 4427   0.965   1.494  14.183  0.7914 -0.6278  0.8888
  290TMC3     C 4428   1.346   1.428  14.324  0.0406 -0.6495 -0.2747
  290TMC3     O 4429   1.412   1.519  14.276  0.1102 -0.5305 -0.0005
  290TMC3     H 4430   1.250   1.657  14.234 -0.5889  0.7812  2.1758
  290TMC3    H1 4431   1.149   1.260  14.350 -0.2468 -0.0809  0.1175
  290TMC3    H2 4432   0.871   1.513  14.132  0.0503 -5.2954  0.5502
  290TMC3    C7 4433   0.898   1.270  14.241 -1.0241 -0.0458 -0.1534
  290TMC3    C8 4434   1.030   1.711  14.112  0.1249 -0.4972 -1.0583
  290TMC3    O1 4435   0.779   1.293  14.214  0.0727  0.2514 -0.6171
  290TMC3    O2 4436   0.989   1.693  13.996 -0.3153  0.4855 -0.5865
  291MPD2     C 4437   1.878   0.816   0.331  0.1593  0.4875 -0.0924
  291MPD2    C1 4438   1.819   0.865   0.444  0.2233  0.0566  0.2583
  291MPD2    C2 4439   1.804   1.005   0.465  0.4303 -0.9726  0.3882
  291MPD2    C3 4440   1.844   1.087   0.367  0.1577 -0.4053  0.6197
  291MPD2    C4 4441   1.894   1.037   0.247  0.3320  0.8205 -0.3643
  291MPD2    C5 4442   1.922   0.906   0.239  0.4283 -0.7036  0.0251
  291MPD2     H 4443   1.772   1.043   0.562 -0.1713 -0.6706  0.0686
  291MPD2    H1 4444   1.921   1.109   0.171  2.1307  2.1400  1.5143
  291MPD2    H2 4445   1.904   0.715   0.304 -0.4267  0.5349 -0.8252
  291MPD2    H3 4446   1.979   0.861   0.158  1.6952  0.4447  0.2699
  291MPD2     N 4447   1.820   1.225   0.368  0.2287  0.6876  0.1632
  291MPD2    H5 4448   1.843   1.268   0.280 -0.0102 -0.0560 -0.2627
  291MPD2    N1 4449   1.769   0.779   0.547  0.6744  0.3347 -0.1332
  291MPD2    H7 4450   1.720   0.819   0.626 -1.8311 -2.1345 -0.4559
  292TMC3    C1 4451   1.705   0.593   0.663 -0.4751 -0.0432 -0.6985
  292TMC3    C2 4452   1.671   0.672   0.776  0.0717  0.2520 -0.2030
  292TMC3    C3 4453   1.586   0.617   0.868  1.1891 -1.0378 -0.3185
  292TMC3    C4 4454   1.659   0.463   0.650  0.8311  0.5488 -0.8773
  292TMC3    C5 4455   1.581   0.410   0.750 -0.4555  0.2539 -0.1576
  292TMC3    C6 4456   1.544   0.488   0.856 -0.5075  0.6151  0.1351
  292TMC3     C 4457   1.787   0.645   0.553 -0.4295 -0.6677  1.3309
  292TMC3     O 4458   1.837   0.567   0.476  0.4895 -0.0063  0.1351
  292TMC3     H 4459   1.710   0.771   0.797  0.7082  0.2658 -1.4431
  292TMC3    H1 4460   1.681   0.402   0.563  0.0250  0.4342 -0.9946
  292TMC3    H2 4461   1.461   0.457   0.918 -1.0644  1.3805 -0.2361
  292TMC3    C7 4462   1.493   0.307   0.707  0.2502 -0.8249 -0.1613
  292TMC3    C8 4463   1.509   0.712   0.957  0.8919  0.5316 -0.5499
  292TMC3    O1 4464   1.485   0.293   0.588  0.3292  0.7948  0.3175
  292TMC3    O2 4465   1.497   0.827   0.922 -0.1508 -0.0139  0.2166
  293MPD2     C 4466   2.783   2.913  12.539  0.3205 -0.3936  0.0464
  293MPD2    C1 4467   2.647   2.886  12.562  0.7435 -0.0117 -0.2528
  293MPD2    C2 4468   2.608   2.850  12.691  0.1367 -0.5554 -0.3452
  293MPD2    C3 4469   2.696   2.868  12.796  0.1079  0.6546 -0.3036
  293MPD2    C4 4470   2.826   2.905  12.767 -0.1878  0.1398  0.5631
  293MPD2    C5 4471   2.877   2.913  12.638  0.7171  0.1789  0.9780
  293MPD2     H 4472   2.513   2.807  12.718 -0.2591  0.4008 -0.2519
  293MPD2    H1 4473   2.898   2.921  12.847  0.3115  0.4131  0.0598
  293MPD2    H2 4474   2.811   2.939  12.437 -0.1066  0.6277  0.1901
  293MPD2    H3 4475   2.981   2.919  12.611  1.0981  1.1215  2.7210
  293MPD2     N 4476   2.645   2.846  12.933  0.2043 -0.0667 -0.1478
  293MPD2    H5 4477   2.558   2.796  12.949 -0.0556 -0.7333 -3.5818
  293MPD2    N1 4478   2.567   2.863  12.449  0.1680  0.7364 -0.5055
  293MPD2    H7 4479   2.615   2.853  12.361 -0.1804  0.6033 -0.6820
  294TMC3    C1 4480   2.393   2.758  12.325 -0.3526 -0.7299 -0.5958
  294TMC3    C2 4481   2.293   2.665  12.317  1.0071 -0.3543 -0.3657
  294TMC3    C3 4482   2.227   2.648  12.201 -0.0497  0.4816 -0.3868
  294TMC3    C4 4483   2.433   2.829  12.215 -0.4106  0.1732 -0.9018
  294TMC3    C5 4484   2.373   2.800  12.095 -0.2963 -0.0338 -0.0836
  294TMC3    C6 4485   2.271   2.708  12.083  0.3847  0.0516 -0.0096
  294TMC3     C 4486   2.440   2.803  12.451 -0.0632  0.1341 -0.3552
  294TMC3     O 4487   2.361   2.791  12.543  0.3763 -0.0150  0.9548
  294TMC3     H 4488   2.269   2.614  12.410 -2.0760  0.1563 -0.8998
  294TMC3    H1 4489   2.494   2.918  12.225  0.9156 -0.5939 -2.1354
  294TMC3    H2 4490   2.218   2.703  11.988 -1.0819 -2.6764  0.9646
  294TMC3    C7 4491   2.432   2.848  11.965  0.0387 -0.0892  0.4819
  294TMC3    C8 4492   2.147   2.526  12.191 -0.2453  0.5598 -0.2546
  294TMC3    O1 4493   2.353   2.890  11.881 -0.1398  0.3713 -0.1906
  294TMC3    O2 4494   2.170   2.461  12.089 -0.0847 -0.6121 -0.1317
  295MPD2     C 4495   3.476   2.398   0.854  0.0695  0.1837 -0.3086
  295MPD2    C1 4496   3.345   2.384   0.816 -0.0340  1.2910 -0.3499
  295MPD2    C2 4497   3.248   2.345   0.907  0.6777  0.1299 -0.0195
  295MPD2    C3 4498   3.286   2.339   1.041  0.2206 -0.2920 -0.0895
  295MPD2    C4 4499   3.407   2.394   1.084 -0.4250 -0.0652  0.0766
  295MPD2    C5 4500   3.501   2.419   0.989  0.5039 -0.7352 -0.2314
  295MPD2     H 4501   3.146   2.326   0.874  1.3484 -1.4655 -1.1936
  295MPD2    H1 4502   3.436   2.397   1.189 -0.4173 -0.0934  0.0752
  295MPD2    H2 4503   3.558   2.401   0.783  1.6743 -1.6504  1.4468
  295MPD2    H3 4504   3.597   2.461   1.017  0.5924 -1.1022  0.0263
  295MPD2     N 4505   3.201   2.289   1.140 -0.2150 -0.2417  0.1132
  295MPD2    H5 4506   3.241   2.291   1.233 -0.2450 -1.1909  0.1470
  295MPD2    N1 4507   3.309   2.395   0.687  0.1011  0.3651 -0.6041
  295MPD2    H7 4508   3.213   2.378   0.660 -0.1412  0.8111 -0.0147
  296TMC3    C1 4509   3.018   2.191   1.238  0.2028  0.3583  0.3294
  296TMC3    C2 4510   3.066   2.241   1.357 -0.3636  0.0033 -0.4494
  296TMC3    C3 4511   3.018   2.178   1.466  1.3596  0.4449  0.1086
  296TMC3    C4 4512   2.923   2.091   1.218 -0.4466  0.5849  0.1348
  296TMC3    C5 4513   2.890   2.027   1.334  0.1797 -0.0802  0.9069
  296TMC3    C6 4514   2.928   2.077   1.458 -0.1407  0.3022  0.3901
  296TMC3     C 4515   3.083   2.235   1.119 -0.1676  0.0113  0.6784
  296TMC3     O 4516   3.022   2.211   1.012 -0.5211  0.0825 -0.2748
  296TMC3     H 4517   3.129   2.328   1.370 -0.8869  0.1274  1.2089
  296TMC3    H1 4518   2.892   2.058   1.120 -0.7819  0.6674  0.2150
  296TMC3    H2 4519   2.889   2.028   1.546  1.3032  0.1704  0.9448
  296TMC3    C7 4520   2.792   1.921   1.337  0.7185 -0.4554  0.0983
  296TMC3    C8 4521   3.027   2.241   1.595 -0.1660  0.2839  0.4645
  296TMC3    O1 4522   2.737   1.894   1.438  0.1322  0.2724 -0.6684
  296TMC3    O2 4523   2.944   2.217   1.676 -0.1172  0.2004 -0.1374
  297MPD2     C 4524   0.155   3.212  16.186  0.4101 -0.0875  0.5567
  297MPD2    C1 4525   0.217   3.279  16.084 -0.1536  0.1776 -1.0931
  297MPD2    C2 4526   0.351   3.319  16.099 -0.1728 -0.6547  0.0735
  297MPD2    C3 4527   0.420   3.285  16.207  0.1528  0.1973 -0.4871
  297MPD2    C4 4528   0.365   3.209  16.310  0.5255  0.1228  0.4726
  297MPD2    C5 4529   0.229   3.184  16.294  0.2237 -0.3455 -0.4064
  297MPD2     H 4530   0.386   3.384  16.020 -1.0826  0.7322  0.8140
  297MPD2    H1 4531   0.422   3.185  16.399 -0.4392 -2.5359  0.3673
  297MPD2    H2 4532   0.051   3.185  16.174  0.8045 -0.7061 -1.5295
  297MPD2    H3 4533   0.187   3.132  16.380 -0.1824 -0.5945 -0.7565
  297MPD2     N 4534   0.552   3.337  16.225 -0.4599  0.3760 -0.0915
  297MPD2    H5 4535   0.591   3.397  16.153  0.5583  2.6447  2.3435
  297MPD2    N1 4536   0.131   3.327  15.986  0.8004 -0.3416  0.2289
  297MPD2    H7 4537   0.031   3.319  16.005  1.2458 -1.9611  1.8318
  298TMC3    C1 4538   0.063   3.442  15.793 -0.2233  0.2804  0.0014
  298TMC3    C2 4539   0.079   3.443  15.655 -0.6223 -0.4264  0.0514
  298TMC3    C3 4540   4.719   3.498  15.578 -0.0923  0.1628  0.7253
  298TMC3    C4 4541   4.707   3.522  15.858  0.5567 -0.8509  0.7262
  298TMC3    C5 4542   4.631   3.596  15.773  0.1585 -0.3697  0.8914
  298TMC3    C6 4543   4.630   3.584  15.638  0.2114 -0.2205  0.1750
  298TMC3     C 4544   0.172   3.384  15.870 -0.2995 -0.6520  0.6073
  298TMC3     O 4545   0.284   3.377  15.813  0.3214  0.6151  0.4070
  298TMC3     H 4546   0.149   3.372  15.612 -0.8610 -0.1876 -0.7350
  298TMC3    H1 4547   4.696   3.533  15.965 -1.6740  0.3425  0.3852
  298TMC3    H2 4548   4.547   3.626  15.582  0.1292  0.1988  0.6164
  298TMC3    C7 4549   4.541   3.697  15.836  0.8596  0.1988 -0.4033
  298TMC3    C8 4550   4.730   3.479  15.433 -0.2486  0.0982  0.1451
  298TMC3    O1 4551   4.513   3.683  15.955 -0.3913  0.5087 -0.5585
  298TMC3    O2 4552   0.078   3.404  15.394 -0.1615  0.0802 -0.4765
  299MPD2     C 4553   0.503   3.267  10.473  0.3614 -0.2421 -0.9531
  299MPD2    C1 4554   0.507   3.359  10.369 -0.4767 -0.8546  0.5105
  299MPD2    C2 4555   0.390   3.386  10.292 -0.4787  0.5446 -0.7787
  299MPD2    C3 4556   0.270   3.316  10.321  0.2397 -0.1329 -0.1209
  299MPD2    C4 4557   0.274   3.233  10.432 -0.1666 -0.0393  0.1030
  299MPD2    C5 4558   0.387   3.201  10.502  0.2470 -0.0862  0.5161
  299MPD2     H 4559   0.393   3.472  10.227 -0.9533  2.3800  1.6251
  299MPD2    H1 4560   0.188   3.182  10.474  1.1011 -0.5817  2.0346
  299MPD2    H2 4561   0.596   3.246  10.524 -0.6132  0.4043  1.0962
  299MPD2    H3 4562   0.386   3.136  10.589  0.3186  0.1130  0.6654
  299MPD2     N 4563   0.152   3.351  10.265  0.0411  0.3242  0.2339
  299MPD2    H5 4564   0.072   3.320  10.320  0.6623 -2.4740 -0.4120
  299MPD2    N1 4565   0.625   3.436  10.352  0.0628 -0.1185 -0.5384
  299MPD2    H7 4566   0.699   3.428  10.422  0.9897  0.4372 -1.4540
  300TMC3    C1 4567   4.733   3.453  10.130  0.1523 -0.4289 -0.5768
  300TMC3    C2 4568   4.721   3.575  10.079  0.2015 -0.8762  0.0266
  300TMC3    C3 4569   4.618   3.655  10.115  0.1092 -0.4686 -0.2341
  300TMC3    C4 4570   4.631   3.403  10.216 -0.1909 -0.0862 -0.6557
  300TMC3    C5 4571   4.522   3.484  10.242  0.1605  0.4574  0.6339
  300TMC3    C6 4572   4.521   3.613  10.205 -0.4153 -0.1740 -0.4716
  300TMC3     C 4573   0.130   3.403  10.138 -0.0708 -0.6402 -0.1326
  300TMC3     O 4574   0.217   3.433  10.061 -0.0542  0.2090 -0.3620
  300TMC3     H 4575   0.069   3.620  10.025  0.8539 -0.7123  1.1566
  300TMC3    H1 4576   4.638   3.299  10.246 -0.8695  0.6901  2.2497
  300TMC3    H2 4577   4.432   3.675  10.204  0.8156  1.5803 -0.1009
  300TMC3    C7 4578   4.396   3.423  10.264 -0.1889  0.4147  0.0884
  300TMC3    C8 4579   4.655   3.789  10.145 -0.2967 -0.4051 -0.0829
  300TMC3    O1 4580   4.353   3.364  10.162 -0.1501 -0.3050  0.0681
  300TMC3    O2 4581   0.040   3.802  10.164  0.1577 -0.0406 -0.2762
  301MPD2     C 4582   2.973   0.292   1.225  0.0981 -0.2347 -0.7911
  301MPD2    C1 4583   2.851   0.228   1.238  0.6348 -0.0495 -0.1096
  301MPD2    C2 4584   2.855   0.091   1.267 -0.5331 -0.2429  1.3490
  301MPD2    C3 4585   2.973   0.013   1.268 -0.7464 -0.7284  0.7671
  301MPD2    C4 4586   3.094   0.082   1.244 -0.3127 -0.3925  0.2080
  301MPD2    C5 4587   3.091   0.221   1.229 -0.0889  1.2224 -0.2165
  301MPD2     H 4588   2.763   0.039   1.289 -0.0799 -1.9668 -0.7541
  301MPD2    H1 4589   3.193   0.040   1.233  0.2130  1.0924 -0.7092
  301MPD2    H2 4590   2.975   0.399   1.209  0.4050  0.0633  1.2977
  301MPD2    H3 4591   3.188   0.264   1.209  1.1295 -1.6179 -0.2625
  301MPD2     N 4592   2.973   4.602   1.282 -1.0878  0.1071  0.6660
  301MPD2    H5 4593   3.063   4.555   1.276 -1.1172  0.2897 -1.3145
  301MPD2    N1 4594   2.726   0.282   1.213  0.7800 -0.1001 -0.1806
  301MPD2    H7 4595   2.649   0.217   1.221  0.9653 -0.6442 -2.6779
  302TMC3    C1 4596   2.903   4.381   1.289  0.6309  0.0868  0.2672
  302TMC3    C2 4597   2.989   4.336   1.390  0.7030  0.8184 -0.0513
  302TMC3    C3 4598   2.984   4.206   1.429 -0.0967 -0.6163  0.4072
  302TMC3    C4 4599   2.815   4.292   1.239  0.3976 -0.1332  0.5070
  302TMC3    C5 4600   2.803   4.161   1.286 -0.0663 -0.5274 -0.1726
  302TMC3    C6 4601   2.887   4.118   1.382  0.0105 -0.2129 -0.5154
  302TMC3     C 4602   2.863   4.518   1.287  0.4663  0.2237  0.5319
  302TMC3     O 4603   2.746   4.546   1.280  0.4474  0.3672 -0.0224
  302TMC3     H 4604   3.056   4.409   1.435  1.1544  0.8788 -0.8297
  302TMC3    H1 4605   2.743   4.321   1.162  1.8227 -0.7787 -1.0730
  302TMC3    H2 4606   2.869   4.016   1.414 -2.5428 -0.0863 -1.5315
  302TMC3    C7 4607   2.716   4.058   1.226 -0.2686  0.4560  0.5063
  302TMC3    C8 4608   3.096   4.140   1.501  0.2233  0.2216  0.3270
  302TMC3    O1 4609   2.738   3.940   1.255  0.2954 -0.2518  0.0999
  302TMC3    O2 4610   3.073   4.023   1.528 -0.3605  0.7026  0.3289
  303MPD2     C 4611   2.768   2.671   9.725 -0.1552 -0.6618  0.5564
  303MPD2    C1 4612   2.794   2.573   9.818  0.1232 -0.0986  0.0894
  303MPD2    C2 4613   2.907   2.498   9.802 -0.2309  0.2304  0.2506
  303MPD2    C3 4614   2.977   2.507   9.683 -0.1252 -0.6174  0.2788
  303MPD2    C4 4615   2.956   2.615   9.601  0.0493 -0.2086  0.7407
  303MPD2    C5 4616   2.856   2.703   9.622 -0.5998  0.3983  0.2931
  303MPD2     H 4617   2.938   2.420   9.871 -0.0717 -1.0438 -1.2633
  303MPD2    H1 4618   3.018   2.617   9.511 -1.1129  1.0334 -0.0378
  303MPD2    H2 4619   2.682   2.737   9.722  1.4628  1.4582  1.3834
  303MPD2    H3 4620   2.830   2.779   9.549 -1.6456  0.4562  0.7278
  303MPD2     N 4621   3.074   2.417   9.640  0.0456 -0.5647 -0.0164
  303MPD2    H5 4622   3.122   2.440   9.554 -1.1851 -0.8435 -0.7784
  303MPD2    N1 4623   2.693   2.551   9.913 -0.4935 -0.3387 -0.0013
  303MPD2    H7 4624   2.605   2.599   9.900 -0.4572 -0.6380 -1.3574
  304TMC3    C1 4625   2.588   2.449  10.089 -0.2625 -0.1931 -0.5686
  304TMC3    C2 4626   2.494   2.388  10.010 -0.0091  0.1570  0.2032
  304TMC3    C3 4627   2.422   2.289  10.075 -0.1050  0.5087  0.0563
  304TMC3    C4 4628   2.609   2.424  10.222  0.6605  0.1207 -0.3534
  304TMC3    C5 4629   2.530   2.331  10.282  0.1443  0.4106 -0.2394
  304TMC3    C6 4630   2.437   2.268  10.209 -0.1404 -0.4485 -0.3651
  304TMC3     C 4631   2.710   2.469  10.024 -0.0963 -0.0641 -0.2693
  304TMC3     O 4632   2.810   2.432  10.083 -0.8492  0.0694 -0.1452
  304TMC3     H 4633   2.485   2.400   9.903  1.0442  1.8115  0.2911
  304TMC3    H1 4634   2.694   2.467  10.274 -0.2970  0.6670  0.7856
  304TMC3    H2 4635   2.363   2.204  10.257  0.2828 -0.1693  0.6533
  304TMC3    C7 4636   2.600   2.222  10.361 -0.9542 -0.0309 -0.0359
  304TMC3    C8 4637   2.401   2.173   9.995  0.7072 -0.1723 -0.1661
  304TMC3    O1 4638   2.551   2.113  10.348 -0.6593 -0.3082 -0.1880
  304TMC3    O2 4639   2.367   2.186   9.878  0.4843 -0.4374  0.0859
  305MPD2     C 4640   1.343   0.152  13.902 -0.1403  0.3947 -0.2890
  305MPD2    C1 4641   1.343   0.023  13.956 -0.5204  0.1390  0.5084
  305MPD2    C2 4642   1.303   4.663  13.867  0.2632 -0.1512  0.3561
  305MPD2    C3 4643   1.284   4.679  13.730  0.3909 -0.3690  0.1947
  305MPD2    C4 4644   1.299   0.075  13.683  0.4639 -0.2802 -0.3159
  305MPD2    C5 4645   1.319   0.183  13.769 -0.1554  0.1227  0.2061
  305MPD2     H 4646   1.279   4.566  13.907  0.9600 -0.7030 -0.5651
  305MPD2    H1 4647   1.297   0.093  13.576  3.7607  0.5340 -0.2377
  305MPD2    H2 4648   1.377   0.235  13.963 -1.4987 -2.1717  4.0113
  305MPD2    H3 4649   1.340   0.279  13.724 -3.5315  0.9065  0.2373
  305MPD2     N 4650   1.255   4.573  13.641 -0.5810  0.2623 -0.1928
  305MPD2    H5 4651   1.240   4.602  13.545 -1.1108 -0.0703 -0.2094
  305MPD2    N1 4652   1.382   0.002  14.087  0.1701  0.6600 -0.0274
  305MPD2    H7 4653   1.421   0.083  14.135 -0.0783 -0.0834  1.4393
  306TMC3    C1 4654   1.460   4.621  14.275  0.4379 -0.7660 -0.1766
  306TMC3    C2 4655   1.534   4.515  14.300  0.3000  0.7788  0.6735
  306TMC3    C3 4656   1.614   4.510  14.411  0.7131 -0.1504 -0.2432
  306TMC3    C4 4657   1.447   4.724  14.367 -0.2996 -0.0995 -0.7725
  306TMC3    C5 4658   1.528   4.712  14.477 -0.4077 -0.1547  0.0700
  306TMC3    C6 4659   1.619   4.613  14.503  0.2290 -0.0009 -0.1052
  306TMC3     C 4660   1.378   4.620  14.154  0.2986  0.0425  0.0624
  306TMC3     O 4661   1.341   4.513  14.112 -0.3546 -0.1182 -0.4951
  306TMC3     H 4662   1.544   4.443  14.220 -1.2817  0.2718  0.9343
  306TMC3    H1 4663   1.388   0.080  14.353 -0.8205  0.0320  2.3437
  306TMC3    H2 4664   1.695   4.617  14.580 -1.5396 -0.0434  1.6331
  306TMC3    C7 4665   1.468   0.046  14.596 -0.1351  0.1071  0.6804
  306TMC3    C8 4666   1.732   4.432  14.402 -0.4495 -0.5696  0.2573
  306TMC3    O1 4667   1.343   0.054  14.595  0.2313  0.1608 -0.6269
  306TMC3    O2 4668   1.747   4.379  14.292  0.4632  0.3585 -0.5403
  307MPD2     C 4669   4.235   3.372   0.860 -0.1461 -0.0659 -1.0088
  307MPD2    C1 4670   4.132   3.447   0.908  0.2623 -0.0449  0.2764
  307MPD2    C2 4671   4.058   3.410   1.019  0.0114 -0.0857 -0.0197
  307MPD2    C3 4672   4.093   3.289   1.073 -0.6092 -0.4724 -0.6149
  307MPD2    C4 4673   4.194   3.211   1.022  0.9271  0.5341  0.6473
  307MPD2    C5 4674   4.262   3.247   0.911 -0.2479  0.0422  0.6980
  307MPD2     H 4675   3.987   3.477   1.067 -0.6948 -1.4958  0.8818
  307MPD2    H1 4676   4.220   3.116   1.068  0.9524 -0.4909 -1.4807
  307MPD2    H2 4677   4.307   3.407   0.786  2.1462 -3.5608 -0.4417
  307MPD2    H3 4678   4.351   3.197   0.875 -1.7656 -0.6139 -2.1024
  307MPD2     N 4679   4.035   3.240   1.192  0.0390 -0.5526  0.1698
  307MPD2    H5 4680   4.067   3.154   1.236  0.3683 -0.7943 -0.5327
  307MPD2    N1 4681   4.093   3.566   0.849  0.1753 -0.3599 -0.8310
  307MPD2    H7 4682   4.015   3.617   0.890  0.0769 -0.4421 -0.9175
  308TMC3    C1 4683   3.730   3.032   1.393  0.5417 -0.1239  0.0618
  308TMC3    C2 4684   3.637   3.096   1.468 -0.3979 -0.6057 -0.2665
  308TMC3    C3 4685   3.670   3.225   1.501 -1.0228  0.4609 -0.4359
  308TMC3    C4 4686   3.844   3.087   1.335 -0.8596 -0.5373 -0.4326
  308TMC3    C5 4687   3.873   3.217   1.367 -0.1078  0.2214  0.2571
  308TMC3    C6 4688   3.778   3.287   1.446 -0.1750  0.3246  0.0459
  308TMC3     C 4689   3.666   2.937   1.304  0.3876 -0.0257  0.0890
  308TMC3     O 4690   3.724   2.829   1.274  0.4246 -0.1523 -0.2898
  308TMC3     H 4691   3.543   3.050   1.494 -0.8016 -0.6199 -1.7807
  308TMC3    H1 4692   3.888   3.031   1.253  2.0482 -1.2123  1.5514
  308TMC3    H2 4693   3.800   3.390   1.473 -2.7404  0.2169  2.5388
  308TMC3    C7 4694   3.947   3.304   1.273 -1.0329  0.2384 -0.0393
  308TMC3    C8 4695   3.576   3.290   1.593  0.4816  0.0792  1.7194
  308TMC3    O1 4696   3.903   3.419   1.272  0.1171  0.0238  0.2734
  308TMC3    O2 4697   3.526   3.220   1.678  0.2198  0.3475  0.0530
  309MPD2     C 4698   3.311   3.916  17.206 -0.4314  0.7384  0.3766
  309MPD2    C1 4699   3.215   3.859  17.131 -0.8748 -0.1506 -0.1398
  309MPD2    C2 4700   3.100   3.805  17.188 -0.6976  0.2578  0.9784
  309MPD2    C3 4701   3.093   3.788  17.323 -0.1292 -0.3712 -0.1320
  309MPD2    C4 4702   3.188   3.846  17.404 -0.0838 -0.7302  0.0326
  309MPD2    C5 4703   3.294   3.907  17.342 -0.6074 -0.5172  0.3756
  309MPD2     H 4704   3.021   3.769  17.123 -0.5434  0.1332  0.8610
  309MPD2    H1 4705   3.169   3.851  17.510 -2.1648 -1.1056 -0.3200
  309MPD2    H2 4706   3.401   3.965  17.170  0.6503 -2.3211 -1.0361
  309MPD2    H3 4707   3.360   3.959  17.410 -1.4234 -1.3823  1.8202
  309MPD2     N 4708   2.981   3.731  17.392 -0.8440 -0.0590  0.0397
  309MPD2    H5 4709   2.989   3.707  17.490  1.1861 -3.1997 -0.9085
  309MPD2    N1 4710   3.222   3.871  16.985  0.2553 -0.8418  1.1301
  309MPD2    H7 4711   3.147   3.834  16.928  0.9257  0.5827 -0.6569
  310TMC3    C1 4712   3.329   3.863  16.781 -0.3785  0.4275  0.2684
  310TMC3    C2 4713   3.240   3.910  16.695  0.3313 -0.1403  0.3394
  310TMC3    C3 4714   3.239   3.866  16.564 -0.1809  0.5572 -0.0935
  310TMC3    C4 4715   3.431   3.784  16.735  1.1987  0.4124  0.1371
  310TMC3    C5 4716   3.437   3.745  16.603 -0.6829  0.2002 -0.2700
  310TMC3    C6 4717   3.339   3.777  16.519  0.0645 -1.2997  0.5867
  310TMC3     C 4718   3.338   3.898  16.919 -0.9554 -0.1952  0.2859
  310TMC3     O 4719   3.452   3.906  16.963  0.6681  0.3354 -0.1511
  310TMC3     H 4720   3.160   3.970  16.736 -0.1593  0.3676 -1.3729
  310TMC3    H1 4721   3.518   3.768  16.798  1.2366  1.2671  0.2948
  310TMC3    H2 4722   3.350   3.753  16.414  1.3285 -0.5049  0.5429
  310TMC3    C7 4723   3.520   3.636  16.557  0.3142  0.4543 -0.4753
  310TMC3    C8 4724   3.135   3.904  16.472 -0.2037  0.0114 -0.2388
  310TMC3    O1 4725   3.522   3.606  16.440 -0.2852 -0.3459 -0.1159
  310TMC3    O2 4726   3.119   3.840  16.370  0.6155  0.0382  0.0744
  311MPD2     C 4727   0.114   4.670  12.240  0.1113 -0.5030  0.2307
  311MPD2    C1 4728   0.183   4.638  12.356 -0.6658 -0.0069 -0.0207
  311MPD2    C2 4729   0.106   4.610  12.467 -0.1133  0.0263  0.5239
  311MPD2    C3 4730   4.700   4.610  12.464 -0.5174  0.9979  0.1740
  311MPD2    C4 4731   4.635   4.636  12.348  0.3848  0.0715  0.2231
  311MPD2    C5 4732   4.709   4.665  12.237  0.5752 -0.5079 -0.0566
  311MPD2     H 4733   0.158   4.588  12.559 -3.1323 -1.2883  1.9035
  311MPD2    H1 4734   4.527   4.634  12.354  0.3424 -1.3418 -0.9675
  311MPD2    H2 4735   0.162   4.698  12.147  0.5058 -0.7773  0.3513
  311MPD2    H3 4736   4.653   4.694  12.149 -0.2858  0.7339  0.8897
  311MPD2     N 4737   4.628   4.569  12.584 -0.1796 -0.2420  0.4811
  311MPD2    H5 4738   4.688   4.546  12.663  1.1441 -0.7652 -0.6817
  311MPD2    N1 4739   0.325   4.664  12.371 -0.4485  0.9004 -0.1792
  311MPD2    H7 4740   0.372   4.675  12.460  0.7151  0.8486 -0.7890
  312TMC3    C1 4741   4.456   4.553  12.729  0.6954 -0.5252  0.3344
  312TMC3    C2 4742   4.358   4.463  12.766 -0.8740 -0.0473 -1.0040
  312TMC3    C3 4743   4.324   4.440  12.897  0.2584  0.1206  0.1783
  312TMC3    C4 4744   4.520   4.628  12.826 -0.1686  0.2909  1.3258
  312TMC3    C5 4745   4.482   4.605  12.957 -0.1992 -0.1198 -0.3291
  312TMC3    C6 4746   4.371   4.532  12.992  0.6088  0.2962 -0.1126
  312TMC3     C 4747   4.494   4.560  12.590  0.3715  0.2414  0.4653
  312TMC3     O 4748   4.406   4.548  12.501 -0.0632  0.9139 -0.1794
  312TMC3     H 4749   4.312   4.412  12.682  1.5371 -0.8285 -1.8673
  312TMC3    H1 4750   4.600   4.697  12.805  2.0568 -2.3775  0.9752
  312TMC3    H2 4751   4.349   4.513  13.096 -2.7913  0.4202 -0.7789
  312TMC3    C7 4752   4.558   4.684  13.057 -0.0155 -0.2703  0.1845
  312TMC3    C8 4753   4.201   4.378  12.930 -0.3701 -0.3402 -0.7511
  312TMC3    O1 4754   4.575   0.060  13.010  0.0215  0.0588 -0.0618
  312TMC3    O2 4755   4.185   4.271  12.866  0.5794  0.3053 -0.3454
  313MPD2     C 4756   4.020   4.462  11.392 -0.1042  0.0660  0.2028
  313MPD2    C1 4757   4.044   4.482  11.259 -0.3054  1.2716 -0.5238
  313MPD2    C2 4758   3.981   4.409  11.162 -0.3673  1.4435 -0.5298
  313MPD2    C3 4759   3.915   4.292  11.214 -0.2641  0.5890 -0.4021
  313MPD2    C4 4760   3.892   4.273  11.347 -0.0562 -0.3788 -1.1186
  313MPD2    C5 4761   3.942   4.359  11.438 -0.5024  0.5171  0.3704
  313MPD2     H 4762   4.003   4.435  11.059  0.1590 -0.7078 -0.9509
  313MPD2    H1 4763   3.838   4.187  11.384 -0.9602  0.5724 -0.2497
  313MPD2    H2 4764   4.065   4.526  11.467  0.4944 -1.4516  1.1482
  313MPD2    H3 4765   3.910   4.341  11.540 -1.6366 -0.1576 -0.1028
  313MPD2     N 4766   3.875   4.201  11.114  0.6405 -0.1504  0.2334
  313MPD2    H5 4767   3.901   4.220  11.018 -1.2555  0.4201 -0.1739
  313MPD2    N1 4768   4.111   4.597  11.215 -0.0406 -0.6372 -0.3860
  313MPD2    H7 4769   4.119   4.603  11.114  2.3270  1.0193 -0.0828
  314TMC3    C1 4770   4.241   0.058  11.218  0.6877 -0.2756 -0.0782
  314TMC3    C2 4771   4.372   0.071  11.213  0.7786 -0.1071  0.2406
  314TMC3    C3 4772   4.434   0.146  11.117 -0.4909  0.2746  0.4198
  314TMC3    C4 4773   4.165   0.106  11.109 -0.4580  0.4723  1.3418
  314TMC3    C5 4774   4.227   0.176  11.014 -0.5716 -0.9857  0.0729
  314TMC3    C6 4775   4.359   0.197  11.014 -0.7893 -0.2161 -0.0303
  314TMC3     C 4776   4.180   4.685  11.293 -0.0579 -0.2332  0.3345
  314TMC3     O 4777   4.218   4.679  11.408  0.0498 -0.2457 -0.3496
  314TMC3     H 4778   4.431   0.033  11.295  1.7159 -1.0622 -0.8742
  314TMC3    H1 4779   4.059   0.082  11.107 -0.0137 -1.7093  3.4406
  314TMC3    H2 4780   4.412   0.248  10.935 -0.8972 -0.2444 -0.1208
  314TMC3    C7 4781   4.159   0.176  10.892 -0.3443 -0.1914  0.5231
  314TMC3    C8 4782   4.580   0.136  11.099 -0.5091 -0.3395 -0.0869
  314TMC3    O1 4783   4.038   0.203  10.897  0.4754 -0.2501 -0.5642
  314TMC3    O2 4784   4.640   0.217  11.030  0.1034  0.7286  0.4781
  315MPD2     C 4785   4.188   2.801  17.391 -0.4602 -0.3861 -0.2646
  315MPD2    C1 4786   4.295   2.841  17.459 -0.0000 -0.1121  0.9641
  315MPD2    C2 4787   4.353   2.961  17.426 -0.1173  0.7184 -0.1589
  315MPD2    C3 4788   4.298   3.042  17.331 -0.4154 -0.8897 -1.0595
  315MPD2    C4 4789   4.187   2.993  17.265 -0.2378 -0.0757 -0.3442
  315MPD2    C5 4790   4.133   2.870  17.294 -0.3230  0.3592 -0.2383
  315MPD2     H 4791   4.440   2.996  17.480  0.2316 -2.3464  1.2672
  315MPD2    H1 4792   4.131   3.050  17.192  1.5598  0.0735 -1.5987
  315MPD2    H2 4793   4.136   2.707  17.407  1.3171 -1.1456  1.0747
  315MPD2    H3 4794   4.046   2.828  17.245  0.5423  0.7176 -2.0981
  315MPD2     N 4795   4.343   3.178  17.319  0.6671  0.4961  0.2099
  315MPD2    H5 4796   4.412   3.207  17.387  1.0980  0.5924 -0.2647
  315MPD2    N1 4797   4.357   2.757  17.564 -0.1246  0.6364  0.3625
  315MPD2    H7 4798   4.447   2.789  17.598  0.9084 -0.9330 -0.9315
  316TMC3    C1 4799   4.371   3.399  17.214 -0.6667  0.3651 -0.8372
  316TMC3    C2 4800   4.455   3.445  17.312 -0.3761  0.3840  0.2231
  316TMC3    C3 4801   4.494   3.574  17.304 -0.2083 -0.3036 -0.2546
  316TMC3    C4 4802   4.348   3.472  17.104  0.1633  0.0993 -0.1647
  316TMC3    C5 4803   4.412   3.591  17.087  0.3246  0.6194  0.8304
  316TMC3    C6 4804   4.478   3.651  17.189 -0.2000 -0.5384  0.0430
  316TMC3     C 4805   4.303   3.266  17.218  0.0224 -0.9335 -0.1304
  316TMC3     O 4806   4.225   3.242  17.130  0.3384  0.4546  0.1032
  316TMC3     H 4807   4.474   3.386  17.401  0.1698  0.7476  0.3479
  316TMC3    H1 4808   4.300   3.428  17.018 -0.6543  0.4248  0.1313
  316TMC3    H2 4809   4.500   3.757  17.181 -1.5437 -0.5313 -3.8038
  316TMC3    C7 4810   4.406   3.658  16.956  0.1970 -0.1350 -0.4036
  316TMC3    C8 4811   4.584   3.635  17.406 -0.4662  0.8137 -0.4577
  316TMC3    O1 4812   4.370   3.773  16.952 -0.4293 -0.5505 -0.1290
  316TMC3    O2 4813   4.627   3.747  17.392  0.3229  0.2350 -0.3566
  317MPD2     C 4814   1.220   1.684  13.182  0.6177  0.4510 -0.1399
  317MPD2    C1 4815   1.234   1.563  13.116  0.6234 -0.5449  0.3614
  317MPD2    C2 4816   1.337   1.481  13.157  0.2904 -0.1822 -0.9306
  317MPD2    C3 4817   1.429   1.515  13.252 -0.1731  0.0998  0.1684
  317MPD2    C4 4818   1.408   1.630  13.318 -0.2429  0.1375 -0.0684
  317MPD2    C5 4819   1.309   1.719  13.282 -0.7741  0.3215 -0.0489
  317MPD2     H 4820   1.355   1.390  13.101  0.3873 -0.8961  0.2707
  317MPD2    H1 4821   1.477   1.655  13.398 -0.0324 -1.3049  0.2058
  317MPD2    H2 4822   1.142   1.750  13.149  0.6589  0.1153 -0.9151
  317MPD2    H3 4823   1.284   1.813  13.330  0.9007  0.7256  0.0587
  317MPD2     N 4824   1.518   1.414  13.297  0.6178 -0.0631  0.1359
  317MPD2    H5 4825   1.502   1.321  13.258 -0.7724 -0.6058  1.9978
  317MPD2    N1 4826   1.148   1.518  13.011  0.2164  0.4547 -0.6961
  317MPD2    H7 4827   1.169   1.428  12.971  3.0271 -0.7367  3.4063
  318TMC3    C1 4828   1.682   1.294  13.400  0.0031  0.7466  0.4174
  318TMC3    C2 4829   1.601   1.186  13.413 -0.0581  0.9032  0.3807
  318TMC3    C3 4830   1.663   1.065  13.423  0.6307 -0.3878  0.4823
  318TMC3    C4 4831   1.821   1.282  13.414  0.4156 -0.4121 -0.5689
  318TMC3    C5 4832   1.871   1.154  13.436  0.0452 -0.0107  0.0182
  318TMC3    C6 4833   1.793   1.051  13.440  0.1233 -0.5451 -0.7721
  318TMC3     C 4834   1.624   1.425  13.379  0.1434  0.1003  0.2193
  318TMC3     O 4835   1.679   1.523  13.429 -0.3193  0.1422  0.2222
  318TMC3     H 4836   1.493   1.186  13.419 -0.1171 -0.3904 -0.4728
  318TMC3    H1 4837   1.880   1.372  13.411  2.2779 -1.6235 -0.6233
  318TMC3    H2 4838   1.833   0.950  13.436  0.8496 -0.3699  2.0636
  318TMC3    C7 4839   2.012   1.136  13.402  0.4927  0.2923  0.2564
  318TMC3    C8 4840   1.576   0.952  13.410  0.1991  0.4254 -0.0097
  318TMC3    O1 4841   2.057   1.239  13.358  0.1627  0.0115  0.3690
  318TMC3    O2 4842   1.601   0.854  13.474 -0.1096 -0.4865  0.0855
  319MPD2     C 4843   2.692   3.049  16.004 -0.1518 -0.6291  0.6278
  319MPD2    C1 4844   2.610   2.978  16.084 -0.5007  0.2680 -0.3059
  319MPD2    C2 4845   2.545   2.859  16.049  0.3421  0.1201 -0.2755
  319MPD2    C3 4846   2.548   2.825  15.915  0.2664  1.0898  0.2095
  319MPD2    C4 4847   2.636   2.889  15.833 -0.1042 -0.2969  0.8003
  319MPD2    C5 4848   2.715   2.993  15.880  0.1076 -0.2033 -0.4231
  319MPD2     H 4849   2.484   2.815  16.127  0.5806  1.6218  0.7649
  319MPD2    H1 4850   2.664   2.851  15.736 -1.2900 -0.1915  0.4193
  319MPD2    H2 4851   2.741   3.140  16.037 -1.3982  0.7005 -1.2178
  319MPD2    H3 4852   2.799   3.033  15.825 -0.7353  2.9154  0.5106
  319MPD2     N 4853   2.492   2.714  15.852 -0.4014  0.2536  0.0840
  319MPD2    H5 4854   2.482   2.713  15.751  4.8118  1.3763 -0.4506
  319MPD2    N1 4855   2.590   3.012  16.220  0.4706  0.0279  0.4634
  319MPD2    H7 4856   2.525   2.957  16.274 -2.4248  0.3267 -2.7706
  320TMC3    C1 4857   2.338   2.546  15.837  0.1055 -0.3998 -0.6814
  320TMC3    C2 4858   2.267   2.617  15.742 -0.2034 -0.0257 -1.1379
  320TMC3    C3 4859   2.142   2.567  15.709  0.4569  0.0184 -0.3124
  320TMC3    C4 4860   2.283   2.436  15.902 -0.3853  0.1263  0.8906
  320TMC3    C5 4861   2.153   2.395  15.866  0.6075  0.0201 -0.1611
  320TMC3    C6 4862   2.090   2.454  15.759 -0.0811  0.5031 -0.5226
  320TMC3     C 4863   2.419   2.623  15.924  0.6791  0.1484  0.2007
  320TMC3     O 4864   2.413   2.595  16.037  0.0486  0.2912 -0.0076
  320TMC3     H 4865   2.316   2.692  15.681  0.8923  0.4019  0.2574
  320TMC3    H1 4866   2.351   2.378  15.964  0.3271  0.5062  0.4566
  320TMC3    H2 4867   1.990   2.427  15.730 -0.7109  0.3252  1.8855
  320TMC3    C7 4868   2.113   2.260  15.903 -0.1037 -0.2797  0.0614
  320TMC3    C8 4869   2.065   2.654  15.625  0.3326  0.4345 -0.7805
  320TMC3    O1 4870   2.055   2.192  15.821  0.1617  0.4149 -1.2243
  320TMC3    O2 4871   2.108   2.775  15.612  0.1893  0.5472  0.6697
  321TMC3    C1 4872   2.549   3.136  16.405 -0.2343 -0.3945 -0.6241
  321TMC3    C2 4873   2.509   3.029  16.474  0.2466 -0.2605  0.3465
  321TMC3    C3 4874   2.427   3.040  16.588 -0.8766  0.7797  0.1183
  321TMC3    C4 4875   2.492   3.262  16.430  0.4814 -0.4070 -0.0161
  321TMC3    C5 4876   2.424   3.276  16.547  0.2060 -0.6241 -0.0225
  321TMC3    C6 4877   2.391   3.168  16.623  0.3527  0.3216  0.0131
  321TMC3     C 4878   2.619   3.132  16.279 -0.0233  0.5841  0.0043
  321TMC3     O 4879   2.665   3.235  16.234  0.3140 -0.1201  0.1797
  321TMC3     H 4880   2.539   2.929  16.444  1.8569  0.0803  0.7791
  321TMC3    H1 4881   2.531   3.351  16.381  1.9279 -0.0268  1.8148
  321TMC3    H2 4882   2.315   3.184  16.699  0.4002  0.5004  0.0216
  321TMC3    C7 4883   2.485   3.388  16.626 -0.5663  0.2123  0.5249
  321TMC3    C8 4884   2.489   2.979  16.698 -0.3898 -0.0232 -0.4366
  321TMC3    O1 4885   2.518   3.495  16.575 -0.0916  0.0065 -0.0457
  321TMC3    O2 4886   2.515   3.054  16.789  0.2081  0.3623 -0.1648
  322MPD2     C 4887   1.050   4.038  13.615  0.2327 -0.0153  0.0633
  322MPD2    C1 4888   1.108   3.984  13.728 -0.2997  0.3685 -0.7589
  322MPD2    C2 4889   1.150   3.852  13.728  0.4438 -0.9277 -0.6963
  322MPD2    C3 4890   1.143   3.773  13.612  0.6969 -0.4327 -0.4776
  322MPD2    C4 4891   1.079   3.831  13.506 -0.3018  0.8374  0.5855
  322MPD2    C5 4892   1.027   3.954  13.508 -0.0411 -0.4952  0.4442
  322MPD2     H 4893   1.202   3.814  13.815 -1.2971 -1.5728  0.0599
  322MPD2    H1 4894   1.058   3.778  13.414 -0.5513 -0.8223  1.6016
  322MPD2    H2 4895   0.998   4.133  13.613 -0.2051 -0.2437  0.6037
  322MPD2    H3 4896   0.968   3.981  13.422 -1.2394 -2.3380  0.6896
  322MPD2     N 4897   1.206   3.644  13.617 -0.0724  0.1017  0.0567
  322MPD2    H5 4898   1.255   3.628  13.704 -0.2845  0.4980  0.2524
  322MPD2    N1 4899   1.146   4.063  13.842  0.1177 -0.0110  0.4096
  322MPD2    H7 4900   1.162   4.162  13.828  0.5834 -0.0060  0.9797
  323TMC3    C1 4901   1.260   4.099  14.043  0.4251  0.9244 -0.4044
  323TMC3    C2 4902   1.349   4.183  13.982 -0.0745 -0.1657  0.0621
  323TMC3    C3 4903   1.448   4.220  14.068 -0.3679  0.1393  0.3769
  323TMC3    C4 4904   1.284   4.053  14.167  0.5955 -0.4672  0.5310
  323TMC3    C5 4905   1.376   4.111  14.250 -0.4636 -0.3757  0.2359
  323TMC3    C6 4906   1.463   4.203  14.197  0.6743  0.9907  0.2548
  323TMC3     C 4907   1.178   4.011  13.968  0.0716 -0.3796 -0.3720
  323TMC3     O 4908   1.133   3.912  14.019 -0.1246  0.5855 -0.3425
  323TMC3     H 4909   1.353   4.208  13.877  2.9551  0.8561  0.4219
  323TMC3    H1 4910   1.217   3.981  14.213  0.9451 -1.3116 -0.2882
  323TMC3    H2 4911   1.557   4.217  14.249  0.9885 -0.9185  0.2315
  323TMC3    C7 4912   1.412   4.039  14.369  0.1947  0.0823  0.4432
  323TMC3    C8 4913   1.579   4.236  14.013 -1.0106 -0.0662  0.3484
  323TMC3    O1 4914   1.360   3.927  14.372 -0.2690  0.3183 -0.5351
  323TMC3    O2 4915   1.678   4.190  14.071  0.7070 -0.3640 -0.2583
  324MPD2     C 4916   3.172   4.717  14.573 -0.7497  0.2114  0.2257
  324MPD2    C1 4917   3.190   0.110  14.524  0.0105 -0.3328  0.4981
  324MPD2    C2 4918   3.108   0.156  14.417  0.1541  0.0952 -0.2286
  324MPD2    C3 4919   3.002   0.079  14.367 -0.0160 -0.3863  0.4201
  324MPD2    C4 4920   2.989   4.687  14.425  0.1941 -1.1579 -0.0764
  324MPD2    C5 4921   3.067   4.642  14.528 -0.4185 -0.5753  0.0068
  324MPD2     H 4922   3.115   0.258  14.381 -1.0992 -0.2455 -1.4176
  324MPD2    H1 4923   2.914   4.616  14.392 -0.5089  1.4016 -4.0021
  324MPD2    H2 4924   3.244   4.661  14.632 -0.5088  1.9170  1.5429
  324MPD2    H3 4925   3.059   4.538  14.556  1.0763 -0.8244 -0.5292
  324MPD2     N 4926   2.918   0.111  14.255  0.0097 -0.5756 -0.0289
  324MPD2    H5 4927   2.845   0.043  14.236  0.2384 -1.2276  1.4315
  324MPD2    N1 4928   3.299   0.192  14.559  0.2234 -0.7667  0.2067
  324MPD2    H7 4929   3.323   0.264  14.491  2.0418 -1.4826  0.0847
  325TMC3    C1 4930   2.797   0.226  14.089 -0.2872 -0.6215 -0.3770
  325TMC3    C2 4931   2.701   0.132  14.099  0.5202 -0.7676  0.2386
  325TMC3    C3 4932   2.571   0.152  14.070  0.1052  0.2026 -0.0951
  325TMC3    C4 4933   2.752   0.351  14.063 -0.2548 -0.1404 -0.2165
  325TMC3    C5 4934   2.616   0.370  14.058 -0.0358 -0.3915 -0.0366
  325TMC3    C6 4935   2.522   0.278  14.059 -0.2974  0.0353 -0.1078
  325TMC3     C 4936   2.909   0.226  14.187 -0.0989 -0.0905  0.4957
  325TMC3     O 4937   2.976   0.326  14.197  0.3377  0.1835  0.6714
  325TMC3     H 4938   2.740   0.031  14.106  1.5739 -0.2410  1.9563
  325TMC3    H1 4939   2.817   0.434  14.088  2.2575 -1.9432 -0.7625
  325TMC3    H2 4940   2.417   0.284  14.035  0.1087 -0.5919 -2.0129
  325TMC3    C7 4941   2.565   0.504  14.072  0.5065 -0.2743  0.7432
  325TMC3    C8 4942   2.523   0.044  13.985 -0.3734  0.5128  0.4979
  325TMC3    O1 4943   2.639   0.592  14.034  0.2099  0.1327 -0.5303
  325TMC3    O2 4944   2.606   4.699  13.940 -0.5922  0.1670  0.5241
  326MPD2     C 4945   4.516   1.652  10.923 -0.3303  0.6546  0.1686
  326MPD2    C1 4946   4.496   1.701  10.797  0.4593  0.2172  0.1636
  326MPD2    C2 4947   4.535   1.830  10.758  0.3769 -0.1873  0.2009
  326MPD2    C3 4948   4.600   1.909  10.846  0.0801 -0.1107 -0.1814
  326MPD2    C4 4949   4.614   1.865  10.975 -0.0653 -0.3295 -0.3076
  326MPD2    C5 4950   4.570   1.737  11.011  0.7124 -0.6162  0.0689
  326MPD2     H 4951   4.519   1.852  10.653  0.8340 -0.0387  0.1644
  326MPD2    H1 4952   4.677   1.914  11.049  0.0294 -0.4800 -0.2887
  326MPD2    H2 4953   4.482   1.556  10.962 -0.9090 -0.2301 -2.5050
  326MPD2    H3 4954   4.613   1.695  11.101  1.6120  0.5799  0.1969
  326MPD2     N 4955   4.665   2.023  10.804  0.6117  0.3532  0.4913
  326MPD2    H5 4956   4.712   2.079  10.875 -1.4443  0.7895  1.5243
  326MPD2    N1 4957   4.439   1.626  10.695 -0.3085 -0.4374  0.0106
  326MPD2    H7 4958   4.413   1.678  10.611 -2.4462 -0.6317  0.5486
  327TMC3    C1 4959   4.377   1.445  10.567 -0.3450 -0.4380 -0.0498
  327TMC3    C2 4960   4.276   1.520  10.512 -0.7383 -1.8189  0.5848
  327TMC3    C3 4961   4.284   1.545  10.377  0.1770 -0.1559 -0.3425
  327TMC3    C4 4962   4.487   1.410  10.492  0.4990 -0.6797  0.1282
  327TMC3    C5 4963   4.501   1.455  10.361  0.3941 -0.4183 -0.1186
  327TMC3    C6 4964   4.392   1.513  10.296  0.2583 -0.3659  0.2366
  327TMC3     C 4965   4.421   1.491  10.704 -0.9303 -0.7595  0.1034
  327TMC3     O 4966   4.493   1.410  10.763  0.0815  0.1322 -0.1781
  327TMC3     H 4967   4.205   1.571  10.577  0.9834 -0.1190  1.1373
  327TMC3    H1 4968   4.557   1.338  10.533  1.7231  0.6124  0.3232
  327TMC3    H2 4969   4.397   1.523  10.189 -0.9886 -0.8054  0.1357
  327TMC3    C7 4970   4.626   1.540  10.346 -0.2117 -0.2118 -0.0079
  327TMC3    C8 4971   4.184   1.634  10.329 -0.3281 -0.1518 -0.4884
  327TMC3    O1 4972   4.645   1.603  10.244 -0.8374 -0.3962 -0.6400
  327TMC3    O2 4973   4.213   1.697  10.228 -0.1129  0.4362  0.1300
  328MPD2     C 4974   2.227   1.842  17.014 -0.1327  0.4938 -0.0099
  328MPD2    C1 4975   2.151   1.755  16.943 -0.6506 -0.3622  0.2459
  328MPD2    C2 4976   2.079   1.800  16.836  0.0467  0.1987 -0.5075
  328MPD2    C3 4977   2.085   1.934  16.791  0.2166  0.9405 -0.3221
  328MPD2    C4 4978   2.171   2.013  16.862 -1.0000 -0.2336 -0.2276
  328MPD2    C5 4979   2.244   1.963  16.968 -0.3554 -0.3002  0.4693
  328MPD2     H 4980   2.018   1.732  16.777  2.4614 -1.3579 -1.1970
  328MPD2    H1 4981   2.201   2.113  16.833 -2.5300  0.8471  1.8923
  328MPD2    H2 4982   2.270   1.814  17.110  0.4691  0.7845 -0.1938
  328MPD2    H3 4983   2.315   2.028  17.018  1.2396  0.0456 -2.2694
  328MPD2     N 4984   2.034   1.982  16.672  0.2503  0.0675  0.1086
  328MPD2    H5 4985   2.075   2.063  16.625 -1.3289  0.3469 -0.7908
  328MPD2    N1 4986   2.138   1.622  16.993 -0.2495 -0.5110  0.1319
  328MPD2    H7 4987   2.180   1.602  17.083  0.8628 -0.3439 -0.3505
  329TMC3    C1 4988   2.080   1.401  17.012  0.0677 -0.3633  0.0100
  329TMC3    C2 4989   2.006   1.409  17.125  0.0414  0.4398 -0.5585
  329TMC3    C3 4990   1.947   1.300  17.177 -0.3171  0.0778  0.3030
  329TMC3    C4 4991   2.076   1.294  16.933  0.3948 -0.3875  0.1808
  329TMC3    C5 4992   2.021   1.176  16.983 -0.7067  0.3362 -0.2348
  329TMC3    C6 4993   1.954   1.180  17.105  0.7596  0.3330 -0.2619
  329TMC3     C 4994   2.081   1.521  16.925  0.1546  0.7229  0.3073
  329TMC3     O 4995   2.037   1.518  16.807  0.1868 -0.2170  0.3839
  329TMC3     H 4996   2.001   1.508  17.169 -0.7903  0.1113  0.0907
  329TMC3    H1 4997   2.135   1.301  16.842  0.9177 -1.4276  0.4430
  329TMC3    H2 4998   1.910   1.084  17.130  3.1271 -0.6908 -0.0486
  329TMC3    C7 4999   2.031   1.053  16.910 -0.3617 -0.0282 -0.4059
  329TMC3    C8 5000   1.813   1.328  17.220  0.3383 -0.2859  0.4969
  329TMC3    O1 5001   2.003   0.947  16.972  0.4436 -0.1830  0.6213
  329TMC3    O2 5002   1.715   1.284  17.159 -0.1806  0.0108 -0.7721
  330TMC3    C1 5003   0.664   1.309   9.687  0.6724  0.1441 -0.1073
  330TMC3    C2 5004   0.615   1.245   9.574  0.3509  0.2382  0.3016
  330TMC3    C3 5005   0.602   1.108   9.595 -0.3177  0.0243  0.0193
  330TMC3    C4 5006   0.706   1.253   9.804  0.7806  0.4685  0.0594
  330TMC3    C5 5007   0.702   1.115   9.812  0.4605 -0.2616 -0.0457
  330TMC3    C6 5008   0.640   1.046   9.707 -0.3740  0.5658  0.3211
  330TMC3     C 5009   0.658   1.458   9.686 -0.0681  0.3996 -0.0311
  330TMC3     O 5010   0.698   1.524   9.782  0.5694 -0.2831  0.1613
  330TMC3     H 5011   0.591   1.299   9.484  0.1452  0.7131  0.6410
  330TMC3    H1 5012   0.739   1.319   9.884 -1.9042  2.1455 -0.2261
  330TMC3    H2 5013   0.657   0.939   9.706  0.8096  0.7546  0.2563
  330TMC3    C7 5014   0.724   1.064   9.946 -0.4542 -0.3904  0.4385
  330TMC3    C8 5015   0.522   1.052   9.489 -0.1298 -0.0376  0.2567
  330TMC3    O1 5016   0.761   1.141  10.034  0.3054  0.6197 -0.6363
  330TMC3    O2 5017   0.504   1.121   9.387  0.7927  0.0296 -0.1923
  331MPD2     C 5018   2.659   0.110  12.602 -0.4255 -0.3034 -0.3915
  331MPD2    C1 5019   2.690   0.101  12.465 -0.6113  0.9630  0.0921
  331MPD2    C2 5020   2.691   4.709  12.399  0.1992  0.2961  0.4539
  331MPD2    C3 5021   2.642   4.597  12.467 -0.4174 -0.3999  0.5703
  331MPD2    C4 5022   2.610   4.613  12.601 -0.7367 -0.9312  0.3976
  331MPD2    C5 5023   2.621   4.732  12.669 -0.3627 -0.2915 -0.2339
  331MPD2     H 5024   2.712   4.710  12.292 -0.2880 -0.7989  0.3555
  331MPD2    H1 5025   2.569   4.530  12.658  0.5412 -1.5288  0.4491
  331MPD2    H2 5026   2.656   0.195  12.669  1.8973 -2.5374  2.5474
  331MPD2    H3 5027   2.591   4.733  12.773 -2.0335 -1.6927 -0.7000
  331MPD2     N 5028   2.632   4.478  12.393  0.3531  0.3325  0.4720
  331MPD2    H5 5029   2.637   4.480  12.292 -1.0729 -0.3794  0.3966
  331MPD2    N1 5030   2.743   0.223  12.409 -0.7845  0.1571 -0.5854
  331MPD2    H7 5031   2.709   0.307  12.454 -0.6076  0.4661 -1.0244
  332TMC3    C1 5032   2.618   4.244  12.333  0.5043  0.0580  0.1990
  332TMC3    C2 5033   2.580   4.258  12.206 -0.2291  1.0431  0.4235
  332TMC3    C3 5034   2.580   4.145  12.130 -0.0992 -0.2664  0.2720
  332TMC3    C4 5035   2.657   4.117  12.376  0.8913 -0.1326 -0.7281
  332TMC3    C5 5036   2.646   4.006  12.293 -0.3237 -0.2835 -0.4348
  332TMC3    C6 5037   2.608   4.019  12.167 -0.1282 -0.5474  0.6211
  332TMC3     C 5038   2.618   4.354  12.442  0.5456  0.2779 -0.0128
  332TMC3     O 5039   2.614   4.318  12.558  0.6482 -0.6360  0.7531
  332TMC3     H 5040   2.553   4.352  12.161  3.2864  2.2158  0.7180
  332TMC3    H1 5041   2.699   4.109  12.476 -1.4153 -2.7440  0.0351
  332TMC3    H2 5042   2.587   3.929  12.111  0.0436 -1.0085  1.2914
  332TMC3    C7 5043   2.706   3.884  12.338 -0.1211 -0.9142 -0.2339
  332TMC3    C8 5044   2.571   4.184  11.988  0.3246  0.1224 -0.2007
  332TMC3    O1 5045   2.655   3.784  12.289  0.2177  0.2113  0.1885
  332TMC3    O2 5046   2.579   4.301  11.958 -0.4647  0.1679 -0.4818
  333MPD2     C 5047   2.888   0.315  10.600  0.6202  0.4070  0.5722
  333MPD2    C1 5048   2.939   0.240  10.490 -0.1513  0.3756 -0.8412
  333MPD2    C2 5049   2.885   0.114  10.461  0.2960  0.1985 -0.8276
  333MPD2    C3 5050   2.803   0.046  10.550 -0.4652 -0.6991 -0.2113
  333MPD2    C4 5051   2.775   0.110  10.667 -0.3004  0.7405 -0.3873
  333MPD2    C5 5052   2.803   0.248  10.683  1.1578  0.1470  0.0432
  333MPD2     H 5053   2.913   0.062  10.370  1.4221  1.7888 -1.4074
  333MPD2    H1 5054   2.709   0.074  10.745  0.7074 -1.5762 -0.6209
  333MPD2    H2 5055   2.916   0.418  10.617  1.5609  0.0509  1.1452
  333MPD2    H3 5056   2.755   0.301  10.764 -0.7236  1.5295 -1.9876
  333MPD2     N 5057   2.753   4.655  10.524  0.1650  0.3791  0.0709
  333MPD2    H5 5058   2.772   4.622  10.430 -1.1340 -0.9398  0.2748
  333MPD2    N1 5059   3.047   0.293  10.423  0.2890 -0.1409 -0.0439
  333MPD2    H7 5060   3.089   0.367  10.479 -1.7821  0.9228  0.0828
  334TMC3    C1 5061   3.233   0.321  10.275  0.0478 -0.0864 -0.4950
  334TMC3    C2 5062   3.314   0.249  10.195 -0.6357 -0.3969 -0.0888
  334TMC3    C3 5063   3.418   0.314  10.127 -0.0665 -0.2865  0.4040
  334TMC3    C4 5064   3.236   0.457  10.278 -0.0903  0.1192 -0.3418
  334TMC3    C5 5065   3.340   0.523  10.214  0.1117 -0.0596  1.0259
  334TMC3    C6 5066   3.438   0.450  10.150 -0.0085  0.7401 -0.1354
  334TMC3     C 5067   3.114   0.243  10.316 -0.7910  0.1354  0.4805
  334TMC3     O 5068   3.079   0.152  10.244  0.0356 -0.1467 -0.4048
  334TMC3     H 5069   3.299   0.143  10.174 -0.2425 -0.3035 -0.8195
  334TMC3    H1 5070   3.160   0.512  10.334  1.7618  1.2773  1.0329
  334TMC3    H2 5071   3.520   0.497  10.098  1.5364 -1.1848  0.5492
  334TMC3    C7 5072   3.366   0.654  10.262  1.0016 -0.3323 -0.1772
  334TMC3    C8 5073   3.527   0.229  10.083 -0.4265  0.4107  0.3572
  334TMC3    O1 5074   3.323   0.687  10.373 -0.0234 -0.4663 -0.2305
  334TMC3    O2 5075   3.492   0.120  10.043  0.2449  0.4077 -0.0857
  335TMC3    C1 5076   2.652   1.743  17.226  0.0245 -0.1710  0.5996
  335TMC3    C2 5077   2.599   1.705  17.106 -1.0264  0.0469  0.0843
  335TMC3    C3 5078   2.688   1.683  17.003 -0.0587  0.0850  0.0900
  335TMC3    C4 5079   2.783   1.772  17.239  0.1629 -0.3409 -0.2568
  335TMC3    C5 5080   2.867   1.752  17.125 -0.0328  0.0297 -0.6514
  335TMC3    C6 5081   2.825   1.713  16.999  0.0865  0.1403 -0.5882
  335TMC3     C 5082   2.561   1.794  17.323  0.0929 -0.2877 -0.7226
  335TMC3     O 5083   2.447   1.758  17.319 -0.0730  0.4094 -0.5464
  335TMC3     H 5084   2.492   1.688  17.104 -0.4550 -3.7127  1.3348
  335TMC3    H1 5085   2.825   1.798  17.335  0.6182  0.6726 -0.7251
  335TMC3    H2 5086   2.889   1.706  16.912 -2.1751  0.4174 -2.2860
  335TMC3    C7 5087   3.018   1.743  17.134  0.2595 -0.5201  0.1135
  335TMC3    C8 5088   2.662   1.569  16.914  0.5686 -0.3043  0.1837
  335TMC3    O1 5089   3.088   1.748  17.034  0.0917  0.2346 -0.3278
  335TMC3    O2 5090   2.746   1.547  16.830  0.0760  0.5809 -0.0972
  336MPD2     C 5091   2.248   4.012  16.068 -0.5637 -0.1150  0.6076
  336MPD2    C1 5092   2.214   3.946  15.951  0.0137  0.5396  1.1430
  336MPD2    C2 5093   2.261   3.813  15.931  0.3493  0.0306 -0.4036
  336MPD2    C3 5094   2.349   3.759  16.027  0.6937 -0.0523 -0.4713
  336MPD2    C4 5095   2.386   3.825  16.141 -0.0400  0.0277  0.2731
  336MPD2    C5 5096   2.328   3.951  16.164  0.1272  0.2023  0.1915
  336MPD2     H 5097   2.218   3.751  15.854  2.2750 -2.2256  0.3155
  336MPD2    H1 5098   2.452   3.791  16.220 -0.0767  1.0546  0.7478
  336MPD2    H2 5099   2.212   4.109  16.100 -0.9983 -0.3814  0.9064
  336MPD2    H3 5100   2.355   3.996  16.259 -0.3311 -0.2936  0.5572
  336MPD2     N 5101   2.407   3.628  16.015 -0.2086  0.3278  0.0095
  336MPD2    H5 5102   2.436   3.575  16.097 -0.2320  0.1409 -0.1029
  336MPD2    N1 5103   2.114   3.995  15.858 -0.2469 -0.5217  0.2122
  336MPD2    H7 5104   2.088   3.937  15.779  0.3756  0.7943 -0.9642
  337TMC3    C1 5105   1.986   4.145  15.736  0.6132 -0.2710  0.0495
  337TMC3    C2 5106   1.901   4.045  15.700  0.4480  0.0994  0.6739
  337TMC3    C3 5107   1.803   4.082  15.611  0.1892 -0.4802  0.2946
  337TMC3    C4 5108   1.993   4.270  15.684  0.1918 -0.4334  0.1177
  337TMC3    C5 5109   1.888   4.302  15.599 -0.0778 -0.5637 -0.5750
  337TMC3    C6 5110   1.799   4.207  15.554 -0.0159 -0.1822  0.5359
  337TMC3     C 5111   2.071   4.123  15.849  0.6493 -0.0949  0.6235
  337TMC3     O 5112   2.111   4.210  15.926  0.2049  0.6378 -0.1049
  337TMC3     H 5113   1.893   3.948  15.748 -0.0907 -0.9570 -1.5545
  337TMC3    H1 5114   2.069   4.341  15.714  1.1454 -0.8404 -1.3508
  337TMC3    H2 5115   1.717   4.231  15.487  0.0073 -0.5315  0.3808
  337TMC3    C7 5116   1.842   4.439  15.598  0.2617 -0.7141 -0.4222
  337TMC3    C8 5117   1.699   3.991  15.582  0.3101 -0.6570 -0.7643
  337TMC3    O1 5118   1.853   4.509  15.697 -0.0285 -0.2122 -0.0840
  337TMC3    O2 5119   1.705   3.881  15.640 -0.1248 -0.1071  0.1038
  338MPD2     C 5120   2.602   3.556   1.227  0.2647  0.1018 -0.0493
  338MPD2    C1 5121   2.565   3.512   1.103 -0.1384 -0.5300  0.0927
  338MPD2    C2 5122   2.438   3.532   1.063 -0.6645  0.1441 -0.4710
  338MPD2    C3 5123   2.347   3.574   1.154 -0.4709 -0.0054 -0.0167
  338MPD2    C4 5124   2.383   3.607   1.287  0.4189  0.3809 -0.0020
  338MPD2    C5 5125   2.516   3.613   1.313 -0.4832 -0.7398  0.3509
  338MPD2     H 5126   2.401   3.478   0.976  1.5214 -0.6550 -0.9033
  338MPD2    H1 5127   2.316   3.651   1.360  2.4891 -2.6884  3.7130
  338MPD2    H2 5128   2.706   3.550   1.259  0.4155  1.2170 -0.3259
  338MPD2    H3 5129   2.560   3.669   1.394 -0.9211  1.1786 -0.7406
  338MPD2     N 5130   2.208   3.577   1.118  0.8939  0.2907  0.2079
  338MPD2    H5 5131   2.192   3.525   1.032  0.8069 -1.5493  1.3318
  338MPD2    N1 5132   2.652   3.444   1.016 -0.5080  0.2106 -0.0757
  338MPD2    H7 5133   2.609   3.404   0.934 -0.9035 -0.6020  0.5195
  339TMC3    C1 5134   1.975   3.591   1.118  0.6539 -0.0182  0.2770
  339TMC3    C2 5135   1.866   3.535   1.181  0.0282  0.3022  0.2062
  339TMC3    C3 5136   1.793   3.449   1.101 -0.4014 -0.3853 -0.3661
  339TMC3    C4 5137   1.987   3.600   0.984 -0.4964  0.3041  0.2800
  339TMC3    C5 5138   1.896   3.535   0.911 -0.4333  0.0303  0.5099
  339TMC3    C6 5139   1.804   3.450   0.966 -0.0055 -0.3863  0.6371
  339TMC3     C 5140   2.095   3.623   1.190  0.3197 -0.3673 -0.1824
  339TMC3     O 5141   2.088   3.678   1.301 -0.3367  0.1336 -0.2264
  339TMC3     H 5142   1.859   3.526   1.289  1.4268 -3.4449 -0.0059
  339TMC3    H1 5143   2.052   3.677   0.943 -1.6831  2.6488  2.7499
  339TMC3    H2 5144   1.736   3.387   0.910 -2.8409  0.8517  2.6381
  339TMC3    C7 5145   1.919   3.538   0.770  0.1007  0.1523  0.3444
  339TMC3    C8 5146   1.672   3.382   1.153  1.0116 -0.3047  0.1455
  339TMC3    O1 5147   1.987   3.629   0.728 -0.1656  0.6207 -0.6416
  339TMC3    O2 5148   1.599   3.324   1.069  0.1457 -0.3446  0.7463
  340MPD2     C 5149   3.073   1.118  10.342 -0.7093 -0.0871  0.3230
  340MPD2    C1 5150   3.146   1.075  10.236 -0.3328  0.3807  0.5772
  340MPD2    C2 5151   3.250   1.153  10.189  0.6803 -0.6261 -0.8835
  340MPD2    C3 5152   3.269   1.275  10.247  0.4437  0.1203 -0.5527
  340MPD2    C4 5153   3.215   1.310  10.368  0.0266  0.4030 -0.1398
  340MPD2    C5 5154   3.110   1.230  10.408 -0.8750 -0.7730  0.6439
  340MPD2     H 5155   3.305   1.124  10.101 -0.3365  2.3832 -2.5181
  340MPD2    H1 5156   3.237   1.392  10.435 -1.3150  2.0982 -1.7897
  340MPD2    H2 5157   2.987   1.061  10.375 -1.0879 -1.0610 -2.3918
  340MPD2    H3 5158   3.054   1.265  10.494 -1.3384 -0.4323  0.2055
  340MPD2     N 5159   3.366   1.352  10.192 -0.2995  0.2718 -0.0622
  340MPD2    H5 5160   3.398   1.326  10.099  4.7103  2.2399  1.0822
  340MPD2    N1 5161   3.119   0.951  10.170 -0.3940  0.0655  0.2608
  340MPD2    H7 5162   3.043   0.902  10.216 -0.2137 -0.4921 -0.0254
  341TMC3    C1 5163   3.124   0.776   9.990 -0.0717 -0.3138  0.1351
  341TMC3    C2 5164   3.019   0.709  10.053  0.1377 -0.3175 -0.4021
  341TMC3    C3 5165   2.980   0.601   9.987  0.4240 -0.0248  0.1287
  341TMC3    C4 5166   3.170   0.751   9.859 -0.1348  0.0676 -0.3571
  341TMC3    C5 5167   3.129   0.632   9.803  0.3158 -0.6595 -0.3926
  341TMC3    C6 5168   3.033   0.553   9.874  0.1614  0.3846 -0.0083
  341TMC3     C 5169   3.168   0.900  10.047  0.1363 -0.2079 -0.1560
  341TMC3     O 5170   3.262   0.949   9.985  0.1239 -0.0954  0.3236
  341TMC3     H 5171   2.983   0.742  10.150 -1.9079 -1.5045 -0.7730
  341TMC3    H1 5172   3.239   0.817   9.807 -2.3540  1.5755 -1.3917
  341TMC3    H2 5173   3.006   0.456   9.833  2.6226 -0.4461  0.2829
  341TMC3    C7 5174   3.157   0.607   9.668  0.7692  0.3342  0.1600
  341TMC3    C8 5175   2.851   0.549  10.020  0.5688 -0.2145  0.1941
  341TMC3    O1 5176   3.257   0.669   9.633 -0.0589 -0.6840  0.3129
  341TMC3    O2 5177   2.831   0.435   9.978 -0.3454  0.0777  0.1682
  342MPD2     C 5178   0.498   3.981   0.166 -0.2302 -0.9101 -0.5446
  342MPD2    C1 5179   0.619   3.983   0.092 -0.4690  0.2534 -0.0481
  342MPD2    C2 5180   0.703   4.094   0.113 -1.0049 -0.0496  0.2039
  342MPD2    C3 5181   0.673   4.181   0.213 -1.4325 -0.1655  0.2448
  342MPD2    C4 5182   0.555   4.179   0.282 -0.0311 -0.4413 -0.2807
  342MPD2    C5 5183   0.460   4.080   0.253 -0.0569 -0.1950 -0.0018
  342MPD2     H 5184   0.793   4.088   0.053 -1.0462  1.4306 -0.0111
  342MPD2    H1 5185   0.514   4.254   0.349  1.2348 -0.7670  0.8495
  342MPD2    H2 5186   0.435   3.894   0.147 -1.7898 -0.1623  1.2393
  342MPD2    H3 5187   0.370   4.077   0.314 -0.3341 -0.5326 -0.4304
  342MPD2     N 5188   0.754   4.297   0.235  0.1493  0.3308  0.4817
  342MPD2    H5 5189   0.734   4.359   0.314 -1.0071 -2.2213  2.1744
  342MPD2    N1 5190   0.659   3.891  17.728  0.0922 -0.0283 -0.3586
  342MPD2    H7 5191   0.738   3.915  17.670  0.9409 -1.0441  0.3608
  343TMC3    C1 5192   0.659   3.690  17.594  0.0498 -0.2122  0.4560
  343TMC3    C2 5193   0.788   3.702  17.555  0.0200  0.7863 -0.0357
  343TMC3    C3 5194   0.836   3.641  17.442 -0.1878  0.1186  0.1218
  343TMC3    C4 5195   0.570   3.617  17.528 -0.0631 -0.3960  0.0380
  343TMC3    C5 5196   0.623   3.547  17.417  0.0685  0.1455  0.4241
  343TMC3    C6 5197   0.752   3.567  17.369 -0.2054 -0.3846  0.5746
  343TMC3     C 5198   0.600   3.773  17.700 -0.3846 -0.0142  0.3298
  343TMC3     O 5199   0.510   3.716   0.019 -0.2313 -0.3371 -0.2854
  343TMC3     H 5200   0.850   3.765  17.619  2.8472  0.0698 -2.0331
  343TMC3    H1 5201   0.469   3.602  17.563 -0.0441  2.4536  1.3552
  343TMC3    H2 5202   0.781   3.518  17.276  1.8772  0.6679  0.6819
  343TMC3    C7 5203   0.542   3.446  17.352  0.4200  0.6772  0.1303
  343TMC3    C8 5204   0.952   3.711  17.392 -0.0182 -0.2018 -0.1271
  343TMC3    O1 5205   0.572   3.388  17.249 -1.0397  0.0998  0.1461
  343TMC3    O2 5206   0.977   3.819  17.442  0.4164 -0.8715  0.1126
  344MPD2     C 5207   0.955   4.083   9.866 -0.4581 -0.3674  0.5458
  344MPD2    C1 5208   1.032   4.053   9.977 -0.4269 -0.7783  0.7210
  344MPD2    C2 5209   1.156   4.106   9.986 -0.2657  0.9716  0.3562
  344MPD2    C3 5210   1.209   4.178   9.885 -0.4453 -0.8640 -0.0080
  344MPD2    C4 5211   1.129   4.205   9.769 -0.2623  0.6036  0.7056
  344MPD2    C5 5212   1.002   4.162   9.767  0.1318  0.0763 -0.0404
  344MPD2     H 5213   1.207   4.090  10.081 -0.4376 -2.6586 -0.1397
  344MPD2    H1 5214   1.161   4.269   9.688 -0.8568  0.5064  0.3924
  344MPD2    H2 5215   0.857   4.038   9.855 -0.8842  0.1149  2.3665
  344MPD2    H3 5216   0.938   4.169   9.679  2.9888  1.9856 -1.9572
  344MPD2     N 5217   1.327   4.253   9.899 -0.1425  0.6747  0.8010
  344MPD2    H5 5218   1.357   4.303   9.817  1.2624 -1.0473  0.2502
  344MPD2    N1 5219   0.985   3.976  10.084 -0.1303 -0.8897 -0.1531
  344MPD2    H7 5220   1.052   3.979  10.161 -1.2966  2.9603  0.7432
  345TMC3    C1 5221   1.509   4.367  10.000  0.1501  0.2080  0.8505
  345TMC3    C2 5222   1.626   4.351  10.068 -0.1502  0.5431  0.5742
  345TMC3    C3 5223   1.727   4.438  10.040  0.2753  0.1349 -0.0672
  345TMC3    C4 5224   1.495   4.476   9.915  0.2909  0.0461  1.0742
  345TMC3    C5 5225   1.595   4.561   9.885 -0.4814 -0.1331  0.0867
  345TMC3    C6 5226   1.719   4.536   9.943 -0.4575 -0.2777 -0.1278
  345TMC3     C 5227   1.401   4.267  10.018  0.6761  0.4811 -0.2715
  345TMC3     O 5228   1.413   4.185  10.110 -0.2373 -0.0077  0.0451
  345TMC3     H 5229   1.640   4.277  10.147  3.7446 -0.5314 -1.0951
  345TMC3    H1 5230   1.396   4.489   9.871 -0.4663 -3.1910  1.8040
  345TMC3    H2 5231   1.801   4.602   9.917  0.3854 -1.7919 -1.3132
  345TMC3    C7 5232   1.579   4.685   9.809  0.1162 -0.1525  0.4084
  345TMC3    C8 5233   1.801   4.468  10.163 -0.3025  0.2732  0.5229
  345TMC3    O1 5234   1.644   0.043   9.856  0.2153 -0.1166  0.0074
  345TMC3    O2 5235   1.859   4.376  10.213  0.0233  0.1041 -0.1887
  346MPD2     C 5236   1.344   0.786  14.411  0.1417  0.0596 -0.2266
  346MPD2    C1 5237   1.451   0.732  14.346  0.3724  0.8702  0.5679
  346MPD2    C2 5238   1.571   0.719  14.408  0.2567 -0.8539  0.4235
  346MPD2    C3 5239   1.591   0.760  14.538  0.2991 -0.6592 -0.6667
  346MPD2    C4 5240   1.487   0.813  14.610  0.1802  0.0079 -0.0031
  346MPD2    C5 5241   1.370   0.829  14.541  0.0317  0.0447 -0.1989
  346MPD2     H 5242   1.660   0.685  14.356 -0.3108 -1.5175 -0.1155
  346MPD2    H1 5243   1.500   0.860  14.706  0.5893  0.8793 -0.4870
  346MPD2    H2 5244   1.243   0.787  14.370 -1.1905 -0.1396  3.0224
  346MPD2    H3 5245   1.284   0.876  14.587  0.9069  0.9650  0.4774
  346MPD2     N 5246   1.715   0.745  14.596  0.1418 -0.3221  0.8867
  346MPD2    H5 5247   1.785   0.711  14.531  0.4940 -2.7391  2.5097
  346MPD2    N1 5248   1.449   0.684  14.211  0.7462  0.3956 -0.2071
  346MPD2    H7 5249   1.533   0.644  14.172  0.5552  2.0683 -2.2954
  347TMC3    C1 5250   1.883   0.739  14.752  0.2604 -0.8719 -0.3278
  347TMC3    C2 5251   1.973   0.768  14.658  0.1529  0.2305  0.0624
  347TMC3    C3 5252   2.100   0.731  14.683  0.3958  0.1742  0.5397
  347TMC3    C4 5253   1.920   0.687  14.878  0.2711 -0.6348  0.6056
  347TMC3    C5 5254   2.052   0.656  14.900 -0.3583 -0.0127 -0.5204
  347TMC3    C6 5255   2.142   0.672  14.798  0.1032 -0.4362  0.2637
  347TMC3     C 5256   1.745   0.768  14.727 -0.1938 -0.1346  0.4816
  347TMC3     O 5257   1.675   0.801  14.821  0.1199  0.2106  0.1545
  347TMC3     H 5258   1.958   0.806  14.558  2.1933 -1.5703 -0.9106
  347TMC3    H1 5259   1.843   0.669  14.952 -0.0222  1.4065  0.7885
  347TMC3    H2 5260   2.248   0.658  14.812  0.6476  2.0712 -1.2924
  347TMC3    C7 5261   2.086   0.636  15.040 -0.0647 -0.4205  0.2807
  347TMC3    C8 5262   2.197   0.706  14.569 -0.5228 -0.1755  0.5458
  347TMC3    O1 5263   1.987   0.635  15.114  0.5590 -0.0711 -0.0404
  347TMC3    O2 5264   2.284   0.633  14.607 -0.8163 -0.1489  0.1734
  348MPD2     C 5265   0.667   4.717  11.526 -0.0985 -0.2484  0.1879
  348MPD2    C1 5266   0.539   0.015  11.481 -0.3325 -0.6812 -0.5123
  348MPD2    C2 5267   0.523   0.132  11.408  0.6814  0.4400  0.1725
  348MPD2    C3 5268   0.626   0.220  11.389 -0.2064  0.0587  0.3311
  348MPD2    C4 5269   0.751   0.182  11.436  0.3170  0.9560  0.1268
  348MPD2    C5 5270   0.768   0.069  11.503 -0.1279  0.2759 -0.8839
  348MPD2     H 5271   0.427   0.153  11.363  1.0455  0.2227 -0.7045
  348MPD2    H1 5272   0.838   0.245  11.426  0.4775  1.0335  2.0623
  348MPD2    H2 5273   0.675   4.625  11.583 -0.8836  0.1715  0.9632
  348MPD2    H3 5274   0.869   0.042  11.531 -1.5172 -2.8960  1.0794
  348MPD2     N 5275   0.594   0.344  11.334  0.3670 -0.0675 -0.5446
  348MPD2    H5 5276   0.508   0.350  11.280 -0.6432 -1.4659  0.8825
  348MPD2    N1 5277   0.426   4.672  11.507  0.4810  0.2220  0.1965
  348MPD2    H7 5278   0.339   4.724  11.499  0.4197 -0.0831 -1.1400
  349TMC3    C1 5279   0.278   4.516  11.600  0.0403  0.3052 -0.7197
  349TMC3    C2 5280   0.266   4.432  11.705  0.3295 -0.5544 -0.4753
  349TMC3    C3 5281   0.154   4.434  11.781  0.6731  0.2921  0.0930
  349TMC3    C4 5282   0.176   4.588  11.552  1.0787  0.6461  0.4303
  349TMC3    C5 5283   0.060   4.597  11.634 -0.5285  0.1300  0.1021
  349TMC3    C6 5284   0.054   4.524  11.750  0.1691  0.1568  0.2815
  349TMC3     C 5285   0.418   4.549  11.561 -0.1032  0.6146 -0.4187
  349TMC3     O 5286   0.502   4.470  11.602 -0.0130 -0.4943  0.6225
  349TMC3     H 5287   0.350   4.380  11.749 -0.3537 -1.3380 -0.0843
  349TMC3    H1 5288   0.194   4.660  11.472 -1.5739 -1.6796 -2.2524
  349TMC3    H2 5289   4.708   4.545  11.820  0.1020 -0.4084  0.3755
  349TMC3    C7 5290   4.683   4.682  11.613 -0.6103  0.1175  0.4931
  349TMC3    C8 5291   0.151   4.385  11.921  0.2533 -0.4215 -0.0256
  349TMC3    O1 5292   4.579   4.638  11.658  0.0671 -0.1555  0.2566
  349TMC3    O2 5293   0.266   4.367  11.962 -0.2084 -0.2209  0.0690
  350MPD2     C 5294   4.036   3.886  10.182 -0.1866 -0.5225 -0.4463
  350MPD2    C1 5295   3.990   3.771  10.245  0.9479  0.1832  0.4585
  350MPD2    C2 5296   3.945   3.777  10.380  0.1641 -0.8180 -0.7068
  350MPD2    C3 5297   3.954   3.893  10.454 -0.2798  0.2455  0.2932
  350MPD2    C4 5298   4.012   4.007  10.392 -0.7170  0.4465 -0.0394
  350MPD2    C5 5299   4.048   3.995  10.259 -0.2703  0.0342 -0.3462
  350MPD2     H 5300   3.905   3.688  10.426 -1.5683  0.4101  0.1940
  350MPD2    H1 5301   4.030   4.101  10.442  4.4757 -0.8703  0.5576
  350MPD2    H2 5302   4.066   3.897  10.078 -1.0890 -1.8234 -0.8488
  350MPD2    H3 5303   4.077   4.087  10.209 -1.5292  0.4142 -0.3741
  350MPD2     N 5304   3.902   3.882  10.586  0.0691  0.0782 -0.5743
  350MPD2    H5 5305   3.832   3.810  10.605 -0.4765  0.8808  0.4234
  350MPD2    N1 5306   3.961   3.649  10.184 -0.4910  0.6952 -0.3225
  350MPD2    H7 5307   3.908   3.587  10.244 -0.9905 -1.1942 -2.6789
  351TMC3    C1 5308   3.999   3.468  10.053  0.1119 -0.9261 -0.0564
  351TMC3    C2 5309   4.100   3.395   9.991  0.0188  0.2360  0.2141
  351TMC3    C3 5310   4.080   3.264   9.975 -0.4400 -0.5246  0.3279
  351TMC3    C4 5311   3.880   3.418  10.098  0.5398  0.3433 -0.1651
  351TMC3    C5 5312   3.862   3.286  10.071 -0.0289 -0.3296 -0.1692
  351TMC3    C6 5313   3.962   3.205  10.018 -0.1390  0.2734  0.1034
  351TMC3     C 5314   4.031   3.605  10.075  1.3237  0.2710 -0.2794
  351TMC3     O 5315   4.090   3.671   9.992  0.3733 -0.0503  0.0396
  351TMC3     H 5316   4.191   3.447   9.961 -0.2790 -0.5699 -2.0853
  351TMC3    H1 5317   3.795   3.470  10.141  2.6736  4.9057 -1.5212
  351TMC3    H2 5318   3.953   3.098  10.001 -0.5729  0.1551  1.0910
  351TMC3    C7 5319   3.751   3.216  10.148 -0.2723 -0.3214  0.7500
  351TMC3    C8 5320   4.176   3.182   9.903 -0.2342  0.8335  0.7330
  351TMC3    O1 5321   3.698   3.278  10.238  0.2875 -0.1204 -0.2868
  351TMC3    O2 5322   4.147   3.084   9.837  0.1829  0.2482  0.1520
  352MPD2     C 5323   2.008   1.094   1.284  0.6350 -0.3283 -0.1497
  352MPD2    C1 5324   2.107   1.084   1.183 -0.7187  0.2767  1.2837
  352MPD2    C2 5325   2.169   0.964   1.164 -0.1626 -0.0483 -0.1001
  352MPD2    C3 5326   2.147   0.854   1.245 -0.4020  0.2536 -0.0542
  352MPD2    C4 5327   2.044   0.861   1.333  0.0204 -0.1205  0.0270
  352MPD2    C5 5328   1.977   0.980   1.352  0.8521  0.5538 -0.3024
  352MPD2     H 5329   2.235   0.955   1.079  0.6562 -0.4399  0.5697
  352MPD2    H1 5330   2.013   0.769   1.381 -0.8969 -0.9053 -2.0429
  352MPD2    H2 5331   1.949   1.181   1.309  0.9962  0.5049 -2.2101
  352MPD2    H3 5332   1.893   0.979   1.420  1.8799  0.8807  0.9796
  352MPD2     N 5333   2.214   0.733   1.238  0.0956 -0.7061  0.1687
  352MPD2    H5 5334   2.176   0.659   1.295  0.6409 -0.7055  0.5365
  352MPD2    N1 5335   2.145   1.200   1.116  0.3940 -0.0236  0.0128
  352MPD2    H7 5336   2.101   1.285   1.150 -1.1000 -0.6123 -0.4332
  353TMC3    C1 5337   2.373   0.572   1.166 -0.6441  0.6030  0.1274
  353TMC3    C2 5338   2.508   0.548   1.164 -0.0889  0.2812  0.3781
  353TMC3    C3 5339   2.555   0.417   1.155 -0.0440  1.0320  0.1953
  353TMC3    C4 5340   2.284   0.467   1.173 -0.4276 -0.2275 -0.2244
  353TMC3    C5 5341   2.338   0.341   1.182 -0.0549 -0.1954  0.0857
  353TMC3    C6 5342   2.473   0.315   1.177  0.4164 -0.0143  0.3695
  353TMC3     C 5343   2.334   0.713   1.169  0.8762 -0.2000  0.0716
  353TMC3     O 5344   2.416   0.795   1.128  0.5490 -0.2043 -0.1203
  353TMC3     H 5345   2.574   0.631   1.143 -1.7909  1.7935  1.0247
  353TMC3    H1 5346   2.180   0.496   1.160 -0.2980 -0.3614 -1.5470
  353TMC3    H2 5347   2.508   0.213   1.170 -2.5223 -0.9472 -0.6032
  353TMC3    C7 5348   2.255   0.222   1.212  0.3802  0.0362 -0.2255
  353TMC3    C8 5349   2.699   0.408   1.174  0.1144 -0.2435 -0.1374
  353TMC3    O1 5350   2.305   0.110   1.202  0.2798  0.2047  0.4601
  353TMC3    O2 5351   2.781   0.490   1.133  0.9330  0.0632 -0.7129
  354TMC3    C1 5352   3.797   1.401  13.493  0.3211  0.1889  0.8715
  354TMC3    C2 5353   3.887   1.504  13.498  0.4706 -0.2278  0.1393
  354TMC3    C3 5354   3.898   1.582  13.389 -0.0502 -0.6719 -0.4548
  354TMC3    C4 5355   3.702   1.389  13.394 -0.2004 -0.4671 -0.2057
  354TMC3    C5 5356   3.716   1.469  13.290 -0.2494 -0.3415  0.0768
  354TMC3    C6 5357   3.815   1.563  13.277 -0.7249  0.1945  0.0836
  354TMC3     C 5358   3.788   1.309  13.606 -0.2548 -0.5202 -0.2244
  354TMC3     O 5359   3.689   1.234  13.610 -0.1450  0.2010 -0.2699
  354TMC3     H 5360   3.960   1.524  13.577  0.6416  1.5233 -0.4582
  354TMC3    H1 5361   3.663   1.289  13.380  0.1021 -0.9271  2.3522
  354TMC3    H2 5362   3.813   1.631  13.193  0.0628 -0.9039 -0.8116
  354TMC3    C7 5363   3.703   1.415  13.155  0.1738 -0.3369  0.4512
  354TMC3    C8 5364   4.028   1.640  13.358  0.3780 -0.2730  0.0597
  354TMC3    O1 5365   3.594   1.378  13.115 -0.0873  0.1554 -0.1323
  354TMC3    O2 5366   4.123   1.618  13.434 -0.0985  0.1711 -0.0196
  355MPD2     C 5367   4.554   2.660  11.635  0.2950 -0.1128 -0.1582
  355MPD2    C1 5368   4.600   2.784  11.588 -0.5511 -0.0100  0.4631
  355MPD2    C2 5369   4.708   2.838  11.657  0.1209  0.1764  0.1413
  355MPD2    C3 5370   0.027   2.773  11.767 -0.2285  0.3807 -0.2347
  355MPD2    C4 5371   4.710   2.652  11.807  0.0243 -0.3087  0.2616
  355MPD2    C5 5372   4.604   2.594  11.741 -0.1979 -0.7715  0.5150
  355MPD2     H 5373   0.027   2.926  11.624  1.5681  0.1503  2.4215
  355MPD2    H1 5374   0.021   2.597  11.888 -2.3290 -0.9955  1.1314
  355MPD2    H2 5375   4.466   2.614  11.591  0.7192  0.6269 -1.8064
  355MPD2    H3 5376   4.550   2.502  11.762 -0.5958 -1.0782 -1.8498
  355MPD2     N 5377   0.139   2.832  11.830 -0.3853 -0.0090  0.1184
  355MPD2    H5 5378   0.172   2.922  11.798  1.5126 -1.1817 -1.1787
  355MPD2    N1 5379   4.528   2.847  11.483  0.0279  0.2948  0.0792
  355MPD2    H7 5380   4.452   2.805  11.432  1.7124 -3.1705  0.4227
  356TMC3    C1 5381   0.294   2.899  11.997  0.1512 -0.4773  0.4700
  356TMC3    C2 5382   0.296   3.016  11.924  0.4712  0.0149 -0.8821
  356TMC3    C3 5383   0.334   3.130  11.990 -0.3347  0.2527 -0.6602
  356TMC3    C4 5384   0.294   2.907  12.138 -0.4556 -0.5167  0.4373
  356TMC3    C5 5385   0.326   3.023  12.193 -0.0248 -0.5143  0.2701
  356TMC3    C6 5386   0.355   3.136  12.122  0.5996 -0.1079  0.1116
  356TMC3     C 5387   0.209   2.786  11.938  0.1852 -0.2387  0.3412
  356TMC3     O 5388   0.205   2.673  11.995  0.1444  0.3655 -0.0867
  356TMC3     H 5389   0.285   3.026  11.816  0.5814 -1.8623 -1.0666
  356TMC3    H1 5390   0.280   2.818  12.200 -1.0010 -1.9294 -1.7180
  356TMC3    H2 5391   0.378   3.230  12.172 -1.1543 -0.3072  1.2743
  356TMC3    C7 5392   0.313   3.035  12.339  0.2784 -1.1113 -0.1083
  356TMC3    C8 5393   0.281   3.248  11.927  0.2653  0.2836  0.6527
  356TMC3    O1 5394   0.252   2.939  12.397 -0.0953 -0.2202  0.3052
  356TMC3    O2 5395   0.187   3.236  11.854 -0.2661 -0.0778 -0.4530
  357MPD2     C 5396   0.088   2.143   1.958 -0.0909 -0.5034  0.4561
  357MPD2    C1 5397   0.073   2.166   1.823  0.6515  0.2051 -0.1010
  357MPD2    C2 5398   4.700   2.237   1.783  0.4209  0.0237 -0.4463
  357MPD2    C3 5399   4.615   2.304   1.873  0.0035 -0.1339  0.7055
  357MPD2    C4 5400   4.653   2.314   2.002 -0.5821  0.2549  0.1619
  357MPD2    C5 5401   0.016   2.223   2.043 -0.6228 -0.3758  0.5801
  357MPD2     H 5402   4.675   2.246   1.678  2.5581 -0.3811 -0.9890
  357MPD2    H1 5403   4.618   2.383   2.078 -0.2794 -1.0474  1.4888
  357MPD2    H2 5404   0.159   2.071   1.998 -0.0659 -0.5015  0.4154
  357MPD2    H3 5405   0.031   2.206   2.149 -1.4698  0.7887  0.8821
  357MPD2     N 5406   4.499   2.368   1.819  0.4256  0.5913  0.3399
  357MPD2    H5 5407   4.470   2.337   1.727 -0.2962 -0.2749  0.8579
  357MPD2    N1 5408   0.170   2.120   1.732 -0.1780 -0.6163 -0.2269
  357MPD2    H7 5409   0.254   2.086   1.777 -0.3087 -0.1521  0.3707
  358TMC3    C1 5410   0.291   2.085   1.533  0.4006 -0.1328  0.2313
  358TMC3    C2 5411   0.290   2.042   1.407  0.1109 -0.8107 -0.1069
  358TMC3    C3 5412   0.405   2.028   1.336 -0.4588 -0.3536 -0.5222
  358TMC3    C4 5413   0.414   2.102   1.599 -0.2223 -0.2138  0.4006
  358TMC3    C5 5414   0.530   2.072   1.529  0.2960  1.1668 -0.5529
  358TMC3    C6 5415   0.522   2.025   1.403  0.1496  0.8845 -0.0717
  358TMC3     C 5416   0.168   2.136   1.596  0.5918 -1.2540 -0.3444
  358TMC3     O 5417   0.077   2.168   1.524  0.4138 -0.5010  0.4546
  358TMC3     H 5418   0.198   1.999   1.368 -0.6064  0.5827  0.0637
  358TMC3    H1 5419   0.423   2.156   1.693  2.2406  0.6437 -0.3101
  358TMC3    H2 5420   0.614   2.021   1.345 -0.9653  0.5112 -1.8168
  358TMC3    C7 5421   0.663   2.064   1.592 -0.3465 -0.2242 -0.1496
  358TMC3    C8 5422   0.407   1.954   1.210  0.1981  0.0411  0.3054
  358TMC3    O1 5423   0.755   2.072   1.509 -0.0333 -0.6932  0.5077
  358TMC3    O2 5424   0.505   1.882   1.183  0.3089  0.2137 -0.0521
  359MPD2     C 5425   0.212   1.019  12.368 -0.0605  0.2422 -0.3198
  359MPD2    C1 5426   0.172   0.953  12.258 -0.3381  0.5301  0.2045
  359MPD2    C2 5427   0.053   0.885  12.261 -0.2817  0.6637  0.6295
  359MPD2    C3 5428   4.708   0.891  12.371  0.3569  0.6124 -0.0946
  359MPD2    C4 5429   0.015   0.961  12.485 -0.5723  0.1496 -0.7226
  359MPD2    C5 5430   0.134   1.022  12.482  0.0980 -0.0353  0.2514
  359MPD2     H 5431   0.040   0.826  12.171 -0.0398  0.7373  0.5436
  359MPD2    H1 5432   4.696   0.959  12.579 -1.5050  0.4301 -1.2517
  359MPD2    H2 5433   0.305   1.074  12.373 -0.3833  0.9848 -2.6710
  359MPD2    H3 5434   0.178   1.076  12.565  1.9794  0.4224 -1.0401
  359MPD2     N 5435   4.585   0.823  12.391  0.3340 -0.0924  0.3116
  359MPD2    H5 5436   4.550   0.801  12.483 -2.0819 -2.3457 -1.1276
  359MPD2    N1 5437   0.264   0.946  12.156 -0.2177 -0.1924  0.1149
  359MPD2    H7 5438   0.349   0.999  12.170 -0.9818  1.2820 -0.8381
  360TMC3    C1 5439   0.359   0.913  11.941  0.2843 -0.0164 -0.1653
  360TMC3    C2 5440   0.468   0.975  11.996  0.0044 -0.6194 -0.3482
  360TMC3    C3 5441   0.578   0.991  11.911  0.1384  0.2975  0.2580
  360TMC3    C4 5442   0.363   0.827  11.832  0.3942 -0.2777 -1.3732
  360TMC3    C5 5443   0.475   0.832  11.757  0.1249 -0.4964  0.6904
  360TMC3    C6 5444   0.579   0.917  11.796 -0.1911  0.0641 -0.0811
  360TMC3     C 5445   0.259   0.878  12.033  1.1987 -0.0739  0.4336
  360TMC3     O 5446   0.185   0.782  12.009  0.0351 -0.5935 -0.5608
  360TMC3     H 5447   0.460   1.044  12.078  0.0101 -1.0987  0.0544
  360TMC3    H1 5448   0.283   0.761  11.803  1.9740 -2.3059 -1.1295
  360TMC3    H2 5449   0.659   0.931  11.723  0.3575 -0.4597  0.4202
  360TMC3    C7 5450   0.452   0.830  11.612 -0.4675 -0.4908  0.7127
  360TMC3    C8 5451   0.630   1.129  11.915  0.3734 -0.0198  0.2475
  360TMC3    O1 5452   0.540   0.779  11.549  0.3285  0.5238  0.7111
  360TMC3    O2 5453   0.563   1.224  11.957 -0.2660  0.3938  0.5487
  361MPD2     C 5454   1.542   0.098  17.035 -0.4670 -0.1495 -0.2350
  361MPD2    C1 5455   1.598   0.186  17.127 -0.6160 -0.2199  0.2868
  361MPD2    C2 5456   1.711   0.140  17.195  0.0883 -0.3807 -0.6609
  361MPD2    C3 5457   1.765   0.010  17.166  0.9150  0.0864 -0.0353
  361MPD2    C4 5458   1.699   4.665  17.078  0.2004  0.7208  0.4956
  361MPD2    C5 5459   1.590   4.707  17.013  0.0199 -0.2295 -0.8296
  361MPD2     H 5460   1.755   0.207  17.268 -2.0079 -0.4526  0.6677
  361MPD2    H1 5461   1.749   4.575  17.045 -0.3074  0.9255 -0.8618
  361MPD2    H2 5462   1.456   0.131  16.977 -0.0858  2.3654  0.6651
  361MPD2    H3 5463   1.535   4.647  16.942 -1.3263  1.8043 -1.5065
  361MPD2     N 5464   1.885   4.692  17.226  0.0448  0.5321 -0.3455
  361MPD2    H5 5465   1.912   4.597  17.201  0.1600  0.9535 -1.8032
  361MPD2    N1 5466   1.552   0.319  17.152  0.3518 -0.1597  0.6778
  361MPD2    H7 5467   1.593   0.363  17.233 -0.8631  0.1176  1.1488
  362TMC3    C1 5468   1.468   0.531  17.113 -0.2769 -0.4038 -0.0420
  362TMC3    C2 5469   1.411   0.552  17.231  0.6409  0.8072 -0.8652
  362TMC3    C3 5470   1.378   0.677  17.273 -0.3994  0.8730  1.1893
  362TMC3    C4 5471   1.496   0.633  17.022  0.4793 -0.0595 -0.1004
  362TMC3    C5 5472   1.456   0.759  17.066 -0.5126 -0.0952  0.7126
  362TMC3    C6 5473   1.393   0.783  17.188 -0.2550 -0.1975 -0.7159
  362TMC3     C 5474   1.479   0.395  17.068 -0.3972 -0.5172 -0.4320
  362TMC3     O 5475   1.434   0.373  16.955  0.0309 -0.1764  0.0185
  362TMC3     H 5476   1.408   0.472  17.304  1.4280 -0.5769 -2.3615
  362TMC3    H1 5477   1.553   0.613  16.932  2.7828  3.4329  0.5802
  362TMC3    H2 5478   1.377   0.883  17.229 -1.1280  0.2355 -2.1228
  362TMC3    C7 5479   1.469   0.864  16.973 -0.1417  0.0773 -0.1397
  362TMC3    C8 5480   1.334   0.705  17.407 -0.0404 -0.1472 -0.2827
  362TMC3    O1 5481   1.378   0.949  16.964 -0.2032 -0.0848 -0.0194
  362TMC3    O2 5482   1.381   0.646  17.501  0.3911  0.1452  0.2135
  363TMC3    C1 5483   0.058   2.698   8.794  0.3694  0.1940  0.0346
  363TMC3    C2 5484   0.147   2.711   8.894  0.2089  0.5241 -0.5963
  363TMC3    C3 5485   0.137   2.824   8.969  0.1188 -0.7283  0.0466
  363TMC3    C4 5486   4.705   2.792   8.755  0.9072  0.4712 -1.0341
  363TMC3    C5 5487   4.696   2.902   8.834 -0.9605 -0.4133 -0.2701
  363TMC3    C6 5488   0.046   2.927   8.940 -0.2053 -0.2757  0.0295
  363TMC3     C 5489   0.063   2.575   8.718 -0.4680  0.3743  0.4788
  363TMC3     O 5490   0.160   2.503   8.741 -0.4342 -0.0170 -0.3833
  363TMC3     H 5491   0.230   2.642   8.911 -0.2338  0.1901  0.1986
  363TMC3    H1 5492   4.638   2.778   8.671 -1.3178  0.2618  0.7863
  363TMC3    H2 5493   0.038   3.011   9.008  3.2160  1.4029 -1.6157
  363TMC3    C7 5494   4.576   2.983   8.842 -0.1538  0.2587 -1.1331
  363TMC3    C8 5495   0.234   2.864   9.071 -0.2176  0.1391  0.2156
  363TMC3    O1 5496   4.581   3.089   8.901  0.2396 -0.0883  0.4640
  363TMC3    O2 5497   0.213   2.963   9.142 -0.3894  0.3794 -0.5963
  364MPD2     C 5498   3.721   1.855  10.303 -0.2164 -0.1306  0.4028
  364MPD2    C1 5499   3.842   1.885  10.240 -0.0114  0.2858  0.4749
  364MPD2    C2 5500   3.948   1.804  10.257  0.1553  0.3695  0.5199
  364MPD2    C3 5501   3.943   1.693  10.346  0.7780 -0.0100 -0.3523
  364MPD2    C4 5502   3.820   1.659  10.397 -0.1467  0.3156 -0.0624
  364MPD2    C5 5503   3.709   1.745  10.381  0.0810 -0.0679  0.4810
  364MPD2     H 5504   4.036   1.836  10.202  0.0569  0.1670  0.2438
  364MPD2    H1 5505   3.815   1.566  10.451  0.0195  0.6882  0.6001
  364MPD2    H2 5506   3.632   1.917  10.297  1.0693  1.6163 -0.7724
  364MPD2    H3 5507   3.613   1.733  10.430  0.1650  0.3150  0.7329
  364MPD2     N 5508   4.059   1.619  10.385 -0.5337  0.2386  0.9352
  364MPD2    H5 5509   4.051   1.545  10.454 -4.4967  0.0422  0.2506
  364MPD2    N1 5510   3.854   2.009  10.169 -0.5370 -0.0877 -0.0909
  364MPD2    H7 5511   3.768   2.062  10.157 -0.7386 -0.3814  0.0479
  365TMC3    C1 5512   3.935   2.196  10.052 -0.3788  0.6039 -0.0355
  365TMC3    C2 5513   4.012   2.236   9.945 -0.3701 -0.3759 -0.0542
  365TMC3    C3 5514   4.029   2.374   9.924  0.0193  0.6017  0.6195
  365TMC3    C4 5515   3.870   2.282  10.128 -0.7781 -0.2467 -0.4593
  365TMC3    C5 5516   3.883   2.418  10.094  0.0105  0.3879  0.1848
  365TMC3    C6 5517   3.968   2.467   9.999  0.0727  0.0882 -0.3650
  365TMC3     C 5518   3.963   2.068  10.112  0.2633 -0.6173  0.4295
  365TMC3     O 5519   4.077   2.022  10.094 -0.1982  0.2430  0.4843
  365TMC3     H 5520   4.076   2.162   9.896 -1.4693 -0.7575 -0.9082
  365TMC3    H1 5521   3.815   2.245  10.214  0.2937 -1.8143 -0.4541
  365TMC3    H2 5522   3.985   2.571   9.977 -1.5384  0.1400 -1.4033
  365TMC3    C7 5523   3.812   2.517  10.173 -0.9696  0.0895  0.4863
  365TMC3    C8 5524   4.106   2.414   9.813 -0.1851  0.4106 -0.2879
  365TMC3    O1 5525   3.822   2.630  10.127 -0.6608  0.1962 -0.3102
  365TMC3    O2 5526   4.090   2.528   9.774 -0.2172  0.4341  0.5908
  366MPD2     C 5527   1.940   3.035  14.885 -0.6221  0.0331  0.2722
  366MPD2    C1 5528   2.009   3.062  15.009  0.0643  0.2902 -0.1021
  366MPD2    C2 5529   2.128   2.993  15.023 -0.0729  0.4587  0.0914
  366MPD2    C3 5530   2.171   2.901  14.930 -0.0372  0.2533  0.2206
  366MPD2    C4 5531   2.100   2.864  14.817  0.3561  0.4583 -0.2281
  366MPD2    C5 5532   1.979   2.933  14.798 -0.1796 -0.4280 -0.7926
  366MPD2     H 5533   2.197   3.017  15.103 -2.0708  0.5340  1.8101
  366MPD2    H1 5534   2.125   2.782  14.750 -1.2287 -0.1386 -0.0812
  366MPD2    H2 5535   1.852   3.093  14.857  1.3943  2.9072 -0.0648
  366MPD2    H3 5536   1.905   2.923  14.719 -2.3870  2.1405  0.9702
  366MPD2     N 5537   2.297   2.842  14.956  0.2103  0.4854  0.2849
  366MPD2    H5 5538   2.344   2.871  15.041  2.9242 -1.2862 -0.6158
  366MPD2    N1 5539   1.975   3.170  15.104  0.1777  0.2651  0.3848
  366MPD2    H7 5540   2.048   3.192  15.172 -0.0128 -4.4229  2.0872
  367TMC3    C1 5541   1.859   3.371  15.176 -0.5806 -0.0981  0.0392
  367TMC3    C2 5542   1.969   3.434  15.223  0.4356  0.1090  0.1540
  367TMC3    C3 5543   1.961   3.569  15.248 -0.6111 -0.2739  0.8544
  367TMC3    C4 5544   1.736   3.434  15.179  0.3432  0.7779  0.5897
  367TMC3    C5 5545   1.720   3.559  15.212  0.0607  0.3050  0.6954
  367TMC3    C6 5546   1.838   3.634  15.251  0.5041 -0.1668 -0.3228
  367TMC3     C 5547   1.866   3.254  15.089 -0.1600 -0.2982 -0.2400
  367TMC3     O 5548   1.779   3.238  15.008 -0.0616  0.2224  0.1295
  367TMC3     H 5549   2.064   3.382  15.218 -0.0953 -0.9877  1.4277
  367TMC3    H1 5550   1.650   3.372  15.154 -0.4723  1.5045  1.6368
  367TMC3    H2 5551   1.823   3.738  15.279  1.3770 -0.0142 -0.4254
  367TMC3    C7 5552   1.615   3.637  15.156 -0.0583 -0.1682  0.0114
  367TMC3    C8 5553   2.080   3.646  15.293  0.3939 -0.3132 -0.5846
  367TMC3    O1 5554   1.636   3.759  15.143  1.2823 -0.0513  0.1984
  367TMC3    O2 5555   2.183   3.588  15.327  0.1614 -0.2569  0.4654
  368MPD2     C 5556   3.048   0.009  13.093 -0.6457  0.0612 -0.6088
  368MPD2    C1 5557   3.121   0.125  13.111 -0.2543 -0.5304 -0.1114
  368MPD2    C2 5558   3.243   0.132  13.043 -0.2680  0.4914  0.3475
  368MPD2    C3 5559   3.290   0.021  12.975 -0.1031 -0.1374  0.1445
  368MPD2    C4 5560   3.208   4.648  12.951 -0.0842  1.0308 -0.6628
  368MPD2    C5 5561   3.088   4.647  13.010 -0.6886  0.6071  0.0308
  368MPD2     H 5562   3.305   0.219  13.062 -0.1033 -0.3954  3.8302
  368MPD2    H1 5563   3.233   4.560  12.893 -0.0466  0.7846 -0.2677
  368MPD2    H2 5564   2.948   0.014  13.133 -0.2849  1.5271  0.1167
  368MPD2    H3 5565   3.019   4.564  13.003 -0.3726  0.2680  0.8536
  368MPD2     N 5566   3.416   0.029  12.923  0.5097  0.4799 -0.4166
  368MPD2    H5 5567   3.437   4.690  12.856  1.1129  0.0566  0.2398
  368MPD2    N1 5568   3.060   0.234  13.174 -0.3088 -0.1816  0.2019
  368MPD2    H7 5569   2.968   0.219  13.215 -0.4885 -0.5217 -0.3228
  369TMC3    C1 5570   3.006   0.458  13.206 -0.2258 -0.1693 -0.1764
  369TMC3    C2 5571   3.015   0.563  13.118 -0.0741 -0.5691  0.5277
  369TMC3    C3 5572   2.911   0.579  13.032 -0.0453  0.0171  0.3700
  369TMC3    C4 5573   2.886   0.394  13.224  0.3829 -0.5459 -0.5937
  369TMC3    C5 5574   2.778   0.420  13.137 -0.4154 -0.2084 -0.2459
  369TMC3    C6 5575   2.802   0.502  13.029  0.5138 -0.2419 -0.1146
  369TMC3     C 5576   3.106   0.358  13.176  0.0138  0.2319  0.6022
  369TMC3     O 5577   3.195   0.408  13.112 -0.1376  0.4407  0.0418
  369TMC3     H 5578   3.097   0.633  13.130 -1.4938  1.8908 -4.2134
  369TMC3    H1 5579   2.870   0.318  13.300 -0.8170  1.0561  0.7560
  369TMC3    H2 5580   2.736   0.535  12.950 -0.6637  1.0871  1.4516
  369TMC3    C7 5581   2.715   0.292  13.106 -0.0249 -0.1236 -0.1561
  369TMC3    C8 5582   2.948   0.635  12.899 -0.1947  0.7675  0.4580
  369TMC3    O1 5583   2.762   0.190  13.157 -0.3485  0.0108  0.4612
  369TMC3    O2 5584   2.868   0.655  12.805 -0.6096 -0.0958 -0.2136
  370TMC3    C1 5585   3.116   0.950  16.384  0.1835  0.3334 -0.1377
  370TMC3    C2 5586   3.041   0.897  16.489 -0.1238 -0.2147  0.0271
  370TMC3    C3 5587   2.987   0.776  16.487  0.3503 -0.5300 -0.0412
  370TMC3    C4 5588   3.158   0.864  16.286  0.5155  0.9218  0.1630
  370TMC3    C5 5589   3.118   0.733  16.299  0.3537  0.0674 -0.1410
  370TMC3    C6 5590   3.034   0.682  16.396  0.3759  0.3385 -0.4031
  370TMC3     C 5591   3.179   1.080  16.406 -0.5837 -0.4254  0.2024
  370TMC3     O 5592   3.171   1.130  16.518  0.4281  0.7473 -0.0008
  370TMC3     H 5593   3.007   0.962  16.569  3.3491  0.5531  0.8877
  370TMC3    H1 5594   3.222   0.894  16.203  2.3556 -0.8429  0.9433
  370TMC3    H2 5595   2.994   0.581  16.402  1.7444 -0.1662  0.2660
  370TMC3    C7 5596   3.159   0.651  16.191 -0.3735 -0.4335  0.2614
  370TMC3    C8 5597   2.924   0.728  16.603 -0.2160 -0.1585 -0.6802
  370TMC3    O1 5598   3.192   0.692  16.080 -0.1269  0.3903 -0.4154
  370TMC3    O2 5599   2.922   0.607  16.635  0.2616  0.1642  0.0348
  371TMC3    C1 5600   3.963   3.913  15.599 -0.1137  0.8601  0.0378
  371TMC3    C2 5601   3.901   3.884  15.722  0.2497  0.5993  0.5733
  371TMC3    C3 5602   3.857   3.997  15.797 -0.5846 -0.8962  0.3768
  371TMC3    C4 5603   3.999   4.038  15.563 -0.2265 -0.4122 -0.6133
  371TMC3    C5 5604   3.971   4.142  15.645 -0.3202  0.3876 -0.4437
  371TMC3    C6 5605   3.904   4.121  15.764  0.7188  0.4271 -0.4052
  371TMC3     C 5606   4.015   3.805  15.517  0.2605  0.6027 -0.4856
  371TMC3     O 5607   4.115   3.821  15.444  0.2762  0.1827 -0.1939
  371TMC3     H 5608   3.877   3.785  15.757  1.9731 -0.3285 -0.9095
  371TMC3    H1 5609   4.041   4.065  15.466  1.8276 -0.7790  0.1851
  371TMC3    H2 5610   3.898   4.208  15.828  0.1754 -0.1852  0.3791
  371TMC3    C7 5611   3.983   4.286  15.609 -0.1097  0.0086  0.4633
  371TMC3    C8 5612   3.813   3.970  15.937 -0.1753  0.0526 -0.6684
  371TMC3    O1 5613   4.051   4.366  15.678 -0.3745  0.2317  0.0591
  371TMC3    O2 5614   3.826   3.854  15.975  0.1152  0.6337 -0.6374
  372MPD2     C 5615   3.277   0.639  13.404 -0.2109  0.0120  0.2269
  372MPD2    C1 5616   3.399   0.578  13.435  0.3541 -0.6179 -0.0328
  372MPD2    C2 5617   3.394   0.475  13.530 -0.0794 -0.2491 -0.3778
  372MPD2    C3 5618   3.278   0.437  13.596  0.5890 -0.0512  1.1626
  372MPD2    C4 5619   3.163   0.501  13.568  0.3252  0.0116  0.7398
  372MPD2    C5 5620   3.164   0.600  13.470  0.3599 -0.2132 -0.7941
  372MPD2     H 5621   3.486   0.422  13.553  1.1459  0.9000 -2.7354
  372MPD2    H1 5622   3.062   0.477  13.601 -0.1627 -0.1021 -0.8537
  372MPD2    H2 5623   3.282   0.715  13.327  0.1297 -0.8607 -0.6126
  372MPD2    H3 5624   3.068   0.635  13.432 -1.0082 -2.8063  0.3067
  372MPD2     N 5625   3.289   0.337  13.696  0.7999 -0.3551 -0.5888
  372MPD2    H5 5626   3.384   0.305  13.712  0.9458  0.6997  0.6259
  372MPD2    N1 5627   3.518   0.605  13.371  0.5153  0.4240  0.4814
  372MPD2    H7 5628   3.593   0.538  13.383 -0.2110 -0.1874  1.5835
  373TMC3    C1 5629   3.231   0.169  13.836  0.5484 -0.4813  0.5753
  373TMC3    C2 5630   3.133   0.103  13.911  0.3399 -0.0351 -0.1432
  373TMC3    C3 5631   3.150   4.707  13.943  0.2947 -0.4133  0.8392
  373TMC3    C4 5632   3.341   0.102  13.787  0.2065  0.3626 -0.0492
  373TMC3    C5 5633   3.348   4.699  13.813  0.3912 -0.4047 -0.3078
  373TMC3    C6 5634   3.253   4.630  13.888  0.2744  0.2594 -0.3161
  373TMC3     C 5635   3.187   0.283  13.766  0.4418 -0.0759 -0.4980
  373TMC3     O 5636   3.069   0.314  13.764  0.5768 -0.5819 -0.7651
  373TMC3     H 5637   3.056   0.165  13.956  0.6850  2.4077 -2.9836
  373TMC3    H1 5638   3.396   0.136  13.701  0.0166 -0.1407 -0.3725
  373TMC3    H2 5639   3.268   4.534  13.937  0.1065 -0.0011 -0.7769
  373TMC3    C7 5640   3.474   4.632  13.775 -0.5260  0.6756 -0.7839
  373TMC3    C8 5641   3.046   4.649  14.022 -0.1502  0.0051 -0.8367
  373TMC3    O1 5642   3.467   4.511  13.762 -0.9468 -0.4355 -0.0076
  373TMC3    O2 5643   2.930   4.686  14.007 -0.1792  0.6999  0.3606
  374TMC3    C1 5644   4.643   0.793   9.297 -0.4324  0.1838 -0.5001
  374TMC3    C2 5645   4.711   0.899   9.355  0.4875 -0.4021  0.3211
  374TMC3    C3 5646   0.055   0.974   9.278  0.1176  0.4270  0.0225
  374TMC3    C4 5647   4.648   0.770   9.162  0.1985  0.2828  0.1754
  374TMC3    C5 5648   0.001   0.850   9.090 -0.0757 -1.2162  0.5776
  374TMC3    C6 5649   0.077   0.949   9.143 -0.0898  0.1448  0.0491
  374TMC3     C 5650   4.545   0.708   9.368 -0.5861  0.4191  0.1408
  374TMC3     O 5651   4.477   0.634   9.304 -0.6497 -0.2101  0.1193
  374TMC3     H 5652   4.691   0.924   9.459 -0.0553 -1.8293  0.5620
  374TMC3    H1 5653   4.593   0.687   9.118 -0.3416 -0.2458  1.8473
  374TMC3    H2 5654   0.149   1.005   9.085  0.8510 -0.2175  0.8720
  374TMC3    C7 5655   0.002   0.842   8.947  0.3841 -0.4001 -0.1569
  374TMC3    C8 5656   0.119   1.093   9.336  0.1299  0.1453 -0.2217
  374TMC3    O1 5657   0.101   0.884   8.889  0.0008  0.6400  0.2274
  374TMC3    O2 5658   0.179   1.167   9.265 -0.3490  0.1082 -0.5676
  375MPD2     C 5659   4.386   1.451  17.060  0.4313  0.3844 -0.7243
  375MPD2    C1 5660   4.284   1.419  16.973  0.6003  0.2349 -0.4661
  375MPD2    C2 5661   4.298   1.317  16.880 -0.0178 -0.7745  0.6382
  375MPD2    C3 5662   4.409   1.234  16.869  0.2274 -0.1496  0.1728
  375MPD2    C4 5663   4.509   1.262  16.961 -0.2000  0.0791 -0.6586
  375MPD2    C5 5664   4.502   1.370  17.047 -0.1028  0.0886 -0.6597
  375MPD2     H 5665   4.210   1.305  16.817  0.2035  0.4122  0.0914
  375MPD2    H1 5666   4.603   1.208  16.958  0.7834  1.6179  1.9522
  375MPD2    H2 5667   4.381   1.542  17.117  2.2058 -0.5786  0.9828
  375MPD2    H3 5668   4.584   1.384  17.117  1.9792  2.0813 -3.4804
  375MPD2     N 5669   4.426   1.124  16.785  0.1326 -0.0732 -0.0346
  375MPD2    H5 5670   4.504   1.061  16.802  0.3484  0.3049  0.3794
  375MPD2    N1 5671   4.156   1.483  16.973  0.4192  0.3157 -0.9525
  375MPD2    H7 5672   4.087   1.472  16.900 -0.4856 -0.5648  0.0311
  376TMC3    C1 5673   4.392   0.986  16.596  0.4623  0.6320  0.0130
  376TMC3    C2 5674   4.519   0.942  16.605  0.4774 -0.4911 -0.3130
  376TMC3    C3 5675   4.569   0.857  16.513  0.3853 -0.5689  0.6324
  376TMC3    C4 5676   4.303   0.931  16.503  0.0842  0.4937  0.0435
  376TMC3    C5 5677   4.364   0.853  16.406 -0.0870 -0.4290 -0.1185
  376TMC3    C6 5678   4.497   0.817  16.407 -0.7806  0.5643 -0.6046
  376TMC3     C 5679   4.344   1.084  16.684 -0.7674 -0.1102  0.7904
  376TMC3     O 5680   4.238   1.130  16.659  0.0048 -0.0955 -0.6326
  376TMC3     H 5681   4.587   0.978  16.682  0.1766 -2.5563  0.9423
  376TMC3    H1 5682   4.198   0.952  16.487  0.2243  1.2725  0.1746
  376TMC3    H2 5683   4.543   0.788  16.314 -1.5993 -0.2037 -0.7660
  376TMC3    C7 5684   4.308   0.863  16.272 -0.1902  0.1961  0.5052
  376TMC3    C8 5685   4.711   0.863  16.480  0.6806 -0.9364 -0.1622
  376TMC3    O1 5686   4.220   0.948  16.262  0.2187  0.0261  0.6207
  376TMC3    O2 5687   0.033   0.970  16.488 -0.4125  0.3848 -0.0472
  377MPD2     C 5688   1.917   0.696  12.767 -0.5907  0.1196  0.5988
  377MPD2    C1 5689   2.045   0.663  12.783  0.0937  0.7112  0.2861
  377MPD2    C2 5690   2.071   0.541  12.855 -0.4108  0.5073 -0.0578
  377MPD2    C3 5691   1.968   0.464  12.911  0.1668 -0.1494  0.2724
  377MPD2    C4 5692   1.837   0.496  12.883  0.0704 -0.4777  0.1079
  377MPD2    C5 5693   1.815   0.617  12.815 -0.1235 -0.7738 -0.1722
  377MPD2     H 5694   2.174   0.506  12.861 -0.4071  0.6215  0.5312
  377MPD2    H1 5695   1.754   0.444  12.930 -0.9100  1.0144  0.0066
  377MPD2    H2 5696   1.884   0.785  12.714 -0.7191 -1.1208 -1.4096
  377MPD2    H3 5697   1.715   0.655  12.796  0.5488  0.5722 -1.0583
  377MPD2     N 5698   1.989   0.350  12.987 -0.4610  0.2555 -0.2653
  377MPD2    H5 5699   1.909   0.290  13.007 -1.4140  1.7838  0.4481
  377MPD2    N1 5700   2.147   0.735  12.717 -0.1272 -0.5593  0.4446
  377MPD2    H7 5701   2.115   0.816  12.665 -0.7171 -0.9143  0.2546
  378TMC3    C1 5702   2.413   1.009  12.547  0.0511 -0.3325 -0.4469
  378TMC3    C2 5703   2.333   0.918  12.620  0.4478  0.1813  0.3764
  378TMC3    C3 5704   2.349   0.788  12.611 -1.1309  0.0751 -0.1761
  378TMC3    C4 5705   2.516   0.959  12.462 -0.4728  0.1129 -0.1889
  378TMC3    C5 5706   2.543   0.828  12.480  0.0830 -0.1784 -0.7915
  378TMC3    C6 5707   2.454   0.738  12.550  0.3448 -0.1385  0.1210
  378TMC3     C 5708   2.331   1.119  12.506 -0.6322  0.7347 -0.1294
  378TMC3     O 5709   2.232   1.138  12.574  0.1588  0.0891  0.0930
  378TMC3     H 5710   2.251   0.950  12.684  0.0654  6.2100 -3.1884
  378TMC3    H1 5711   2.576   1.029  12.404  1.9992 -0.8362  1.2298
  378TMC3    H2 5712   2.477   0.634  12.570 -0.8097 -0.1425  1.4513
  378TMC3    C7 5713   2.674   0.772  12.437  0.0660 -0.0780 -0.2850
  378TMC3    C8 5714   2.278   0.702  12.698  0.9645  0.5683 -0.2242
  378TMC3    O1 5715   2.718   0.677  12.499  0.2396  0.1044 -0.3871
  378TMC3    O2 5716   2.343   0.610  12.749 -0.1916  0.2897  0.1310
  379MPD2     C 5717   2.833   4.255  16.255  0.1365  0.1650  0.0588
  379MPD2    C1 5718   2.834   4.117  16.241 -0.2561 -0.9714 -0.2472
  379MPD2    C2 5719   2.930   4.046  16.315 -0.5880  0.8535  0.5735
  379MPD2    C3 5720   3.016   4.109  16.403  0.7619  0.0584 -0.1426
  379MPD2    C4 5721   3.000   4.242  16.425  0.6014 -0.2619  0.2229
  379MPD2    C5 5722   2.910   4.312  16.352  0.6901  0.2909 -0.4169
  379MPD2     H 5723   2.923   3.938  16.320 -0.6495  0.8468  0.3366
  379MPD2    H1 5724   3.058   4.294  16.500 -0.8970  0.6596  0.7382
  379MPD2    H2 5725   2.766   4.310  16.188 -1.1970 -2.6112 -0.8784
  379MPD2    H3 5726   2.905   4.419  16.366  4.2588  0.6403 -1.6634
  379MPD2     N 5727   3.104   4.034  16.491 -0.9323  0.1115 -0.0410
  379MPD2    H5 5728   3.165   4.076  16.560 -0.4661 -0.6101 -0.0012
  379MPD2    N1 5729   2.744   4.057  16.145  0.4172 -0.4348  0.0056
  379MPD2    H7 5730   2.690   4.127  16.096  1.4224  0.6859  0.4935
  380TMC3    C1 5731   2.678   3.889  15.997 -0.1689 -0.3118 -0.4518
  380TMC3    C2 5732   2.712   3.761  15.951  0.6900  1.2199  0.0490
  380TMC3    C3 5733   2.678   3.726  15.825  0.4140 -0.4036  0.1071
  380TMC3    C4 5734   2.600   3.971  15.922  0.3298 -0.4001 -0.6795
  380TMC3    C5 5735   2.564   3.932  15.792  0.2874 -0.5117 -0.0559
  380TMC3    C6 5736   2.605   3.809  15.748 -0.1525  0.4957  0.4024
  380TMC3     C 5737   2.736   3.920  16.124 -0.6842 -0.1722  0.0065
  380TMC3     O 5738   2.788   3.824  16.185  0.4843  0.1852  0.0655
  380TMC3     H 5739   2.768   3.692  16.013  0.0081  0.7008  0.0837
  380TMC3    H1 5740   2.564   4.065  15.964 -0.9502 -0.8301 -0.7993
  380TMC3    H2 5741   2.606   3.791  15.641  0.1648 -0.2904  0.5374
  380TMC3    C7 5742   2.463   4.002  15.709  0.0902  0.2218  0.3140
  380TMC3    C8 5743   2.769   3.642  15.758 -0.5944 -0.7104 -0.0009
  380TMC3    O1 5744   2.453   4.124  15.731  0.6561  0.3682  0.0518
  380TMC3    O2 5745   2.775   3.651  15.639  0.2064 -0.4043 -0.4311
  381TMC3    C1 5746   3.126   4.716  16.782  0.2105  0.3532  0.4237
  381TMC3    C2 5747   3.191   0.086  16.728  0.1774  0.5010  0.1132
  381TMC3    C3 5748   3.159   0.208  16.775 -0.7757 -0.9172 -0.0183
  381TMC3    C4 5749   3.045   4.725  16.887 -0.1465  0.6967  0.2247
  381TMC3    C5 5750   3.000   0.116  16.918  0.8339  0.3111  0.8208
  381TMC3    C6 5751   3.053   0.225  16.864 -0.8562  0.3591  0.4418
  381TMC3     C 5752   3.174   4.588  16.740  0.9364  0.2970  0.5835
  381TMC3     O 5753   3.197   4.503  16.825  0.2160 -0.3283 -0.5752
  381TMC3     H 5754   3.251   0.073  16.640  0.6317 -1.5530  0.7205
  381TMC3    H1 5755   3.023   4.636  16.945 -0.8415 -0.8203 -2.3400
  381TMC3    H2 5756   3.022   0.328  16.876  2.9608  1.4737  0.8215
  381TMC3    C7 5757   2.922   0.115  17.043  0.1489  0.2806  0.0067
  381TMC3    C8 5758   3.228   0.322  16.714 -0.5782  0.0475  0.1353
  381TMC3    O1 5759   2.948   0.023  17.125 -0.4877  0.1842  0.3539
  381TMC3    O2 5760   3.298   0.283  16.621 -0.6375 -0.0329 -0.4572
  382MPD2     C 5761   2.018   2.576  16.790  0.3948 -0.1411  1.1144
  382MPD2    C1 5762   2.051   2.549  16.917  0.2518  0.3132  0.5401
  382MPD2    C2 5763   1.998   2.438  16.979  0.5787 -0.3641  0.1728
  382MPD2    C3 5764   1.928   2.346  16.912 -0.2926  0.3624 -0.0760
  382MPD2    C4 5765   1.905   2.364  16.781  0.2717 -0.1674  0.0571
  382MPD2    C5 5766   1.940   2.484  16.722  0.0901 -0.7149 -0.4368
  382MPD2     H 5767   2.021   2.416  17.083 -0.5852 -0.4230  0.4199
  382MPD2    H1 5768   1.867   2.289  16.712 -2.0063 -1.0838  2.3234
  382MPD2    H2 5769   2.050   2.669  16.744 -1.4135 -0.7654 -1.4829
  382MPD2    H3 5770   1.924   2.505  16.616 -1.9310  0.0294  0.0108
  382MPD2     N 5771   1.888   2.220  16.961 -0.1624 -0.0401  0.1785
  382MPD2    H5 5772   1.847   2.166  16.885  2.1415 -0.8612 -0.4994
  382MPD2    N1 5773   2.141   2.624  16.994 -0.4087 -0.1467  0.2382
  382MPD2    H7 5774   2.156   2.604  17.092 -1.2637  2.3831  0.8819
  383TMC3    C1 5775   1.860   2.022  17.098  0.4370 -0.2384 -0.5401
  383TMC3    C2 5776   1.818   1.954  16.986  0.0319  0.4958 -0.1195
  383TMC3    C3 5777   1.825   1.812  16.999  0.7018  0.3965 -0.2204
  383TMC3    C4 5778   1.890   1.962  17.222 -0.1119  0.0009  0.2122
  383TMC3    C5 5779   1.880   1.828  17.229 -0.0145  0.4009 -0.5049
  383TMC3    C6 5780   1.858   1.757  17.119 -0.1445 -0.2301 -0.0105
  383TMC3     C 5781   1.911   2.158  17.082  0.5381 -0.2225  0.2194
  383TMC3     O 5782   1.969   2.207  17.175  0.3470  0.1421  0.3099
  383TMC3     H 5783   1.794   1.992  16.887 -0.9454  0.8957  0.2661
  383TMC3    H1 5784   1.945   2.022  17.294  0.7384 -1.8905  1.1501
  383TMC3    H2 5785   1.849   1.650  17.129 -0.1442 -0.2098  0.2025
  383TMC3    C7 5786   1.925   1.756  17.348 -0.4709 -0.1404 -0.4538
  383TMC3    C8 5787   1.733   1.737  16.911  0.7929 -0.3760  0.1616
  383TMC3    O1 5788   1.975   1.646  17.333  0.1578 -0.7187 -0.0222
  383TMC3    O2 5789   1.648   1.801  16.851 -0.0452 -0.8011 -1.0445
  384MPD2     C 5790   3.252   3.414  11.400 -0.4118  0.1869 -0.6293
  384MPD2    C1 5791   3.306   3.456  11.516  0.3996 -0.0180 -0.5500
  384MPD2    C2 5792   3.419   3.389  11.557 -0.4797 -0.4139 -0.3297
  384MPD2    C3 5793   3.478   3.285  11.483 -0.8705 -1.0442  0.0332
  384MPD2    C4 5794   3.416   3.248  11.370  0.4038 -0.3326 -0.9087
  384MPD2    C5 5795   3.302   3.308  11.331 -0.1822 -0.6293  0.5085
  384MPD2     H 5796   3.463   3.433  11.646 -0.3691 -0.8567 -0.1633
  384MPD2    H1 5797   3.456   3.167  11.311  0.1328  0.2827 -1.9324
  384MPD2    H2 5798   3.166   3.465  11.358 -0.3190  1.2230  0.4385
  384MPD2    H3 5799   3.248   3.280  11.242  1.0570  0.8067 -0.7063
  384MPD2     N 5800   3.602   3.223  11.511 -0.1032  0.0470 -0.4060
  384MPD2    H5 5801   3.623   3.139  11.457 -0.0841 -0.8225  0.9512
  384MPD2    N1 5802   3.247   3.552  11.605  0.0419  0.2030  0.5010
  384MPD2    H7 5803   3.310   3.583  11.679  1.5259 -1.8427  0.1012
  385TMC3    C1 5804   3.802   3.191  11.653  0.4089 -0.1884 -0.2133
  385TMC3    C2 5805   3.786   3.060  11.659  0.1709 -0.7184  0.5000
  385TMC3    C3 5806   3.848   2.996  11.758 -0.4114  0.5866 -0.6953
  385TMC3    C4 5807   3.877   3.260  11.739 -0.2470 -0.6590 -0.2452
  385TMC3    C5 5808   3.919   3.198  11.852  0.0351 -0.6695  0.1246
  385TMC3    C6 5809   3.930   3.060  11.852  0.0888  0.9175  0.0693
  385TMC3     C 5810   3.682   3.270  11.612 -0.9419 -0.8378 -0.3808
  385TMC3     O 5811   3.673   3.364  11.687 -0.0329  0.0946  0.0693
  385TMC3     H 5812   3.711   3.004  11.604 -0.1801  0.5405 -0.2971
  385TMC3    H1 5813   3.894   3.365  11.717 -0.8952 -0.4235  0.4104
  385TMC3    H2 5814   3.951   3.004  11.942  1.9019 -1.0243 -1.5638
  385TMC3    C7 5815   3.892   3.269  11.975 -0.1957 -0.6213  0.1857
  385TMC3    C8 5816   3.883   2.851  11.741 -0.5831  0.2184  0.7175
  385TMC3    O1 5817   3.942   3.221  12.076  0.8157 -0.0298  0.3569
  385TMC3    O2 5818   3.963   2.805  11.822  0.6741  0.3783  0.2108
  386TMC3    C1 5819   3.842   0.901  11.784  1.0541 -1.1917 -0.9961
  386TMC3    C2 5820   3.802   0.881  11.653  0.0679  0.7193 -0.6351
  386TMC3    C3 5821   3.728   0.971  11.587 -0.3060 -0.2302  0.4568
  386TMC3    C4 5822   3.794   1.015  11.848 -0.0471  0.7662  0.5811
  386TMC3    C5 5823   3.713   1.103  11.785 -0.2698  0.0921 -0.2346
  386TMC3    C6 5824   3.682   1.082  11.654 -0.4915 -0.3675  0.5211
  386TMC3     C 5825   3.967   0.839  11.832 -0.0992  0.1256 -0.7941
  386TMC3     O 5826   4.056   0.917  11.864 -0.4378  0.1418 -1.3835
  386TMC3     H 5827   3.835   0.794  11.597  0.9764  1.0397 -0.5880
  386TMC3    H1 5828   3.819   1.038  11.951  1.3899 -3.8140  1.2587
  386TMC3    H2 5829   3.605   1.147  11.615  0.1515 -0.5379 -1.0258
  386TMC3    C7 5830   3.633   1.188  11.863  0.0443  0.5043  0.2518
  386TMC3    C8 5831   3.688   0.959  11.437 -0.1356  0.3857  0.2563
  386TMC3    O1 5832   3.606   1.157  11.976  0.2204 -0.0301 -0.0189
  386TMC3    O2 5833   3.612   1.039  11.389  0.5298  0.5000  0.0340
  387MPD2     C 5834   1.492   1.509   9.649  0.6060  0.4587  0.1924
  387MPD2    C1 5835   1.513   1.427   9.753 -0.0846  0.3703 -0.4457
  387MPD2    C2 5836   1.496   1.288   9.728  0.0827 -0.5523 -0.5360
  387MPD2    C3 5837   1.463   1.229   9.606  0.0552 -0.2285  0.0703
  387MPD2    C4 5838   1.446   1.321   9.506 -0.6909  0.2475 -0.2739
  387MPD2    C5 5839   1.445   1.455   9.537 -0.6366 -0.0963  0.0251
  387MPD2     H 5840   1.507   1.214   9.808  1.9656  0.7491  0.4074
  387MPD2    H1 5841   1.414   1.286   9.408 -0.0684 -0.1983 -0.3236
  387MPD2    H2 5842   1.498   1.618   9.652  1.4990  0.4187 -0.1015
  387MPD2    H3 5843   1.413   1.528   9.463 -2.9600 -1.6144 -0.4465
  387MPD2     N 5844   1.457   1.088   9.601 -0.1191 -0.4104 -0.3121
  387MPD2    H5 5845   1.471   1.041   9.690 -1.3057  0.9444  0.5948
  387MPD2    N1 5846   1.576   1.462   9.870 -0.6216  0.0600 -0.2538
  387MPD2    H7 5847   1.595   1.382   9.929 -0.1892  0.5152  0.2289
  388TMC3    C1 5848   1.700   1.576  10.019 -0.3352  0.2801  0.1082
  388TMC3    C2 5849   1.732   1.675  10.102  0.7234  0.0900  0.1622
  388TMC3    C3 5850   1.808   1.651  10.212 -0.4173  0.0410 -0.7736
  388TMC3    C4 5851   1.756   1.445  10.039 -0.2991 -0.4633  0.2731
  388TMC3    C5 5852   1.837   1.429  10.151 -0.6211  0.0530 -0.3693
  388TMC3    C6 5853   1.869   1.531  10.237  0.1981 -0.5581 -0.1439
  388TMC3     C 5854   1.608   1.590   9.909 -0.1680  0.5384 -1.0485
  388TMC3     O 5855   1.577   1.697   9.864 -0.2841  0.1862 -0.1965
  388TMC3     H 5856   1.697   1.771  10.068  1.0466 -0.1700 -0.8897
  388TMC3    H1 5857   1.771   1.382   9.952 -2.2922  0.5610 -0.8066
  388TMC3    H2 5858   1.929   1.511  10.325 -1.0706 -1.9898  0.3894
  388TMC3    C7 5859   1.911   1.306  10.178 -0.4071 -0.4471 -0.2480
  388TMC3    C8 5860   1.831   1.759  10.305  0.2794  0.5938 -1.2423
  388TMC3    O1 5861   2.024   1.315  10.219  0.0495 -0.1088 -0.0443
  388TMC3    O2 5862   1.916   1.741  10.392 -0.1228  0.2803 -0.0648
  389MPD2     C 5863   0.647   4.397  10.971 -0.3232  1.0537 -0.1318
  389MPD2    C1 5864   0.515   4.356  10.948  0.0316  0.4492  0.6879
  389MPD2    C2 5865   0.453   4.291  11.055  0.3705  0.3805  0.0981
  389MPD2    C3 5866   0.515   4.267  11.179 -0.3726  0.6783  0.1126
  389MPD2    C4 5867   0.645   4.311  11.191  0.4343  0.5787 -0.6443
  389MPD2    C5 5868   0.710   4.363  11.084  0.1008 -0.0383 -0.0280
  389MPD2     H 5869   0.352   4.256  11.035  0.4549  0.5267 -0.5886
  389MPD2    H1 5870   0.711   4.287  11.273  0.4889  0.9678 -0.5724
  389MPD2    H2 5871   0.712   4.451  10.902 -1.2299  1.2471 -0.8314
  389MPD2    H3 5872   0.810   4.401  11.102  0.2371 -0.9835  1.2528
  389MPD2     N 5873   0.459   4.193  11.284  0.1591 -0.2277  0.3271
  389MPD2    H5 5874   0.513   4.199  11.370  0.2448  1.0577  0.1946
  389MPD2    N1 5875   0.459   4.380  10.824 -0.0304  0.0600  0.4081
  389MPD2    H7 5876   0.521   4.419  10.754  0.2533 -1.8444 -0.4076
  390TMC3    C1 5877   0.305   4.046  11.396 -0.4643  0.6345 -0.5771
  390TMC3    C2 5878   0.227   3.935  11.372 -0.7279 -0.7801 -0.0053
  390TMC3    C3 5879   0.153   3.893  11.485 -0.9340 -0.2350 -0.4414
  390TMC3    C4 5880   0.315   4.111  11.519  0.6915  0.0972  0.2218
  390TMC3    C5 5881   0.237   4.066  11.625  0.2692  0.1590  0.7605
  390TMC3    C6 5882   0.161   3.955  11.607 -0.3262  0.1870  0.7638
  390TMC3     C 5883   0.347   4.110  11.275 -0.4370 -0.2564  0.0822
  390TMC3     O 5884   0.268   4.108  11.183  0.2043 -0.3428 -0.2969
  390TMC3     H 5885   0.218   3.883  11.278 -1.0001 -2.8223  1.1589
  390TMC3    H1 5886   0.367   4.205  11.529 -0.5375  0.8943 -0.8612
  390TMC3    H2 5887   0.098   3.911  11.684 -1.2500 -1.9360 -1.1976
  390TMC3    C7 5888   0.307   4.079  11.755  0.3718 -0.1148 -0.9863
  390TMC3    C8 5889   0.053   3.799  11.448  0.1802 -0.3720 -0.8673
  390TMC3    O1 5890   0.409   4.142  11.765  0.0996  0.1763 -0.9591
  390TMC3    O2 5891   0.085   3.717  11.361 -0.5399  0.0240  0.2207
  391MPD2     C 5892   0.264   0.480  10.757 -0.2439 -0.8834  0.7792
  391MPD2    C1 5893   0.375   0.560  10.770 -0.0193 -0.1182 -0.3177
  391MPD2    C2 5894   0.406   0.641  10.664 -0.5268  0.7012 -0.0269
  391MPD2    C3 5895   0.320   0.659  10.556 -0.3701 -0.0998 -0.4266
  391MPD2    C4 5896   0.209   0.582  10.551  0.7227 -0.0172 -0.2772
  391MPD2    C5 5897   0.191   0.482  10.637  0.7533 -0.0851  0.3272
  391MPD2     H 5898   0.490   0.709  10.661 -0.6264  0.7580 -1.3156
  391MPD2    H1 5899   0.134   0.588  10.473 -0.3191 -1.0277  0.6492
  391MPD2    H2 5900   0.235   0.412  10.836 -1.4361 -0.5566  0.6259
  391MPD2    H3 5901   0.105   0.419  10.618 -0.1806  1.2094  0.2507
  391MPD2     N 5902   0.342   0.777  10.477  0.3790 -0.2887 -0.4794
  391MPD2    H5 5903   0.428   0.827  10.499 -0.0763 -1.1355  3.2113
  391MPD2    N1 5904   0.444   0.542  10.887  0.2242  0.1027  0.6693
  391MPD2    H7 5905   0.403   0.493  10.966  0.7304 -0.5039  0.5481
  392TMC3    C1 5906   0.304   0.949  10.307  0.3824 -0.8085  0.5691
  392TMC3    C2 5907   0.282   0.953  10.175 -0.5390 -0.0211  0.3411
  392TMC3    C3 5908   0.321   1.063  10.107  0.6561  0.2041  0.3486
  392TMC3    C4 5909   0.393   1.030  10.367  0.1119 -0.2784  0.1348
  392TMC3    C5 5910   0.455   1.123  10.289  0.7137  0.4821 -0.6305
  392TMC3    C6 5911   0.425   1.135  10.158  0.1461 -0.4773  0.8264
  392TMC3     C 5912   0.251   0.832  10.382 -0.4591  0.7796 -0.1241
  392TMC3     O 5913   0.148   0.780  10.344  0.3835  0.0074 -0.4402
  392TMC3     H 5914   0.232   0.871  10.126 -0.2774 -0.1636  0.3084
  392TMC3    H1 5915   0.392   1.040  10.475 -1.4056 -0.9584  0.1697
  392TMC3    H2 5916   0.479   1.209  10.100 -0.6251 -0.1193  0.5647
  392TMC3    C7 5917   0.554   1.210  10.361 -0.2249  0.5898  0.7124
  392TMC3    C8 5918   0.297   1.065   9.963  0.7723 -0.1211  0.1034
  392TMC3    O1 5919   0.557   1.204  10.484 -0.7071  0.7677  0.1646
  392TMC3    O2 5920   0.257   0.958   9.917 -0.0123  0.4824  0.0293
  393TMC3    C1 5921   3.197   3.984  10.012  0.4857 -0.0115  0.0299
  393TMC3    C2 5922   3.129   3.930   9.911 -0.0951  0.1054 -0.3234
  393TMC3    C3 5923   3.032   3.839   9.945 -0.2217 -0.1491 -0.6850
  393TMC3    C4 5924   3.178   3.959  10.141 -0.2936 -0.1994 -0.6135
  393TMC3    C5 5925   3.075   3.876  10.170 -0.4899  0.4996  0.3987
  393TMC3    C6 5926   3.002   3.809  10.077 -0.1159  0.3539 -0.2190
  393TMC3     C 5927   3.291   4.086   9.978  0.1718  0.1795 -0.0995
  393TMC3     O 5928   3.270   4.136   9.867  0.3211 -0.0311 -0.4544
  393TMC3     H 5929   3.172   3.938   9.812  2.2703  2.5691  0.9203
  393TMC3    H1 5930   3.224   4.019  10.219 -2.1904  1.0395 -0.4388
  393TMC3    H2 5931   2.935   3.734  10.118  1.3233 -0.2043  1.0868
  393TMC3    C7 5932   3.061   3.833  10.308 -0.1388  0.9280  0.4146
  393TMC3    C8 5933   2.963   3.755   9.844  0.1613 -0.1142  1.0104
  393TMC3    O1 5934   2.952   3.785  10.340  0.1973  0.4346 -0.2776
  393TMC3    O2 5935   2.905   3.652   9.875  0.0597 -0.0538 -0.1533
  394TMC3    C1 5936   0.326   4.318  10.647 -0.1653  0.3526 -0.3650
  394TMC3    C2 5937   0.203   4.336  10.591 -0.1651 -0.3107  0.0693
  394TMC3    C3 5938   0.190   4.323  10.456  0.1168  0.3613  0.2275
  394TMC3    C4 5939   0.435   4.290  10.566  0.8106 -0.5612  0.2526
  394TMC3    C5 5940   0.419   4.292  10.430  0.0650  0.6153  0.0421
  394TMC3    C6 5941   0.297   4.308  10.377 -0.3843  0.2497  0.0382
  394TMC3     C 5942   0.334   4.330  10.788  0.5415 -0.2883 -0.0399
  394TMC3     O 5943   0.229   4.324  10.854  0.0658  0.0789 -0.3125
  394TMC3     H 5944   0.112   4.342  10.651 -0.3720 -1.8369 -0.1001
  394TMC3    H1 5945   0.530   4.268  10.614  0.8359 -0.3441  0.3006
  394TMC3    H2 5946   0.278   4.312  10.270 -0.1009 -1.6503 -0.0910
  394TMC3    C7 5947   0.535   4.300  10.343  0.3270  0.2471 -0.3787
  394TMC3    C8 5948   0.060   4.333  10.394 -0.8325 -0.7531 -0.6106
  394TMC3    O1 5949   0.529   4.376  10.248 -0.6994 -0.5552 -0.4648
  394TMC3    O2 5950   4.706   4.384  10.457 -0.4234  0.1907  0.5101
  395TMC3    C1 5951   0.361   0.606  14.927  0.3066 -0.1870  0.1200
  395TMC3    C2 5952   0.227   0.590  14.916 -0.0663 -0.5338  0.9278
  395TMC3    C3 5953   0.153   0.692  14.866 -0.7461  0.1218 -0.2295
  395TMC3    C4 5954   0.424   0.718  14.887 -0.2555  0.0208  0.2464
  395TMC3    C5 5955   0.345   0.821  14.849 -0.5637 -0.3631  0.0825
  395TMC3    C6 5956   0.208   0.813  14.836 -0.8027  0.0522  0.6789
  395TMC3     C 5957   0.408   0.540  15.046  0.2817  0.2727  1.1175
  395TMC3     O 5958   0.442   0.421  15.039 -0.0156  0.2142  0.3005
  395TMC3     H 5959   0.183   0.510  14.975  0.7531 -0.5643  1.4924
  395TMC3    H1 5960   0.527   0.727  14.922  0.1097  1.2431 -1.1709
  395TMC3    H2 5961   0.152   0.896  14.795 -0.9046 -0.5073 -0.3313
  395TMC3    C7 5962   0.400   0.959  14.844  0.1224 -0.2691 -0.3337
  395TMC3    C8 5963   0.014   0.693  14.895  0.1774  0.2706 -0.1909
  395TMC3    O1 5964   0.343   1.049  14.901 -0.4605  0.0514  0.2184
  395TMC3    O2 5965   4.691   0.799  14.886  0.2467  0.5738 -0.2911
  396MPD2     C 5966   4.689   1.872  16.931  0.5151  0.3080  0.2644
  396MPD2    C1 5967   0.062   1.926  16.995  0.6204 -0.4984 -0.2892
  396MPD2    C2 5968   0.125   2.035  16.935  0.6641 -0.1561 -0.2756
  396MPD2    C3 5969   0.089   2.082  16.811 -0.6172 -0.8102  0.3283
  396MPD2    C4 5970   4.717   2.021  16.752  0.1283  0.4878 -0.3819
  396MPD2    C5 5971   4.648   1.923  16.814 -0.4017 -0.7250 -0.0731
  396MPD2     H 5972   0.204   2.085  16.989  1.3724 -1.7914  0.2039
  396MPD2    H1 5973   4.675   2.061  16.661  0.4903  1.0142 -0.3151
  396MPD2    H2 5974   4.649   1.787  16.984 -2.5911  2.5045  1.3914
  396MPD2    H3 5975   4.560   1.875  16.773  0.2973 -0.2745 -2.0901
  396MPD2     N 5976   0.162   2.194  16.762 -0.0277  0.4277 -0.6830
  396MPD2    H5 5977   0.245   2.219  16.815 -0.3423 -2.8998  1.3477
  396MPD2    N1 5978   0.112   1.863  17.108  0.1821 -0.4408 -0.5675
  396MPD2    H7 5979   0.063   1.783  17.145 -0.0133  0.3416  0.8871
  397TMC3    C1 5980   0.293   1.746  17.193  0.4768 -0.5059 -0.0607
  397TMC3    C2 5981   0.412   1.717  17.128 -0.2173  0.2347 -0.2626
  397TMC3    C3 5982   0.398   1.626  17.020 -0.3809  0.6174 -0.5321
  397TMC3    C4 5983   0.196   1.648  17.193 -0.7050 -0.1601  0.0941
  397TMC3    C5 5984   0.196   1.549  17.099  0.0444 -0.2442 -0.4216
  397TMC3    C6 5985   0.296   1.532  17.005 -0.3769  0.0874 -1.0516
  397TMC3     C 5986   0.235   1.873  17.161 -0.1489 -0.0501 -0.1041
  397TMC3     O 5987   0.323   1.953  17.154 -0.5340 -0.1963  0.0681
  397TMC3     H 5988   0.484   1.797  17.127  0.0507 -0.0228 -1.8755
  397TMC3    H1 5989   0.109   1.644  17.258 -1.0527 -1.0062 -0.4276
  397TMC3    H2 5990   0.285   1.464  16.922 -0.3264 -1.1127 -0.0844
  397TMC3    C7 5991   0.154   1.420  17.148 -0.3024 -0.7605 -0.2710
  397TMC3    C8 5992   0.458   1.668  16.898  0.2227 -0.9365  0.2689
  397TMC3    O1 5993   0.117   1.343  17.060  0.2394  0.8742 -0.3186
  397TMC3    O2 5994   0.420   1.613  16.795 -0.4481  0.8593 -0.2408
  398MPD2     C 5995   3.001   3.555   0.614  0.0613 -0.2598 -0.1808
  398MPD2    C1 5996   3.104   3.512   0.701  0.1103  0.4727  0.4807
  398MPD2    C2 5997   3.127   3.598   0.811  0.0490 -0.1238  0.4132
  398MPD2    C3 5998   3.045   3.703   0.842 -0.1996 -0.2554 -0.2052
  398MPD2    C4 5999   2.945   3.744   0.753 -0.0972  0.1268 -0.6908
  398MPD2    C5 6000   2.926   3.671   0.641  0.2215  0.1684  0.8995
  398MPD2     H 6001   3.207   3.567   0.877  0.3446  0.3584  0.2791
  398MPD2    H1 6002   2.893   3.839   0.755  0.5308  0.4494  0.1664
  398MPD2    H2 6003   2.979   3.506   0.519  0.8275 -0.4303 -0.2670
  398MPD2    H3 6004   2.850   3.695   0.567 -0.8514 -2.9789  0.9899
  398MPD2     N 6005   3.068   3.769   0.965 -0.0295  0.2524  0.0057
  398MPD2    H5 6006   3.141   3.732   1.025  1.1214  0.8204 -1.0445
  398MPD2    N1 6007   3.188   3.397   0.673  0.7066  0.1034  0.4057
  398MPD2    H7 6008   3.272   3.388   0.729 -0.8378 -0.5265  2.6550
  399TMC3    C1 6009   3.266   3.207   0.550  0.5317 -0.0040 -0.4260
  399TMC3    C2 6010   3.375   3.212   0.641 -0.4444  0.0915 -0.5060
  399TMC3    C3 6011   3.424   3.086   0.681 -0.4634  0.0769  0.1406
  399TMC3    C4 6012   3.213   3.088   0.502 -0.2484 -0.0983  0.2359
  399TMC3    C5 6013   3.264   2.971   0.540 -0.1366  0.0100 -0.9251
  399TMC3    C6 6014   3.368   2.963   0.633 -0.4180  0.3071 -0.6206
  399TMC3     C 6015   3.159   3.311   0.571  0.2150  0.4452  0.5257
  399TMC3     O 6016   3.061   3.308   0.495  0.2401  0.0128  0.2767
  399TMC3     H 6017   3.427   3.302   0.671 -1.3532  0.5112 -0.2061
  399TMC3    H1 6018   3.118   3.087   0.449 -1.8267  2.1246  3.0184
  399TMC3    H2 6019   3.403   2.866   0.666  1.8887  0.5719 -2.2915
  399TMC3    C7 6020   3.209   2.842   0.491 -0.0629 -0.2175 -0.5089
  399TMC3    C8 6021   3.540   3.095   0.767  0.2344 -0.1870  0.8384
  399TMC3    O1 6022   3.215   2.752   0.575 -0.1437  0.2576 -0.0716
  399TMC3    O2 6023   3.558   3.194   0.838  0.4581 -0.0495 -0.1368
  400TMC3    C1 6024   1.897   1.974  16.474  0.3749  0.0844  0.2713
  400TMC3    C2 6025   1.811   1.900  16.395 -0.5347  0.6917 -0.2303
  400TMC3    C3 6026   1.770   1.946  16.271  0.4176  0.8136  0.1303
  400TMC3    C4 6027   1.925   2.103  16.435  0.4229  0.3417 -0.7697
  400TMC3    C5 6028   1.888   2.149  16.316 -0.4407  0.2191 -0.0246
  400TMC3    C6 6029   1.801   2.080  16.234 -0.0932  0.4646  0.4720
  400TMC3     C 6030   1.933   1.917  16.604  0.2891  0.2660  0.2633
  400TMC3     O 6031   1.872   1.816  16.634  0.4633  0.2524  0.6478
  400TMC3     H 6032   1.783   1.802  16.432  1.4338  0.0263 -0.5253
  400TMC3    H1 6033   1.973   2.173  16.502 -0.4076 -0.0303  0.1994
  400TMC3    H2 6034   1.748   2.118  16.148 -1.0532  1.8783  1.7042
  400TMC3    C7 6035   1.904   2.293  16.297  0.1435 -0.0946 -0.5283
  400TMC3    C8 6036   1.643   1.911  16.212  0.4491 -0.3559 -0.2514
  400TMC3    O1 6037   1.919   2.366  16.391  0.1031 -0.3617 -0.0354
  400TMC3    O2 6038   1.584   1.987  16.139  0.1535 -0.3154 -0.3193
  401MPD2     C 6039   0.463   0.369   1.504 -0.0145  0.8749  0.7469
  401MPD2    C1 6040   0.532   0.256   1.546 -1.3723 -0.4362 -0.8368
  401MPD2    C2 6041   0.484   0.125   1.524 -0.0998  0.3201  0.2941
  401MPD2    C3 6042   0.366   0.112   1.450  0.1917  0.5672 -0.3287
  401MPD2    C4 6043   0.293   0.225   1.418 -0.3572  0.2654  0.5360
  401MPD2    C5 6044   0.349   0.346   1.436 -0.2246  0.2577 -0.4582
  401MPD2     H 6045   0.533   0.032   1.550  0.4652  0.8068  0.9349
  401MPD2    H1 6046   0.191   0.221   1.384 -0.1412 -1.1170  0.0337
  401MPD2    H2 6047   0.501   0.470   1.511  0.1776  0.8940 -0.5538
  401MPD2    H3 6048   0.297   0.432   1.395  0.7847  0.9645 -0.2554
  401MPD2     N 6049   0.333   4.713   1.409  0.0399 -0.1915  0.5499
  401MPD2    H5 6050   0.375   4.630   1.449  0.5948 -0.1940 -0.0259
  401MPD2    N1 6051   0.663   0.273   1.604  0.1889  0.2909  0.0869
  401MPD2    H7 6052   0.713   0.190   1.635  0.0890  0.2768  0.2119
  402TMC3    C1 6053   0.172   4.560   1.320 -0.5757  0.2985  0.1919
  402TMC3    C2 6054   0.216   4.459   1.399  0.0081  0.3430 -0.0172
  402TMC3    C3 6055   0.156   4.339   1.378 -0.1763 -0.6607  0.1138
  402TMC3    C4 6056   0.079   4.544   1.217  0.3674 -0.4192  0.9008
  402TMC3    C5 6057   0.046   4.412   1.179  0.0703  0.4239 -0.4439
  402TMC3    C6 6058   0.078   4.313   1.269  0.0913 -0.6396  0.4658
  402TMC3     C 6059   0.232   4.694   1.320  0.4453  0.2748  0.0171
  402TMC3     O 6060   0.172   0.028   1.239 -0.2725 -0.0074  0.0393
  402TMC3     H 6061   0.278   4.484   1.484  0.7881 -0.0730 -0.4644
  402TMC3    H1 6062   0.051   4.618   1.143 -2.4987 -0.5057  1.8900
  402TMC3    H2 6063   0.030   4.217   1.258 -1.0964 -0.1231  1.2220
  402TMC3    C7 6064   0.066   4.374   1.044  0.2207 -0.0227  0.1487
  402TMC3    C8 6065   0.201   4.229   1.446 -0.0259  0.2154 -0.2678
  402TMC3    O1 6066   0.041   4.464   0.960 -0.1358  0.1685  0.2292
  402TMC3    O2 6067   0.320   4.205   1.446  0.0028 -0.7393  0.7557
  403MPD2     C 6068   3.073   3.171  13.185  0.1271  0.2910  0.2991
  403MPD2    C1 6069   3.000   3.197  13.294  0.3432 -0.0915 -0.1753
  403MPD2    C2 6070   3.063   3.226  13.410  0.7599 -0.3026  0.1370
  403MPD2    C3 6071   3.201   3.253  13.416 -0.3695  1.1289  0.0619
  403MPD2    C4 6072   3.281   3.220  13.301  0.1984  0.4237  0.8009
  403MPD2    C5 6073   3.213   3.182  13.189  0.0414  0.8381  0.4875
  403MPD2     H 6074   3.009   3.253  13.501 -2.4566 -2.9436 -0.9990
  403MPD2    H1 6075   3.387   3.240  13.297  0.7486 -2.5628  0.2199
  403MPD2    H2 6076   3.026   3.149  13.090  2.8659  0.7100 -1.1661
  403MPD2    H3 6077   3.260   3.169  13.093  0.5805 -1.3796  1.0511
  403MPD2     N 6078   3.254   3.270  13.547 -0.0155  1.0698  0.1001
  403MPD2    H5 6079   3.188   3.271  13.625  0.2003  0.5693  0.2847
  403MPD2    N1 6080   2.868   3.157  13.280 -0.2433  1.1252  0.5192
  403MPD2    H7 6081   2.841   3.121  13.189  0.6984 -1.4276  1.2662
  404TMC3    C1 6082   2.656   3.071  13.342  0.0352  0.4586 -0.5621
  404TMC3    C2 6083   2.627   2.967  13.430  0.1851  0.5271  0.2571
  404TMC3    C3 6084   2.623   2.842  13.369  0.3341 -0.0004 -0.2384
  404TMC3    C4 6085   2.645   3.054  13.206  0.0426  0.0771 -0.6629
  404TMC3    C5 6086   2.635   2.926  13.156  0.5769  0.7708  0.0503
  404TMC3    C6 6087   2.636   2.815  13.238 -0.6137 -0.2412 -0.3156
  404TMC3     C 6088   2.773   3.141  13.381 -0.1160  0.1470 -0.1154
  404TMC3     O 6089   2.781   3.161  13.502  0.4745  0.2287  0.0976
  404TMC3     H 6090   2.629   2.985  13.537 -0.8938 -1.3414  0.5851
  404TMC3    H1 6091   2.640   3.140  13.141 -2.3724  1.1452  0.9373
  404TMC3    H2 6092   2.649   2.716  13.195  2.4321  0.1751 -0.3515
  404TMC3    C7 6093   2.705   2.911  13.036  0.0390 -0.3408 -0.9608
  404TMC3    C8 6094   2.671   2.726  13.447 -0.4268 -0.3485 -0.8621
  404TMC3    O1 6095   2.818   2.968  13.043 -0.6984 -0.0295  0.4665
  404TMC3    O2 6096   2.729   2.644  13.380 -0.6225  0.7049 -0.0019
  405MPD2     C 6097   3.485   3.912  14.826 -0.5056  0.2010 -0.6999
  405MPD2    C1 6098   3.379   3.832  14.779  0.5557 -0.2142 -0.2193
  405MPD2    C2 6099   3.251   3.886  14.770  0.6640  0.2227  0.3252
  405MPD2    C3 6100   3.225   4.014  14.817  0.2001  0.2493  0.1617
  405MPD2    C4 6101   3.327   4.093  14.869 -0.3767  0.8676  0.7268
  405MPD2    C5 6102   3.459   4.041  14.867 -0.2119  0.6974  0.7917
  405MPD2     H 6103   3.165   3.823  14.748  1.3027 -1.8325  3.6289
  405MPD2    H1 6104   3.321   4.196  14.902 -4.0437  0.2525  1.9836
  405MPD2    H2 6105   3.588   3.878  14.826 -1.0265 -1.3977 -0.6448
  405MPD2    H3 6106   3.549   4.094  14.898  0.3768  0.1372  0.0125
  405MPD2     N 6107   3.086   4.041  14.826  0.3330  0.2486 -0.3898
  405MPD2    H5 6108   3.025   3.965  14.797 -0.4060  0.6131  0.2173
  405MPD2    N1 6109   3.401   3.698  14.743  0.1854 -0.1696 -0.2519
  405MPD2    H7 6110   3.490   3.654  14.763  0.8608  0.1445 -2.6261
  406TMC3    C1 6111   2.707   4.245  14.683  0.5659 -0.1027 -0.3524
  406TMC3    C2 6112   2.634   4.131  14.700  0.8163  0.1950  0.4542
  406TMC3    C3 6113   2.687   4.025  14.772  0.5781  0.1589 -0.2601
  406TMC3    C4 6114   2.828   4.267  14.750 -0.4657  0.5062  0.0731
  406TMC3    C5 6115   2.879   4.161  14.818  0.0807 -0.3453  0.8516
  406TMC3    C6 6116   2.811   4.036  14.827  0.7107 -0.0065 -0.3196
  406TMC3     C 6117   2.638   4.352  14.613 -0.2368 -0.0143 -0.3177
  406TMC3     O 6118   2.621   4.456  14.677  0.2579  0.2653  0.5651
  406TMC3     H 6119   2.533   4.122  14.662  0.5824 -1.7790  1.5725
  406TMC3    H1 6120   2.888   4.355  14.732  1.0069 -0.0380  2.3709
  406TMC3    H2 6121   2.856   3.966  14.896  0.4267 -0.4477 -0.5744
  406TMC3    C7 6122   3.025   4.161  14.834 -0.5523  0.6137  0.4344
  406TMC3    C8 6123   2.637   3.905  14.723 -0.3271  0.1485  0.1738
  406TMC3    O1 6124   3.078   4.270  14.860  0.3790 -0.1160 -0.0753
  406TMC3    O2 6125   2.515   3.884  14.723 -0.6009  0.7590 -0.4503
  407MPD2     C 6126   1.039   0.964   9.559 -0.7224 -0.5089  0.7819
  407MPD2    C1 6127   1.101   1.069   9.494 -0.4420  0.2668 -0.0424
  407MPD2    C2 6128   1.132   1.187   9.564  0.0836  0.3183  0.0478
  407MPD2    C3 6129   1.104   1.199   9.696  0.7992  0.3273 -0.5033
  407MPD2    C4 6130   1.038   1.100   9.758 -0.2880 -0.8647 -0.2663
  407MPD2    C5 6131   1.017   0.979   9.696  0.1180 -0.3600 -0.3168
  407MPD2     H 6132   1.177   1.273   9.515 -0.8354  1.1938  0.7384
  407MPD2    H1 6133   1.002   1.122   9.858 -0.3317  0.5138 -0.5915
  407MPD2    H2 6134   1.016   0.868   9.513  1.5291 -1.4070  1.4721
  407MPD2    H3 6135   0.960   0.897   9.739 -0.2608  0.0795  0.0113
  407MPD2     N 6136   1.140   1.321   9.762 -0.0322 -0.2334 -0.0242
  407MPD2    H5 6137   1.160   1.401   9.703 -0.5648 -0.5179 -0.5842
  407MPD2    N1 6138   1.154   1.069   9.357  0.0873  0.0607 -0.3303
  407MPD2    H7 6139   1.190   1.157   9.320 -3.8246  1.0678 -1.7524
  408TMC3    C1 6140   1.229   0.981   9.153  0.2412  0.2541 -0.3183
  408TMC3    C2 6141   1.294   0.872   9.102 -0.3585  0.3256 -0.1669
  408TMC3    C3 6142   1.424   0.890   9.051 -0.2382  0.1219  0.3810
  408TMC3    C4 6143   1.271   1.107   9.135  0.0671 -0.1501 -0.3073
  408TMC3    C5 6144   1.405   1.123   9.095 -0.2078 -0.4104  0.3550
  408TMC3    C6 6145   1.481   1.020   9.048  0.1182 -0.7039  0.0245
  408TMC3     C 6146   1.153   0.959   9.271 -0.7445  0.8133 -0.5940
  408TMC3     O 6147   1.122   0.842   9.292  0.3728  0.6784 -0.0803
  408TMC3     H 6148   1.268   0.769   9.121  1.3260 -0.0236  0.2911
  408TMC3    H1 6149   1.224   1.198   9.170 -1.5038 -0.1799 -2.3256
  408TMC3    H2 6150   1.576   1.040   9.000  0.6086 -0.9303  0.9122
  408TMC3    C7 6151   1.471   1.252   9.103  0.3543  0.6640  0.1621
  408TMC3    C8 6152   1.497   0.775   9.078  0.0284 -0.3190  1.0833
  408TMC3    O1 6153   1.397   1.348   9.113  0.3721  0.0462 -0.1550
  408TMC3    O2 6154   1.463   0.672   9.018  0.2244 -0.2740  0.2331
  409MPD2     C 6155   0.473   1.229  17.106 -0.1499 -0.7311  0.2143
  409MPD2    C1 6156   0.554   1.336  17.146  0.6431 -0.5623  0.2703
  409MPD2    C2 6157   0.639   1.394  17.054 -0.1871  0.0389 -1.3326
  409MPD2    C3 6158   0.637   1.374  16.917 -0.4857 -0.2240 -0.0690
  409MPD2    C4 6159   0.542   1.286  16.874  0.7904  0.0251 -0.1159
  409MPD2    C5 6160   0.468   1.210  16.966 -0.5530  0.8499  0.1287
  409MPD2     H 6161   0.708   1.467  17.096 -0.8380  1.0151 -1.9389
  409MPD2    H1 6162   0.528   1.263  16.769  0.8450 -1.0407  0.1108
  409MPD2    H2 6163   0.400   1.180  17.169 -1.3488 -0.8558 -1.2812
  409MPD2    H3 6164   0.396   1.136  16.933  0.1709  0.2829 -0.1829
  409MPD2     N 6165   0.724   1.440  16.828 -0.1272  0.2204 -0.3190
  409MPD2    H5 6166   0.699   1.436  16.730 -1.7466 -3.0377  0.2273
  409MPD2    N1 6167   0.574   1.376  17.281 -0.2719  0.6079  0.1436
  409MPD2    H7 6168   0.630   1.457  17.302  0.0037  0.1515  1.1332
  410TMC3    C1 6169   0.916   1.551  16.748 -0.1239  0.3381 -0.1233
  410TMC3    C2 6170   1.050   1.534  16.747  0.4028 -0.1756 -0.5784
  410TMC3    C3 6171   1.119   1.613  16.664 -0.0418 -0.0691 -0.5523
  410TMC3    C4 6172   0.845   1.619  16.657  0.0245 -0.1416 -0.0170
  410TMC3    C5 6173   0.921   1.698  16.570 -0.3823  0.4639  0.2221
  410TMC3    C6 6174   1.052   1.695  16.575 -0.3876 -0.6491 -0.0269
  410TMC3     C 6175   0.841   1.491  16.867  0.4120 -0.1704  0.3001
  410TMC3     O 6176   0.900   1.481  16.973 -0.1879 -0.1107 -0.0487
  410TMC3     H 6177   1.101   1.478  16.824 -0.2352  3.0067  2.1784
  410TMC3    H1 6178   0.737   1.633  16.656 -0.1310 -1.3731 -0.8575
  410TMC3    H2 6179   1.110   1.747  16.499 -0.5961 -0.4899 -0.0777
  410TMC3    C7 6180   0.844   1.759  16.465 -0.0390 -0.2305  0.7340
  410TMC3    C8 6181   1.258   1.624  16.690 -0.1058  0.1483  0.0308
  410TMC3    O1 6182   0.740   1.708  16.431  0.0038  0.1446  0.3350
  410TMC3    O2 6183   1.318   1.729  16.667  0.1651 -0.9130 -0.2490
  411MPD2     C 6184   0.960   1.688  14.495  0.5756 -0.0546  0.2237
  411MPD2    C1 6185   0.830   1.717  14.464  0.2377 -0.9385 -0.5407
  411MPD2    C2 6186   0.736   1.628  14.494 -0.0584  0.0092  0.9779
  411MPD2    C3 6187   0.770   1.511  14.560 -0.0614 -1.0058 -0.2863
  411MPD2    C4 6188   0.900   1.475  14.568  0.1045 -0.6873 -0.5365
  411MPD2    C5 6189   1.000   1.569  14.545 -0.6357 -1.0513 -0.0584
  411MPD2     H 6190   0.631   1.653  14.481 -0.1619  0.7365  3.1680
  411MPD2    H1 6191   0.932   1.384  14.619 -1.3776  1.2759  3.8523
  411MPD2    H2 6192   1.036   1.762  14.471 -0.0699  0.3815 -0.4870
  411MPD2    H3 6193   1.106   1.550  14.560 -0.5682 -0.7267 -0.1304
  411MPD2     N 6194   0.672   1.419  14.606 -0.3296 -0.1860 -0.2068
  411MPD2    H5 6195   0.696   1.326  14.637  0.2471 -0.0748 -0.3217
  411MPD2    N1 6196   0.801   1.833  14.396  0.4973 -0.1359  0.4862
  411MPD2    H7 6197   0.876   1.901  14.385 -0.2536  0.4704 -0.8780
  412TMC3    C1 6198   0.442   1.358  14.643  0.9091  0.3650  0.2302
  412TMC3    C2 6199   0.313   1.407  14.665 -0.7607  0.0098  0.5334
  412TMC3    C3 6200   0.208   1.333  14.611 -0.1755  0.1761 -0.2225
  412TMC3    C4 6201   0.471   1.238  14.584  0.5869 -0.7879 -0.4748
  412TMC3    C5 6202   0.359   1.170  14.541 -0.4034  0.4070 -0.0891
  412TMC3    C6 6203   0.233   1.205  14.566  0.3063 -0.1167 -0.3701
  412TMC3     C 6204   0.548   1.464  14.649 -0.5568  0.4808  0.3202
  412TMC3     O 6205   0.511   1.576  14.671 -0.2260  0.4829  0.4528
  412TMC3     H 6206   0.302   1.512  14.689 -1.8689 -0.2281  1.0647
  412TMC3    H1 6207   0.567   1.216  14.539  1.6205 -0.4357  1.5516
  412TMC3    H2 6208   0.153   1.145  14.526  0.3096  0.4021 -1.1583
  412TMC3    C7 6209   0.376   1.073  14.436 -0.7692  0.1793 -0.0346
  412TMC3    C8 6210   0.121   1.402  14.517  0.4079  0.4517 -0.8924
  412TMC3    O1 6211   0.304   0.969  14.445  0.2535 -0.1591  0.2253
  412TMC3    O2 6212   0.078   1.328  14.431  0.2197 -0.1185 -0.0365
  413MPD2     C 6213   2.532   0.354  15.552 -0.6398 -0.7662 -0.2618
  413MPD2    C1 6214   2.463   0.278  15.456 -0.2070 -0.1410  0.3047
  413MPD2    C2 6215   2.536   0.175  15.411  0.0968 -0.1836  0.4468
  413MPD2    C3 6216   2.668   0.144  15.450  0.9116  0.1026  0.2434
  413MPD2    C4 6217   2.727   0.213  15.557 -0.4477  0.5714 -0.0846
  413MPD2    C5 6218   2.662   0.322  15.593  0.0776 -0.0033 -0.4340
  413MPD2     H 6219   2.496   0.102  15.341  0.3293 -0.9585  1.1294
  413MPD2    H1 6220   2.829   0.192  15.590 -0.4062 -0.0355 -0.5962
  413MPD2    H2 6221   2.489   0.429  15.618 -0.7434 -1.6476  0.6721
  413MPD2    H3 6222   2.715   0.381  15.667 -2.0496 -0.7174  1.6830
  413MPD2     N 6223   2.721   0.030  15.381  0.5896 -0.4183  0.1571
  413MPD2    H5 6224   2.653   4.712  15.327 -0.5980  1.1071  0.1537
  413MPD2    N1 6225   2.329   0.298  15.419  0.4351 -0.1024 -0.1724
  413MPD2    H7 6226   2.271   0.357  15.478 -2.1862 -1.2162 -1.6040
  414TMC3    C1 6227   2.863   4.579  15.345 -0.2363  0.2226  0.2858
  414TMC3    C2 6228   2.929   4.485  15.416 -0.1074 -0.1959 -0.0838
  414TMC3    C3 6229   2.921   4.358  15.357 -0.3936  0.3259  0.1354
  414TMC3    C4 6230   2.799   4.560  15.229 -0.1181  0.7985  0.1961
  414TMC3    C5 6231   2.825   4.439  15.169 -0.1814  0.3485 -0.0029
  414TMC3    C6 6232   2.866   4.331  15.240 -0.3167  0.2477 -0.2220
  414TMC3     C 6233   2.841   4.709  15.404  0.6645 -0.1133  0.1417
  414TMC3     O 6234   2.926   0.014  15.485  0.1944 -0.7841  0.1423
  414TMC3     H 6235   2.997   4.518  15.494 -2.8330  1.8932  1.3856
  414TMC3    H1 6236   2.761   4.642  15.170  1.0748  1.8509  0.8790
  414TMC3    H2 6237   2.880   4.238  15.186 -1.0162  0.3755 -0.6231
  414TMC3    C7 6238   2.753   4.403  15.052 -0.1275  0.2261  0.4252
  414TMC3    C8 6239   3.016   4.255  15.408  0.0649 -0.2658 -0.3862
  414TMC3    O1 6240   2.691   4.294  15.057 -0.0313  0.2422 -0.0942
  414TMC3    O2 6241   3.042   4.162  15.333 -0.0104 -0.4789 -0.0247
  415TMC3    C1 6242   3.223   2.238   9.652  0.1727  0.8475  0.0863
  415TMC3    C2 6243   3.322   2.308   9.594 -0.3402 -0.1234  0.6424
  415TMC3    C3 6244   3.432   2.239   9.555  0.2875  0.5027  0.2957
  415TMC3    C4 6245   3.233   2.104   9.678 -1.1719  0.3368  0.2583
  415TMC3    C5 6246   3.345   2.046   9.635  0.1396  0.0508 -0.2080
  415TMC3    C6 6247   3.447   2.107   9.574  0.2729 -0.8213 -1.1596
  415TMC3     C 6248   3.108   2.300   9.705 -0.3486  0.3421 -0.2899
  415TMC3     O 6249   3.050   2.247   9.798  0.6593  0.1081 -0.2990
  415TMC3     H 6250   3.307   2.413   9.571 -0.7782 -0.0940  1.0563
  415TMC3    H1 6251   3.141   2.047   9.687 -1.5052  0.9622  0.8684
  415TMC3    H2 6252   3.533   2.051   9.539  2.1379  1.1908  0.2286
  415TMC3    C7 6253   3.363   1.910   9.658  0.3125  0.0766 -0.2131
  415TMC3    C8 6254   3.491   2.292   9.437  0.2062  0.5253  0.2337
  415TMC3    O1 6255   3.443   1.850   9.586  0.6488  0.4621  0.1026
  415TMC3    O2 6256   3.521   2.215   9.346 -0.0064 -0.1122  0.7355
  416MPD2     C 6257   0.257   2.122  11.773  0.1523  0.2685 -0.1048
  416MPD2    C1 6258   0.165   2.125  11.668  0.4694  0.4198 -0.3141
  416MPD2    C2 6259   0.179   2.030  11.565 -0.0636 -0.8340  0.5476
  416MPD2    C3 6260   0.295   1.952  11.563 -0.0578  0.3092  1.2966
  416MPD2    C4 6261   0.378   1.956  11.666 -0.1947  0.2991 -0.4984
  416MPD2    C5 6262   0.364   2.041  11.767 -0.1960  0.2354 -0.2634
  416MPD2     H 6263   0.105   2.011  11.488 -1.2129 -0.7082  1.6340
  416MPD2    H1 6264   0.469   1.898  11.662  2.3496  4.4575 -1.9676
  416MPD2    H2 6265   0.251   2.195  11.852 -0.8103 -0.2554  0.3137
  416MPD2    H3 6266   0.426   2.035  11.856  0.8217  2.5782 -0.8256
  416MPD2     N 6267   0.320   1.850  11.467  0.2034  0.2786  0.3225
  416MPD2    H5 6268   0.399   1.787  11.477 -2.7339 -3.2363  1.6096
  416MPD2    N1 6269   0.049   2.199  11.687 -0.3346 -0.0582 -0.0544
  416MPD2    H7 6270   0.037   2.246  11.776  1.3914  1.3640 -0.5848
  417TMC3    C1 6271   4.552   2.237  11.643  0.2165  0.1075 -0.5923
  417TMC3    C2 6272   4.520   2.181  11.764 -0.0280 -0.0582 -0.1746
  417TMC3    C3 6273   4.381   2.168  11.778  0.1218 -0.0380  0.2740
  417TMC3    C4 6274   4.467   2.280  11.548  0.7221 -0.0425 -0.4854
  417TMC3    C5 6275   4.335   2.275  11.577 -0.2185  0.2724 -0.0084
  417TMC3    C6 6276   4.289   2.221  11.694  0.4561  0.2700 -0.1758
  417TMC3     C 6277   4.686   2.205  11.593  0.2142 -0.1968  0.9265
  417TMC3     O 6278   4.695   2.183  11.473 -0.0695 -0.2406 -0.1507
  417TMC3     H 6279   4.592   2.145  11.836 -0.7570 -1.6386 -0.2410
  417TMC3    H1 6280   4.498   2.310  11.448  1.2951 -0.8186 -0.5380
  417TMC3    H2 6281   4.183   2.213  11.711  0.9351 -1.1010  2.1413
  417TMC3    C7 6282   4.240   2.305  11.472  0.0314  0.4062 -0.3323
  417TMC3    C8 6283   4.330   2.137  11.909 -0.5185  0.1957 -0.4766
  417TMC3    O1 6284   4.268   2.403  11.404  0.3433  0.3953 -0.5253
  417TMC3    O2 6285   4.223   2.178  11.941 -0.5324 -0.5518 -0.0551
  418TMC3    C1 6286   3.264   4.115   1.132 -0.4004 -0.5396  0.6593
  418TMC3    C2 6287   3.156   4.071   1.062 -0.1434 -0.3845  0.0122
  418TMC3    C3 6288   3.107   3.947   1.092  0.5049 -0.0449 -0.1088
  418TMC3    C4 6289   3.331   4.042   1.228 -0.3430  0.4163 -0.0451
  418TMC3    C5 6290   3.265   3.927   1.266  0.5675  0.5042  0.0712
  418TMC3    C6 6291   3.158   3.881   1.196  0.3848 -0.1843 -0.7139
  418TMC3     C 6292   3.343   4.210   1.057  0.8087 -0.2261  0.3232
  418TMC3     O 6293   3.275   4.312   1.032 -0.1069  0.3815 -0.1399
  418TMC3     H 6294   3.114   4.125   0.978 -1.5979 -1.7457 -0.1485
  418TMC3    H1 6295   3.417   4.075   1.285 -0.2527 -2.0178  1.2176
  418TMC3    H2 6296   3.120   3.783   1.219 -0.2250  0.6733  1.9854
  418TMC3    C7 6297   3.334   3.839   1.359 -0.3154  0.1824  0.7309
  418TMC3    C8 6298   3.016   3.888   1.006  0.1832 -0.2720 -0.4443
  418TMC3    O1 6299   3.455   3.843   1.363 -0.2005  0.4995  0.1540
  418TMC3    O2 6300   2.944   3.969   0.951  0.2203  0.0076  0.3804
  419MPD2     C 6301   1.600   1.435  12.232  0.2667 -0.3030  0.7556
  419MPD2    C1 6302   1.678   1.536  12.276 -0.2995  0.3645  0.3424
  419MPD2    C2 6303   1.657   1.598  12.402  0.2736 -0.0124  0.6843
  419MPD2    C3 6304   1.562   1.547  12.491 -0.2630  0.4256 -0.2818
  419MPD2    C4 6305   1.502   1.431  12.451 -0.1908 -0.0054 -0.2782
  419MPD2    C5 6306   1.511   1.382  12.324 -0.0635 -0.6367  0.4619
  419MPD2     H 6307   1.712   1.689  12.424 -2.6387  1.9597 -0.2406
  419MPD2    H1 6308   1.432   1.389  12.522  0.5367 -0.7624 -0.0170
  419MPD2    H2 6309   1.609   1.405  12.128 -0.5792  0.6623  0.4020
  419MPD2    H3 6310   1.437   1.315  12.284 -2.4440  1.0182  2.0925
  419MPD2     N 6311   1.552   1.598  12.621 -0.9756 -0.2549 -0.2385
  419MPD2    H5 6312   1.616   1.671  12.651 -1.7546  0.7399 -1.0290
  419MPD2    N1 6313   1.761   1.613  12.188 -0.4281  0.9155  0.4164
  419MPD2    H7 6314   1.786   1.706  12.219  0.4911  0.6090  0.5996
  420TMC3    C1 6315   1.446   1.647  12.817 -0.0478  0.1951 -0.3852
  420TMC3    C2 6316   1.341   1.740  12.837 -0.0358 -0.1821 -0.1164
  420TMC3    C3 6317   1.356   1.842  12.931  0.3716  0.5577  0.0813
  420TMC3    C4 6318   1.568   1.662  12.882  0.1255  0.3041  0.3690
  420TMC3    C5 6319   1.578   1.766  12.976  0.8293  0.4590  0.2201
  420TMC3    C6 6320   1.474   1.853  12.999 -0.3927  1.0828 -0.0917
  420TMC3     C 6321   1.442   1.563  12.700 -0.0566 -0.0024  0.1246
  420TMC3     O 6322   1.340   1.500  12.669  0.1244 -0.2937 -0.2589
  420TMC3     H 6323   1.254   1.734  12.772 -0.0921  1.8669 -0.2191
  420TMC3    H1 6324   1.634   1.577  12.880  0.7299  0.8069 -1.4467
  420TMC3    H2 6325   1.504   1.942  13.053  0.3093 -0.1952  1.6116
  420TMC3    C7 6326   1.673   1.752  13.084 -0.0531 -0.5397  0.1329
  420TMC3    C8 6327   1.257   1.957  12.941  0.4156  0.5277 -0.0787
  420TMC3    O1 6328   1.675   1.828  13.180 -0.1604  0.3192 -0.1548
  420TMC3    O2 6329   1.299   2.072  12.962 -0.3865  0.4784 -0.4317
  421TMC3    C1 6330   3.406   3.251  13.722 -0.1791 -0.2214  0.4560
  421TMC3    C2 6331   3.307   3.279  13.812 -0.0307 -0.3348  0.3108
  421TMC3    C3 6332   3.301   3.199  13.923  0.2457 -0.3986  0.2178
  421TMC3    C4 6333   3.495   3.154  13.746  0.3494  0.2072  0.1691
  421TMC3    C5 6334   3.475   3.069  13.847 -0.4077  0.5904 -0.6171
  421TMC3    C6 6335   3.378   3.086  13.941  0.3349 -0.4574  0.6839
  421TMC3     C 6336   3.387   3.276  13.583 -0.0217 -0.3496  0.4273
  421TMC3     O 6337   3.481   3.267  13.505  0.1370  0.0622 -0.5084
  421TMC3     H 6338   3.244   3.366  13.797  0.1989 -0.2339 -0.0986
  421TMC3    H1 6339   3.565   3.120  13.670 -0.5884 -2.9931  0.7242
  421TMC3    H2 6340   3.372   3.026  14.030  0.0738  0.5049  1.3178
  421TMC3    C7 6341   3.602   3.045  13.907  0.9108 -0.1200  0.3024
  421TMC3    C8 6342   3.235   3.267  14.032 -0.4084 -0.3633  0.0010
  421TMC3    O1 6343   3.691   3.135  13.888  0.9772 -0.4492  0.0395
  421TMC3    O2 6344   3.159   3.206  14.105 -0.4825 -0.1008 -0.2308
  422TMC3    C1 6345   0.715   4.709  12.466 -0.2555  0.3849  1.0820
  422TMC3    C2 6346   0.760   0.098  12.430  0.6966 -0.3734  0.3956
  422TMC3    C3 6347   0.666   0.174  12.362 -0.8210  0.1044 -0.4816
  422TMC3    C4 6348   0.606   4.649  12.403  0.4123  0.4316 -0.8737
  422TMC3    C5 6349   0.533   4.728  12.314 -0.3981  0.1580 -0.5846
  422TMC3    C6 6350   0.558   0.122  12.301 -0.2080  0.1798 -1.2061
  422TMC3     C 6351   0.806   4.633  12.544  0.7288 -0.5335 -1.0027
  422TMC3     O 6352   0.877   4.702  12.619 -0.2522 -0.0013  0.1111
  422TMC3     H 6353   0.845   0.152  12.470  0.4296 -1.0897  1.9537
  422TMC3    H1 6354   0.592   4.542  12.412  1.0295  0.2910 -1.6273
  422TMC3    H2 6355   0.496   0.181  12.234 -1.1009  0.0883 -0.4523
  422TMC3    C7 6356   0.408   4.690  12.266 -0.9470  0.2552 -0.0288
  422TMC3    C8 6357   0.656   0.310  12.416  0.2339  0.4633 -0.6986
  422TMC3    O1 6358   0.386   4.690  12.147 -0.2001 -0.2586 -0.4355
  422TMC3    O2 6359   0.752   0.358  12.472  0.2987  0.9701 -0.1966
  423MPD2     C 6360   2.590   1.523   0.439 -0.0439 -0.1892 -0.2475
  423MPD2    C1 6361   2.540   1.404   0.495 -1.0955 -0.5463  0.7522
  423MPD2    C2 6362   2.572   1.276   0.449 -0.5828  0.3971  0.2339
  423MPD2    C3 6363   2.648   1.273   0.331  0.1769  0.0967  0.0582
  423MPD2    C4 6364   2.698   1.390   0.281 -0.6686  0.2995 -0.3298
  423MPD2    C5 6365   2.664   1.516   0.328 -0.3999  0.4534  0.5423
  423MPD2     H 6366   2.517   1.195   0.496  0.1918  1.2966  2.6362
  423MPD2    H1 6367   2.759   1.380   0.191 -0.5901  3.3533 -0.6190
  423MPD2    H2 6368   2.552   1.620   0.470  1.3034  0.8535 -1.8960
  423MPD2    H3 6369   2.698   1.605   0.276  0.2385 -0.1305 -0.0531
  423MPD2     N 6370   2.665   1.159   0.247 -0.1126 -0.0760 -0.5063
  423MPD2    H5 6371   2.725   1.162   0.165 -0.2236  0.6100 -0.5649
  423MPD2    N1 6372   2.453   1.409   0.606  0.0707 -0.0508  0.1886
  423MPD2    H7 6373   2.432   1.319   0.649 -1.3685  0.6892  1.0088
  424TMC3    C1 6374   2.295   1.478   0.765  0.1935  0.9322 -0.2891
  424TMC3    C2 6375   2.324   1.370   0.846  0.0051 -0.4197  0.4420
  424TMC3    C3 6376   2.228   1.338   0.939 -0.3718  0.7367 -0.3972
  424TMC3    C4 6377   2.183   1.551   0.776  0.3488  0.1025  0.6572
  424TMC3    C5 6378   2.091   1.507   0.867  0.1986  0.4831  0.3336
  424TMC3    C6 6379   2.111   1.400   0.946  0.0375 -0.0573  0.0233
  424TMC3     C 6380   2.379   1.513   0.653 -0.3827 -0.1118  0.3518
  424TMC3     O 6381   2.359   1.619   0.594 -0.0640  0.1390  0.4491
  424TMC3     H 6382   2.412   1.308   0.832  0.2204 -0.2332  1.0021
  424TMC3    H1 6383   2.180   1.649   0.729  1.9553 -1.1936 -2.1754
  424TMC3    H2 6384   2.027   1.360   1.002  0.1277 -0.9452 -0.4717
  424TMC3    C7 6385   1.962   1.574   0.865 -0.3445 -0.0626 -0.2060
  424TMC3    C8 6386   2.236   1.212   1.015 -0.1256 -0.2637  0.3588
  424TMC3    O1 6387   1.952   1.658   0.776 -0.4951  0.5333  0.0530
  424TMC3    O2 6388   2.325   1.133   0.984 -0.2020  0.5385  0.0060
  425MPD2     C 6389   1.697   4.583  17.529 -0.3971  0.2668  0.0182
  425MPD2    C1 6390   1.631   4.467  17.555 -0.1330 -0.2218  0.1426
  425MPD2    C2 6391   1.520   4.470  17.641 -0.4452 -0.1867 -0.3159
  425MPD2    C3 6392   1.477   4.587  17.703  0.0937  0.2786  0.1080
  425MPD2    C4 6393   1.558   4.698  17.683  0.3687 -0.2988 -0.5669
  425MPD2    C5 6394   1.660   4.697  17.596 -0.7964  0.0644  0.5508
  425MPD2     H 6395   1.469   4.378  17.667 -1.4744 -0.1064 -2.0525
  425MPD2    H1 6396   1.536   0.060  17.728 -0.0242  0.1047 -1.6213
  425MPD2    H2 6397   1.779   4.591  17.458  0.1254 -0.7192  0.5183
  425MPD2    H3 6398   1.705   0.053  17.556 -0.4461 -0.3341  0.0285
  425MPD2     N 6399   1.366   4.590   0.052 -0.4152 -0.3030 -0.7590
  425MPD2    H5 6400   1.356   4.683   0.092  3.2020 -0.2623  0.0970
  425MPD2    N1 6401   1.676   4.338  17.498  0.3927 -0.5708  0.1131
  425MPD2    H7 6402   1.759   4.332  17.440  0.0502  2.0220 -0.6402
  426TMC3    C1 6403   1.676   4.100  17.447 -0.9682 -0.3664 -0.5958
  426TMC3    C2 6404   1.700   4.119  17.316  0.1919  0.3947  0.5806
  426TMC3    C3 6405   1.666   4.015  17.235  1.0488 -0.6563  0.3341
  426TMC3    C4 6406   1.638   3.981  17.507  0.7497  0.1132  0.4835
  426TMC3    C5 6407   1.625   3.873  17.422  0.1150  0.4959  0.4157
  426TMC3    C6 6408   1.644   3.890  17.286  0.3056 -0.3121  0.1267
  426TMC3     C 6409   1.617   4.212  17.523 -0.3394 -0.3598  0.3226
  426TMC3     O 6410   1.526   4.177  17.601 -0.0662  0.1234  0.2711
  426TMC3     H 6411   1.709   4.221  17.281 -0.1245  0.6213  1.1621
  426TMC3    H1 6412   1.631   3.956  17.612 -3.2867  0.3339  0.2645
  426TMC3    H2 6413   1.608   3.822  17.210  3.2855 -0.1108 -1.4450
  426TMC3    C7 6414   1.538   3.761  17.458  0.1213  0.2820 -0.0459
  426TMC3    C8 6415   1.668   4.029  17.089 -0.4535 -0.2550 -0.2102
  426TMC3    O1 6416   1.547   3.665  17.385 -0.7071  0.2487  0.2571
  426TMC3    O2 6417   1.684   3.923  17.031  0.1426 -0.6556  0.5700
  427MPD2     C 6418   4.594   1.823  14.656  0.4030  0.4214 -0.4355
  427MPD2    C1 6419   4.599   1.857  14.783 -0.4966  0.2258 -0.1353
  427MPD2    C2 6420   4.511   1.943  14.836  0.0439 -0.5870 -0.2132
  427MPD2    C3 6421   4.395   1.974  14.774  0.5184 -0.1772  0.0850
  427MPD2    C4 6422   4.378   1.921  14.646 -0.6109  0.0880 -0.3853
  427MPD2    C5 6423   4.486   1.856  14.579  0.0510  0.3405 -0.6128
  427MPD2     H 6424   4.509   1.971  14.941 -4.6324  0.3209 -0.5296
  427MPD2    H1 6425   4.287   1.942  14.590 -0.4044  0.0418 -0.7349
  427MPD2    H2 6426   4.671   1.760  14.612 -0.8087 -0.8167 -0.8109
  427MPD2    H3 6427   4.476   1.814  14.480  0.7323  2.0338 -1.3773
  427MPD2     N 6428   4.295   2.055  14.826  0.8024 -0.0973  0.9592
  427MPD2    H5 6429   4.207   2.068  14.777 -0.6300 -1.0006  3.3032
  427MPD2    N1 6430   4.706   1.818  14.869 -0.0154 -0.0052  0.2714
  427MPD2    H7 6431   4.705   1.862  14.960  1.7958  0.9390 -0.1777
  428TMC3    C1 6432   0.161   1.707  14.945  0.4492 -0.3228  0.0307
  428TMC3    C2 6433   0.108   1.632  15.047  0.1356 -0.4792 -0.2392
  428TMC3    C3 6434   0.204   1.585  15.146 -0.1491 -0.2048 -0.1917
  428TMC3    C4 6435   0.293   1.719  14.913  0.5753  0.1733  0.1593
  428TMC3    C5 6436   0.376   1.654  15.003 -0.3712  0.7901  0.7953
  428TMC3    C6 6437   0.336   1.589  15.117  0.5218  0.3308  0.5891
  428TMC3     C 6438   0.080   1.746  14.833 -0.0383  0.2910  0.1333
  428TMC3     O 6439   0.128   1.720  14.723  0.1169 -0.2932 -0.0978
  428TMC3     H 6440   0.001   1.616  15.059  0.2983 -1.4160 -0.0597
  428TMC3    H1 6441   0.327   1.775  14.827 -1.1639 -1.6807 -1.7028
  428TMC3    H2 6442   0.407   1.531  15.175 -0.5292  0.5801  2.1230
  428TMC3    C7 6443   0.511   1.703  15.019 -0.0803 -0.5464  0.0430
  428TMC3    C8 6444   0.164   1.518  15.265 -0.2432 -0.5061  0.2732
  428TMC3    O1 6445   0.559   1.714  15.132  0.5768 -0.5235  0.2348
  428TMC3    O2 6446   0.249   1.448  15.323  0.0766 -0.1410  0.3187
  429MPD2     C 6447   1.202   2.703  16.972 -0.5722  0.4334  0.5468
  429MPD2    C1 6448   1.267   2.623  16.881 -0.3225  0.5464 -0.2526
  429MPD2    C2 6449   1.361   2.673  16.789  0.3300  0.3099 -0.2207
  429MPD2    C3 6450   1.392   2.812  16.784 -0.1501 -0.0795 -0.8057
  429MPD2    C4 6451   1.339   2.887  16.887 -0.6597  0.0332 -0.1482
  429MPD2    C5 6452   1.238   2.832  16.974 -0.2976  0.3344 -0.2742
  429MPD2     H 6453   1.393   2.603  16.712  0.6665  0.0054  0.1942
  429MPD2    H1 6454   1.362   2.990  16.910 -0.2920  0.1464 -1.0245
  429MPD2    H2 6455   1.133   2.661  17.044 -0.1807  0.0962  0.7262
  429MPD2    H3 6456   1.201   2.899  17.050  0.3508 -0.6779  0.9308
  429MPD2     N 6457   1.481   2.870  16.691 -0.0236  0.5071 -0.4015
  429MPD2    H5 6458   1.526   2.803  16.630  1.4502 -1.4063  2.7712
  429MPD2    N1 6459   1.249   2.480  16.872 -0.7498 -0.0033 -0.2363
  429MPD2    H7 6460   1.289   2.437  16.790 -2.6745 -2.3438  0.0436
  430TMC3    C1 6461   1.561   3.016  16.527 -0.1352  0.1358 -0.2634
  430TMC3    C2 6462   1.491   3.081  16.431 -0.3691  0.5301 -0.1345
  430TMC3    C3 6463   1.544   3.087  16.304 -0.0910  0.2082  0.0768
  430TMC3    C4 6464   1.658   2.931  16.500 -0.1519  0.2404  0.2006
  430TMC3    C5 6465   1.711   2.946  16.381  0.3891 -0.3484 -0.0593
  430TMC3    C6 6466   1.661   3.029  16.282 -0.4501  0.2208 -0.4729
  430TMC3     C 6467   1.492   3.001  16.655  0.1795  0.6835 -0.1491
  430TMC3     O 6468   1.432   3.099  16.693  0.0059 -0.3703 -0.0489
  430TMC3     H 6469   1.396   3.133  16.445 -0.6957  0.4025 -1.9210
  430TMC3    H1 6470   1.708   2.868  16.573 -1.7705 -2.1826 -0.7861
  430TMC3    H2 6471   1.715   3.037  16.188  0.8717  1.5662  0.3927
  430TMC3    C7 6472   1.772   2.816  16.342 -0.0552  0.2276  0.6368
  430TMC3    C8 6473   1.447   3.051  16.203 -0.1841 -0.1808 -0.1204
  430TMC3    O1 6474   1.818   2.744  16.431  0.6258 -0.7596  0.0722
  430TMC3    O2 6475   1.484   2.960  16.134 -0.5562  0.9756  0.2596
  431MPD2     C 6476   1.858   2.413  12.386  0.1263  0.5222  0.2485
  431MPD2    C1 6477   1.959   2.407  12.292  0.0788 -0.8237  0.2886
  431MPD2    C2 6478   1.967   2.296  12.207 -0.3970  0.1694  0.1142
  431MPD2    C3 6479   1.869   2.194  12.217 -0.2122 -0.0620  0.0407
  431MPD2    C4 6480   1.766   2.208  12.312  0.2790 -0.8166 -0.2512
  431MPD2    C5 6481   1.765   2.319  12.393 -0.2981  0.2970 -0.2596
  431MPD2     H 6482   2.043   2.286  12.131  0.6063  1.6073  0.9432
  431MPD2    H1 6483   1.681   2.141  12.318  0.7584 -1.4550 -0.5032
  431MPD2    H2 6484   1.852   2.484  12.468  1.7252  0.3789  0.5032
  431MPD2    H3 6485   1.685   2.328  12.466  1.2945  2.2112  1.2231
  431MPD2     N 6486   1.877   2.066  12.156  0.0593 -0.0242 -0.0500
  431MPD2    H5 6487   1.793   2.010  12.148 -0.3161  0.3788  1.1019
  431MPD2    N1 6488   2.051   2.513  12.289 -0.2703  0.4832 -0.0740
  431MPD2    H7 6489   2.042   2.585  12.360  2.2499  1.5943 -0.8580
  432TMC3    C1 6490   1.953   1.904  12.017  1.3625 -1.0536  0.3969
  432TMC3    C2 6491   2.019   1.888  11.899 -0.2815 -0.1903 -0.1819
  432TMC3    C3 6492   1.998   1.768  11.833  0.6467  0.1741  0.4305
  432TMC3    C4 6493   1.885   1.805  12.077 -0.3802 -0.8450  0.1583
  432TMC3    C5 6494   1.874   1.688  12.005  0.1516  0.5195 -0.4650
  432TMC3    C6 6495   1.927   1.664  11.879  0.1135 -0.3322 -0.2473
  432TMC3     C 6496   1.982   2.026  12.083  0.1151  0.4843  0.1134
  432TMC3     O 6497   2.089   2.082  12.059 -0.6566  0.2148  0.6036
  432TMC3     H 6498   2.066   1.971  11.847  2.9400 -1.8298  0.0592
  432TMC3    H1 6499   1.837   1.828  12.171 -0.1303 -1.6092  0.4692
  432TMC3    H2 6500   1.934   1.564  11.839 -1.2742  0.0133 -1.3394
  432TMC3    C7 6501   1.811   1.576  12.067  0.4042 -0.0883 -0.4079
  432TMC3    C8 6502   2.062   1.747  11.703 -0.4989  0.2554  0.4276
  432TMC3    O1 6503   1.812   1.467  12.007 -0.0592 -0.6363 -0.1939
  432TMC3    O2 6504   2.023   1.659  11.630 -0.3699 -0.2008 -0.1710
  433MPD2     C 6505   0.936   1.136  10.552 -0.0597 -0.8872  0.9905
  433MPD2    C1 6506   1.073   1.122  10.557 -0.0856  0.0109 -0.7251
  433MPD2    C2 6507   1.141   1.152  10.677  1.1088  0.0439 -0.0507
  433MPD2    C3 6508   1.061   1.199  10.779  0.1886  0.4757  0.4053
  433MPD2    C4 6509   0.926   1.218  10.767  0.0661 -0.2811  0.1803
  433MPD2    C5 6510   0.862   1.178  10.653  0.6158  0.2696  0.4157
  433MPD2     H 6511   1.248   1.145  10.694  1.2398  2.0456 -0.1015
  433MPD2    H1 6512   0.848   1.248  10.837  1.3756  0.3743  1.3391
  433MPD2    H2 6513   0.890   1.105  10.458 -0.1762  0.6537  0.5463
  433MPD2    H3 6514   0.756   1.191  10.631  0.8394 -0.0871 -0.9134
  433MPD2     N 6515   1.136   1.223  10.900 -0.3342  0.2230 -0.2204
  433MPD2    H5 6516   1.235   1.200  10.900  0.0521  1.9240 -0.4933
  433MPD2    N1 6517   1.132   1.058  10.441 -0.0707 -0.4283 -0.5057
  433MPD2    H7 6518   1.080   1.058  10.354 -0.6037 -0.5968 -0.1905
  434TMC3    C1 6519   1.303   0.929  10.329  0.0767  0.2499  1.3100
  434TMC3    C2 6520   1.409   0.856  10.356  0.1422  0.6661 -0.2156
  434TMC3    C3 6521   1.415   0.726  10.318  0.1037 -0.3054 -0.9535
  434TMC3    C4 6522   1.210   0.885  10.245 -0.4186 -0.1488  0.0890
  434TMC3    C5 6523   1.224   0.757  10.200  0.1035 -0.3466 -0.5292
  434TMC3    C6 6524   1.315   0.672  10.251  0.6879  0.4717  0.0781
  434TMC3     C 6525   1.264   1.021  10.435 -0.2928  0.0531  0.3103
  434TMC3     O 6526   1.357   1.038  10.506 -0.4786 -0.2198  0.4943
  434TMC3     H 6527   1.486   0.898  10.420  0.0703  0.9666 -0.3289
  434TMC3    H1 6528   1.121   0.934  10.208  0.7587  0.1935 -2.2798
  434TMC3    H2 6529   1.321   0.577  10.199 -1.3798  0.5700 -0.3599
  434TMC3    C7 6530   1.111   0.704  10.129  0.4897 -0.2537 -0.6522
  434TMC3    C8 6531   1.530   0.649  10.376  0.1986 -0.7585 -0.0986
  434TMC3    O1 6532   1.066   0.782  10.051  0.1844  0.0158 -0.2808
  434TMC3    O2 6533   1.619   0.703  10.446  0.1824 -0.4459  0.9626
  435MPD2     C 6534   3.274   1.091  15.585  0.3837  0.8685  0.1702
  435MPD2    C1 6535   3.199   0.978  15.596 -0.1442 -0.5644 -0.4902
  435MPD2    C2 6536   3.251   0.868  15.664  0.3460 -0.2327 -0.2663
  435MPD2    C3 6537   3.358   0.884  15.746 -0.1787 -0.5258 -0.4239
  435MPD2    C4 6538   3.434   0.993  15.737  0.3262 -0.5529  0.2721
  435MPD2    C5 6539   3.399   1.091  15.648  0.7948 -0.2342  0.0399
  435MPD2     H 6540   3.198   0.773  15.675 -0.5649  0.8316  4.6258
  435MPD2    H1 6541   3.522   1.005  15.799  0.2108 -2.3855  0.7795
  435MPD2    H2 6542   3.259   1.170  15.513 -0.3633  0.0012 -0.6347
  435MPD2    H3 6543   3.467   1.175  15.634 -1.5849  1.5445 -0.9239
  435MPD2     N 6544   3.383   0.782  15.836 -0.6396 -0.2444 -0.0417
  435MPD2    H5 6545   3.354   0.687  15.812 -0.8846 -1.0243  3.3363
  435MPD2    N1 6546   3.066   0.984  15.544  0.4587  0.4754 -0.2146
  435MPD2    H7 6547   3.017   0.896  15.557 -1.5891  1.4774 -1.2756
  436TMC3    C1 6548   2.660   0.972  15.513 -0.8196  0.4066 -0.7742
  436TMC3    C2 6549   2.792   0.970  15.524  1.0150  0.4725 -0.4671
  436TMC3    C3 6550   2.865   1.071  15.454  0.0667  0.3491  0.5639
  436TMC3    C4 6551   2.594   1.067  15.439  0.5242  0.8493  0.2838
  436TMC3    C5 6552   2.662   1.170  15.378  1.2035  0.1037  0.1023
  436TMC3    C6 6553   2.797   1.171  15.394  0.0627 -0.5532 -0.1939
  436TMC3     C 6554   2.584   0.889  15.604 -0.1449 -0.5389  0.0001
  436TMC3     O 6555   2.639   0.780  15.629  0.0043  0.3860  0.0569
  436TMC3     H 6556   2.846   0.908  15.595  0.6997  0.1082 -0.5481
  436TMC3    H1 6557   2.487   1.074  15.424 -0.0838 -2.1563  3.0825
  436TMC3    H2 6558   2.857   1.250  15.349  0.8094 -0.4997  0.8925
  436TMC3    C7 6559   2.593   1.294  15.378  0.0354 -0.6873  0.0181
  436TMC3    C8 6560   3.003   1.090  15.486 -0.2792 -0.4109 -0.5858
  436TMC3    O1 6561   2.477   1.289  15.348  0.1955 -0.0485  1.2179
  436TMC3    O2 6562   3.046   1.207  15.472  0.0096  0.0397  0.0894
  437TMC3    C1 6563   1.395   3.082  12.623  0.1012  0.0824  0.3420
  437TMC3    C2 6564   1.267   3.127  12.616 -0.3163  0.1218  0.6498
  437TMC3    C3 6565   1.226   3.179  12.494  0.8570 -0.5852  0.2128
  437TMC3    C4 6566   1.472   3.080  12.518  0.1529  0.0355 -0.2149
  437TMC3    C5 6567   1.428   3.143  12.403  0.5582 -0.5030  0.2508
  437TMC3    C6 6568   1.303   3.193  12.386  0.7175 -0.6024  0.1834
  437TMC3     C 6569   1.441   3.009  12.740 -0.2059  1.6951  0.5178
  437TMC3     O 6570   1.348   2.977  12.812  0.8937 -0.3286  0.1792
  437TMC3     H 6571   1.194   3.123  12.697 -1.5700  1.1363 -0.4299
  437TMC3    H1 6572   1.566   3.027  12.514  0.3114  0.1930  1.5147
  437TMC3    H2 6573   1.264   3.228  12.291 -2.1336  2.1127  2.3552
  437TMC3    C7 6574   1.511   3.151  12.287  0.1265 -0.5341 -0.1980
  437TMC3    C8 6575   1.124   3.279  12.506 -0.0601 -0.0207 -0.2367
  437TMC3    O1 6576   1.467   3.182  12.176 -0.0939 -0.5375  0.0792
  437TMC3    O2 6577   1.022   3.250  12.565 -0.4870 -0.1859 -0.7423
  438MPD2     C 6578   3.854   3.794  16.745 -0.7430  0.5309  0.4396
  438MPD2    C1 6579   3.935   3.691  16.787 -0.1714  0.5138 -0.0770
  438MPD2    C2 6580   3.945   3.670  16.924 -0.1300  0.0194  0.3574
  438MPD2    C3 6581   3.908   3.765  17.014 -0.2847  0.7614  0.6156
  438MPD2    C4 6582   3.832   3.866  16.971 -0.1716  0.0025 -0.1994
  438MPD2    C5 6583   3.808   3.882  16.840  0.3638  0.2115 -0.0906
  438MPD2     H 6584   4.012   3.589  16.953 -1.7553 -1.5437 -0.3071
  438MPD2    H1 6585   3.808   3.948  17.038 -1.7582  0.2384 -1.0534
  438MPD2    H2 6586   3.826   3.808  16.641  1.0025 -0.8252 -0.2058
  438MPD2    H3 6587   3.759   3.973  16.806 -1.0436 -0.6417 -0.3616
  438MPD2     N 6588   3.942   3.765  17.152  0.1228 -0.3463 -0.3133
  438MPD2    H5 6589   3.911   3.845  17.206  0.2919  0.1027 -0.8925
  438MPD2    N1 6590   4.002   3.609  16.698  0.3645 -0.1043  0.0609
  438MPD2    H7 6591   4.053   3.529  16.736  1.5835  0.9225  0.5978
  439TMC3    C1 6592   4.075   3.499  16.511  0.5490 -0.0616  0.7662
  439TMC3    C2 6593   4.077   3.484  16.374  0.2962 -0.0561  0.3016
  439TMC3    C3 6594   4.149   3.375  16.329  0.0945  0.7134  0.5909
  439TMC3    C4 6595   4.150   3.423  16.598  0.3052  0.1938  0.3064
  439TMC3    C5 6596   4.202   3.307  16.549  0.9999 -0.4667 -0.0994
  439TMC3    C6 6597   4.210   3.280  16.417 -0.1146  0.1176  0.3708
  439TMC3     C 6598   3.995   3.607  16.561 -0.5007 -0.3928 -0.6370
  439TMC3     O 6599   3.920   3.669  16.485  0.3633 -0.1287 -0.4949
  439TMC3     H 6600   4.009   3.539  16.310 -0.1616  0.5133  1.2791
  439TMC3    H1 6601   4.172   3.447  16.701 -0.8771  0.1657  0.5626
  439TMC3    H2 6602   4.269   3.193  16.390 -0.0726  0.4457 -0.6015
  439TMC3    C7 6603   4.247   3.196  16.636 -0.5496 -0.3193 -0.0667
  439TMC3    C8 6604   4.161   3.331  16.194  0.0383 -0.0072  0.2583
  439TMC3    O1 6605   4.331   3.224  16.722 -0.2384  0.1152 -0.3563
  439TMC3    O2 6606   4.182   3.210  16.180  0.2057  0.4373 -0.4965
  440MPD2     C 6607   2.855   3.752  15.032  0.3214 -0.3304  0.0452
  440MPD2    C1 6608   2.904   3.848  15.122 -0.5132 -0.1270 -0.0927
  440MPD2    C2 6609   3.040   3.842  15.147  1.0270  0.3283  0.3013
  440MPD2    C3 6610   3.122   3.765  15.078  0.3711  0.0177 -0.4287
  440MPD2    C4 6611   3.078   3.680  14.983 -0.5965 -0.3183 -0.3081
  440MPD2    C5 6612   2.943   3.680  14.954  0.4046 -0.1196  0.0027
  440MPD2     H 6613   3.072   3.894  15.237  0.6583  0.5906  0.2828
  440MPD2    H1 6614   3.149   3.624  14.921  0.4035  0.9613 -0.3150
  440MPD2    H2 6615   2.749   3.729  15.023  0.5009 -1.7374  1.6461
  440MPD2    H3 6616   2.915   3.616  14.871  1.4457  0.8732 -1.1326
  440MPD2     N 6617   3.255   3.743  15.114  0.3680 -0.1342  0.7375
  440MPD2    H5 6618   3.306   3.662  15.080 -0.0082 -0.1082  0.1002
  440MPD2    N1 6619   2.828   3.934  15.207 -0.1864  0.0580 -0.2743
  440MPD2    H7 6620   2.881   3.978  15.282  2.5436  1.4307 -3.0173
  441TMC3    C1 6621   3.415   3.724  15.286 -0.2826 -0.6637 -0.0971
  441TMC3    C2 6622   3.478   3.800  15.378  1.0551 -0.3246 -0.4005
  441TMC3    C3 6623   3.514   3.752  15.503 -0.0174  0.5048  0.2942
  441TMC3    C4 6624   3.359   3.601  15.319 -0.3989 -0.1772  0.1301
  441TMC3    C5 6625   3.371   3.559  15.447 -0.2925 -0.0867  0.4375
  441TMC3    C6 6626   3.462   3.622  15.536 -0.3453  0.1791 -0.0413
  441TMC3     C 6627   3.332   3.811  15.208 -0.2393 -0.1610 -0.8430
  441TMC3     O 6628   3.313   3.921  15.258  0.7282  0.1730 -0.6064
  441TMC3     H 6629   3.537   3.888  15.354  0.0005  0.5584  0.2636
  441TMC3    H1 6630   3.285   3.559  15.252 -0.1251  0.3861 -0.5269
  441TMC3    H2 6631   3.460   3.593  15.640  0.7380  0.7996  0.1532
  441TMC3    C7 6632   3.246   3.529  15.507 -0.1869 -0.2184 -0.2516
  441TMC3    C8 6633   3.496   3.854  15.601 -0.5533  0.9239  0.1863
  441TMC3    O1 6634   3.147   3.570  15.439 -0.1882 -0.9353  0.5853
  441TMC3    O2 6635   3.538   3.822  15.714  0.1052  0.6381 -0.2618
  442MPD2     C 6636   1.277   3.935  16.783 -0.1894 -0.0320 -0.4658
  442MPD2    C1 6637   1.147   3.916  16.794  0.6560  0.3804  0.0083
  442MPD2    C2 6638   1.075   3.830  16.708  0.9717 -0.0125  0.3349
  442MPD2    C3 6639   1.135   3.775  16.599  0.3912  0.2051 -0.3647
  442MPD2    C4 6640   1.271   3.806  16.577  0.0321  0.9529 -0.7914
  442MPD2    C5 6641   1.338   3.863  16.681  0.4449 -0.1227 -0.4095
  442MPD2     H 6642   0.972   3.811  16.736  0.8170  1.1384  0.5847
  442MPD2    H1 6643   1.317   3.755  16.493 -0.9741  0.1046 -0.8292
  442MPD2    H2 6644   1.325   4.003  16.853 -1.7012  1.5751 -0.9884
  442MPD2    H3 6645   1.446   3.875  16.675  0.7312 -2.2668  0.6339
  442MPD2     N 6646   1.078   3.684  16.508  0.4325  0.8694  0.6781
  442MPD2    H5 6647   1.128   3.660  16.423 -1.8068 -0.0961 -0.3784
  442MPD2    N1 6648   1.070   3.961  16.900  0.0336  0.0164  0.0515
  442MPD2    H7 6649   0.970   3.944  16.905 -0.0352  0.6888  0.9680
  443TMC3    C1 6650   1.023   4.088  17.103  0.1401  0.0448  0.2027
  443TMC3    C2 6651   1.027   4.213  17.158 -0.3775  0.1347 -0.9807
  443TMC3    C3 6652   0.909   4.260  17.206  0.6048 -0.8390 -0.0386
  443TMC3    C4 6653   0.912   4.002  17.118  0.2167  0.2968  0.2935
  443TMC3    C5 6654   0.814   4.047  17.204 -0.3413  0.1422  0.6993
  443TMC3    C6 6655   0.802   4.185  17.234  1.4850 -0.2241  0.0996
  443TMC3     C 6656   1.108   4.064  16.988  0.6692 -0.3525 -0.7543
  443TMC3     O 6657   1.182   4.161  16.973 -0.2709 -0.0917  0.8591
  443TMC3     H 6658   1.102   4.289  17.142  0.5101 -0.4350  0.4383
  443TMC3    H1 6659   0.927   3.894  17.111 -0.1872  0.2533  0.0960
  443TMC3    H2 6660   0.716   4.235  17.277  1.0330 -0.2565 -0.7664
  443TMC3    C7 6661   0.700   3.964  17.237 -0.6572 -0.0738 -0.7091
  443TMC3    C8 6662   0.882   4.380  17.123 -0.3171  0.0521  0.1450
  443TMC3    O1 6663   0.699   3.848  17.191  0.3592  0.7006  0.0670
  443TMC3    O2 6664   0.950   4.482  17.126 -0.1318  0.2586 -0.5073
  444MPD2     C 6665   1.183   3.800  17.236  0.1054 -0.8139 -0.3658
  444MPD2    C1 6666   1.109   3.686  17.205 -0.4061  0.4585  0.3980
  444MPD2    C2 6667   1.155   3.618  17.096 -0.6361  0.0522  0.2291
  444MPD2    C3 6668   1.279   3.635  17.043  0.4950  0.6971 -0.1866
  444MPD2    C4 6669   1.351   3.750  17.077 -0.7366 -0.4522 -0.8774
  444MPD2    C5 6670   1.304   3.828  17.171 -0.5117 -0.0235 -0.1291
  444MPD2     H 6671   1.082   3.542  17.069 -0.1937 -1.0852  2.2067
  444MPD2    H1 6672   1.439   3.787  17.026  0.1724  0.1234  1.1187
  444MPD2    H2 6673   1.156   3.856  17.325  0.9183 -0.4232 -0.3566
  444MPD2    H3 6674   1.358   3.920  17.193  0.6545 -0.7250 -0.0522
  444MPD2     N 6675   1.316   3.562  16.932 -0.3505  0.4753 -0.0367
  444MPD2    H5 6676   1.248   3.511  16.876  0.6566  0.7641 -1.5410
  444MPD2    N1 6677   1.005   3.640  17.284  0.0721 -0.0840 -0.5026
  444MPD2    H7 6678   0.961   3.551  17.261 -0.5252 -0.1158  0.7602
  445TMC3    C1 6679   1.475   3.481  16.765  0.5250 -0.2965  0.0379
  445TMC3    C2 6680   1.374   3.477  16.677 -0.0505  0.2992  0.3964
  445TMC3    C3 6681   1.400   3.436  16.551  0.0231 -0.9882  0.6969
  445TMC3    C4 6682   1.604   3.449  16.728  0.1521 -0.6795 -1.1529
  445TMC3    C5 6683   1.628   3.401  16.600  0.1805  0.3119  0.5691
  445TMC3    C6 6684   1.522   3.395  16.513  0.0741 -0.5610  0.2298
  445TMC3     C 6685   1.447   3.550  16.891 -0.0507 -0.0368  0.1456
  445TMC3     O 6686   1.549   3.608  16.931  0.0628  0.4685 -0.0683
  445TMC3     H 6687   1.279   3.529  16.691 -0.2930  0.0460 -0.3234
  445TMC3    H1 6688   1.677   3.438  16.808 -0.4383 -0.8545 -0.6326
  445TMC3    H2 6689   1.545   3.344  16.419 -2.1012 -3.1068  1.0588
  445TMC3    C7 6690   1.745   3.318  16.588 -0.1575 -0.2052  0.2602
  445TMC3    C8 6691   1.295   3.379  16.470 -0.1432  0.7499  0.9563
  445TMC3    O1 6692   1.783   3.267  16.693  0.0622 -0.1850  0.8858
  445TMC3    O2 6693   1.325   3.354  16.351 -0.1071 -0.2013  0.0437
  446MPD2     C 6694   0.958   0.530  11.050  0.0825 -0.1533  0.4150
  446MPD2    C1 6695   0.991   0.462  10.929  0.2541 -0.2056 -0.5390
  446MPD2    C2 6696   1.105   0.501  10.864  0.5839  0.0451  0.1330
  446MPD2    C3 6697   1.172   0.618  10.897  0.1178  0.3301 -0.1909
  446MPD2    C4 6698   1.128   0.694  11.011 -0.0714 -0.3185  0.4634
  446MPD2    C5 6699   1.029   0.640  11.089  0.7195  0.3414  0.9172
  446MPD2     H 6700   1.141   0.457  10.772 -1.4313  2.0514 -1.6171
  446MPD2    H1 6701   1.179   0.788  11.031  0.9403 -0.9791  0.9637
  446MPD2    H2 6702   0.876   0.505  11.116 -1.3122  0.8728 -0.9244
  446MPD2    H3 6703   1.012   0.696  11.181 -1.7329 -0.9671  1.2667
  446MPD2     N 6704   1.273   0.662  10.809  0.3620  0.5018  0.4949
  446MPD2    H5 6705   1.313   0.586  10.755 -0.2579 -0.2760  1.1385
  446MPD2    N1 6706   0.916   0.353  10.876  0.3533 -0.3688 -0.4423
  446MPD2    H7 6707   0.935   0.329  10.780 -3.5241 -0.4487 -1.1833
  447TMC3    C1 6708   1.454   0.817  10.772  0.6490 -0.5973 -0.1226
  447TMC3    C2 6709   1.490   0.950  10.754 -0.8661  0.7441  1.2700
  447TMC3    C3 6710   1.620   0.988  10.745  0.4980 -0.0722  0.2189
  447TMC3    C4 6711   1.551   0.728  10.811 -0.2419 -0.1332  0.5563
  447TMC3    C5 6712   1.679   0.770  10.793  0.3272 -0.4506  0.1761
  447TMC3    C6 6713   1.715   0.892  10.749  0.7940  0.3760  0.4249
  447TMC3     C 6714   1.321   0.793  10.821  0.3416  0.1556  1.0277
  447TMC3     O 6715   1.251   0.893  10.841  0.1739  0.3164  0.3976
  447TMC3     H 6716   1.412   1.025  10.745 -2.7479 -1.6812 -2.4726
  447TMC3    H1 6717   1.528   0.632  10.856  0.6664  0.7892  3.0098
  447TMC3    H2 6718   1.816   0.931  10.752  0.2774  1.7012  0.5298
  447TMC3    C7 6719   1.787   0.699  10.849  0.4867  0.5668 -0.3756
  447TMC3    C8 6720   1.659   1.124  10.703 -1.0679 -0.1308  0.8506
  447TMC3    O1 6721   1.766   0.626  10.944  0.2678 -0.3120  0.1336
  447TMC3    O2 6722   1.773   1.166  10.724  0.6077  0.2693 -0.5706
  448TMC3    C1 6723   4.091   0.247  17.183 -0.2864 -0.0845 -0.3248
  448TMC3    C2 6724   4.117   0.214  17.060  0.4964 -0.1390  0.2388
  448TMC3    C3 6725   4.165   0.090  17.033  0.5028 -0.2809 -0.8025
  448TMC3    C4 6726   4.090   0.163  17.286  0.2577  0.8720 -0.0713
  448TMC3    C5 6727   4.133   0.035  17.261  0.9361 -0.0487  0.4588
  448TMC3    C6 6728   4.168   4.728  17.135 -0.2308  0.4493  0.4175
  448TMC3     C 6729   4.050   0.381  17.215 -0.2029 -0.1352 -0.1254
  448TMC3     O 6730   4.053   0.408  17.333 -0.0048 -0.3394 -0.4650
  448TMC3     H 6731   4.127   0.293  16.986 -1.0887  2.0116  2.2992
  448TMC3    H1 6732   4.065   0.185  17.389  1.8199  1.2479  0.2257
  448TMC3    H2 6733   4.199   4.626  17.115  1.1676  0.3222  3.2415
  448TMC3    C7 6734   4.166   4.678  17.373  0.1222 -0.0978 -0.0960
  448TMC3    C8 6735   4.177   0.034  16.899 -0.3688  0.2467  0.2726
  448TMC3    O1 6736   4.156   4.733  17.483  0.0933 -0.1216  0.5612
  448TMC3    O2 6737   4.233   4.664  16.887 -0.1803  0.5077  1.0406
  449MPD2     C 6738   0.553   2.997  13.795 -0.3192 -0.5698 -0.2532
  449MPD2    C1 6739   0.446   2.989  13.709  0.5757  0.4575  0.3338
  449MPD2    C2 6740   0.333   2.938  13.756 -0.0261 -0.2191  0.5204
  449MPD2    C3 6741   0.311   2.899  13.886  0.1493 -0.1192 -0.2784
  449MPD2    C4 6742   0.421   2.898  13.965  0.0076 -0.0184  0.0546
  449MPD2    C5 6743   0.537   2.952  13.919 -0.2681  0.1384 -0.7679
  449MPD2     H 6744   0.247   2.952  13.691  0.1562 -2.6390 -0.2271
  449MPD2    H1 6745   0.429   2.880  14.071 -1.1610 -0.0483  0.1401
  449MPD2    H2 6746   0.647   3.044  13.768 -0.7922  0.5449  0.0186
  449MPD2    H3 6747   0.617   2.965  13.990 -0.0537 -2.0157 -0.6337
  449MPD2     N 6748   0.178   2.866  13.923  0.5015 -0.7732  0.9067
  449MPD2    H5 6749   0.104   2.886  13.857 -0.1631  1.3792  2.2955
  449MPD2    N1 6750   0.446   3.040  13.575 -0.6096  0.3641 -0.4337
  449MPD2    H7 6751   0.357   3.033  13.527 -0.7769  2.8962 -0.5420
  450TMC3    C1 6752   0.478   3.211  13.422  0.2642 -0.2631 -0.1504
  450TMC3    C2 6753   0.538   3.224  13.298 -0.6451  0.3584 -0.9674
  450TMC3    C3 6754   0.461   3.273  13.194  0.2008  0.2107  0.4609
  450TMC3    C4 6755   0.347   3.252  13.440  0.2030  0.6298  0.3592
  450TMC3    C5 6756   0.282   3.312  13.338 -0.4228 -0.3616  0.0570
  450TMC3    C6 6757   0.336   3.327  13.213 -0.3894 -0.1415  0.2614
  450TMC3     C 6758   0.537   3.125  13.525 -0.5195  0.2222  0.1523
  450TMC3     O 6759   0.659   3.126  13.545  0.2873 -0.3004 -0.4223
  450TMC3     H 6760   0.634   3.178  13.277 -2.2166 -3.9939  1.5020
  450TMC3    H1 6761   0.300   3.263  13.537  0.4041 -0.1172  0.5445
  450TMC3    H2 6762   0.278   3.368  13.130 -3.2592 -2.5833  1.0480
  450TMC3    C7 6763   0.142   3.340  13.360 -0.3063 -0.6447  1.1503
  450TMC3    C8 6764   0.526   3.315  13.069  0.4912  0.0076  0.0351
  450TMC3    O1 6765   0.085   3.415  13.284 -0.1001 -0.0784 -0.5562
  450TMC3    O2 6766   0.460   3.386  12.994  0.7063  0.7524  0.6554
  451MPD2     C 6767   2.005   2.698   1.834  0.4801  0.2339 -0.5221
  451MPD2    C1 6768   2.088   2.684   1.724  0.6929 -0.2209  0.3879
  451MPD2    C2 6769   2.221   2.663   1.751  0.3347  0.0093  0.1505
  451MPD2    C3 6770   2.269   2.632   1.881 -0.4898  0.2928  0.0258
  451MPD2    C4 6771   2.181   2.616   1.983 -0.9733  0.2127 -0.5328
  451MPD2    C5 6772   2.049   2.651   1.956 -0.4961 -0.4837  0.1332
  451MPD2     H 6773   2.292   2.672   1.669  0.4908  0.6906  0.3567
  451MPD2    H1 6774   2.211   2.592   2.085  2.6533  0.8128 -1.4281
  451MPD2    H2 6775   1.902   2.724   1.813  0.7868  0.8092 -1.3471
  451MPD2    H3 6776   1.981   2.622   2.035  1.6878 -0.1825  2.1421
  451MPD2     N 6777   2.402   2.602   1.913  0.7490  0.3299  0.1474
  451MPD2    H5 6778   2.419   2.551   2.000 -0.3521 -2.3762 -1.2254
  451MPD2    N1 6779   2.029   2.710   1.597  0.1823 -0.1510  0.7835
  451MPD2    H7 6780   1.929   2.724   1.589  0.2488  0.1379  0.4752
  452TMC3    C1 6781   2.645   2.569   1.870 -0.6003 -0.6506 -0.5710
  452TMC3    C2 6782   2.614   2.451   1.940 -0.0549  0.4225 -0.1459
  452TMC3    C3 6783   2.626   2.339   1.854 -0.1129  0.0186  0.3756
  452TMC3    C4 6784   2.701   2.561   1.745  0.1144 -0.0767  0.2347
  452TMC3    C5 6785   2.701   2.447   1.668 -0.3788 -0.7203 -0.3277
  452TMC3    C6 6786   2.660   2.330   1.725  0.1964  0.0896  0.5618
  452TMC3     C 6787   2.514   2.639   1.837 -0.7018  0.2074 -0.5231
  452TMC3     O 6788   2.514   2.731   1.759  0.0183 -0.7636  0.1596
  452TMC3     H 6789   2.566   2.445   2.037  0.3606  1.6346  0.1314
  452TMC3    H1 6790   2.716   2.655   1.694 -0.6633 -0.9267 -1.5395
  452TMC3    H2 6791   2.672   2.233   1.679  1.2228 -0.0728  1.1620
  452TMC3    C7 6792   2.755   2.446   1.536  0.0598 -0.3949 -0.4513
  452TMC3    C8 6793   2.564   2.217   1.901  0.2612 -0.0063  0.2039
  452TMC3    O1 6794   2.703   2.352   1.473 -0.6271  0.0551 -0.9355
  452TMC3    O2 6795   2.559   2.201   2.020  0.3062  0.4177 -0.4072
  453TMC3    C1 6796   2.815   3.961  11.477 -0.5192 -0.3557  0.7967
  453TMC3    C2 6797   2.801   3.822  11.450 -0.3634  0.0399 -1.0271
  453TMC3    C3 6798   2.767   3.777  11.329 -0.7174  0.1025  1.1514
  453TMC3    C4 6799   2.798   4.056  11.369 -0.1665  0.7013  0.1413
  453TMC3    C5 6800   2.772   3.995  11.244  0.3895 -0.3858 -0.3648
  453TMC3    C6 6801   2.755   3.858  11.224 -0.2372 -0.2274  0.2244
  453TMC3     C 6802   2.882   4.002  11.602  0.4779 -0.2743 -0.0691
  453TMC3     O 6803   2.950   4.103  11.602 -0.6290 -0.2995 -0.4972
  453TMC3     H 6804   2.829   3.757  11.532 -0.7710  0.9323 -0.1807
  453TMC3    H1 6805   2.798   4.162  11.392 -1.5591  1.2544 -2.3823
  453TMC3    H2 6806   2.744   3.810  11.127  0.5799  1.4441 -0.7149
  453TMC3    C7 6807   2.808   4.082  11.136 -0.5187 -0.0146  0.0598
  453TMC3    C8 6808   2.720   3.641  11.312  0.0755  0.4409  0.2738
  453TMC3    O1 6809   2.860   4.188  11.165  0.7918  0.7207  0.1115
  453TMC3    O2 6810   2.629   3.616  11.236 -0.0069  0.2955 -0.3641
  454MPD2     C 6811   2.021   3.545  15.928 -0.5765  0.4540 -0.4015
  454MPD2    C1 6812   1.915   3.612  15.873  0.2276  0.0210  0.1322
  454MPD2    C2 6813   1.881   3.729  15.940 -1.0550 -0.1385  0.4074
  454MPD2    C3 6814   1.926   3.763  16.063 -0.3576 -1.0192 -0.3675
  454MPD2    C4 6815   2.022   3.689  16.127  0.0315 -0.0180  0.0685
  454MPD2    C5 6816   2.068   3.582  16.051 -0.3458  0.3960 -0.0840
  454MPD2     H 6817   1.791   3.783  15.913 -2.0483 -1.0964  1.7821
  454MPD2    H1 6818   2.067   3.726  16.218 -0.0950  2.0134 -0.6990
  454MPD2    H2 6819   2.074   3.472  15.868 -1.4277 -0.7020  0.2334
  454MPD2    H3 6820   2.154   3.535  16.097 -1.2126 -2.1948 -1.1333
  454MPD2     N 6821   1.870   3.872  16.144 -0.2155  0.7213 -0.1686
  454MPD2    H5 6822   1.895   3.877  16.242  0.7768  0.7475 -0.4224
  454MPD2    N1 6823   1.848   3.583  15.753 -0.5634 -0.2233 -0.5834
  454MPD2    H7 6824   1.772   3.640  15.717 -0.0145 -0.6802 -2.4837
  455TMC3    C1 6825   1.663   3.933  16.196 -0.5200  0.2736 -0.4801
  455TMC3    C2 6826   1.699   3.966  16.327 -0.1544  0.5560 -0.1266
  455TMC3    C3 6827   1.673   3.882  16.434  0.1753  0.0286 -0.4493
  455TMC3    C4 6828   1.600   3.811  16.179 -0.6570 -0.0355 -0.0962
  455TMC3    C5 6829   1.581   3.722  16.286  0.4136  0.1260 -0.0621
  455TMC3    C6 6830   1.619   3.757  16.416 -0.2833  0.6261  0.6401
  455TMC3     C 6831   1.770   3.952  16.105 -0.2624 -0.5077 -0.4563
  455TMC3     O 6832   1.736   3.982  15.991  0.1309  0.1484  0.0560
  455TMC3     H 6833   1.760   4.055  16.333 -0.5718  0.8768 -0.5886
  455TMC3    H1 6834   1.605   3.780  16.075  2.5563 -0.9378  0.3225
  455TMC3    H2 6835   1.610   3.689  16.499  0.6103 -0.3480 -0.0693
  455TMC3    C7 6836   1.621   3.583  16.252  0.7465 -0.0289 -0.1772
  455TMC3    C8 6837   1.691   3.940  16.569  0.7156  0.2553  0.2335
  455TMC3    O1 6838   1.706   3.526  16.325 -0.4592  0.0662 -0.5573
  455TMC3    O2 6839   1.665   3.864  16.666  0.8013  0.4662  0.1856
  456MPD2     C 6840   4.415   4.017  15.676  0.3930 -0.9893 -0.9472
  456MPD2    C1 6841   4.424   3.914  15.773  0.2348 -0.3538 -0.1207
  456MPD2    C2 6842   4.340   3.927  15.883  0.4377 -0.3635 -0.5215
  456MPD2    C3 6843   4.257   4.040  15.908  0.5964  0.5904  0.1062
  456MPD2    C4 6844   4.260   4.141  15.813  0.2806  0.5859 -0.6896
  456MPD2    C5 6845   4.332   4.124  15.700 -0.6909 -0.0608 -0.3080
  456MPD2     H 6846   4.351   3.845  15.954  0.9855  1.7561  1.8503
  456MPD2    H1 6847   4.199   4.230  15.823  1.0256  1.0751 -0.5510
  456MPD2    H2 6848   4.478   4.028  15.588  1.3130 -1.8316 -0.3946
  456MPD2    H3 6849   4.327   4.206  15.630 -0.3046  1.0102  0.9172
  456MPD2     N 6850   4.203   4.049  16.043 -0.2949 -0.5516  0.4062
  456MPD2    H5 6851   4.242   3.985  16.111  0.7669  0.4993  0.8024
  456MPD2    N1 6852   4.507   3.798  15.750 -0.4267 -0.3644  0.2246
  456MPD2    H7 6853   4.555   3.810  15.662 -1.2126 -0.0839 -0.1600
  457TMC3    C1 6854   4.127   4.156  16.240 -0.2446  0.5716  0.5596
  457TMC3    C2 6855   4.096   4.273  16.303 -0.5860 -0.0990 -0.3774
  457TMC3    C3 6856   4.081   4.276  16.442 -0.0442  0.3350 -0.2345
  457TMC3    C4 6857   4.149   4.038  16.315 -0.0877 -0.0214  0.2208
  457TMC3    C5 6858   4.143   4.048  16.452  0.3294  0.1288 -0.4462
  457TMC3    C6 6859   4.103   4.164  16.516 -0.3266  0.3793 -0.0543
  457TMC3     C 6860   4.134   4.153  16.090 -0.0722  0.3884 -0.2719
  457TMC3     O 6861   4.082   4.244  16.027 -0.2255 -0.2900 -0.1117
  457TMC3     H 6862   4.097   4.361  16.239  2.9942  1.4286  1.7774
  457TMC3    H1 6863   4.159   3.942  16.265  1.7866  0.5813 -0.5555
  457TMC3    H2 6864   4.099   4.177  16.624  2.8800 -0.7853  0.2151
  457TMC3    C7 6865   4.206   3.950  16.546  0.0283  0.5218 -0.4654
  457TMC3    C8 6866   4.101   4.401  16.509  0.1292  1.0420  0.5679
  457TMC3    O1 6867   4.195   3.968  16.667 -0.4229  0.1965 -0.2863
  457TMC3    O2 6868   4.148   4.391  16.620  0.0505 -0.0353  0.8153
  458MPD2     C 6869   1.992   3.211  12.102  0.0396  0.2598 -0.1233
  458MPD2    C1 6870   1.995   3.201  12.236 -1.0436  0.3755  0.2221
  458MPD2    C2 6871   1.874   3.202  12.310  0.1145  0.2221  0.2594
  458MPD2    C3 6872   1.752   3.192  12.246  0.5607 -0.0797 -0.8093
  458MPD2    C4 6873   1.751   3.185  12.108 -0.1733 -0.5682  0.1215
  458MPD2    C5 6874   1.870   3.209  12.039  0.1096  0.1410  0.0028
  458MPD2     H 6875   1.882   3.213  12.418  0.8461  1.0430  0.1168
  458MPD2    H1 6876   1.661   3.171  12.050  0.4105 -2.0602 -0.4231
  458MPD2    H2 6877   2.075   3.229  12.034 -2.0402  1.9092 -2.2603
  458MPD2    H3 6878   1.863   3.206  11.931 -1.0710  1.4069  0.0395
  458MPD2     N 6879   1.639   3.177  12.322  0.1817  0.0854  0.1165
  458MPD2    H5 6880   1.655   3.148  12.418  0.4420 -0.2690 -0.0336
  458MPD2    N1 6881   2.116   3.207  12.301 -0.5035  0.0935  0.0031
  458MPD2    H7 6882   2.194   3.239  12.243 -1.2223 -1.2110 -1.6988
  459TMC3    C1 6883   2.280   3.172  12.465  0.0430 -0.2599  0.3259
  459TMC3    C2 6884   2.375   3.213  12.377 -0.3794  0.3729  0.0597
  459TMC3    C3 6885   2.499   3.230  12.430 -0.0045  0.1034 -0.3984
  459TMC3    C4 6886   2.292   3.136  12.599  0.1415  0.3578  0.3002
  459TMC3    C5 6887   2.417   3.149  12.648  0.5735  0.4038 -0.6232
  459TMC3    C6 6888   2.521   3.193  12.563  0.1444 -1.0158 -0.0817
  459TMC3     C 6889   2.147   3.158  12.422 -0.3058  0.2666 -0.9014
  459TMC3     O 6890   2.080   3.085  12.492 -0.0607 -0.2743  0.4290
  459TMC3     H 6891   2.378   3.243  12.273 -1.0618  0.0797 -0.0482
  459TMC3    H1 6892   2.210   3.119  12.667 -1.2568  0.3583 -1.4091
  459TMC3    H2 6893   2.615   3.218  12.611 -0.1114  0.3189 -0.2716
  459TMC3    C7 6894   2.428   3.163  12.786  0.0416 -0.0887  0.5866
  459TMC3    C8 6895   2.612   3.242  12.340 -0.0962 -0.4664  0.4349
  459TMC3    O1 6896   2.523   3.230  12.827 -0.4529 -0.7070  0.0456
  459TMC3    O2 6897   2.601   3.279  12.224  0.5133 -0.6922 -0.0031
  460MPD2     C 6898   1.678   1.410  10.592 -0.3553  0.1861 -0.3093
  460MPD2    C1 6899   1.574   1.318  10.571  0.4796  0.9246 -0.4344
  460MPD2    C2 6900   1.477   1.354  10.480  0.3249 -0.2110  0.5019
  460MPD2    C3 6901   1.475   1.483  10.423  0.3243 -0.0325  0.2573
  460MPD2    C4 6902   1.578   1.571  10.461 -0.2873 -0.5156 -0.5871
  460MPD2    C5 6903   1.677   1.538  10.547  0.0873 -0.3282  0.3229
  460MPD2     H 6904   1.401   1.284  10.450 -0.0058 -0.2836  1.5265
  460MPD2    H1 6905   1.594   1.670  10.421 -1.6054  0.4629  1.3649
  460MPD2    H2 6906   1.765   1.376  10.647 -1.3334 -2.8654 -0.6189
  460MPD2    H3 6907   1.749   1.611  10.583  0.1751 -0.5474  0.5945
  460MPD2     N 6908   1.383   1.510  10.322  0.7173  0.3566 -0.6410
  460MPD2    H5 6909   1.308   1.442  10.310  0.8878 -0.0328  0.4759
  460MPD2    N1 6910   1.567   1.181  10.621 -0.3095 -0.1421  0.4242
  460MPD2    H7 6911   1.484   1.127  10.600 -0.1324 -1.0957  2.1941
  461TMC3    C1 6912   1.309   1.592  10.116 -0.1078 -0.3526 -0.0287
  461TMC3    C2 6913   1.268   1.469  10.073 -0.6802  0.0107 -0.2799
  461TMC3    C3 6914   1.210   1.460   9.944 -0.0249 -0.1036  0.3800
  461TMC3    C4 6915   1.282   1.705  10.046 -0.2377 -0.3791  0.0600
  461TMC3    C5 6916   1.235   1.697   9.917  0.0467 -0.3553  0.1406
  461TMC3    C6 6917   1.212   1.573   9.860  0.2367  0.2896 -0.0030
  461TMC3     C 6918   1.401   1.606  10.225 -0.2037 -0.3021 -0.1948
  461TMC3     O 6919   1.469   1.708  10.224 -0.3793  0.4170 -0.4673
  461TMC3     H 6920   1.294   1.387  10.138  0.4205  1.2878  0.9031
  461TMC3    H1 6921   1.296   1.801  10.096 -1.7426 -0.0954 -0.0595
  461TMC3    H2 6922   1.165   1.575   9.762 -0.1764 -2.8729  0.1161
  461TMC3    C7 6923   1.240   1.816   9.827 -0.7465 -0.1059  0.0264
  461TMC3    C8 6924   1.172   1.330   9.894  0.4487  0.3026  1.4582
  461TMC3    O1 6925   1.184   1.803   9.722  0.0389 -0.5602  0.4554
  461TMC3    O2 6926   1.165   1.240   9.975  0.2002  0.1688  0.1903
  462TMC3    C1 6927   1.594   1.602   0.492 -0.0499  0.1774  0.1357
  462TMC3    C2 6928   1.542   1.621   0.369 -1.1619  0.4156  0.2312
  462TMC3    C3 6929   1.588   1.549   0.264 -0.7155 -0.2516  0.0880
  462TMC3    C4 6930   1.699   1.516   0.511 -0.1897  0.1098 -0.8587
  462TMC3    C5 6931   1.716   1.430   0.409  0.0394 -0.2732  0.1912
  462TMC3    C6 6932   1.675   1.452   0.278 -0.8706  0.8577 -0.6057
  462TMC3     C 6933   1.497   1.588   0.593  0.1709 -0.3571  0.5570
  462TMC3     O 6934   1.409   1.674   0.597 -0.4059  0.1532 -0.0133
  462TMC3     H 6935   1.469   1.698   0.347 -2.4887 -1.0790 -0.6928
  462TMC3    H1 6936   1.731   1.490   0.611 -0.4075  1.6001 -0.3987
  462TMC3    H2 6937   1.654   1.369   0.212 -0.1408 -0.6551  1.0776
  462TMC3    C7 6938   1.743   1.295   0.455 -0.2452  0.4659  1.2508
  462TMC3    C8 6939   1.549   1.586   0.126  0.6479  0.0242  0.2404
  462TMC3    O1 6940   1.700   1.270   0.568  0.2029  0.5819 -0.0290
  462TMC3    O2 6941   1.435   1.625   0.120 -0.3815 -0.1335 -0.2478
  463MPD2     C 6942   2.663   0.499   1.512  0.4982 -0.6692  0.1867
  463MPD2    C1 6943   2.528   0.513   1.540 -0.2683 -0.7986  0.1140
  463MPD2    C2 6944   2.484   0.644   1.537  0.0815  0.2582 -0.8611
  463MPD2    C3 6945   2.560   0.760   1.518  0.5790  0.7829 -0.4175
  463MPD2    C4 6946   2.694   0.741   1.502  0.2451 -0.6665  0.2262
  463MPD2    C5 6947   2.746   0.614   1.507  0.2451  0.7517 -0.0992
  463MPD2     H 6948   2.376   0.649   1.536 -0.0495 -2.1093  1.7851
  463MPD2    H1 6949   2.764   0.823   1.511 -0.8617  0.4303 -1.3654
  463MPD2    H2 6950   2.712   0.402   1.508  0.0565 -0.7229 -3.4147
  463MPD2    H3 6951   2.853   0.597   1.503 -0.0812 -1.3173 -0.2112
  463MPD2     N 6952   2.505   0.891   1.500 -0.6484  0.2232  0.1821
  463MPD2    H5 6953   2.573   0.966   1.490  1.5666 -1.7441  0.6831
  463MPD2    N1 6954   2.438   0.411   1.559 -0.1506  0.6210 -0.3911
  463MPD2    H7 6955   2.347   0.428   1.601 -1.0615 -2.5798 -1.1197
  464TMC3    C1 6956   2.345   0.200   1.559  0.2809  0.3494 -0.3540
  464TMC3    C2 6957   2.233   0.260   1.601 -0.1065 -0.3562 -0.5294
  464TMC3    C3 6958   2.116   0.180   1.614 -0.1876 -0.4439 -0.4992
  464TMC3    C4 6959   2.347   0.069   1.520 -0.1376  0.1659  1.0001
  464TMC3    C5 6960   2.231   4.733   1.514 -0.1989  0.0453 -0.2372
  464TMC3    C6 6961   2.109   0.054   1.563  0.8741 -0.4582 -0.4567
  464TMC3     C 6962   2.467   0.277   1.539 -0.8043  0.4739  1.0199
  464TMC3     O 6963   2.565   0.228   1.488  0.4126  0.4804 -0.4720
  464TMC3     H 6964   2.239   0.359   1.645 -0.7148 -0.6755  0.2619
  464TMC3    H1 6965   2.440   0.044   1.471 -0.7897  0.7772 -0.5486
  464TMC3    H2 6966   2.029   4.718   1.579  2.0054 -0.8701  3.4126
  464TMC3    C7 6967   2.246   4.590   1.508 -0.2437  0.3653 -0.0926
  464TMC3    C8 6968   1.989   0.248   1.625  0.1002  0.0479 -0.3029
  464TMC3    O1 6969   2.362   4.551   1.516 -0.3095 -0.2316 -0.7490
  464TMC3    O2 6970   2.012   0.366   1.608 -0.4681  0.3590  0.1478
  465MPD2     C 6971   3.783   3.430  17.555 -0.0911  0.0477  0.5965
  465MPD2    C1 6972   3.742   3.497  17.666 -0.8113  0.6221 -0.2032
  465MPD2    C2 6973   3.709   3.628  17.660  0.3705 -0.0093 -0.0646
  465MPD2    C3 6974   3.711   3.698  17.540 -0.0345 -0.1398 -0.3527
  465MPD2    C4 6975   3.744   3.632  17.423 -0.2794  0.1597 -0.0963
  465MPD2    C5 6976   3.788   3.499  17.438  0.6389 -0.5498  0.2898
  465MPD2     H 6977   3.686   3.683   0.013  2.6071 -1.2140  1.2389
  465MPD2    H1 6978   3.751   3.668  17.321  0.7557  0.7975  0.2047
  465MPD2    H2 6979   3.816   3.326  17.556  1.4780  0.5493  1.5420
  465MPD2    H3 6980   3.846   3.449  17.361 -0.0047 -0.7403 -0.0668
  465MPD2     N 6981   3.675   3.834  17.541 -0.4929  0.3781 -0.1569
  465MPD2    H5 6982   3.659   3.877  17.632 -0.4972 -1.7676  0.8469
  465MPD2    N1 6983   3.736   3.437   0.056  0.0604  0.0140  0.3821
  465MPD2    H7 6984   3.724   3.505   0.130 -1.0719  1.3585 -1.0593
  466TMC3    C1 6985   3.568   4.218  17.619  0.0086 -0.1153 -0.3511
  466TMC3    C2 6986   3.563   4.314  17.512 -0.9216 -0.2242  0.1645
  466TMC3    C3 6987   3.584   4.265  17.382  0.1716  0.0293 -0.2156
  466TMC3    C4 6988   3.589   4.084  17.592  0.0109 -0.1735  0.2143
  466TMC3    C5 6989   3.617   4.048  17.461 -0.4326  0.0456 -0.0439
  466TMC3    C6 6990   3.617   4.135  17.352 -0.3813  0.4729  0.7153
  466TMC3     C 6991   3.507   4.259   0.005  0.2692  0.8218  0.2205
  466TMC3     O 6992   3.436   4.357   0.003  0.1060 -0.3566 -0.2665
  466TMC3     H 6993   3.544   4.420  17.520  1.4356  0.2864 -1.1834
  466TMC3    H1 6994   3.586   4.016  17.676  0.4521 -3.4272 -2.4039
  466TMC3    H2 6995   3.636   4.100  17.251 -0.0877 -0.1422  0.9855
  466TMC3    C7 6996   3.648   3.908  17.433 -0.1926 -0.8293  1.0183
  466TMC3    C8 6997   3.578   4.360  17.271 -0.2423 -0.5138 -0.1670
  466TMC3    O1 6998   3.649   3.878  17.315 -0.2024  0.1101 -0.2002
  466TMC3    O2 6999   3.634   4.327  17.168  0.0583  0.1621  0.1337
  467TMC3    C1 7000   4.085   2.156  13.696  0.0678  0.1462 -0.1479
  467TMC3    C2 7001   4.017   2.205  13.593 -0.3440  0.0240  0.0173
  467TMC3    C3 7002   3.886   2.227  13.608  0.2536 -1.0420 -0.1582
  467TMC3    C4 7003   4.027   2.127  13.815 -0.0647 -0.8920 -0.8412
  467TMC3    C5 7004   3.891   2.142  13.821  0.8092 -0.7359 -0.4211
  467TMC3    C6 7005   3.813   2.200  13.721  0.3538 -0.2716 -0.2007
  467TMC3     C 7006   4.226   2.180  13.695 -0.3729 -0.4344 -0.2874
  467TMC3     O 7007   4.270   2.214  13.803 -0.2841  0.3957  0.1259
  467TMC3     H 7008   4.081   2.240  13.513 -1.7074  0.6850 -0.7789
  467TMC3    H1 7009   4.092   2.087  13.892  0.3536  0.5520 -0.4510
  467TMC3    H2 7010   3.706   2.212  13.716  0.4469 -0.6301 -3.2987
  467TMC3    C7 7011   3.826   2.081  13.936  0.1113  0.1168 -0.0389
  467TMC3    C8 7012   3.842   2.343  13.535  0.2498 -0.2206 -0.1947
  467TMC3    O1 7013   3.907   2.030  14.012 -0.1633 -0.0248 -0.2226
  467TMC3    O2 7014   3.829   2.448  13.598  0.1650  0.2738 -0.3808
  468MPD2     C 7015   3.652   1.083  10.244 -0.2850 -0.5951 -0.0183
  468MPD2    C1 7016   3.547   1.049  10.332  0.2455  0.3578 -0.3019
  468MPD2    C2 7017   3.478   0.931  10.309 -0.0405 -0.7792 -0.8954
  468MPD2    C3 7018   3.510   0.851  10.195 -0.5051 -0.2568 -0.0095
  468MPD2    C4 7019   3.603   0.900  10.107 -0.5736  0.7377  0.3677
  468MPD2    C5 7020   3.665   1.019  10.125 -0.2170 -0.1060 -0.2433
  468MPD2     H 7021   3.413   0.897  10.389  1.2984  1.4355  1.1480
  468MPD2    H1 7022   3.624   0.845  10.016 -1.3727 -0.5368  0.9522
  468MPD2    H2 7023   3.725   1.162  10.256  0.7204 -2.0199  3.4614
  468MPD2    H3 7024   3.726   1.055  10.044 -0.8359  2.6459  0.5309
  468MPD2     N 7025   3.452   0.718  10.172  0.0053  0.8163 -0.6016
  468MPD2    H5 7026   3.464   0.681  10.079 -0.2459 -0.1920 -0.2258
  468MPD2    N1 7027   3.520   1.127  10.448  0.3196 -0.1653  0.0244
  468MPD2    H7 7028   3.454   1.086  10.513 -0.1610 -3.5479 -2.5591
  469TMC3    C1 7029   3.570   1.291  10.614  0.0725  0.7026  0.6962
  469TMC3    C2 7030   3.569   1.200  10.715 -0.4368 -0.7139 -0.2741
  469TMC3    C3 7031   3.516   1.223  10.840 -0.1658 -0.0406  0.3486
  469TMC3    C4 7032   3.539   1.421  10.639  0.7998  0.9738  0.0574
  469TMC3    C5 7033   3.491   1.453  10.768  0.1467  0.6914 -0.8910
  469TMC3    C6 7034   3.482   1.356  10.868 -0.6173 -0.3603 -0.5477
  469TMC3     C 7035   3.582   1.253  10.474  0.5595  0.2707 -0.1351
  469TMC3     O 7036   3.666   1.314  10.407 -0.4801  0.2263 -0.0913
  469TMC3     H 7037   3.596   1.102  10.679 -0.9532 -1.1435  0.5246
  469TMC3    H1 7038   3.539   1.494  10.559 -2.1125  1.1301  0.2128
  469TMC3    H2 7039   3.442   1.387  10.964 -2.4910 -3.9249 -0.1455
  469TMC3    C7 7040   3.448   1.585  10.792  0.6372 -0.1835  0.0079
  469TMC3    C8 7041   3.547   1.132  10.952  0.2115  0.8329 -0.4553
  469TMC3    O1 7042   3.523   1.673  10.750  0.2140 -0.5722  0.0905
  469TMC3    O2 7043   3.533   1.181  11.064  0.1882  0.4218 -0.0158
  470TMC3    C1 7044   1.120   1.453   0.467  0.5599 -0.0701  0.1872
  470TMC3    C2 7045   1.135   1.586   0.507  0.9314 -0.3725 -0.3538
  470TMC3    C3 7046   1.062   1.636   0.610 -0.0119  0.2437 -0.0840
  470TMC3    C4 7047   1.037   1.368   0.538  0.6683  0.7197  0.1998
  470TMC3    C5 7048   0.973   1.424   0.650 -0.7978 -0.5080  0.5759
  470TMC3    C6 7049   0.970   1.564   0.673  0.3446 -0.0658  0.5229
  470TMC3     C 7050   1.207   1.402   0.359  0.6610  0.2596  0.2601
  470TMC3     O 7051   1.238   1.486   0.280 -0.7322 -0.1585 -0.4320
  470TMC3     H 7052   1.206   1.641   0.446  1.1258 -1.2051 -0.8876
  470TMC3    H1 7053   1.030   1.266   0.501 -0.0019  0.0049  2.2545
  470TMC3    H2 7054   0.914   1.614   0.751 -1.9762 -1.5873 -0.1737
  470TMC3    C7 7055   0.898   1.338   0.742  0.3572  0.1150 -0.1347
  470TMC3    C8 7056   1.055   1.777   0.625  0.0568  0.2693 -0.5114
  470TMC3    O1 7057   0.850   1.238   0.680 -0.3078 -0.0232  0.0594
  470TMC3    O2 7058   0.948   1.828   0.663 -0.3734 -0.2636 -0.0214
  471MPD2     C 7059   1.046   2.982  15.940  0.3523 -0.5141 -0.0552
  471MPD2    C1 7060   1.119   2.895  16.021  0.4933  0.6541  0.1715
  471MPD2    C2 7061   1.197   2.944  16.112 -0.8100 -0.7753  0.5666
  471MPD2    C3 7062   1.223   3.074  16.118  0.4568 -0.3643 -0.1248
  471MPD2    C4 7063   1.158   3.166  16.044 -0.2214 -0.0065  0.0865
  471MPD2    C5 7064   1.066   3.115  15.948  0.3431  0.3324 -0.2798
  471MPD2     H 7065   1.249   2.876  16.178 -1.6462 -1.4772  0.5046
  471MPD2    H1 7066   1.168   3.273  16.054  0.5776 -0.1108  0.3659
  471MPD2    H2 7067   0.981   2.949  15.860  0.1510  2.6188 -1.1725
  471MPD2    H3 7068   1.002   3.185  15.895 -0.6495 -0.2356  0.1555
  471MPD2     N 7069   1.322   3.116  16.205  0.4304 -0.4572 -0.0826
  471MPD2    H5 7070   1.321   3.212  16.236  3.9186 -0.7653  1.0509
  471MPD2    N1 7071   1.111   2.758  16.015  0.0930  0.6743  0.4884
  471MPD2    H7 7072   1.178   2.703  16.069  2.0440  2.1314 -0.4492
  472TMC3    C1 7073   1.073   2.556  15.918 -0.0029  0.0715  0.1586
  472TMC3    C2 7074   1.074   2.491  15.792 -0.3981  0.4610 -0.3971
  472TMC3    C3 7075   1.115   2.360  15.782 -1.0027  1.1438  0.2173
  472TMC3    C4 7076   1.112   2.480  16.028 -0.2621  0.0310 -0.4463
  472TMC3    C5 7077   1.138   2.345  16.019 -0.7117 -0.0489 -0.5974
  472TMC3    C6 7078   1.147   2.290  15.894 -0.6500 -0.1808 -0.5351
  472TMC3     C 7079   1.040   2.694  15.916  0.0855  0.5015 -0.6173
  472TMC3     O 7080   0.978   2.732  15.815  0.1330  0.4359  0.4461
  472TMC3     H 7081   1.056   2.543  15.698  0.6088  1.7587  0.1384
  472TMC3    H1 7082   1.081   2.528  16.121 -0.7077 -2.9426  0.9280
  472TMC3    H2 7083   1.191   2.191  15.888  0.5078  0.2284  1.1151
  472TMC3    C7 7084   1.073   2.254  16.118 -0.3605  0.0741 -0.0604
  472TMC3    C8 7085   1.020   2.275  15.708  0.4657 -0.0578 -0.5334
  472TMC3    O1 7086   1.131   2.232  16.225 -0.0277  0.3111  0.5268
  472TMC3    O2 7087   1.068   2.172  15.660  0.0245 -0.2280 -0.0469
  473MPD2     C 7088   0.922   4.367  13.797 -0.5443 -0.1137 -0.4859
  473MPD2    C1 7089   0.844   4.474  13.753  0.4702  0.1490  0.5565
  473MPD2    C2 7090   0.871   4.601  13.815 -0.0370 -0.3149  0.0596
  473MPD2    C3 7091   0.962   4.615  13.913 -0.2758 -0.0762  0.4072
  473MPD2    C4 7092   1.030   4.500  13.944 -0.6638 -0.3535  0.2968
  473MPD2    C5 7093   1.013   4.373  13.896 -0.4780 -0.4449  0.1166
  473MPD2     H 7094   0.806   4.678  13.775 -0.1961 -0.7824 -0.6005
  473MPD2    H1 7095   1.117   4.512  14.007  0.3924  0.4827 -1.3152
  473MPD2    H2 7096   0.906   4.266  13.761  0.3160 -0.6570  0.6551
  473MPD2    H3 7097   1.075   4.290  13.928  0.0830  0.0674  0.3555
  473MPD2     N 7098   0.989   0.002  13.979 -0.0900  0.3998 -0.1858
  473MPD2    H5 7099   1.067   4.726  14.043 -2.2025  1.1939  2.4708
  473MPD2    N1 7100   0.749   4.458  13.645  0.0348 -0.1199  0.0680
  473MPD2    H7 7101   0.685   4.537  13.636 -1.8956 -1.6756  0.0581
  474TMC3    C1 7102   0.995   0.241  14.031  0.3372 -0.2884  0.9249
  474TMC3    C2 7103   0.929   0.363  14.025  1.4118  0.1182 -0.0923
  474TMC3    C3 7104   0.981   0.465  14.093 -0.2239  0.2374 -0.3854
  474TMC3    C4 7105   1.111   0.228  14.102  0.3880  0.2634 -0.3817
  474TMC3    C5 7106   1.149   0.333  14.179 -0.1239  0.1749  0.3115
  474TMC3    C6 7107   1.084   0.450  14.177 -0.1927  0.0845 -0.5022
  474TMC3     C 7108   0.922   0.121  13.968  0.1713  0.0465  0.4130
  474TMC3     O 7109   0.822   0.153  13.905 -0.6206 -0.2374  0.1180
  474TMC3     H 7110   0.838   0.373  13.967  0.1650 -3.5285  1.1979
  474TMC3    H1 7111   1.164   0.134  14.100 -1.5524 -0.7969 -2.8363
  474TMC3    H2 7112   1.117   0.534  14.238  0.8793 -1.7029  1.3925
  474TMC3    C7 7113   1.278   0.319  14.250  0.2759 -0.9459 -0.3055
  474TMC3    C8 7114   0.876   0.559  14.138  0.0589 -0.5580 -0.1925
  474TMC3    O1 7115   1.374   0.287  14.178  0.7272 -0.1654 -0.0304
  474TMC3    O2 7116   0.758   0.534  14.136 -0.1409 -0.7988 -0.0827
  475MPD2     C 7117   3.220   3.865  10.790  0.0284 -0.2153 -0.2551
  475MPD2    C1 7118   3.331   3.841  10.711  0.7186 -0.0436 -0.2457
  475MPD2    C2 7119   3.314   3.843  10.579  0.3493  1.0622 -0.4086
  475MPD2    C3 7120   3.190   3.834  10.522 -0.4179  0.3134 -0.5052
  475MPD2    C4 7121   3.079   3.841  10.596  0.2803  0.2843 -0.0389
  475MPD2    C5 7122   3.093   3.851  10.731 -0.5755 -0.3018 -0.4725
  475MPD2     H 7123   3.403   3.836  10.518 -1.0126 -0.6506 -2.2192
  475MPD2    H1 7124   2.976   3.839  10.562  0.0624 -1.3930  0.7185
  475MPD2    H2 7125   3.219   3.863  10.898  1.5133 -0.1944 -0.2383
  475MPD2    H3 7126   3.007   3.848  10.796  1.3673  1.7961  2.1704
  475MPD2     N 7127   3.179   3.838  10.379  0.0836  0.5614 -0.3752
  475MPD2    H5 7128   3.266   3.857  10.329  0.7405 -2.9302 -0.5414
  475MPD2    N1 7129   3.465   3.833  10.752  0.0241 -0.6803  0.1580
  475MPD2    H7 7130   3.535   3.834  10.679  0.5799  0.1017  0.6986
  476TMC3    C1 7131   3.650   3.874  10.899  0.4560 -0.2806  0.0483
  476TMC3    C2 7132   3.734   3.877  10.793  0.8257  0.5423  0.5043
  476TMC3    C3 7133   3.842   3.959  10.800 -0.5358  0.2256  0.2460
  476TMC3    C4 7134   3.684   3.924  11.019  0.4803 -0.0052 -1.2546
  476TMC3    C5 7135   3.798   4.003  11.022  0.2480  0.2648  0.1803
  476TMC3    C6 7136   3.876   4.027  10.912 -0.4323 -0.3499 -0.1062
  476TMC3     C 7137   3.508   3.848  10.884  0.1227  0.1090 -0.5932
  476TMC3     O 7138   3.450   3.865  10.992  0.3534  0.6561  0.5471
  476TMC3     H 7139   3.698   3.829  10.703 -1.1155 -1.6354  2.4354
  476TMC3    H1 7140   3.627   3.903  11.109  0.3286  2.5866 -0.7649
  476TMC3    H2 7141   3.954   4.101  10.912 -1.0397  0.3048 -2.2855
  476TMC3    C7 7142   3.804   4.089  11.133 -0.5286  0.6927 -0.2951
  476TMC3    C8 7143   3.924   3.978  10.681  0.2842 -0.0745  0.5477
  476TMC3    O1 7144   3.744   4.058  11.236 -0.6355  0.6635 -0.0989
  476TMC3    O2 7145   3.987   4.080  10.674  0.6946  0.3291  0.2639
  477MPD2     C 7146   2.281   0.193  11.519  0.1739 -0.1728 -0.7619
  477MPD2    C1 7147   2.233   0.121  11.410  0.7413 -0.1231 -0.0576
  477MPD2    C2 7148   2.223   4.714  11.420  0.2303  0.0368 -0.9796
  477MPD2    C3 7149   2.268   4.647  11.531  0.4004 -0.0406 -0.5945
  477MPD2    C4 7150   2.323   4.717  11.636 -0.3151 -0.2703 -0.3046
  477MPD2    C5 7151   2.333   0.119  11.625  0.3242 -0.1958  0.0306
  477MPD2     H 7152   2.177   4.656  11.339  0.1259 -1.1533 -0.0686
  477MPD2    H1 7153   2.368   4.668  11.723 -0.3219  0.3629  0.0551
  477MPD2    H2 7154   2.271   0.301  11.516 -1.1169 -0.1534  3.7170
  477MPD2    H3 7155   2.378   0.178  11.705 -3.4555  1.8135  0.6926
  477MPD2     N 7156   2.242   4.508  11.538  0.4904  0.5073 -0.3370
  477MPD2    H5 7157   2.183   4.472  11.463 -0.5684  3.0748 -0.7481
  477MPD2    N1 7158   2.182   0.194  11.301 -1.0173  0.0808 -0.3918
  477MPD2    H7 7159   2.166   0.293  11.315 -1.3998 -0.2819  1.8749
  478TMC3    C1 7160   2.059   0.250  11.113 -0.6140 -0.0887 -0.5992
  478TMC3    C2 7161   1.972   0.329  11.184 -0.5757 -0.0157  1.0215
  478TMC3    C3 7162   1.855   0.364  11.121  0.3382  0.5701  1.1366
  478TMC3    C4 7163   2.045   0.219  10.980 -0.0222 -0.3368 -0.1371
  478TMC3    C5 7164   1.931   0.275  10.923 -0.0174 -0.1821 -0.2622
  478TMC3    C6 7165   1.826   0.332  10.992 -0.3474  0.2919  0.3027
  478TMC3     C 7166   2.137   0.147  11.184  0.3785 -0.4392  0.3759
  478TMC3     O 7167   2.147   0.038  11.131 -0.8131 -0.5200 -0.4179
  478TMC3     H 7168   1.975   0.348  11.290 -2.6460  2.3067  0.6521
  478TMC3    H1 7169   2.121   0.164  10.926  1.1374  0.3300  0.8232
  478TMC3    H2 7170   1.734   0.354  10.939 -0.6932 -2.8686 -0.4284
  478TMC3    C7 7171   1.912   0.246  10.780 -0.1462  0.0244  0.0332
  478TMC3    C8 7172   1.747   0.390  11.207 -0.0369 -0.2967  0.3296
  478TMC3    O1 7173   1.974   0.150  10.730 -0.0232  0.1869  0.1357
  478TMC3    O2 7174   1.732   0.312  11.298  0.0289 -0.0715 -1.0688
  479MPD2     C 7175   0.685   1.904  14.771  0.6044  0.4234  0.6282
  479MPD2    C1 7176   0.646   1.870  14.897 -1.2577 -0.6732 -0.4258
  479MPD2    C2 7177   0.686   1.938  15.010  0.0766 -0.0845 -0.1901
  479MPD2    C3 7178   0.766   2.051  14.988 -0.4890  1.0358  0.0341
  479MPD2    C4 7179   0.822   2.074  14.867  0.0439  0.3403  0.2765
  479MPD2    C5 7180   0.788   1.996  14.757  0.4346  0.5319  0.4449
  479MPD2     H 7181   0.630   1.918  15.101 -0.3049 -1.4402 -0.7160
  479MPD2    H1 7182   0.882   2.162  14.844  2.1261 -1.4909 -1.3966
  479MPD2    H2 7183   0.647   1.843  14.689  0.8116  2.1855 -0.7926
  479MPD2    H3 7184   0.825   2.010  14.655  0.1345 -1.6507  0.0560
  479MPD2     N 7185   0.796   2.148  15.080  0.7357  0.5401  0.8926
  479MPD2    H5 7186   0.866   2.218  15.059  0.3169  0.8769  0.6358
  479MPD2    N1 7187   0.556   1.762  14.905  0.1593  0.0441 -0.0538
  479MPD2    H7 7188   0.496   1.744  14.826  0.9393  1.1866 -0.8916
  480TMC3    C1 7189   0.470   1.956  15.333 -0.5513 -0.1203 -0.4979
  480TMC3    C2 7190   0.364   1.985  15.246 -0.0719 -0.2288 -0.6312
  480TMC3    C3 7191   0.377   2.092  15.164  0.9387  0.4333 -0.0904
  480TMC3    C4 7192   0.594   2.016  15.320  0.2341  0.1792  0.0685
  480TMC3    C5 7193   0.601   2.122  15.230  0.4624 -0.2945 -0.3172
  480TMC3    C6 7194   0.495   2.162  15.154 -0.3524 -0.3074 -0.6368
  480TMC3     C 7195   0.446   1.844  15.426 -0.5388  0.5742 -1.0134
  480TMC3     O 7196   0.551   1.791  15.464  0.1403 -0.1210  0.0217
  480TMC3     H 7197   0.274   1.925  15.234  0.8059 -1.9016  1.0387
  480TMC3    H1 7198   0.686   1.986  15.368  0.4359 -0.0084 -0.4352
  480TMC3    H2 7199   0.511   2.256  15.103  0.2867 -0.0846 -0.0231
  480TMC3    C7 7200   0.732   2.172  15.205  0.3333 -0.3745 -0.0712
  480TMC3    C8 7201   0.289   2.102  15.051  0.0756  0.2888  0.0783
  480TMC3    O1 7202   0.773   2.245  15.297  0.5968 -0.7859 -0.6894
  480TMC3    O2 7203   0.176   2.061  15.072 -0.1020 -0.2571  0.2148
  481MPD2     C 7204   2.412   1.584  14.206  0.5784  0.1250  0.2386
  481MPD2    C1 7205   2.317   1.485  14.179 -0.4790  0.2913 -0.2878
  481MPD2    C2 7206   2.297   1.384  14.266  0.7787 -0.7045 -0.1189
  481MPD2    C3 7207   2.380   1.374  14.372 -0.8943  0.2445  0.3778
  481MPD2    C4 7208   2.477   1.468  14.406 -0.4072  0.3214 -0.1981
  481MPD2    C5 7209   2.495   1.569  14.315 -0.0721 -0.2014  0.1870
  481MPD2     H 7210   2.218   1.310  14.260 -1.1843  1.5142 -1.6102
  481MPD2    H1 7211   2.528   1.472  14.502 -0.9752  0.0622  0.1197
  481MPD2    H2 7212   2.434   1.666  14.138 -0.2370  2.2072  2.4984
  481MPD2    H3 7213   2.576   1.637  14.335  1.4299 -1.8956 -0.1306
  481MPD2     N 7214   2.367   1.264  14.464  0.3365 -0.7185  0.4264
  481MPD2    H5 7215   2.447   1.251  14.524 -0.5951 -0.4232  1.7438
  481MPD2    N1 7216   2.234   1.516  14.069  0.2459  0.5474  0.3151
  481MPD2    H7 7217   2.249   1.604  14.019  0.4797  0.6164  0.5074
  482TMC3    C1 7218   2.045   1.480  13.924  0.7970 -0.2014  0.7012
  482TMC3    C2 7219   1.913   1.439  13.934 -0.1812 -0.7033  0.2042
  482TMC3    C3 7220   1.818   1.473  13.840  0.3649 -0.2681  0.3120
  482TMC3    C4 7221   2.090   1.533  13.810  0.7715  0.4211 -0.2718
  482TMC3    C5 7222   2.001   1.542  13.707  0.1329 -0.2265  0.2005
  482TMC3    C6 7223   1.861   1.528  13.722 -0.5893 -0.3300  0.0908
  482TMC3     C 7224   2.140   1.420  14.021  0.2902  0.4196  0.4734
  482TMC3     O 7225   2.118   1.306  14.052  0.1068  0.0367 -0.2280
  482TMC3     H 7226   1.874   1.385  14.020 -1.1197  1.6461  1.2519
  482TMC3    H1 7227   2.196   1.528  13.787  0.6799 -0.3920 -0.5252
  482TMC3    H2 7228   1.792   1.530  13.638  0.6424 -1.5920 -0.9525
  482TMC3    C7 7229   2.056   1.570  13.572  0.4494  0.3965  0.8896
  482TMC3    C8 7230   1.730   1.363  13.816  0.2389  0.3639  0.1077
  482TMC3    O1 7231   2.174   1.542  13.561 -0.0902 -0.6533 -0.1681
  482TMC3    O2 7232   1.772   1.249  13.831 -0.4070  0.2684  0.1773
  483TMC3    C1 7233   0.872   0.364   1.655  0.5223 -0.3803 -0.7360
  483TMC3    C2 7234   0.968   0.436   1.597  0.0424 -0.1253 -0.1810
  483TMC3    C3 7235   1.091   0.385   1.588  0.3268 -0.0233 -0.2967
  483TMC3    C4 7236   0.891   0.245   1.717 -0.1179 -0.0815 -0.4392
  483TMC3    C5 7237   1.021   0.200   1.718 -0.6007 -0.2132  0.3674
  483TMC3    C6 7238   1.116   0.260   1.640 -0.1262 -0.3848 -0.0283
  483TMC3     C 7239   0.745   0.380   1.582  0.1150 -0.5656 -0.0529
  483TMC3     O 7240   0.726   0.487   1.524  0.0971  0.3832  0.0007
  483TMC3     H 7241   0.941   0.522   1.537  0.1977 -0.8875 -1.3464
  483TMC3    H1 7242   0.814   0.185   1.763  0.6706  0.1626  1.1889
  483TMC3    H2 7243   1.215   0.214   1.636 -0.0390 -0.1362 -0.7541
  483TMC3    C7 7244   1.040   0.060   1.735  0.0321  0.5099  0.0407
  483TMC3    C8 7245   1.170   0.424   1.468  0.3416 -0.0646  0.4105
  483TMC3    O1 7246   1.116   4.727   1.667 -0.6412 -0.2831  0.1539
  483TMC3    O2 7247   1.228   0.337   1.409  0.4643  0.5540 -0.6150
  484MPD2     C 7248   2.965   3.169  12.407 -0.0760  0.4806  0.6013
  484MPD2    C1 7249   2.857   3.227  12.343  0.2252 -0.1028 -0.9038
  484MPD2    C2 7250   2.885   3.320  12.241  0.9335  0.8310  0.0021
  484MPD2    C3 7251   3.009   3.328  12.184 -0.1203  0.2087 -0.1603
  484MPD2    C4 7252   3.111   3.261  12.243 -0.8099 -0.1110 -0.7877
  484MPD2    C5 7253   3.089   3.185  12.353  0.7262 -0.1200 -0.3119
  484MPD2     H 7254   2.807   3.384  12.201 -1.3814 -1.1398  1.3770
  484MPD2    H1 7255   3.215   3.268  12.216 -0.9148  0.3149 -1.0738
  484MPD2    H2 7256   2.954   3.113  12.499 -1.0624 -0.9934 -0.4093
  484MPD2    H3 7257   3.175   3.156  12.411  0.5751  1.7263  0.8508
  484MPD2     N 7258   3.046   3.412  12.073  0.1506 -0.4406 -0.2610
  484MPD2    H5 7259   3.141   3.403  12.040 -0.4163 -0.2938 -1.9693
  484MPD2    N1 7260   2.725   3.205  12.399 -0.2471  0.4300 -0.0881
  484MPD2    H7 7261   2.726   3.159  12.489  1.8545  1.0219  0.2031
  485TMC3    C1 7262   3.052   3.592  11.931  0.4022 -0.2428 -0.3732
  485TMC3    C2 7263   3.156   3.650  11.987 -0.2471  0.0471  0.0422
  485TMC3    C3 7264   3.241   3.724  11.907 -0.7208  0.4657  0.0818
  485TMC3    C4 7265   3.018   3.621  11.799  0.1832  0.0559  0.0306
  485TMC3    C5 7266   3.101   3.695  11.718  0.8684 -0.4129 -0.0012
  485TMC3    C6 7267   3.213   3.751  11.776  0.4684 -0.6050  0.2945
  485TMC3     C 7268   2.969   3.501  12.008  0.2336  0.2659 -0.0712
  485TMC3     O 7269   2.849   3.496  11.983 -0.5203  0.0453  0.2585
  485TMC3     H 7270   3.184   3.615  12.086  2.3086 -1.2289 -1.1329
  485TMC3    H1 7271   2.947   3.554  11.750 -0.6142 -0.6573  2.1626
  485TMC3    H2 7272   3.287   3.806  11.718  1.6908 -0.4878  1.9549
  485TMC3    C7 7273   3.126   3.614  11.597  0.0562 -0.5429  0.1358
  485TMC3    C8 7274   3.377   3.668  11.914  0.2261  0.5587 -0.2270
  485TMC3    O1 7275   3.023   3.583  11.531 -0.3653 -0.2894  0.6208
  485TMC3    O2 7276   3.421   3.614  11.815  0.0429  0.0014 -0.3340
  486MPD2     C 7277   4.723   1.958  12.451 -0.1437  0.4758  0.2967
  486MPD2    C1 7278   4.600   1.962  12.513 -0.1778  0.4551 -0.9126
  486MPD2    C2 7279   4.526   2.084  12.504 -0.8651 -0.3134  0.2168
  486MPD2    C3 7280   4.575   2.190  12.429  1.3371  0.0207 -0.4485
  486MPD2    C4 7281   4.691   2.176  12.354 -1.0013 -0.4222  0.8780
  486MPD2    C5 7282   0.026   2.063  12.369  0.2228 -0.3768  0.2220
  486MPD2     H 7283   4.436   2.098  12.563 -2.9607 -2.6845 -2.3984
  486MPD2    H1 7284   0.004   2.259  12.305  0.1539 -2.6957 -1.8651
  486MPD2    H2 7285   0.064   1.883  12.471 -0.4437  0.8232  2.7466
  486MPD2    H3 7286   0.128   2.065  12.334 -0.3745  1.8806 -1.4005
  486MPD2     N 7287   4.516   2.319  12.431  0.2301  0.5088 -0.8126
  486MPD2    H5 7288   4.560   2.388  12.371 -0.6769 -0.6282 -2.7649
  486MPD2    N1 7289   4.572   1.845  12.592  0.5799  0.2646  0.0231
  486MPD2    H7 7290   4.653   1.784  12.586  1.0939  1.0581 -1.0147
  487TMC3    C1 7291   4.464   1.685  12.702 -0.5608 -0.2616 -0.0660
  487TMC3    C2 7292   4.355   1.603  12.689  0.1544 -0.8728 -0.4156
  487TMC3    C3 7293   4.363   1.472  12.725  0.1045  0.0408 -0.2341
  487TMC3    C4 7294   4.574   1.646  12.768 -0.3560 -0.0009 -0.2035
  487TMC3    C5 7295   4.563   1.527  12.826 -0.0908 -0.4399 -0.2471
  487TMC3    C6 7296   4.474   1.433  12.792 -0.6173  0.2212  0.3611
  487TMC3     C 7297   4.457   1.820  12.653  0.7447 -0.4549 -0.2678
  487TMC3     O 7298   4.347   1.875  12.632  0.2873 -0.0977  0.8530
  487TMC3     H 7299   4.261   1.643  12.651 -0.0963 -0.9630  0.0992
  487TMC3    H1 7300   4.660   1.710  12.785  0.2459 -1.1179  1.0300
  487TMC3    H2 7301   4.487   1.332  12.831  0.2385  0.9096  1.8329
  487TMC3    C7 7302   4.597   1.525  12.966 -0.2810  0.4418  0.9044
  487TMC3    C8 7303   4.241   1.429  12.790  0.0230  0.7138 -0.1178
  487TMC3    O1 7304   4.694   1.589  13.012  0.0944 -0.5504 -0.2578
  487TMC3    O2 7305   4.257   1.381  12.902 -0.3543 -0.1811 -0.4843
  488MPD2     C 7306   0.315   3.609  16.348  0.9143 -0.6374 -0.0912
  488MPD2    C1 7307   0.400   3.644  16.454 -0.3337 -0.5469  0.1051
  488MPD2    C2 7308   0.359   3.622  16.584 -0.0939  0.5462  0.0494
  488MPD2    C3 7309   0.253   3.550  16.612  0.1152  0.0021  0.2585
  488MPD2    C4 7310   0.176   3.514  16.510 -0.7376  0.0252 -0.4109
  488MPD2    C5 7311   0.205   3.533  16.376 -0.5015  0.0176 -0.2838
  488MPD2     H 7312   0.423   3.666  16.659  1.5923  0.0147 -1.0961
  488MPD2    H1 7313   0.078   3.472  16.532 -0.8927 -0.1364 -1.4148
  488MPD2    H2 7314   0.342   3.631  16.245 -2.1301 -2.1223 -1.2220
  488MPD2    H3 7315   0.143   3.495  16.296  1.6853 -0.9121 -1.5342
  488MPD2     N 7316   0.227   3.525  16.750  0.3583 -0.3602  0.1341
  488MPD2    H5 7317   0.300   3.555  16.814 -0.7546  3.6218 -0.5113
  488MPD2    N1 7318   0.521   3.715  16.441  0.9003 -0.8203  0.7701
  488MPD2    H7 7319   0.559   3.756  16.525  1.1676  0.0150  0.2425
  489TMC3    C1 7320   0.125   3.453  16.949 -0.1437 -0.0942 -0.5304
  489TMC3    C2 7321   0.175   3.566  17.005 -0.6035  0.5665  0.0401
  489TMC3    C3 7322   0.162   3.570  17.142 -0.1033 -0.1208 -0.6523
  489TMC3    C4 7323   0.062   3.354  17.021 -0.0944  0.4154 -0.0426
  489TMC3    C5 7324   0.044   3.362  17.153  1.1503 -0.0375  0.3241
  489TMC3    C6 7325   0.098   3.470  17.218 -0.3884  1.1841 -0.7795
  489TMC3     C 7326   0.143   3.433  16.805  0.6377 -1.0020 -0.1903
  489TMC3     O 7327   0.074   3.356  16.748 -0.1666 -0.0250  0.2564
  489TMC3     H 7328   0.205   3.658  16.956  0.3231  0.3335  0.1639
  489TMC3    H1 7329   0.016   3.277  16.960 -0.7135  0.3975  0.4337
  489TMC3    H2 7330   0.101   3.477  17.326  1.7889 -2.3476 -0.6094
  489TMC3    C7 7331   0.003   3.246  17.229  0.3094  0.5715  0.5788
  489TMC3    C8 7332   0.264   3.675  17.197 -0.6892 -0.6487  1.0712
  489TMC3    O1 7333   4.733   3.255  17.352 -0.1281  0.6028 -0.2892
  489TMC3    O2 7334   0.346   3.704  17.113 -0.2848  0.1993  0.7265
  490MPD2     C 7335   1.115   3.228  17.027  0.5825 -0.2315  0.2586
  490MPD2    C1 7336   1.087   3.256  17.157 -0.6737  0.0201  0.4851
  490MPD2    C2 7337   1.185   3.306  17.235  0.4434  0.5691 -0.2285
  490MPD2    C3 7338   1.316   3.297  17.193 -0.0006 -0.1566  0.0948
  490MPD2    C4 7339   1.344   3.271  17.062 -0.3704  0.1560 -0.0616
  490MPD2    C5 7340   1.236   3.247  16.977 -0.0200  0.6937  0.3650
  490MPD2     H 7341   1.169   3.335  17.338 -0.4277 -1.0575  0.0943
  490MPD2    H1 7342   1.445   3.269  17.023 -1.7036 -0.6406 -3.4449
  490MPD2    H2 7343   1.039   3.180  16.967 -0.0149  0.3652  0.5368
  490MPD2    H3 7344   1.250   3.221  16.873  2.1650  1.7867  0.3765
  490MPD2     N 7345   1.430   3.309  17.272  0.2517 -0.2049  0.2031
  490MPD2    H5 7346   1.519   3.317  17.224  0.4046  0.1432  0.5447
  490MPD2    N1 7347   0.955   3.235  17.208 -0.1166 -0.4334 -0.1560
  490MPD2    H7 7348   0.894   3.196  17.137 -1.1136 -0.7575  0.8829
  491TMC3    C1 7349   0.781   3.207  17.361  0.4163 -0.2843  0.3193
  491TMC3    C2 7350   0.759   3.188  17.494  0.1021  0.2279 -0.0857
  491TMC3    C3 7351   0.693   3.076  17.544  0.8397  0.4825 -0.6852
  491TMC3    C4 7352   0.732   3.110  17.271  0.5404  0.1119  0.1674
  491TMC3    C5 7353   0.670   2.993  17.325 -0.3516 -0.8111  0.0384
  491TMC3    C6 7354   0.650   2.971  17.462  0.2687  0.0252  0.0818
  491TMC3     C 7355   0.917   3.257  17.337  0.7989  0.3123  0.5849
  491TMC3     O 7356   0.972   3.316  17.427  0.0147  0.5702 -0.5116
  491TMC3     H 7357   0.795   3.256  17.570  2.9528  0.9837 -2.1219
  491TMC3    H1 7358   0.750   3.120  17.165 -1.1822 -2.0989 -0.3576
  491TMC3    H2 7359   0.589   2.890  17.501 -0.9482  1.1497  0.5079
  491TMC3    C7 7360   0.625   2.891  17.231  0.1463 -0.0940 -0.0152
  491TMC3    C8 7361   0.664   3.057  17.686 -0.0375  0.3738 -0.0219
  491TMC3    O1 7362   0.597   2.921  17.116  0.5226  0.0375  0.1447
  491TMC3    O2 7363   0.643   3.157   0.014 -0.1314  0.0816 -0.0043
  492MPD2     C 7364   1.197   3.981  10.656 -0.7981  0.3433  0.2027
  492MPD2    C1 7365   1.085   3.903  10.675  0.6797 -0.1084  0.0884
  492MPD2    C2 7366   1.058   3.849  10.804  0.6298 -0.6849  0.6481
  492MPD2    C3 7367   1.140   3.876  10.909 -0.1119  0.3653  0.2591
  492MPD2    C4 7368   1.261   3.945  10.881  0.2901 -0.2690 -0.0265
  492MPD2    C5 7369   1.278   4.000  10.760  0.4014  0.3788 -0.2155
  492MPD2     H 7370   0.967   3.791  10.819  0.0029  0.1484  0.0581
  492MPD2    H1 7371   1.329   3.970  10.962  0.6855 -0.8848 -0.1664
  492MPD2    H2 7372   1.214   4.029  10.560  0.6804 -0.3182  0.1384
  492MPD2    H3 7373   1.358   4.072  10.747  0.6027 -0.0164 -1.1919
  492MPD2     N 7374   1.112   3.841  11.043  0.1464 -0.5420 -0.1850
  492MPD2    H5 7375   1.189   3.864  11.104  0.0447  0.8087 -0.5575
  492MPD2    N1 7376   0.995   3.880  10.569 -0.0755  0.2993  0.1379
  492MPD2    H7 7377   1.018   3.924  10.480 -2.5623  0.5686 -0.3592
  493TMC3    C1 7378   0.838   3.787  10.421  0.2033 -1.0390  0.1942
  493TMC3    C2 7379   0.898   3.853  10.315  1.0873  0.7167 -0.0408
  493TMC3    C3 7380   0.871   3.804  10.189 -0.3442 -0.3713  0.2720
  493TMC3    C4 7381   0.764   3.668  10.400  0.2079 -1.0364  0.6569
  493TMC3    C5 7382   0.749   3.621  10.279  0.0871 -0.1742 -0.3060
  493TMC3    C6 7383   0.800   3.694  10.171  0.1932  0.2106  0.1811
  493TMC3     C 7384   0.877   3.811  10.559  0.1348  0.5082 -0.3144
  493TMC3     O 7385   0.809   3.765  10.653 -0.1483 -0.1214 -0.0972
  493TMC3     H 7386   0.942   3.952  10.322  2.6998 -0.0046  0.0796
  493TMC3    H1 7387   0.722   3.623  10.489 -1.2774 -1.0118 -0.0442
  493TMC3    H2 7388   0.779   3.659  10.070 -0.8266  1.4795 -0.0432
  493TMC3    C7 7389   0.650   3.522  10.248  0.5561  0.8043 -0.0916
  493TMC3    C8 7390   0.877   3.892  10.077  0.1539 -0.2121  0.6282
  493TMC3    O1 7391   0.603   3.526  10.134  0.2557  0.2316 -0.4146
  493TMC3    O2 7392   0.789   3.874   9.991 -0.0994 -0.3665  0.2605
  494TMC3    C1 7393   2.090   0.750   0.759 -0.2172 -0.1199 -0.3622
  494TMC3    C2 7394   2.079   0.618   0.769  1.4263 -0.1485 -0.4058
  494TMC3    C3 7395   2.109   0.543   0.657  0.0165 -0.4033  0.6656
  494TMC3    C4 7396   2.126   0.808   0.639  0.8033  0.4009 -0.0726
  494TMC3    C5 7397   2.166   0.735   0.536  0.0294  0.6473 -0.1117
  494TMC3    C6 7398   2.159   0.597   0.541 -0.1544 -0.0445 -0.0884
  494TMC3     C 7399   2.010   0.813   0.858  1.0283 -0.8296 -0.1089
  494TMC3     O 7400   1.959   0.734   0.938  0.3924 -0.1104  0.0914
  494TMC3     H 7401   2.061   0.559   0.858 -0.1337 -0.5653 -0.9767
  494TMC3    H1 7402   2.130   0.916   0.628  2.5027  0.5632  2.1122
  494TMC3    H2 7403   2.191   0.530   0.462  1.0181 -0.2547  0.5583
  494TMC3    C7 7404   2.205   0.778   0.395 -0.2213  0.3321 -0.2497
  494TMC3    C8 7405   2.083   0.401   0.661  0.6786 -0.0392  0.0622
  494TMC3    O1 7406   2.233   0.692   0.316 -0.4935  0.0582 -0.2526
  494TMC3    O2 7407   2.089   0.340   0.769 -0.3389  0.1307  0.0530
  495TMC3    C1 7408   0.680   1.980  14.264  0.8899 -0.1304 -0.7860
  495TMC3    C2 7409   0.598   1.990  14.150  0.8431 -0.6680  0.1244
  495TMC3    C3 7410   0.527   2.106  14.130 -0.3912 -0.4339 -0.2976
  495TMC3    C4 7411   0.674   2.078  14.360 -0.4493 -0.0844  0.0767
  495TMC3    C5 7412   0.598   2.183  14.336 -0.0165  0.2752  0.1017
  495TMC3    C6 7413   0.522   2.207  14.219 -0.1373  0.4784 -0.3215
  495TMC3     C 7414   0.693   1.843  14.310 -0.0919 -0.0099  0.1922
  495TMC3     O 7415   0.626   1.753  14.270  0.0329 -0.7721 -0.3235
  495TMC3     H 7416   0.596   1.903  14.085 -0.5493  0.3528 -1.1959
  495TMC3    H1 7417   0.718   2.057  14.457 -1.9995 -0.7244  0.6337
  495TMC3    H2 7418   0.469   2.300  14.202 -0.1639  0.6596  0.7813
  495TMC3    C7 7419   0.540   2.220  14.466  0.1175  0.3730  0.3858
  495TMC3    C8 7420   0.426   2.111  14.035 -0.0842  0.4262 -0.0934
  495TMC3    O1 7421   0.620   2.250  14.554 -0.3440 -0.1908 -0.6947
  495TMC3    O2 7422   0.339   2.195  14.060  0.0391  0.0811 -0.2922
  496MPD2     C 7423   2.277   2.760  15.266 -0.0963  0.3165 -0.6665
  496MPD2    C1 7424   2.358   2.682  15.354  0.7692 -0.1374  0.2513
  496MPD2    C2 7425   2.315   2.556  15.393  0.1557 -0.5335  0.1202
  496MPD2    C3 7426   2.184   2.516  15.357 -0.6296  0.6825 -0.0798
  496MPD2    C4 7427   2.107   2.603  15.278 -0.1717  1.2893  0.4744
  496MPD2    C5 7428   2.158   2.718  15.225  0.5047 -0.0831  0.3585
  496MPD2     H 7429   2.386   2.488  15.439 -1.2961 -1.3052  1.2100
  496MPD2    H1 7430   2.004   2.577  15.257 -0.6993  1.3082  3.0329
  496MPD2    H2 7431   2.314   2.857  15.233  0.1194 -0.4726 -2.7558
  496MPD2    H3 7432   2.100   2.789  15.168  1.9531 -0.9158 -2.1473
  496MPD2     N 7433   2.143   2.385  15.398 -0.4569 -0.1986  0.0738
  496MPD2    H5 7434   2.215   2.338  15.453  0.3573  1.3528  0.3416
  496MPD2    N1 7435   2.486   2.738  15.389  0.0138  0.5176 -0.3595
  496MPD2    H7 7436   2.523   2.814  15.334  2.3123  0.4517  1.0650
  497TMC3    C1 7437   2.012   2.183  15.420 -0.0692 -0.4377 -0.2936
  497TMC3    C2 7438   1.915   2.103  15.366  0.1120  0.5527  0.4117
  497TMC3    C3 7439   1.901   1.977  15.409 -0.1857 -0.1508 -0.5127
  497TMC3    C4 7440   2.096   2.137  15.522 -0.6411  0.0479 -0.1743
  497TMC3    C5 7441   2.072   2.011  15.562  0.0107 -0.0855 -0.0881
  497TMC3    C6 7442   1.983   1.927  15.506  0.1183  0.0752  0.0266
  497TMC3     C 7443   2.026   2.322  15.369 -0.2939  0.0119 -0.6701
  497TMC3     O 7444   1.921   2.354  15.313  0.2993  0.0450 -0.3996
  497TMC3     H 7445   1.844   2.147  15.297  0.4929  0.4500 -0.0425
  497TMC3    H1 7446   2.138   2.216  15.584 -0.1057 -0.7840  0.5237
  497TMC3    H2 7447   1.963   1.826  15.540 -1.9340  0.9139  1.3352
  497TMC3    C7 7448   2.183   1.937  15.631 -0.9621 -0.2539  0.3204
  497TMC3    C8 7449   1.833   1.897  15.314 -0.3058 -0.5269 -0.4318
  497TMC3    O1 7450   2.161   1.823  15.661  0.2969 -0.4142  0.2567
  497TMC3    O2 7451   1.720   1.930  15.281 -0.1264  0.2128  0.2485
  498MPD2     C 7452   3.715   2.674   9.183 -0.1454  0.1258 -0.5359
  498MPD2    C1 7453   3.706   2.705   9.317 -0.3483 -0.1832 -0.7905
  498MPD2    C2 7454   3.642   2.619   9.403 -0.5409 -0.3390  0.1624
  498MPD2    C3 7455   3.584   2.503   9.352 -0.3080 -0.9063 -0.9322
  498MPD2    C4 7456   3.585   2.467   9.220 -0.1455 -0.1400  0.2933
  498MPD2    C5 7457   3.655   2.552   9.138  0.2022 -0.3273  0.2836
  498MPD2     H 7458   3.630   2.649   9.507  0.4090  0.1451  0.1347
  498MPD2    H1 7459   3.534   2.382   9.176  0.0670 -1.4190  2.4950
  498MPD2    H2 7460   3.760   2.741   9.111  0.1670  0.1196 -0.3467
  498MPD2    H3 7461   3.670   2.537   9.032  0.2631  2.5834 -0.1371
  498MPD2     N 7462   3.532   2.423   9.452 -0.3241  0.0739 -0.1255
  498MPD2    H5 7463   3.523   2.458   9.547  1.5025 -1.8777  0.7801
  498MPD2    N1 7464   3.754   2.826   9.366 -0.5291 -0.4791  0.7699
  498MPD2    H7 7465   3.761   2.830   9.467  0.3838 -0.3715  0.7026
  499TMC3    C1 7466   3.907   3.000   9.382 -0.0154  0.4913  0.4950
  499TMC3    C2 7467   4.036   3.020   9.351 -0.7842 -0.5105  0.3172
  499TMC3    C3 7468   4.119   3.087   9.430  0.4352 -0.3097  0.5281
  499TMC3    C4 7469   3.862   3.042   9.507  0.5044  0.5680 -0.6211
  499TMC3    C5 7470   3.947   3.113   9.586 -0.0968  0.4740  0.4878
  499TMC3    C6 7471   4.077   3.132   9.551 -0.2377 -0.2990 -0.2079
  499TMC3     C 7472   3.831   2.915   9.290 -0.1784  0.2411  0.8064
  499TMC3     O 7473   3.859   2.928   9.172 -0.3160 -0.5434 -0.4473
  499TMC3     H 7474   4.081   2.990   9.257  0.5857 -4.5084  2.2623
  499TMC3    H1 7475   3.757   3.031   9.533  0.3046  2.5302 -0.5926
  499TMC3    H2 7476   4.138   3.187   9.621 -2.6873 -0.3223  1.9280
  499TMC3    C7 7477   3.890   3.221   9.682 -0.2474 -0.5763 -0.0512
  499TMC3    C8 7478   4.232   3.152   9.355 -0.0903  0.5484 -0.4167
  499TMC3    O1 7479   3.960   3.326   9.673  0.3495  0.3182  0.1126
  499TMC3    O2 7480   4.235   3.144   9.234 -0.2938 -0.5696  0.2974
  500MPD2     C 7481   0.381   4.648  10.636 -0.1190 -0.4522 -0.4190
  500MPD2    C1 7482   0.419   4.663  10.503 -0.3712  0.1250 -0.3195
  500MPD2    C2 7483   0.325   4.674  10.410  0.1260 -0.8245 -0.3524
  500MPD2    C3 7484   0.194   4.680  10.442 -0.1123  0.1871  0.4813
  500MPD2    C4 7485   0.154   4.678  10.575 -0.0472  0.2724 -0.9247
  500MPD2    C5 7486   0.250   4.668  10.675  0.1038  0.3524  0.2543
  500MPD2     H 7487   0.354   4.678  10.305 -2.0392  0.3030 -0.9117
  500MPD2    H1 7488   0.049   4.698  10.591 -0.8249 -0.6322 -4.7996
  500MPD2    H2 7489   0.459   4.635  10.710 -0.4905 -0.6998 -0.0672
  500MPD2    H3 7490   0.224   4.659  10.780 -0.4338  0.5278  0.1351
  500MPD2     N 7491   0.090   4.677  10.347  0.8499 -0.3705  0.6809
  500MPD2    H5 7492   4.733   4.688  10.389 -0.1037 -0.0881 -1.4654
  500MPD2    N1 7493   0.560   4.647  10.459 -0.6438  0.0037  0.4067
  500MPD2    H7 7494   0.576   4.660  10.360  1.2386 -2.7208  0.3443
  501TMC3    C1 7495   0.797   4.591  10.456  0.0185 -0.0784  0.5044
  501TMC3    C2 7496   0.809   4.692  10.357  0.3211 -0.5906  0.3739
  501TMC3    C3 7497   0.941   4.707  10.309 -0.2052 -0.1229 -0.0588
  501TMC3    C4 7498   0.900   4.530  10.522 -0.5244  0.2813  0.4832
  501TMC3    C5 7499   1.024   4.559  10.478 -0.1021  0.2975  0.4785
  501TMC3    C6 7500   1.049   4.641  10.365  0.0547 -0.4328 -0.2008
  501TMC3     C 7501   0.666   4.590  10.526  0.5275  0.5179  0.8166
  501TMC3     O 7502   0.663   4.537  10.640 -0.5462  0.3030  0.0996
  501TMC3     H 7503   0.725   0.013  10.317  1.0242 -0.1407 -0.4735
  501TMC3    H1 7504   0.884   4.439  10.579  3.2785  0.4843  1.8736
  501TMC3    H2 7505   1.151   4.661  10.334 -0.2806 -1.2913 -1.8418
  501TMC3    C7 7506   1.134   4.502  10.546 -0.3196 -0.5218 -0.3396
  501TMC3    C8 7507   0.974   0.083  10.229 -0.5639 -0.2797 -0.1393
  501TMC3    O1 7508   1.119   4.510  10.668 -0.0282 -0.2368  0.6426
  501TMC3    O2 7509   1.095   0.107  10.222  0.8106 -0.1908  0.5527
  502TMC3    C1 7510   0.005   2.498  14.871 -0.4872 -0.7264  0.1993
  502TMC3    C2 7511   4.731   2.593  14.769 -0.6095 -0.2443  0.4312
  502TMC3    C3 7512   4.620   2.677  14.750 -0.1670  0.3105 -0.7225
  502TMC3    C4 7513   4.629   2.489  14.956  0.6472  1.0284  0.4576
  502TMC3    C5 7514   4.520   2.578  14.940 -0.1398  0.1455  0.0472
  502TMC3    C6 7515   4.515   2.662  14.835 -0.3045 -0.1897 -0.0284
  502TMC3     C 7516   0.127   2.514  14.951 -0.8668  0.1339  0.2557
  502TMC3     O 7517   0.229   2.526  14.887  0.2020 -0.0296  0.4798
  502TMC3     H 7518   0.092   2.618  14.725 -1.2091  0.9438 -0.1921
  502TMC3    H1 7519   4.634   2.421  15.040 -0.7001 -1.6649 -1.6615
  502TMC3    H2 7520   4.439   2.740  14.832 -0.1408 -0.1870 -3.3988
  502TMC3    C7 7521   4.462   2.606  15.071  0.0129  0.6737 -0.0027
  502TMC3    C8 7522   4.629   2.815  14.704 -0.1351 -0.4222  0.0032
  502TMC3    O1 7523   4.541   2.601  15.162  0.3931 -0.1832 -0.2348
  502TMC3    O2 7524   4.587   2.901  14.781  0.2567  0.4129  0.3112
  503MPD2     C 7525   2.058   4.040  17.590 -0.9071  0.1304  0.7320
  503MPD2    C1 7526   2.175   4.101  17.540  0.1038  0.3415 -0.1529
  503MPD2    C2 7527   2.292   4.024  17.518 -0.0543  0.3555 -0.3220
  503MPD2    C3 7528   2.301   3.895  17.557 -0.4692  0.8082 -0.3552
  503MPD2    C4 7529   2.186   3.839  17.607  0.2581  0.0220 -0.1921
  503MPD2    C5 7530   2.064   3.912  17.619  0.6346  0.4406  0.1484
  503MPD2     H 7531   2.379   4.061  17.464 -1.9782  2.3311 -2.0973
  503MPD2    H1 7532   2.167   3.736  17.634 -0.6606  0.5884  1.3059
  503MPD2    H2 7533   1.960   4.086  17.594 -0.7145  0.5484  0.6463
  503MPD2    H3 7534   1.978   3.865  17.667  0.0671  0.0568 -1.2425
  503MPD2     N 7535   2.422   3.823  17.548 -0.4113  0.1202  0.4297
  503MPD2    H5 7536   2.508   3.875  17.534 -0.4974  0.3573  0.7719
  503MPD2    N1 7537   2.183   4.239  17.497 -0.3753  0.6375 -0.2011
  503MPD2    H7 7538   2.271   4.277  17.464  0.3857  0.0080  1.0842
  504TMC3    C1 7539   2.568   3.630  17.539 -0.2168 -0.3811 -0.2084
  504TMC3    C2 7540   2.594   3.508  17.595  0.2402 -0.4208 -0.2126
  504TMC3    C3 7541   2.723   3.462  17.577 -0.6261  0.6311  0.2658
  504TMC3    C4 7542   2.654   3.700  17.459  0.3341  1.0324  0.2850
  504TMC3    C5 7543   2.767   3.631  17.427 -0.0702 -0.2403  0.1081
  504TMC3    C6 7544   2.816   3.523  17.500  0.2378  0.1843 -0.2986
  504TMC3     C 7545   2.432   3.687  17.567 -0.5194 -0.4276  0.3397
  504TMC3     O 7546   2.341   3.607  17.567  0.0452 -0.2033 -0.3062
  504TMC3     H 7547   2.516   3.469  17.659 -0.3303 -0.4139 -0.9090
  504TMC3    H1 7548   2.622   3.791  17.409 -1.6945 -0.8853 -1.9128
  504TMC3    H2 7549   2.913   3.478  17.486  0.4067  0.8043 -1.0966
  504TMC3    C7 7550   2.857   3.705  17.337 -0.2093 -0.3858  0.8175
  504TMC3    C8 7551   2.761   3.339  17.638 -0.6086  0.1963 -0.1976
  504TMC3    O1 7552   2.800   3.758  17.241  0.3169  0.0435  0.4026
  504TMC3    O2 7553   2.823   3.264  17.562  0.2376  0.1743 -0.0842
  505MPD2     C 7554   2.468   1.667   9.941 -0.5119  0.0850 -0.0101
  505MPD2    C1 7555   2.511   1.694  10.064  0.1109  0.1653 -0.3646
  505MPD2    C2 7556   2.504   1.830  10.101  0.7987  0.3286  1.5186
  505MPD2    C3 7557   2.449   1.934  10.017 -0.0209 -0.1452 -0.3566
  505MPD2    C4 7558   2.405   1.896   9.894 -0.3682 -0.0123 -0.8978
  505MPD2    C5 7559   2.411   1.761   9.857 -0.1562 -0.2360 -1.0294
  505MPD2     H 7560   2.538   1.866  10.197  0.4146  1.8949  1.0677
  505MPD2    H1 7561   2.337   1.954   9.832 -1.0647  0.6824  0.5201
  505MPD2    H2 7562   2.463   1.563   9.913 -0.7372 -0.3156  1.4765
  505MPD2    H3 7563   2.360   1.729   9.766  0.3335  1.1745 -1.7927
  505MPD2     N 7564   2.443   2.066  10.068 -0.2679 -0.2748 -0.0441
  505MPD2    H5 7565   2.480   2.070  10.163  0.9554 -0.2619 -0.5121
  505MPD2    N1 7566   2.565   1.593  10.147 -0.2545  0.1673 -0.0205
  505MPD2    H7 7567   2.558   1.498  10.111 -1.0579  0.0907  0.3467
  506TMC3    C1 7568   2.731   1.514  10.312  0.0762 -0.1273 -0.0869
  506TMC3    C2 7569   2.801   1.454  10.213  0.2893 -0.2522 -0.0315
  506TMC3    C3 7570   2.939   1.467  10.226  0.3086 -0.3024 -0.0953
  506TMC3    C4 7571   2.799   1.567  10.413  0.8072  0.5196 -1.0551
  506TMC3    C5 7572   2.931   1.579  10.425  0.2124 -0.0058 -0.0748
  506TMC3    C6 7573   3.006   1.540  10.324  0.5983 -0.4605 -0.2671
  506TMC3     C 7574   2.641   1.619  10.264  0.0899  0.1712 -0.6801
  506TMC3     O 7575   2.673   1.731  10.300 -0.0037 -0.1637  0.4175
  506TMC3     H 7576   2.765   1.420  10.117 -0.5085  2.8240 -0.8363
  506TMC3    H1 7577   2.748   1.610  10.499  1.5182 -1.6396  0.4502
  506TMC3    H2 7578   3.112   1.559  10.318  0.3756  0.6227 -0.8329
  506TMC3    C7 7579   2.980   1.703  10.490 -0.0965 -0.2487 -0.5209
  506TMC3    C8 7580   3.010   1.443  10.106  0.1860  0.0422  1.1566
  506TMC3    O1 7581   3.103   1.705  10.506 -0.5074  0.9472  0.1194
  506TMC3    O2 7582   2.994   1.337  10.055  0.1327  0.5551 -0.7338
  507TMC3    C1 7583   3.324   3.316  14.829  0.3287  0.8880  0.5886
  507TMC3    C2 7584   3.247   3.246  14.731  0.3656 -0.7139  0.3005
  507TMC3    C3 7585   3.215   3.304  14.613  1.0309 -0.4520  0.2438
  507TMC3    C4 7586   3.376   3.436  14.788  0.2669 -0.2420  0.0008
  507TMC3    C5 7587   3.363   3.490  14.665  0.3250 -0.2011 -0.2262
  507TMC3    C6 7588   3.278   3.428  14.578 -0.0272  0.0103  0.2415
  507TMC3     C 7589   3.260   3.326  14.959  0.2932  0.5345 -0.7569
  507TMC3     O 7590   3.314   3.377  15.056 -0.0050 -0.2949 -0.3061
  507TMC3     H 7591   3.206   3.149  14.759  1.3251 -1.6787 -1.6275
  507TMC3    H1 7592   3.422   3.503  14.859  1.3510  0.6954 -1.5785
  507TMC3    H2 7593   3.263   3.468  14.478  1.6894  0.5703  0.2171
  507TMC3    C7 7594   3.313   3.625  14.676 -0.1741 -0.8041  0.1044
  507TMC3    C8 7595   3.063   3.307  14.596  0.3114  0.1285 -0.7192
  507TMC3    O1 7596   3.203   3.647  14.625 -0.1542  0.1719 -0.4371
  507TMC3    O2 7597   3.011   3.210  14.649 -0.1384  0.1827  0.3393
  508MPD2     C 7598   4.362   0.670  15.961 -0.4249  0.1461 -0.8115
  508MPD2    C1 7599   4.321   0.772  16.040 -0.1068 -0.5071  0.8440
  508MPD2    C2 7600   4.245   0.871  15.986 -0.1843 -0.1961  0.4449
  508MPD2    C3 7601   4.215   0.874  15.857  0.6351 -0.3840 -0.5477
  508MPD2    C4 7602   4.251   0.769  15.777  0.1340 -0.9785  0.2723
  508MPD2    C5 7603   4.317   0.662  15.834  0.4878 -0.1807 -0.1221
  508MPD2     H 7604   4.196   0.947  16.047  2.2595  0.3326  1.7380
  508MPD2    H1 7605   4.233   0.772  15.670 -0.7739 -0.3892  0.4384
  508MPD2    H2 7606   4.422   0.590  16.003  0.1902  1.0678  0.0588
  508MPD2    H3 7607   4.355   0.572  15.786 -1.5462 -0.8191 -0.5354
  508MPD2     N 7608   4.163   0.988  15.806  0.7849 -0.5927  0.3289
  508MPD2    H5 7609   4.148   1.069  15.866  0.1840 -1.0948  0.8477
  508MPD2    N1 7610   4.349   0.764  16.177  0.6050 -0.6305  0.1795
  508MPD2    H7 7611   4.421   0.698  16.205  0.6467 -0.9197 -0.6031
  509TMC3    C1 7612   4.056   1.356  15.554 -0.5215 -0.2024 -0.1153
  509TMC3    C2 7613   4.116   1.435  15.648  0.0883  0.3810  0.6536
  509TMC3    C3 7614   4.193   1.374  15.745 -0.1977 -0.6881 -0.4787
  509TMC3    C4 7615   4.070   1.219  15.568 -0.6500 -0.4156 -0.0505
  509TMC3    C5 7616   4.141   1.166  15.664  0.1891  0.5242  0.6333
  509TMC3    C6 7617   4.209   1.236  15.762 -1.0081 -0.2493 -0.6045
  509TMC3     C 7618   3.980   1.408  15.441  0.5729  0.1634 -0.1756
  509TMC3     O 7619   3.939   1.316  15.369 -0.1162 -0.5164  0.0212
  509TMC3     H 7620   4.105   1.543  15.652 -1.6139  0.2281 -0.1023
  509TMC3    H1 7621   4.022   1.151  15.499 -1.2716  0.4772 -0.4930
  509TMC3    H2 7622   4.270   1.194  15.841 -2.4789  0.1095  0.7058
  509TMC3    C7 7623   4.142   1.019  15.680  0.3303 -0.1616  0.6695
  509TMC3    C8 7624   4.280   1.444  15.824 -1.0228  0.2789 -0.0347
  509TMC3    O1 7625   4.131   0.952  15.581  0.3062 -0.4410 -0.2452
  509TMC3    O2 7626   4.322   1.395  15.930  0.3660 -0.0985 -0.7701
  510MPD2     C 7627   1.840   2.776  14.499 -0.9148 -0.8383  0.5340
  510MPD2    C1 7628   1.902   2.670  14.558  0.1557  0.0953 -0.0364
  510MPD2    C2 7629   2.034   2.635  14.519 -0.5960  0.5862 -0.3029
  510MPD2    C3 7630   2.113   2.719  14.447  1.1184 -0.1706 -0.6822
  510MPD2    C4 7631   2.059   2.836  14.402  0.2304  0.1130  0.1145
  510MPD2    C5 7632   1.925   2.865  14.429 -0.7383 -0.1405  0.5068
  510MPD2     H 7633   2.083   2.553  14.570 -0.8042  0.0613 -0.9546
  510MPD2    H1 7634   2.110   2.914  14.347 -0.4600  0.5248  0.0549
  510MPD2    H2 7635   1.747   2.810  14.543 -0.4339  0.0968  0.8290
  510MPD2    H3 7636   1.882   2.953  14.383  2.0928  0.3780 -1.1368
  510MPD2     N 7637   2.255   2.686  14.437 -0.8258 -0.5934 -0.8392
  510MPD2    H5 7638   2.285   2.593  14.465  0.8377  0.2349  0.1076
  510MPD2    N1 7639   1.820   2.592  14.645 -0.4724  0.0084 -0.0926
  510MPD2    H7 7640   1.730   2.623  14.680 -1.0467  0.4364 -1.9352
  511TMC3    C1 7641   1.737   2.395  14.756 -0.4603 -0.0874 -0.5576
  511TMC3    C2 7642   1.667   2.440  14.864 -0.0385  0.2350 -0.2629
  511TMC3    C3 7643   1.591   2.354  14.931 -0.2374  0.5054  0.8896
  511TMC3    C4 7644   1.730   2.262  14.731  0.3199  0.0001  0.3681
  511TMC3    C5 7645   1.649   2.178  14.806 -1.1778  0.2396  0.0691
  511TMC3    C6 7646   1.575   2.218  14.910 -0.7681  0.2502 -0.6986
  511TMC3     C 7647   1.840   2.456  14.674 -0.8954 -0.6438 -0.3013
  511TMC3     O 7648   1.928   2.384  14.624 -0.2138  0.0403 -0.6881
  511TMC3     H 7649   1.669   2.546  14.883  0.8479  0.1394  0.1763
  511TMC3    H1 7650   1.770   2.231  14.635  0.3792  0.4478  0.2457
  511TMC3    H2 7651   1.483   2.173  14.945  0.7792 -1.1864  1.5270
  511TMC3    C7 7652   1.604   2.052  14.735  0.1562 -0.0303  0.8072
  511TMC3    C8 7653   1.540   2.402  15.051  0.1623 -0.0610 -0.4291
  511TMC3    O1 7654   1.618   2.044  14.611  0.7672  0.1230  0.2208
  511TMC3    O2 7655   1.545   2.523  15.071  0.1447 -0.3180 -0.0106
  512TMC3    C1 7656   0.929   2.171  13.121  0.7159 -0.0784 -0.0801
  512TMC3    C2 7657   1.019   2.109  13.211  0.2408 -0.8143  0.4225
  512TMC3    C3 7658   0.977   2.002  13.277 -0.2144 -0.6143  0.1862
  512TMC3    C4 7659   0.821   2.103  13.072 -0.1924 -0.2564  0.0604
  512TMC3    C5 7660   0.784   1.989  13.131 -0.3223  1.0379 -0.3815
  512TMC3    C6 7661   0.861   1.940  13.239 -0.0396  0.0674 -0.4854
  512TMC3     C 7662   0.960   2.297  13.065  0.4253 -0.1138 -0.6313
  512TMC3     O 7663   0.863   2.367  13.033  0.5628 -0.6840 -0.0790
  512TMC3     H 7664   1.101   2.171  13.245  0.3472 -0.7321  0.0146
  512TMC3    H1 7665   0.763   2.137  12.987 -0.9113  0.8627  0.9977
  512TMC3    H2 7666   0.819   1.860  13.297  3.4640 -1.5284 -0.1589
  512TMC3    C7 7667   0.683   1.901  13.065 -0.1567  0.0363  0.0260
  512TMC3    C8 7668   1.035   1.952  13.395  0.3701 -0.0790  0.4373
  512TMC3    O1 7669   0.593   1.953  13.003 -0.6072  0.5114  0.1961
  512TMC3    O2 7670   1.023   1.832  13.426  0.2562 -0.0433 -0.3652
  513MPD2     C 7671   2.220   2.218  12.993 -0.7414  0.4610  0.1270
  513MPD2    C1 7672   2.252   2.083  12.986 -0.0813 -0.2084  0.3770
  513MPD2    C2 7673   2.279   2.006  13.096  0.9923  0.1147 -0.1624
  513MPD2    C3 7674   2.264   2.066  13.219  0.4013 -0.4714  0.4499
  513MPD2    C4 7675   2.223   2.198  13.233  0.2937 -0.0874 -0.7595
  513MPD2    C5 7676   2.213   2.272  13.118 -0.1957  0.0316  0.3028
  513MPD2     H 7677   2.325   1.909  13.078  1.5752  0.4546 -0.4953
  513MPD2    H1 7678   2.208   2.251  13.327  2.8888 -0.8365  0.0601
  513MPD2    H2 7679   2.212   2.278  12.903  2.4163 -2.4316 -2.0596
  513MPD2    H3 7680   2.184   2.377  13.118 -2.5163 -0.5983 -0.1755
  513MPD2     N 7681   2.288   1.981  13.328 -0.0322  0.6529 -0.1259
  513MPD2    H5 7682   2.319   1.887  13.304  1.4070  0.7593  1.3159
  513MPD2    N1 7683   2.292   2.034  12.862  0.1032 -0.2711  0.1225
  513MPD2    H7 7684   2.297   2.101  12.786 -1.6518 -0.0769  0.1820
  514TMC3    C1 7685   2.324   1.876  12.688 -0.5276 -0.4051  0.0419
  514TMC3    C2 7686   2.420   1.955  12.625 -0.0329 -0.0940 -0.9328
  514TMC3    C3 7687   2.506   1.896  12.541 -0.8437 -0.4326  0.1867
  514TMC3    C4 7688   2.325   1.741  12.667 -0.3180  0.8937  0.1619
  514TMC3    C5 7689   2.426   1.683  12.594 -0.3963 -0.4584  0.4324
  514TMC3    C6 7690   2.522   1.758  12.535  0.1946  0.1208  0.4046
  514TMC3     C 7691   2.283   1.901  12.827 -0.2055  0.4814 -0.0804
  514TMC3     O 7692   2.256   1.807  12.896  0.0954  0.5525  1.2509
  514TMC3     H 7693   2.407   2.062  12.628  0.5386 -0.0130 -1.2652
  514TMC3    H1 7694   2.252   1.675  12.714  1.2076  0.1792  1.5196
  514TMC3    H2 7695   2.604   1.703  12.492  0.4573 -0.8730  2.1732
  514TMC3    C7 7696   2.482   1.572  12.675  0.0541 -0.3111 -0.4500
  514TMC3    C8 7697   2.608   1.982  12.491  0.7012 -0.0881  0.1181
  514TMC3    O1 7698   2.573   1.513  12.617  0.0810  0.1143 -0.2553
  514TMC3    O2 7699   2.613   2.100  12.532  0.1494  0.2676  0.8040
  515MPD2     C 7700   0.386   3.938  14.744  0.2371  0.3620  0.1585
  515MPD2    C1 7701   0.505   3.863  14.755 -0.2039  0.2188 -0.4320
  515MPD2    C2 7702   0.616   3.908  14.818  0.5644  0.4910  0.4800
  515MPD2    C3 7703   0.618   4.043  14.864  0.4564 -0.4616 -0.3982
  515MPD2    C4 7704   0.504   4.117  14.850  0.2659 -0.4640  0.4895
  515MPD2    C5 7705   0.385   4.062  14.801  0.0021  0.1524  0.3049
  515MPD2     H 7706   0.701   3.846  14.843 -0.1163 -0.8680 -0.5883
  515MPD2    H1 7707   0.504   4.222  14.879 -1.1023 -0.6905  1.3210
  515MPD2    H2 7708   0.301   3.909  14.685  0.3834  0.3533 -0.0474
  515MPD2    H3 7709   0.297   4.124  14.788  1.8211  2.4243 -1.0931
  515MPD2     N 7710   0.733   4.091  14.929  0.0205 -0.1212 -0.2818
  515MPD2    H5 7711   0.724   4.175  14.985  1.1759 -0.0050 -0.2759
  515MPD2    N1 7712   0.500   3.737  14.695  0.1611 -0.1443  0.4268
  515MPD2    H7 7713   0.416   3.701  14.651  0.7814 -2.4201  1.0738
  516TMC3    C1 7714   0.577   3.535  14.614 -0.3402 -0.1359  0.5032
  516TMC3    C2 7715   0.505   3.529  14.496  0.1843  0.5090  0.0784
  516TMC3    C3 7716   0.524   3.418  14.419  0.1724  0.2130  0.6123
  516TMC3    C4 7717   0.654   3.429  14.661 -0.6747  0.0356  1.3090
  516TMC3    C5 7718   0.650   3.309  14.593 -0.4311  0.2029  0.1871
  516TMC3    C6 7719   0.594   3.306  14.470 -0.1909  0.3129 -0.3698
  516TMC3     C 7720   0.609   3.660  14.675 -0.1699 -0.2799 -0.0308
  516TMC3     O 7721   0.725   3.670  14.700  0.0180 -0.8807  0.2502
  516TMC3     H 7722   0.452   3.615  14.458  0.3083  0.6657  0.2612
  516TMC3    H1 7723   0.684   3.430  14.765 -0.4939  0.4639  1.2521
  516TMC3    H2 7724   0.625   3.222  14.409  0.7008  0.7902 -0.5818
  516TMC3    C7 7725   0.677   3.184  14.672 -0.4238  0.0010  0.0449
  516TMC3    C8 7726   0.476   3.417  14.279  0.2822 -0.0289  0.0866
  516TMC3    O1 7727   0.724   3.205  14.783  0.5733 -0.1948  0.1079
  516TMC3    O2 7728   0.382   3.495  14.264  0.5428  0.1607  0.4950
  517MPD2     C 7729   1.225   4.606   0.777 -0.1192 -0.0642  0.3841
  517MPD2    C1 7730   1.256   4.672   0.662  0.2079  0.2302 -0.5424
  517MPD2    C2 7731   1.334   0.051   0.671  0.6498 -0.0469 -0.1743
  517MPD2    C3 7732   1.376   0.110   0.795  0.3179  0.0707  0.0239
  517MPD2    C4 7733   1.330   0.039   0.910 -0.5505 -0.0724 -0.6940
  517MPD2    C5 7734   1.266   4.656   0.897 -0.6400  0.3432  0.4759
  517MPD2     H 7735   1.350   0.109   0.581 -0.8037  0.9867  0.2339
  517MPD2    H1 7736   1.364   0.056   1.012 -0.3164  0.0351 -0.7895
  517MPD2    H2 7737   1.180   4.508   0.773 -1.7563  0.7184 -0.3875
  517MPD2    H3 7738   1.238   4.606   0.990 -0.5597  0.1224  0.3792
  517MPD2     N 7739   1.453   0.227   0.811 -0.1711  0.1495 -0.1500
  517MPD2    H5 7740   1.479   0.252   0.906  0.4309 -0.6580 -0.1008
  517MPD2    N1 7741   1.210   4.626   0.530 -0.7597 -0.5576  0.0105
  517MPD2    H7 7742   1.262   4.678   0.460  0.0771  2.0104  2.5221
  518TMC3    C1 7743   1.090   4.513   0.366 -0.5536  0.3556  0.2655
  518TMC3    C2 7744   0.973   4.455   0.332 -0.2056  0.2097  0.5908
  518TMC3    C3 7745   0.934   4.451   0.203  0.1643 -0.2891  0.5341
  518TMC3    C4 7746   1.192   4.564   0.288 -0.5054 -0.1385 -0.6464
  518TMC3    C5 7747   1.159   4.536   0.157  0.6316 -1.0379  0.2386
  518TMC3    C6 7748   1.035   4.489   0.115 -0.4653  0.3981  0.2856
  518TMC3     C 7749   1.109   4.533   0.508 -0.2770  0.3898  0.4803
  518TMC3     O 7750   1.045   4.469   0.588 -0.7122 -0.0298  0.1999
  518TMC3     H 7751   0.905   4.442   0.415 -0.4643 -2.0616  0.0158
  518TMC3    H1 7752   1.295   4.581   0.314 -0.4528 -0.4298 -0.6642
  518TMC3    H2 7753   1.018   4.483   0.008 -0.7165 -0.0790  0.3517
  518TMC3    C7 7754   1.267   4.494   0.074 -0.5799 -0.1947  0.5482
  518TMC3    C8 7755   0.867   4.328   0.162 -0.3167  0.9452 -0.0911
  518TMC3    O1 7756   1.246   4.395  17.734  0.3258  0.3495 -0.5575
  518TMC3    O2 7757   0.923   4.264   0.076 -0.5686 -0.6110 -0.3706
  519MPD2     C 7758   2.206   3.570  14.500  0.0361 -0.4592 -0.6581
  519MPD2    C1 7759   2.152   3.589  14.376  0.2249  0.7153  0.4177
  519MPD2    C2 7760   2.216   3.537  14.265 -0.0092 -0.1184  0.6263
  519MPD2    C3 7761   2.328   3.460  14.280 -0.3295  0.2148 -0.1106
  519MPD2    C4 7762   2.384   3.449  14.403 -0.0087 -0.4334 -0.2459
  519MPD2    C5 7763   2.323   3.500  14.514 -0.7405  0.5481 -0.4146
  519MPD2     H 7764   2.177   3.552  14.165 -1.0118 -2.1804  0.6966
  519MPD2    H1 7765   2.468   3.382  14.420 -0.1236 -0.1385  1.5483
  519MPD2    H2 7766   2.152   3.593  14.591 -1.5099  0.3462 -1.7765
  519MPD2    H3 7767   2.350   3.466  14.613 -3.1203 -2.4947 -0.8036
  519MPD2     N 7768   2.394   3.408  14.169 -0.1426  0.1245  0.0601
  519MPD2    H5 7769   2.489   3.373  14.173 -0.5283 -0.9043  0.2055
  519MPD2    N1 7770   2.027   3.656  14.362 -0.0409  0.2350  0.3751
  519MPD2    H7 7771   1.982   3.680  14.449 -0.2072  0.0192  0.3484
  520TMC3    C1 7772   2.408   3.313  13.943  0.2192 -0.4537 -0.0692
  520TMC3    C2 7773   2.337   3.301  13.830 -0.5489  0.6679 -0.0763
  520TMC3    C3 7774   2.406   3.243  13.719  0.1521 -0.0741 -1.1420
  520TMC3    C4 7775   2.536   3.265  13.946 -0.3435 -0.0519  0.3346
  520TMC3    C5 7776   2.599   3.205  13.842  0.0674 -0.8393  0.5338
  520TMC3    C6 7777   2.540   3.199  13.720 -0.0387  0.2986 -0.2590
  520TMC3     C 7778   2.329   3.372  14.050 -0.2039 -0.3581 -0.1600
  520TMC3     O 7779   2.210   3.386  14.024  0.2240  0.2314  0.1642
  520TMC3     H 7780   2.239   3.341  13.807 -0.8387  0.6544  1.1213
  520TMC3    H1 7781   2.585   3.276  14.043 -1.4277 -1.1856  1.0100
  520TMC3    H2 7782   2.594   3.185  13.627  2.3683 -0.9192  1.3424
  520TMC3    C7 7783   2.709   3.118  13.872  0.5235  0.1353  0.0429
  520TMC3    C8 7784   2.339   3.236  13.592  0.0551  0.1792 -1.1071
  520TMC3    O1 7785   2.713   3.086  13.994 -0.3648  0.4185 -0.0487
  520TMC3    O2 7786   2.408   3.228  13.493 -0.1655  0.1173  0.1993
  521MPD2     C 7787   3.224   1.788  17.434  0.3046 -0.8580  0.7535
  521MPD2    C1 7788   3.201   1.754  17.308 -0.1226 -0.6782 -0.6973
  521MPD2    C2 7789   3.311   1.729  17.223  0.7362 -0.4111 -1.2965
  521MPD2    C3 7790   3.438   1.746  17.273 -0.1642  0.5450  0.8303
  521MPD2    C4 7791   3.456   1.777  17.401 -0.0923  0.0785  0.3802
  521MPD2    C5 7792   3.353   1.797  17.488  0.0194  0.0934  0.1021
  521MPD2     H 7793   3.289   1.699  17.121 -0.1521 -0.5035 -1.0712
  521MPD2    H1 7794   3.554   1.793  17.445  0.9371 -0.2916 -1.7748
  521MPD2    H2 7795   3.142   1.790  17.506  0.0563  0.3240  0.4275
  521MPD2    H3 7796   3.379   1.807  17.592  0.5478  1.6435 -0.1730
  521MPD2     N 7797   3.549   1.712  17.186 -0.7999  0.4693  0.4571
  521MPD2    H5 7798   3.534   1.684  17.090 -0.1929  0.4198  0.3755
  521MPD2    N1 7799   3.067   1.751  17.268  0.0292  0.1724  0.2919
  521MPD2    H7 7800   2.996   1.739  17.340  0.0422  0.5971  0.3794
  522TMC3    C1 7801   3.769   1.696  17.104  0.3580 -0.3790  1.0711
  522TMC3    C2 7802   3.885   1.643  17.133 -0.2592 -0.9832 -0.0044
  522TMC3    C3 7803   3.975   1.622  17.033 -0.3368 -0.2003  0.5467
  522TMC3    C4 7804   3.737   1.739  16.977 -0.0686  0.7013 -0.1656
  522TMC3    C5 7805   3.825   1.722  16.877  0.1535  0.1936  0.2325
  522TMC3    C6 7806   3.942   1.651  16.908  0.1377 -0.8673 -0.0787
  522TMC3     C 7807   3.682   1.714  17.218 -0.1917 -0.2960  0.1169
  522TMC3     O 7808   3.736   1.712  17.323  0.3170 -0.5163  0.1376
  522TMC3     H 7809   3.920   1.614  17.232 -0.1029  1.2240  0.5979
  522TMC3    H1 7810   3.647   1.799  16.967  0.2031  0.6641 -2.9800
  522TMC3    H2 7811   4.011   1.630  16.827  0.1182  0.4174 -0.4280
  522TMC3    C7 7812   3.799   1.756  16.738  0.0507 -0.0153  0.0782
  522TMC3    C8 7813   4.110   1.574  17.069 -0.3768  0.3112 -0.0790
  522TMC3    O1 7814   3.899   1.758  16.661  0.1876  0.0534  0.2735
  522TMC3    O2 7815   4.163   1.604  17.173  0.7039 -0.3546  0.0279
  523MPD2     C 7816   1.416   2.148   9.871  0.1427  0.2397 -0.8183
  523MPD2    C1 7817   1.326   2.061   9.817 -0.1201 -0.0106  0.1458
  523MPD2    C2 7818   1.264   2.091   9.701  0.0774  0.2253  0.2410
  523MPD2    C3 7819   1.273   2.217   9.645  0.4128  0.4107 -0.4120
  523MPD2    C4 7820   1.342   2.317   9.716  0.0401  0.0212  0.4835
  523MPD2    C5 7821   1.418   2.279   9.825 -0.8407 -0.3175  0.2834
  523MPD2     H 7822   1.206   2.011   9.656 -0.2960  1.6471 -1.8180
  523MPD2    H1 7823   1.353   2.422   9.690  0.5786 -0.1364  0.0907
  523MPD2    H2 7824   1.465   2.126   9.965 -1.2539 -2.3750 -0.6947
  523MPD2    H3 7825   1.469   2.361   9.874  0.2894  0.8488 -2.9004
  523MPD2     N 7826   1.198   2.261   9.529 -0.6487 -0.1671  0.2832
  523MPD2    H5 7827   1.184   2.361   9.521  1.5592  0.1596  0.4773
  523MPD2    N1 7828   1.307   1.926   9.876 -0.2924  0.4616  0.5151
  523MPD2    H7 7829   1.360   1.918   9.962  0.0086 -0.1897  0.2727
  524TMC3    C1 7830   1.044   2.237   9.355  0.1863  0.2072 -0.4850
  524TMC3    C2 7831   1.011   2.165   9.247 -0.2681  0.2281 -0.1560
  524TMC3    C3 7832   0.942   2.220   9.143  0.0655 -0.3575  0.8809
  524TMC3    C4 7833   0.984   2.360   9.380 -0.0516 -0.9051 -0.0668
  524TMC3    C5 7834   0.912   2.415   9.281 -0.0988 -0.4058  0.5333
  524TMC3    C6 7835   0.902   2.354   9.155 -0.0578 -0.4339 -0.2420
  524TMC3     C 7836   1.128   2.169   9.455 -0.6670  0.8681 -0.4222
  524TMC3     O 7837   1.131   2.046   9.453  0.2240  0.2099 -0.6232
  524TMC3     H 7838   1.059   2.070   9.224  0.2575  0.3699  0.3726
  524TMC3    H1 7839   0.985   2.399   9.481 -0.2301 -0.3789 -0.2691
  524TMC3    H2 7840   0.869   2.409   9.068 -0.6510  0.6895  0.6966
  524TMC3    C7 7841   0.830   2.526   9.323 -0.2576 -0.3820  0.3907
  524TMC3    C8 7842   0.933   2.149   9.015 -0.4219  0.5156 -0.5470
  524TMC3    O1 7843   0.866   2.583   9.424 -0.1764  0.0798 -0.1921
  524TMC3    O2 7844   0.988   2.041   9.005 -0.7832 -0.6207 -0.4388
  525MPD2     C 7845   3.554   2.930  14.450  0.1850  0.0627  0.2008
  525MPD2    C1 7846   3.680   2.939  14.504  0.1597  0.2024 -0.5520
  525MPD2    C2 7847   3.749   3.060  14.505 -0.2676  0.5393  0.2952
  525MPD2    C3 7848   3.693   3.171  14.444  0.2395 -0.6667 -0.0296
  525MPD2    C4 7849   3.561   3.159  14.392  0.0924  0.4334  0.0510
  525MPD2    C5 7850   3.491   3.038  14.394 -0.5448 -0.6529 -0.2485
  525MPD2     H 7851   3.833   3.077  14.571  0.1823  1.8400 -0.6096
  525MPD2    H1 7852   3.503   3.245  14.359 -0.8802  0.1462  1.0184
  525MPD2    H2 7853   3.499   2.837  14.460  0.8750  0.0382  3.7323
  525MPD2    H3 7854   3.385   3.033  14.372 -0.3716  2.1917 -1.6987
  525MPD2     N 7855   3.758   3.298  14.440  0.1799 -0.2583  0.0493
  525MPD2    H5 7856   3.710   3.381  14.406  1.9006  0.3539 -0.9234
  525MPD2    N1 7857   3.737   2.832  14.578  0.3402  0.3642  0.5725
  525MPD2    H7 7858   3.833   2.838  14.610  0.1368  0.5125  1.1602
  526TMC3    C1 7859   3.767   2.626  14.679 -0.5470  0.3715  0.6494
  526TMC3    C2 7860   3.722   2.621  14.811 -0.5955 -0.4817 -0.3650
  526TMC3    C3 7861   3.806   2.582  14.913 -0.2092 -0.9364 -0.6301
  526TMC3    C4 7862   3.905   2.623  14.658  0.3134  0.1523  0.0299
  526TMC3    C5 7863   3.984   2.576  14.761  0.0572  0.8944 -0.6993
  526TMC3    C6 7864   3.936   2.554  14.885  0.3037  0.1933  0.8231
  526TMC3     C 7865   3.680   2.710  14.598 -0.2627 -0.6187  0.0222
  526TMC3     O 7866   3.575   2.660  14.572  0.1247 -0.5481 -0.1636
  526TMC3     H 7867   3.624   2.667  14.823  0.1515  0.9302  0.3949
  526TMC3    H1 7868   3.935   2.628  14.554  2.9425 -0.0832  0.7844
  526TMC3    H2 7869   4.009   2.536  14.963 -0.5372  0.7326  1.7248
  526TMC3    C7 7870   4.123   2.532  14.748  1.3882 -0.6171 -0.7772
  526TMC3    C8 7871   3.761   2.571  15.053  0.7924 -0.3932  0.2173
  526TMC3    O1 7872   4.200   2.552  14.840 -0.2035 -0.0777  0.8626
  526TMC3    O2 7873   3.852   2.580  15.132  0.4980 -0.6919  0.5293
  527MPD2     C 7874   1.498   1.655   1.059 -0.2209 -0.0842 -0.0219
  527MPD2    C1 7875   1.572   1.580   1.156 -0.1438  0.4505  0.6079
  527MPD2    C2 7876   1.702   1.559   1.124 -0.5999 -0.3362  0.3044
  527MPD2    C3 7877   1.761   1.600   1.003 -0.4374 -0.1878 -0.0059
  527MPD2    C4 7878   1.689   1.683   0.921  0.7522 -0.4480  0.0134
  527MPD2    C5 7879   1.558   1.708   0.946 -0.5111 -0.1587 -0.1949
  527MPD2     H 7880   1.762   1.505   1.197 -0.3315 -2.3725 -1.4204
  527MPD2    H1 7881   1.733   1.732   0.834 -0.6612 -2.1786 -1.6660
  527MPD2    H2 7882   1.393   1.675   1.074 -0.0248 -0.6934  2.1902
  527MPD2    H3 7883   1.498   1.775   0.885 -0.2714 -0.5474 -0.8528
  527MPD2     N 7884   1.892   1.553   0.983  0.0128  0.6016 -0.4646
  527MPD2    H5 7885   1.928   1.483   1.048 -1.8612  0.0883  0.0059
  527MPD2    N1 7886   1.526   1.551   1.295 -0.2928 -0.0888  0.0576
  527MPD2    H7 7887   1.595   1.505   1.353  0.3045  0.2978 -0.3489
  528TMC3    C1 7888   1.382   1.510   1.472 -0.4920  0.6706 -0.0604
  528TMC3    C2 7889   1.465   1.571   1.564 -0.4177  0.4264  0.5627
  528TMC3    C3 7890   1.421   1.561   1.696 -0.1610  0.1907 -0.4567
  528TMC3    C4 7891   1.272   1.442   1.503 -0.3704 -0.2235  0.9224
  528TMC3    C5 7892   1.236   1.436   1.634 -0.2277  0.5897 -0.7984
  528TMC3    C6 7893   1.307   1.502   1.728  0.1810 -0.4080  0.5346
  528TMC3     C 7894   1.392   1.530   1.330  0.8116 -0.3671 -0.5990
  528TMC3     O 7895   1.293   1.544   1.257  0.5660 -0.3427 -0.4487
  528TMC3     H 7896   1.549   1.634   1.537 -1.5308  0.6386 -2.3984
  528TMC3    H1 7897   1.227   1.390   1.419  3.1344 -0.2567 -0.9032
  528TMC3    H2 7898   1.277   1.490   1.832  0.5266  1.7285  0.8688
  528TMC3    C7 7899   1.107   1.378   1.674 -0.2555  0.6032  0.6247
  528TMC3    C8 7900   1.491   1.640   1.794 -0.2474 -0.4955 -0.9138
  528TMC3    O1 7901   1.050   1.424   1.771 -0.0165  0.5558  0.0369
  528TMC3    O2 7902   1.616   1.647   1.788  0.1277  0.2387  0.0498
  529MPD2     C 7903   4.104   4.083   1.073  0.0809  0.0044 -0.4125
  529MPD2    C1 7904   4.192   4.021   0.989 -0.1418  0.0199  1.6351
  529MPD2    C2 7905   4.216   4.080   0.871 -0.8203 -0.5578  0.2695
  529MPD2    C3 7906   4.149   4.192   0.826  0.3287 -0.1637 -0.3029
  529MPD2    C4 7907   4.059   4.254   0.917 -0.3641 -0.2428  0.5007
  529MPD2    C5 7908   4.040   4.200   1.037  0.8199 -0.0005 -0.3015
  529MPD2     H 7909   4.288   4.031   0.806 -1.1837  0.1190 -0.6415
  529MPD2    H1 7910   4.018   4.351   0.891 -0.7940 -1.3578 -3.1079
  529MPD2    H2 7911   4.082   4.052   1.175  0.8667 -1.7800 -0.7852
  529MPD2    H3 7912   3.983   4.255   1.111 -0.5388 -1.4227 -0.2906
  529MPD2     N 7913   4.166   4.248   0.696 -0.3124  0.2025  0.3552
  529MPD2    H5 7914   4.118   4.337   0.683  0.5084  0.8291  1.5544
  529MPD2    N1 7915   4.253   3.902   1.013 -0.4299 -0.2152  1.0110
  529MPD2    H7 7916   4.304   3.869   0.931  1.0064  0.2075  1.7409
  530TMC3    C1 7917   4.301   3.701   1.122 -0.0683  0.2968  0.0453
  530TMC3    C2 7918   4.414   3.689   1.043  0.3357  0.2236  0.2778
  530TMC3    C3 7919   4.480   3.569   1.048  0.2357  0.2624  0.2196
  530TMC3    C4 7920   4.263   3.602   1.209 -0.3008 -0.2296 -0.6819
  530TMC3    C5 7921   4.337   3.484   1.218 -0.6919 -0.1367  0.1041
  530TMC3    C6 7922   4.450   3.462   1.129 -0.3085  0.8522 -0.4776
  530TMC3     C 7923   4.250   3.833   1.131 -0.3665 -0.3235  0.1733
  530TMC3     O 7924   4.188   3.858   1.232 -0.6869  0.6325  0.6251
  530TMC3     H 7925   4.454   3.763   0.974  1.0066 -0.4951 -0.0937
  530TMC3    H1 7926   4.176   3.624   1.271  0.9657  1.7122  0.4003
  530TMC3    H2 7927   4.498   3.365   1.134 -0.5244  0.7609 -0.1947
  530TMC3    C7 7928   4.319   3.391   1.331  0.8846 -0.8767  0.9864
  530TMC3    C8 7929   4.565   3.540   0.933 -0.6006  0.5747  0.2096
  530TMC3    O1 7930   4.380   3.283   1.328 -0.0675 -0.3633  0.3414
  530TMC3    O2 7931   4.543   3.606   0.832 -0.0573  0.6164  0.0371
  531MPD2     C 7932   2.749   1.529  13.106 -0.6165  0.6236 -0.8300
  531MPD2    C1 7933   2.642   1.607  13.133 -0.6778  0.7544 -0.1645
  531MPD2    C2 7934   2.548   1.626  13.023 -0.1653  0.3373  0.0290
  531MPD2    C3 7935   2.569   1.579  12.901 -0.0707  0.5318 -0.1904
  531MPD2    C4 7936   2.680   1.498  12.878 -0.3634 -0.4199 -0.1502
  531MPD2    C5 7937   2.767   1.476  12.975  0.3230  0.8547  0.3345
  531MPD2     H 7938   2.466   1.694  13.045 -0.3492 -0.3416  1.4358
  531MPD2    H1 7939   2.696   1.442  12.786  2.2549  1.4982 -0.8563
  531MPD2    H2 7940   2.830   1.525  13.179 -2.1252  1.0364  0.8594
  531MPD2    H3 7941   2.853   1.421  12.940  0.0244 -0.6863  2.0461
  531MPD2     N 7942   2.469   1.605  12.802  0.5578 -0.5144  0.1287
  531MPD2    H5 7943   2.401   1.677  12.828 -0.3451 -1.5542  0.6450
  531MPD2    N1 7944   2.626   1.648  13.270  0.0521 -0.2631  0.1377
  531MPD2    H7 7945   2.696   1.616  13.336  0.1385  1.8140  1.0410
  532TMC3    C1 7946   2.522   1.775  13.452 -0.5184 -0.3397 -0.3777
  532TMC3    C2 7947   2.401   1.819  13.483 -0.5263 -0.0834  0.2813
  532TMC3    C3 7948   2.389   1.938  13.542 -0.3253  0.5156  0.3587
  532TMC3    C4 7949   2.639   1.830  13.491  0.5105 -0.1836 -0.8290
  532TMC3    C5 7950   2.615   1.940  13.575 -0.1022 -0.5576 -0.2767
  532TMC3    C6 7951   2.500   2.005  13.596 -0.1124 -0.5092  0.0064
  532TMC3     C 7952   2.517   1.713  13.320  0.2447 -0.0093  0.3117
  532TMC3     O 7953   2.421   1.741  13.252  0.6729 -0.1479  0.0149
  532TMC3     H 7954   2.309   1.777  13.445 -0.6757  0.0797  0.4615
  532TMC3    H1 7955   2.738   1.797  13.463  0.3963 -0.3719 -1.0094
  532TMC3    H2 7956   2.489   2.102  13.644  2.4979  0.6474 -1.7300
  532TMC3    C7 7957   2.722   1.980  13.666  0.0055  0.4747 -0.5409
  532TMC3    C8 7958   2.316   2.026  13.458  0.0581 -0.6053 -0.0455
  532TMC3    O1 7959   2.720   2.093  13.710 -0.4480 -1.1328  0.7059
  532TMC3    O2 7960   2.291   2.136  13.519  0.7313 -0.2617  0.3534
  533TMC3    C1 7961   3.914   3.464  14.500 -0.7208 -0.0837 -0.1865
  533TMC3    C2 7962   4.039   3.501  14.518  0.2996 -0.5196  0.2920
  533TMC3    C3 7963   4.075   3.586  14.621 -0.1186 -0.0176  0.4996
  533TMC3    C4 7964   3.818   3.526  14.573 -0.4689 -0.4833 -0.4158
  533TMC3    C5 7965   3.855   3.602  14.676  0.2242 -0.4514 -0.1983
  533TMC3    C6 7966   3.984   3.638  14.705 -0.1313  0.3570 -0.1808
  533TMC3     C 7967   3.891   3.317  14.477  0.1613 -0.4112  0.3293
  533TMC3     O 7968   3.976   3.249  14.525  0.1586 -0.0155 -0.1203
  533TMC3     H 7969   4.117   3.453  14.460 -0.6879 -4.4026  2.2337
  533TMC3    H1 7970   3.712   3.515  14.557 -0.4241 -0.1532 -0.9560
  533TMC3    H2 7971   4.004   3.684  14.801 -1.1839 -1.7403  1.0450
  533TMC3    C7 7972   3.752   3.624  14.770 -0.0154  0.3990  0.0724
  533TMC3    C8 7973   4.212   3.638  14.630  1.0919 -0.7856  0.3277
  533TMC3    O1 7974   3.650   3.556  14.756 -0.7299  0.0507 -0.4956
  533TMC3    O2 7975   4.299   3.579  14.571 -0.2248  0.0053  0.4258
  534MPD2     C 7976   2.228   4.303   1.421  0.2510  0.5779  0.3312
  534MPD2    C1 7977   2.118   4.388   1.440 -0.5971  0.6544 -0.0371
  534MPD2    C2 7978   1.991   4.332   1.411 -0.8650 -0.3115  0.1096
  534MPD2    C3 7979   1.978   4.206   1.367  0.2341  0.1071 -0.1506
  534MPD2    C4 7980   2.091   4.127   1.346  0.4484  0.5564  0.2429
  534MPD2    C5 7981   2.216   4.172   1.379  0.5450  0.1594  0.5191
  534MPD2     H 7982   1.904   4.397   1.406 -1.1113 -0.5616  1.0716
  534MPD2    H1 7983   2.080   4.030   1.297 -2.8091  0.5806  0.9651
  534MPD2    H2 7984   2.324   4.339   1.457  1.5286  0.1050 -2.6471
  534MPD2    H3 7985   2.303   4.109   1.365  0.4303  0.3289 -0.9377
  534MPD2     N 7986   1.859   4.146   1.319 -0.1050 -0.5047  0.3789
  534MPD2    H5 7987   1.863   4.071   1.252 -1.9262 -0.2246 -0.0432
  534MPD2    N1 7988   2.131   4.523   1.476  0.2564  0.3868  0.0884
  534MPD2    H7 7989   2.046   4.578   1.480  0.5937  0.9547 -0.5850
  535TMC3    C1 7990   1.633   4.100   1.304  0.4292  0.2448 -0.5773
  535TMC3    C2 7991   1.516   4.087   1.370  0.2298 -1.0115 -0.6198
  535TMC3    C3 7992   1.397   4.072   1.301 -0.1655 -0.0245  0.6204
  535TMC3    C4 7993   1.641   4.105   1.166  0.2299 -0.0999 -0.0922
  535TMC3    C5 7994   1.521   4.091   1.103  0.8423  0.1608 -0.9640
  535TMC3    C6 7995   1.401   4.074   1.170  0.1242  0.5495 -0.2379
  535TMC3     C 7996   1.733   4.181   1.370 -0.0276  0.3416 -0.3071
  535TMC3     O 7997   1.705   4.249   1.463  0.6424 -0.3157  0.2223
  535TMC3     H 7998   1.534   4.066   1.475 -1.1233 -3.1384 -0.8162
  535TMC3    H1 7999   1.734   4.114   1.111 -0.5302 -0.1433 -1.3860
  535TMC3    H2 8000   1.310   4.085   1.111 -0.7761 -1.5412  0.7534
  535TMC3    C7 8001   1.516   4.159   0.975 -0.6763  0.3085  0.7920
  535TMC3    C8 8002   1.270   4.049   1.370 -0.4319  0.0995 -0.7359
  535TMC3    O1 8003   1.479   4.091   0.882 -0.0740  0.3002  0.2820
  535TMC3    O2 8004   1.169   4.048   1.299  0.3190  0.4969 -0.2358
  536MPD2     C 8005   0.641   2.788  16.214  0.9065 -0.0714 -0.7040
  536MPD2    C1 8006   0.520   2.713  16.222  0.8468  0.1198 -0.6015
  536MPD2    C2 8007   0.422   2.748  16.127 -0.6086 -0.3519 -0.1968
  536MPD2    C3 8008   0.432   2.856  16.038  0.3684 -0.0964 -0.6536
  536MPD2    C4 8009   0.560   2.901  16.018  0.4500 -0.0057  0.2599
  536MPD2    C5 8010   0.665   2.866  16.102 -0.4580  0.3793 -0.5334
  536MPD2     H 8011   0.331   2.689  16.129 -1.4140  0.8357 -1.7792
  536MPD2    H1 8012   0.564   2.976  15.940 -0.4751  0.8680  1.0483
  536MPD2    H2 8013   0.725   2.772  16.281  0.3011 -0.4137 -0.0259
  536MPD2    H3 8014   0.764   2.905  16.081  0.7763 -1.5406  1.7983
  536MPD2     N 8015   0.329   2.906  15.959  0.9708  0.0516  0.3538
  536MPD2    H5 8016   0.358   2.963  15.880  0.8684 -1.2065 -0.6015
  536MPD2    N1 8017   0.522   2.605  16.312  0.6812  1.2584 -0.1547
  536MPD2    H7 8018   0.600   2.607  16.377 -0.0094 -0.3611  0.7123
  537TMC3    C1 8019   0.387   2.479  16.465 -0.8605  0.1228  0.0669
  537TMC3    C2 8020   0.441   2.539  16.574  0.1261  0.4074  0.0335
  537TMC3    C3 8021   0.403   2.504  16.702  0.3273 -0.3207  0.0484
  537TMC3    C4 8022   0.291   2.379  16.481  0.9252 -0.6658  1.0811
  537TMC3    C5 8023   0.250   2.348  16.612  0.1120 -1.2171  0.3410
  537TMC3    C6 8024   0.301   2.414  16.719 -0.8823  0.3982  0.5807
  537TMC3     C 8025   0.414   2.526  16.328  0.5722 -0.7035 -0.0935
  537TMC3     O 8026   0.318   2.505  16.257 -0.6044 -0.2839  0.1460
  537TMC3     H 8027   0.521   2.610  16.559 -1.3970  2.6806  2.7418
  537TMC3    H1 8028   0.251   2.325  16.396  1.2255 -1.5500  1.5054
  537TMC3    H2 8029   0.248   2.401  16.812 -0.0170  2.5232  1.3731
  537TMC3    C7 8030   0.146   2.249  16.639  0.1257  0.3845  0.2382
  537TMC3    C8 8031   0.453   2.574  16.814 -0.3366  0.4687 -0.6470
  537TMC3    O1 8032   0.089   2.194  16.541  0.1207  0.1816  0.1717
  537TMC3    O2 8033   0.513   2.679  16.802  0.0674  0.3029 -0.0510
  538TMC3    C1 8034   1.841   1.038  11.178  0.3032  0.8739  0.2698
  538TMC3    C2 8035   1.928   1.015  11.072 -1.1239 -0.1687  0.5693
  538TMC3    C3 8036   1.954   1.115  10.985 -0.5050 -0.1983 -0.4452
  538TMC3    C4 8037   1.760   1.149  11.187 -0.6436  0.2578 -0.0446
  538TMC3    C5 8038   1.781   1.238  11.081  0.0790 -0.2206  0.1751
  538TMC3    C6 8039   1.882   1.232  10.991  0.9854  0.5336  0.3266
  538TMC3     C 8040   1.821   0.934  11.277  0.4292 -0.6155  0.2640
  538TMC3     O 8041   1.860   0.819  11.256  0.5056  0.0521  0.3687
  538TMC3     H 8042   1.972   0.916  11.074 -0.2724  0.1917 -1.0205
  538TMC3    H1 8043   1.688   1.169  11.266  0.7668  2.7918  0.6125
  538TMC3    H2 8044   1.894   1.301  10.909  2.3481 -0.1836 -0.0754
  538TMC3    C7 8045   1.682   1.343  11.075 -0.2976  0.0979 -0.4653
  538TMC3    C8 8046   2.039   1.079  10.875 -0.0796  0.4790 -0.2224
  538TMC3    O1 8047   1.579   1.328  11.129  0.5086  0.1355  0.1751
  538TMC3    O2 8048   2.100   0.975  10.889  0.0734  0.5924  0.3765
  539MPD2     C 8049   1.495   0.458  11.341  0.2786 -0.0672 -0.7325
  539MPD2    C1 8050   1.557   0.539  11.240 -0.0646 -0.4290  0.1654
  539MPD2    C2 8051   1.512   0.668  11.218  0.0161 -0.4645 -0.6914
  539MPD2    C3 8052   1.405   0.715  11.291  0.3502 -0.2889 -0.6684
  539MPD2    C4 8053   1.336   0.628  11.370  0.5899  0.2492  0.6728
  539MPD2    C5 8054   1.388   0.509  11.410 -0.2710  0.2328 -0.1278
  539MPD2     H 8055   1.570   0.734  11.155  2.1477 -0.2920  1.4609
  539MPD2    H1 8056   1.248   0.657  11.426 -0.8581 -2.5303 -0.1596
  539MPD2    H2 8057   1.532   0.361  11.369 -0.4112  0.2404  1.2231
  539MPD2    H3 8058   1.345   0.455  11.493 -2.1671  0.5723 -0.9006
  539MPD2     N 8059   1.338   0.838  11.278 -0.6021  0.2524  0.4350
  539MPD2    H5 8060   1.254   0.862  11.329 -0.5472  0.3028  0.5030
  539MPD2    N1 8061   1.669   0.499  11.170 -0.0237 -0.0552 -0.1433
  539MPD2    H7 8062   1.709   0.560  11.100  1.5689 -0.4414  0.4260
  540TMC3    C1 8063   1.301   1.054  11.208  0.2371  0.0783 -0.2795
  540TMC3    C2 8064   1.251   1.116  11.101 -0.5328 -0.6862 -0.2630
  540TMC3    C3 8065   1.148   1.204  11.126 -0.0637 -0.0689 -0.6525
  540TMC3    C4 8066   1.277   1.086  11.341 -0.4203 -0.3686 -0.1443
  540TMC3    C5 8067   1.179   1.182  11.352  0.2547  0.5889  0.3453
  540TMC3    C6 8068   1.103   1.227  11.250  0.0931  0.2926  0.0368
  540TMC3     C 8069   1.373   0.930  11.183 -0.6139  0.6608 -0.1688
  540TMC3     O 8070   1.460   0.933  11.092  0.0336 -0.1051  0.9647
  540TMC3     H 8071   1.264   1.069  11.004 -0.9188 -1.1556 -0.0915
  540TMC3    H1 8072   1.329   1.053  11.430  1.4615  2.3681 -0.2286
  540TMC3    H2 8073   1.026   1.303  11.257  0.0880  0.4336 -1.7928
  540TMC3    C7 8074   1.114   1.173  11.483 -0.4693 -0.8849 -0.8680
  540TMC3    C8 8075   1.075   1.256  11.017 -0.3092  0.0589  0.3168
  540TMC3    O1 8076   1.098   1.060  11.527 -0.0443  0.0679 -0.4867
  540TMC3    O2 8077   0.963   1.304  11.034  0.3802 -0.5018 -0.2348
  541MPD2     C 8078   4.246   1.741  13.200 -0.7935 -0.1954  0.8405
  541MPD2    C1 8079   4.120   1.786  13.186 -0.0531  0.2180  0.4183
  541MPD2    C2 8080   4.087   1.880  13.089 -0.3785 -0.7243  0.0500
  541MPD2    C3 8081   4.181   1.930  13.004  0.3554 -0.3230  0.9404
  541MPD2    C4 8082   4.310   1.880  13.010 -0.0174  0.2339  0.3555
  541MPD2    C5 8083   4.337   1.791  13.115 -0.5726 -0.5928  0.4951
  541MPD2     H 8084   3.981   1.902  13.084  0.0462  0.9548 -1.7191
  541MPD2    H1 8085   4.383   1.919  12.940  0.0210 -0.8543 -0.2077
  541MPD2    H2 8086   4.266   1.659  13.269  1.1228 -0.4104  0.0448
  541MPD2    H3 8087   4.439   1.759  13.134  0.4078  2.0697 -0.2044
  541MPD2     N 8088   4.155   2.015  12.902  0.0038 -0.1625 -0.1124
  541MPD2    H5 8089   4.231   2.033  12.837  0.4052  0.7482  0.6069
  541MPD2    N1 8090   4.019   1.719  13.246  0.3598  0.1627 -0.2194
  541MPD2    H7 8091   3.928   1.738  13.205 -0.1721 -1.0754  0.3649
  542TMC3    C1 8092   4.038   2.162  12.763  0.0532  0.0794 -0.7468
  542TMC3    C2 8093   4.099   2.113  12.649  0.1472  0.3969  0.2854
  542TMC3    C3 8094   4.056   2.162  12.529  0.2548  0.0154 -0.4151
  542TMC3    C4 8095   3.932   2.243  12.749  0.3666 -0.0477  0.6062
  542TMC3    C5 8096   3.893   2.281  12.626  0.5587 -0.5150 -0.4279
  542TMC3    C6 8097   3.957   2.252  12.511 -0.0399  0.3175  0.0923
  542TMC3     C 8098   4.042   2.086  12.886  0.1371 -0.1890  0.7913
  542TMC3     O 8099   3.954   2.109  12.966 -0.5205  0.0926 -0.0520
  542TMC3     H 8100   4.192   2.059  12.663 -0.6791 -1.0965  0.0097
  542TMC3    H1 8101   3.868   2.280  12.829 -1.5568 -1.9392 -0.0690
  542TMC3    H2 8102   3.931   2.300  12.418 -1.0115 -0.3911 -0.0044
  542TMC3    C7 8103   3.780   2.373  12.612 -0.6697  0.0703  0.8257
  542TMC3    C8 8104   4.110   2.121  12.401 -0.2527  0.0142 -0.1921
  542TMC3    O1 8105   3.747   2.445  12.708 -0.3902 -0.4831  0.5925
  542TMC3    O2 8106   4.075   2.184  12.299 -0.0699  0.6614 -0.4951
  543TMC3    C1 8107   4.049   3.694  17.356  0.1262  0.6540 -0.2506
  543TMC3    C2 8108   4.127   3.597  17.416  0.4480  0.1842 -0.1624
  543TMC3    C3 8109   4.134   3.599  17.552  0.1667  0.4337  0.3673
  543TMC3    C4 8110   4.015   3.810  17.423 -0.4456 -0.3615  0.3431
  543TMC3    C5 8111   4.048   3.817  17.556 -0.2662 -0.5363 -0.3312
  543TMC3    C6 8112   4.114   3.712  17.624  0.3596 -0.0980  0.4977
  543TMC3     C 8113   4.022   3.671  17.217 -0.5214 -0.4044  0.3008
  543TMC3     O 8114   4.060   3.566  17.166  0.4441 -0.4276 -0.2564
  543TMC3     H 8115   4.159   3.508  17.363  1.0119  0.2628  0.0505
  543TMC3    H1 8116   3.948   3.879  17.371 -1.9396 -0.7628  1.7384
  543TMC3    H2 8117   4.147   3.720  17.727 -0.7456 -1.4333  0.9613
  543TMC3    C7 8118   4.002   3.934  17.636  0.1366 -0.6984  0.1951
  543TMC3    C8 8119   4.152   3.470  17.614  0.3264 -0.1781  0.1881
  543TMC3    O1 8120   3.968   3.910   0.016  0.0688 -0.4665  0.0483
  543TMC3    O2 8121   4.176   3.378  17.540 -0.0626  0.1840  0.4322
  544MPD2     C 8122   4.120   3.137   0.261 -0.1497  0.7115  0.3065
  544MPD2    C1 8123   4.105   3.115   0.126 -0.6729  0.2949  0.7818
  544MPD2    C2 8124   4.114   3.221   0.041  0.2284  0.3320  0.4970
  544MPD2    C3 8125   4.136   3.349   0.094  0.1269 -0.0600 -0.5356
  544MPD2    C4 8126   4.144   3.368   0.228 -0.4228 -0.3985 -0.2728
  544MPD2    C5 8127   4.144   3.260   0.314 -0.0591  0.5255  0.3745
  544MPD2     H 8128   4.085   3.200  17.676  0.7695  0.7046  0.2682
  544MPD2    H1 8129   4.152   3.465   0.276 -1.6668 -1.4387  2.0722
  544MPD2    H2 8130   4.112   3.050   0.326 -2.9942  1.0609  0.4588
  544MPD2    H3 8131   4.168   3.273   0.419  0.4911 -0.7706  0.4062
  544MPD2     N 8132   4.123   3.468   0.012 -0.2705 -0.2566  0.4249
  544MPD2    H5 8133   4.106   3.557   0.059  2.6182  0.8137 -0.5306
  544MPD2    N1 8134   4.062   2.992   0.079  0.1493 -0.2737  0.0061
  544MPD2    H7 8135   4.062   2.926   0.156 -1.1835  1.2546  1.3008
  545TMC3    C1 8136   3.931   2.835  17.703  0.0003 -0.3173  0.1507
  545TMC3    C2 8137   3.873   2.789  17.584 -0.4375 -0.1670  0.7186
  545TMC3    C3 8138   3.779   2.685  17.586  0.2505  0.0612  0.3910
  545TMC3    C4 8139   3.908   2.764   0.080 -0.1918  0.0640 -0.0669
  545TMC3    C5 8140   3.826   2.651   0.076  0.5457  0.4266 -0.4837
  545TMC3    C6 8141   3.749   2.623  17.704 -0.5575  0.4171  0.4879
  545TMC3     C 8142   4.015   2.954  17.692  0.5608 -0.1311 -0.4455
  545TMC3     O 8143   4.006   3.014  17.587  0.3224  0.2274 -0.1367
  545TMC3     H 8144   3.901   2.839  17.492  2.1817 -2.3634  0.3311
  545TMC3    H1 8145   3.961   2.781   0.173 -1.3090  0.3113  0.5289
  545TMC3    H2 8146   3.678   2.542  17.697  0.0165 -0.1125  0.7129
  545TMC3    C7 8147   3.796   2.577   0.203  0.0937  0.2902 -0.4368
  545TMC3    C8 8148   3.708   2.659  17.461 -0.2501 -1.1886  0.3059
  545TMC3    O1 8149   3.677   2.565   0.240 -0.5571  0.0161  0.0703
  545TMC3    O2 8150   3.727   2.738  17.365 -0.2869 -0.2930 -0.5543
  546MPD2     C 8151   0.253   3.028  17.464 -0.2712  0.2221  0.3689
  546MPD2    C1 8152   0.301   3.072  17.343 -0.4180 -0.2102 -0.3688
  546MPD2    C2 8153   0.374   3.191  17.329  0.2407 -0.1717 -0.3718
  546MPD2    C3 8154   0.410   3.261  17.447 -0.1006  0.4577  0.8289
  546MPD2    C4 8155   0.358   3.220  17.563 -0.5411  0.1974  0.4615
  546MPD2    C5 8156   0.282   3.109  17.571  0.3058 -0.4397 -0.5388
  546MPD2     H 8157   0.416   3.224  17.234 -0.5142 -0.7029 -0.8835
  546MPD2    H1 8158   0.374   3.271  17.657 -1.9818  1.7239 -0.1150
  546MPD2    H2 8159   0.188   2.942  17.466  1.0014 -0.7358  0.0944
  546MPD2    H3 8160   0.239   3.092  17.669  0.6201  2.9021  0.1712
  546MPD2     N 8161   0.475   3.381  17.452 -0.3470  1.2607  0.6825
  546MPD2    H5 8162   0.488   3.419  17.545  2.1852 -2.3779  1.8064
  546MPD2    N1 8163   0.268   2.989  17.239  0.0492  0.1927  0.2655
  546MPD2    H7 8164   0.238   2.896  17.265 -2.3790  0.2767 -2.3171
  547TMC3    C1 8165   0.222   2.929  17.017 -0.1989 -0.4155  0.0838
  547TMC3    C2 8166   0.135   2.972  16.925 -0.1891  0.0270 -0.2902
  547TMC3    C3 8167   0.039   2.885  16.883  0.4267  0.4953  0.2861
  547TMC3    C4 8168   0.211   2.799  17.062 -0.6092 -0.0754 -0.3582
  547TMC3    C5 8169   0.114   2.710  17.022 -0.3308  0.0686  0.0207
  547TMC3    C6 8170   0.024   2.753  16.935  0.1905  0.5908  0.8318
  547TMC3     C 8171   0.269   3.036  17.106  0.1094  0.5900 -0.2138
  547TMC3     O 8172   0.276   3.155  17.065  0.5349 -0.2802  0.2163
  547TMC3     H 8173   0.130   3.076  16.895  0.8437  0.0006 -0.5300
  547TMC3    H1 8174   0.287   2.759  17.128 -1.5735  0.0632  0.8390
  547TMC3    H2 8175   4.667   2.696  16.921 -0.7043  2.9361 -3.0264
  547TMC3    C7 8176   0.101   2.575  17.076  0.5948  1.0240  0.0569
  547TMC3    C8 8177   4.671   2.929  16.792 -0.0760 -0.0748  0.5396
  547TMC3    O1 8178   0.175   2.539  17.170 -0.0429  0.0422 -0.1598
  547TMC3    O2 8179   4.654   3.049  16.765  0.2757  0.6451  0.2885
  548MPD2     C 8180   4.459   4.070  12.847  0.4821 -0.6020  0.1195
  548MPD2    C1 8181   4.467   3.932  12.851 -0.0747  0.1497 -0.0085
  548MPD2    C2 8182   4.591   3.872  12.875 -0.2068 -0.2536  0.3319
  548MPD2    C3 8183   4.714   3.943  12.882  0.4303  0.1857 -0.2295
  548MPD2    C4 8184   4.697   4.085  12.873 -0.1487 -0.4959  0.5808
  548MPD2    C5 8185   4.575   4.142  12.846 -0.3529  0.0123 -0.6066
  548MPD2     H 8186   4.609   3.767  12.854  0.4329 -0.2011  0.6234
  548MPD2    H1 8187   0.044   4.156  12.869 -0.9964  0.4766  0.4967
  548MPD2    H2 8188   4.363   4.113  12.819  0.5133 -0.9497 -0.5309
  548MPD2    H3 8189   4.568   4.250  12.835 -1.3070 -0.2178 -2.1504
  548MPD2     N 8190   0.109   3.885  12.888 -0.2450  0.4038 -0.1305
  548MPD2    H5 8191   0.117   3.785  12.903  0.9142  0.5351  0.1344
  548MPD2    N1 8192   4.353   3.860  12.813 -0.5048 -0.1065  0.9416
  548MPD2    H7 8193   4.269   3.912  12.790 -0.8923 -2.6056 -3.2762
  549TMC3    C1 8194   4.204   3.703  12.761 -0.7233 -0.1432 -0.2080
  549TMC3    C2 8195   4.128   3.796  12.696  0.8559 -0.0468  0.0960
  549TMC3    C3 8196   4.000   3.767  12.667 -0.2709 -0.5253  0.0762
  549TMC3    C4 8197   4.159   3.577  12.783  0.0022 -0.4086 -0.1921
  549TMC3    C5 8198   4.032   3.549  12.741  0.3172 -0.4253 -0.6668
  549TMC3    C6 8199   3.955   3.641  12.679 -0.3354  0.2545  0.3296
  549TMC3     C 8200   4.337   3.723  12.802 -0.4548  0.7337 -0.6695
  549TMC3     O 8201   4.406   3.625  12.825 -0.4203 -0.6396  0.0991
  549TMC3     H 8202   4.170   3.893  12.672  2.0192 -0.5035  0.2775
  549TMC3    H1 8203   4.212   3.512  12.852 -1.6032 -1.0618  0.4132
  549TMC3    H2 8204   3.855   3.614  12.647  0.2869 -3.7715  1.6865
  549TMC3    C7 8205   3.975   3.426  12.782  0.3846 -0.1024  0.1260
  549TMC3    C8 8206   3.914   3.864  12.605 -0.1827 -0.2191 -0.3991
  549TMC3    O1 8207   3.854   3.429  12.797 -0.3367 -0.3347 -0.6698
  549TMC3    O2 8208   3.801   3.831  12.570 -0.2810  0.0876  0.5592
  550TMC3    C1 8209   4.039   1.762  11.998  0.3522  0.2202  0.0224
  550TMC3    C2 8210   4.002   1.784  12.127  1.0226 -0.5598  0.0554
  550TMC3    C3 8211   3.950   1.912  12.149  0.2936  0.2746 -0.2781
  550TMC3    C4 8212   4.035   1.851  11.897  0.8310  0.0323 -0.3422
  550TMC3    C5 8213   3.975   1.969  11.924  0.9599 -0.2180  0.0984
  550TMC3    C6 8214   3.930   2.002  12.050 -0.6163 -0.4819 -0.0899
  550TMC3     C 8215   4.061   1.620  11.969 -0.2743  0.0786  0.2643
  550TMC3     O 8216   4.100   1.551  12.065  0.0488  0.0369 -0.2216
  550TMC3     H 8217   4.020   1.710  12.204 -1.2152 -1.7872 -0.6292
  550TMC3    H1 8218   4.050   1.813  11.797  2.0849 -0.2271 -0.0551
  550TMC3    H2 8219   3.874   2.094  12.067  0.7641 -0.3264  3.6135
  550TMC3    C7 8220   3.915   2.029  11.807 -0.0149  0.1686  0.3894
  550TMC3    C8 8221   3.876   1.935  12.272 -0.3043 -0.3241  0.1202
  550TMC3    O1 8222   3.982   2.031  11.708  0.4250  0.1442 -0.5327
  550TMC3    O2 8223   3.791   2.020  12.265 -0.0336 -0.3912 -0.1999
  551TMC3    C1 8224   1.128   4.289  13.377  0.0439 -0.4699 -0.7668
  551TMC3    C2 8225   1.228   4.211  13.336 -0.5321  0.2188 -0.2014
  551TMC3    C3 8226   1.347   4.217  13.403 -0.0365  0.2212 -0.2915
  551TMC3    C4 8227   1.137   4.351  13.498  0.3638  0.3008 -1.3160
  551TMC3    C5 8228   1.253   4.345  13.571 -0.2667  0.3162 -0.1152
  551TMC3    C6 8229   1.361   4.279  13.523  0.0635 -0.4146 -0.2271
  551TMC3     C 8230   0.997   4.276  13.311 -0.1373  0.6541  0.0661
  551TMC3     O 8231   0.985   4.178  13.240  0.9278 -0.6374 -0.1964
  551TMC3     H 8232   1.216   4.168  13.237  0.3362 -1.6992  0.5116
  551TMC3    H1 8233   1.050   4.400  13.540 -0.3517 -1.8487 -0.2734
  551TMC3    H2 8234   1.457   4.285  13.573 -0.4073  0.8870  0.5384
  551TMC3    C7 8235   1.268   4.442  13.677 -0.1739 -0.6568  0.0498
  551TMC3    C8 8236   1.464   4.190  13.316 -0.9434 -0.3467  0.0433
  551TMC3    O1 8237   1.333   4.388  13.765 -0.2926  0.5356  0.1086
  551TMC3    O2 8238   1.455   4.102  13.224  0.4952 -0.5454  0.3506
  552MPD2     C 8239   2.775   1.706  14.129  0.2102 -0.5111  0.1522
  552MPD2    C1 8240   2.809   1.581  14.083  0.0436 -0.0192  0.1785
  552MPD2    C2 8241   2.919   1.524  14.127 -0.6190 -0.1048  0.1936
  552MPD2    C3 8242   3.000   1.588  14.216  0.0703 -0.8983 -0.1268
  552MPD2    C4 8243   2.955   1.708  14.272  1.0268  1.1565 -0.6429
  552MPD2    C5 8244   2.844   1.765  14.222  0.3568  0.4921 -0.2272
  552MPD2     H 8245   2.946   1.424  14.094 -0.0762  0.2108 -0.3241
  552MPD2    H1 8246   3.019   1.756  14.345 -0.4862  1.2423  0.6237
  552MPD2    H2 8247   2.691   1.764  14.094  0.2219 -1.2851 -1.1988
  552MPD2    H3 8248   2.804   1.862  14.248 -0.3861 -0.1255  0.9784
  552MPD2     N 8249   3.125   1.530  14.251 -0.4282  0.0752 -0.8228
  552MPD2    H5 8250   3.147   1.442  14.206  2.9388  0.7673 -0.5026
  552MPD2    N1 8251   2.725   1.512  13.986  0.0108  0.4926 -0.3889
  552MPD2    H7 8252   2.759   1.425  13.946  0.8963  0.2966  0.7775
  553TMC3    C1 8253   2.537   1.473  13.846  0.2281  0.2642  0.6988
  553TMC3    C2 8254   2.521   1.515  13.717 -0.5765  0.5231 -0.3076
  553TMC3    C3 8255   2.522   1.421  13.617  0.1201  0.1824  0.5043
  553TMC3    C4 8256   2.549   1.338  13.880  0.4186  0.1107 -0.4729
  553TMC3    C5 8257   2.538   1.249  13.782 -0.1483  0.8878 -0.4976
  553TMC3    C6 8258   2.515   1.284  13.651  0.4835 -0.5396  0.5765
  553TMC3     C 8259   2.606   1.566  13.929  0.2629  0.5582 -0.2031
  553TMC3     O 8260   2.549   1.673  13.936  0.1799  0.7122 -0.1002
  553TMC3     H 8261   2.505   1.617  13.684  1.9478  1.1034  0.2659
  553TMC3    H1 8262   2.549   1.319  13.986 -3.5888  0.3727 -0.4450
  553TMC3    H2 8263   2.501   1.209  13.574 -1.0056 -1.7424  2.0318
  553TMC3    C7 8264   2.557   1.106  13.813 -0.5012  0.5683 -0.0656
  553TMC3    C8 8265   2.644   1.440  13.540 -0.0387 -0.1290 -0.9967
  553TMC3    O1 8266   2.454   1.043  13.810 -0.2506 -0.7810  0.0819
  553TMC3    O2 8267   2.734   1.502  13.596 -0.5761  0.0178  0.2412
  554TMC3    C1 8268   0.624   0.571  11.266  0.2823  0.6990  0.3985
  554TMC3    C2 8269   0.567   0.538  11.141 -0.3889  0.5083 -0.8811
  554TMC3    C3 8270   0.610   0.621  11.047 -0.7032  0.0808  0.7801
  554TMC3    C4 8271   0.690   0.689  11.298  0.1686  0.3542  0.3958
  554TMC3    C5 8272   0.719   0.772  11.198  0.1824 -0.1822  0.2684
  554TMC3    C6 8273   0.685   0.734  11.069 -0.1291  0.0951  0.7784
  554TMC3     C 8274   0.674   0.459  11.340  0.2682 -0.6636  1.0144
  554TMC3     O 8275   0.779   0.468  11.400 -0.1803 -0.2466  0.2643
  554TMC3     H 8276   0.536   0.440  11.106 -0.0404  0.1056 -0.0798
  554TMC3    H1 8277   0.718   0.698  11.402 -0.0799 -0.3809  0.5277
  554TMC3    H2 8278   0.695   0.806  10.988 -2.6811 -0.1247  0.2586
  554TMC3    C7 8279   0.765   0.907  11.210 -0.0676  0.2226 -0.3672
  554TMC3    C8 8280   0.570   0.599  10.905  0.2721  0.1586  1.1206
  554TMC3    O1 8281   0.823   0.962  11.118  0.0649  0.0482  0.2078
  554TMC3    O2 8282   0.651   0.647  10.828  0.4174 -0.1578 -0.7769
  555TMC3    C1 8283   4.212   0.394  15.447  0.1019 -0.3564 -0.5650
  555TMC3    C2 8284   4.289   0.419  15.556  0.1757  0.9667 -0.3118
  555TMC3    C3 8285   4.337   0.318  15.630 -1.1931 -0.0984 -0.1284
  555TMC3    C4 8286   4.184   0.267  15.403  0.1955  0.3053  0.3386
  555TMC3    C5 8287   4.242   0.161  15.470 -0.0540 -0.1415 -0.1764
  555TMC3    C6 8288   4.320   0.192  15.585 -0.0804  0.8045 -0.0453
  555TMC3     C 8289   4.159   0.508  15.382  0.9572  0.6046 -0.1602
  555TMC3     O 8290   4.208   0.616  15.420  0.1151 -0.0701 -0.7200
  555TMC3     H 8291   4.329   0.518  15.571  3.1030  0.0583 -2.0297
  555TMC3    H1 8292   4.152   0.253  15.300 -0.5286 -1.2269  0.7763
  555TMC3    H2 8293   4.364   0.109  15.639  0.8201  1.5802  0.4045
  555TMC3    C7 8294   4.208   0.026  15.442  0.7446  0.2814 -0.4888
  555TMC3    C8 8295   4.463   0.350  15.700 -0.4031  0.0035  0.6806
  555TMC3    O1 8296   4.267   4.671  15.503  0.0453  0.4587  0.3864
  555TMC3    O2 8297   4.512   0.460  15.667 -0.4913  0.4749  0.2470
  556MPD2     C 8298   2.228   2.352  10.680 -0.8293  0.6333 -0.3249
  556MPD2    C1 8299   2.229   2.227  10.742  0.0239 -0.0898  0.9506
  556MPD2    C2 8300   2.216   2.119  10.663 -0.9700 -0.5866 -0.1503
  556MPD2    C3 8301   2.189   2.123  10.531 -0.9305 -0.8146 -0.4091
  556MPD2    C4 8302   2.184   2.245  10.472  0.8201 -0.4832  0.3661
  556MPD2    C5 8303   2.211   2.356  10.542  0.3369  0.3711  0.0451
  556MPD2     H 8304   2.214   2.022  10.713  1.8349 -0.6066 -0.0547
  556MPD2    H1 8305   2.144   2.258  10.372  0.6211 -0.7562  0.4100
  556MPD2    H2 8306   2.243   2.449  10.725 -0.3858  0.2940  0.2473
  556MPD2    H3 8307   2.199   2.447  10.486  0.7870 -0.4764 -1.4310
  556MPD2     N 8308   2.184   1.999  10.461 -0.0823 -0.4327 -0.2576
  556MPD2    H5 8309   2.184   1.915  10.517  0.8415 -0.4174 -0.2248
  556MPD2    N1 8310   2.266   2.206  10.879  0.4238  0.3067 -0.5492
  556MPD2    H7 8311   2.262   2.109  10.910 -1.6309  0.7579  0.6541
  557TMC3    C1 8312   2.192   1.845  10.281 -0.4545  0.3791 -0.5018
  557TMC3    C2 8313   2.152   1.808  10.154  0.2179  0.6231 -0.5916
  557TMC3    C3 8314   2.167   1.680  10.119  0.3456  0.1202 -0.1043
  557TMC3    C4 8315   2.244   1.753  10.369 -0.0372  0.8640 -0.4167
  557TMC3    C5 8316   2.262   1.623  10.328  0.2586 -0.0839  0.4775
  557TMC3    C6 8317   2.218   1.588  10.205  0.2039 -0.3230 -0.5320
  557TMC3     C 8318   2.164   1.977  10.326 -0.0450  0.2032 -0.4771
  557TMC3     O 8319   2.147   2.067  10.244  0.3501 -0.1685 -0.8432
  557TMC3     H 8320   2.091   1.879  10.100 -1.6769  0.3854  1.2304
  557TMC3    H1 8321   2.303   1.778  10.457  0.6304  1.3019 -0.9894
  557TMC3    H2 8322   2.209   1.483  10.182 -0.8576 -0.0384 -1.4190
  557TMC3    C7 8323   2.261   1.530  10.437  0.0069 -0.2010 -1.0224
  557TMC3    C8 8324   2.091   1.631  10.004  0.5306  0.0085  0.2997
  557TMC3    O1 8325   2.271   1.570  10.553  0.1956  0.2895 -0.6424
  557TMC3    O2 8326   2.029   1.717   9.944 -0.7137  0.1684 -0.3108
  558TMC3    C1 8327   4.711   4.666  10.144  0.2449 -0.3854 -0.0568
  558TMC3    C2 8328   4.593   4.720  10.208  0.2918  0.0976  0.6373
  558TMC3    C3 8329   4.470   4.689  10.156  0.8500 -0.2893  0.5914
  558TMC3    C4 8330   4.701   4.589  10.031  0.5360 -0.3037  0.2739
  558TMC3    C5 8331   4.576   4.561   9.983  0.5800  0.3109 -1.0346
  558TMC3    C6 8332   4.461   4.605  10.043 -0.1458  0.0208  0.3204
  558TMC3     C 8333   0.103   4.657  10.212 -0.5412  0.4791 -0.1053
  558TMC3     O 8334   0.203   4.639  10.149  0.1695 -0.4769 -0.5132
  558TMC3     H 8335   4.609   0.052  10.292 -0.3760  0.2160  0.6686
  558TMC3    H1 8336   0.052   4.532   9.999  0.8530 -0.2915  1.0953
  558TMC3    H2 8337   4.362   4.580  10.009  0.3718 -1.2071 -0.2682
  558TMC3    C7 8338   4.567   4.441   9.898 -0.0590  1.2066  0.9528
  558TMC3    C8 8339   4.342   4.718  10.223  0.3684  0.3854 -0.4099
  558TMC3    O1 8340   4.675   4.403   9.868  0.1905  0.0324 -0.1350
  558TMC3    O2 8341   4.243   4.684  10.165 -0.7580 -0.6604 -0.5693
  559MPD2     C 8342   0.260   0.246  10.097 -0.8111 -0.0439 -0.3457
  559MPD2    C1 8343   0.180   0.298  10.203  0.2390  0.5592  0.0174
  559MPD2    C2 8344   0.242   0.305  10.332  0.0467 -0.7645  0.0234
  559MPD2    C3 8345   0.376   0.270  10.356  0.4068 -0.0837 -0.4213
  559MPD2    C4 8346   0.451   0.234  10.246  0.0355  0.2959  0.4486
  559MPD2    C5 8347   0.394   0.230  10.120 -0.7072 -0.1177  0.4624
  559MPD2     H 8348   0.189   0.352  10.414 -0.3517 -1.9789  0.4588
  559MPD2    H1 8349   0.557   0.216  10.258  0.2686  0.5326 -1.3411
  559MPD2    H2 8350   0.226   0.246   9.994  1.2713  1.2410 -1.0265
  559MPD2    H3 8351   0.459   0.202  10.039  0.3443  0.7335  1.0137
  559MPD2     N 8352   0.432   0.301  10.481  0.3379  0.4571 -0.0824
  559MPD2    H5 8353   0.367   0.332  10.553  0.9900 -1.4662  1.2981
  559MPD2    N1 8354   0.046   0.330  10.182  0.0350 -0.0407  0.0214
  559MPD2    H7 8355   0.011   0.318  10.087 -2.9524  1.8237  0.8880
  560TMC3    C1 8356   0.566   0.264  10.667  0.1288 -0.3518  0.1490
  560TMC3    C2 8357   0.460   0.221  10.737  0.2997 -0.5025 -0.5013
  560TMC3    C3 8358   0.469   0.197  10.869 -0.0358 -0.2340 -0.1692
  560TMC3    C4 8359   0.690   0.278  10.721 -0.5828 -0.3931  0.0923
  560TMC3    C5 8360   0.691   0.254  10.856  0.0986  0.2521  0.2432
  560TMC3    C6 8361   0.588   0.211  10.925 -0.3605  0.6464 -0.5945
  560TMC3     C 8362   0.555   0.262  10.524 -0.0668  0.0814 -0.8194
  560TMC3     O 8363   0.656   0.246  10.457 -0.0394 -0.2178  0.2141
  560TMC3     H 8364   0.361   0.204  10.695 -0.1262 -0.8038  0.6094
  560TMC3    H1 8365   0.766   0.325  10.659 -3.3753  1.9546 -1.5148
  560TMC3    H2 8366   0.598   0.166  11.024 -1.6552 -0.1636 -0.8217
  560TMC3    C7 8367   0.794   0.318  10.938 -0.1739  0.1544 -0.0851
  560TMC3    C8 8368   0.355   0.141  10.931  0.1093 -0.6222 -0.5113
  560TMC3    O1 8369   0.763   0.322  11.055  0.2407 -0.1920  0.1954
  560TMC3    O2 8370   0.252   0.173  10.877 -0.0244 -0.4242  0.2481
  561TMC3    C1 8371   2.652   4.274  10.387  0.0649 -0.2664 -0.0052
  561TMC3    C2 8372   2.549   4.208  10.449 -0.0052 -0.0037 -0.0863
  561TMC3    C3 8373   2.522   4.248  10.581  0.4240 -0.4458 -0.3529
  561TMC3    C4 8374   2.701   4.392  10.442  0.1392 -0.0882  0.2071
  561TMC3    C5 8375   2.643   4.443  10.559  0.6349  0.3255 -0.1765
  561TMC3    C6 8376   2.561   4.369  10.638  0.0654 -0.4102  0.4686
  561TMC3     C 8377   2.695   4.239  10.251  0.5193  0.4394  0.0765
  561TMC3     O 8378   2.767   4.325  10.199  0.7184 -0.7914 -0.0460
  561TMC3     H 8379   2.503   4.117  10.414 -2.4438  0.7944  1.0726
  561TMC3    H1 8380   2.781   4.443  10.390  0.9831 -0.6496  0.9713
  561TMC3    H2 8381   2.521   4.402  10.732  0.2218  0.8708  0.0759
  561TMC3    C7 8382   2.685   4.573  10.611  0.2189 -0.0580 -0.5877
  561TMC3    C8 8383   2.423   4.167  10.641 -0.5247  0.0640  0.4990
  561TMC3    O1 8384   2.647   4.600  10.723 -0.2469 -0.5211 -0.4192
  561TMC3    O2 8385   2.355   4.098  10.570 -0.0830 -0.2667  0.0610
  562TMC3    C1 8386   3.988   0.614  16.242  0.0205  1.2221  1.0263
  562TMC3    C2 8387   3.932   0.724  16.185 -0.0258 -0.0417 -0.4848
  562TMC3    C3 8388   3.948   0.743  16.047  0.0401 -1.1634  0.6820
  562TMC3    C4 8389   4.041   0.507  16.173  0.4365  0.9504  0.8620
  562TMC3    C5 8390   4.045   0.525  16.037  0.0694  0.5799 -0.4578
  562TMC3    C6 8391   3.997   0.636  15.976 -0.6651  0.6237  0.2982
  562TMC3     C 8392   3.997   0.626  16.387  0.0653  0.3457  0.6841
  562TMC3     O 8393   3.928   0.706  16.451 -0.1247 -0.4500 -0.1395
  562TMC3     H 8394   3.890   0.804  16.244  0.8821  1.1233 -1.3952
  562TMC3    H1 8395   4.067   0.415  16.224  0.8636  0.6182  0.0313
  562TMC3    H2 8396   4.004   0.643  15.868 -1.1385  0.2440  0.2444
  562TMC3    C7 8397   4.066   0.415  15.941 -0.0551  0.0489 -0.1314
  562TMC3    C8 8398   3.880   0.854  15.981 -0.6322 -0.1326 -0.5229
  562TMC3    O1 8399   4.038   0.433  15.826 -0.3765  0.5699  0.1712
  562TMC3    O2 8400   3.837   0.945  16.056  0.1375  0.0883  0.5265
  563MPD2     C 8401   1.604   1.519  15.443  0.2157  0.2537 -0.0550
  563MPD2    C1 8402   1.634   1.612  15.534  0.4106 -1.1032  0.7316
  563MPD2    C2 8403   1.752   1.593  15.606  0.3242 -0.3423 -0.6795
  563MPD2    C3 8404   1.842   1.493  15.579 -0.5906 -0.2137 -0.6112
  563MPD2    C4 8405   1.810   1.389  15.488  0.2694 -0.4006 -0.7567
  563MPD2    C5 8406   1.688   1.408  15.420  0.2580 -1.2195  0.2699
  563MPD2     H 8407   1.787   1.676  15.666  1.3230 -1.2713  0.0163
  563MPD2    H1 8408   1.879   1.316  15.448  0.3344 -0.3920 -0.6609
  563MPD2    H2 8409   1.516   1.534  15.382  0.5375 -1.9897 -1.0693
  563MPD2    H3 8410   1.673   1.350  15.329 -0.2721 -1.9759  0.8458
  563MPD2     N 8411   1.971   1.503  15.638 -0.2806  0.6657 -0.6471
  563MPD2    H5 8412   1.991   1.583  15.698  1.3451  0.2437 -0.6278
  563MPD2    N1 8413   1.548   1.718  15.571  0.1900 -0.4303  0.4115
  563MPD2    H7 8414   1.576   1.767  15.655  0.0680 -0.1539  0.2924
  564TMC3    C1 8415   1.376   1.875  15.567 -0.3595  0.0161 -0.6718
  564TMC3    C2 8416   1.243   1.834  15.595 -0.1745 -0.7928 -0.7493
  564TMC3    C3 8417   1.198   1.857  15.721 -0.1042  0.8784 -0.6900
  564TMC3    C4 8418   1.457   1.928  15.667 -0.6551  0.1271 -0.3675
  564TMC3    C5 8419   1.410   1.932  15.793  0.5151  0.9077 -0.5879
  564TMC3    C6 8420   1.275   1.913  15.817 -0.2441  0.1958  0.4011
  564TMC3     C 8421   1.436   1.764  15.504 -0.8065  0.9798  0.6670
  564TMC3     O 8422   1.369   1.705  15.418  0.0577 -0.4960 -0.2691
  564TMC3     H 8423   1.187   1.785  15.516 -0.8423 -1.7588  0.3280
  564TMC3    H1 8424   1.561   1.948  15.642 -0.1711 -3.8306 -1.5846
  564TMC3    H2 8425   1.230   1.945  15.910 -2.4702 -0.5144 -0.4475
  564TMC3    C7 8426   1.491   1.844  15.878  0.1556  0.5696 -0.4021
  564TMC3    C8 8427   1.117   1.746  15.778 -0.4380 -0.0099 -0.5283
  564TMC3    O1 8428   1.607   1.838  15.864  0.1406 -0.2324 -0.0766
  564TMC3    O2 8429   1.135   1.738  15.897 -0.7488 -0.6014  0.6851
  565TMC3    C1 8430   1.461   2.781  11.450 -0.0721  0.0053 -0.3110
  565TMC3    C2 8431   1.595   2.803  11.432 -0.0284  0.7051  0.1506
  565TMC3    C3 8432   1.683   2.728  11.500 -0.1751 -0.4825 -0.4156
  565TMC3    C4 8433   1.414   2.671  11.518 -0.2862 -0.0975  0.4218
  565TMC3    C5 8434   1.510   2.607  11.593  0.2605  0.2380 -0.5253
  565TMC3    C6 8435   1.641   2.638  11.596 -0.1796  0.1930 -0.2505
  565TMC3     C 8436   1.372   2.859  11.366 -0.1108 -0.0109  0.6595
  565TMC3     O 8437   1.262   2.815  11.333 -0.0292 -0.0128 -0.1436
  565TMC3     H 8438   1.638   2.866  11.354 -0.0016 -1.3669 -1.5177
  565TMC3    H1 8439   1.307   2.657  11.516 -0.3381  0.2855  0.6392
  565TMC3    H2 8440   1.710   2.576  11.652  2.0691  0.7547 -2.4071
  565TMC3    C7 8441   1.475   2.492  11.669 -0.5683 -0.0987 -0.1471
  565TMC3    C8 8442   1.826   2.745  11.471 -0.1474  0.3979  0.2653
  565TMC3    O1 8443   1.563   2.420  11.719 -0.3960 -0.2269  0.0233
  565TMC3    O2 8444   1.900   2.662  11.521 -0.1584 -0.2973  0.7813
  566MPD2     C 8445   3.444   4.531  14.336  0.2688  0.8021 -0.4969
  566MPD2    C1 8446   3.426   4.647  14.268  0.9021  0.2339  0.2335
  566MPD2    C2 8447   3.308   4.666  14.195 -0.0028 -0.2970  0.9047
  566MPD2    C3 8448   3.215   4.554  14.186 -0.6018 -0.5065 -0.1346
  566MPD2    C4 8449   3.233   4.446  14.268 -0.4499 -0.1845 -0.0616
  566MPD2    C5 8450   3.340   4.438  14.346 -0.4412 -0.0869  0.3884
  566MPD2     H 8451   3.287   0.027  14.149 -1.9692 -0.1129  2.1840
  566MPD2    H1 8452   3.168   4.360  14.270  0.6046 -0.9924 -0.6727
  566MPD2    H2 8453   3.525   4.512  14.405  0.9271  0.5739 -1.3458
  566MPD2    H3 8454   3.351   4.348  14.405 -3.2964  0.7989  2.2535
  566MPD2     N 8455   3.085   4.560  14.122 -0.5369  0.3216 -0.3320
  566MPD2    H5 8456   3.008   4.505  14.160 -1.0824  1.4076  0.1262
  566MPD2    N1 8457   3.535   4.732  14.270 -0.4052  0.1451 -0.4172
  566MPD2    H7 8458   3.620   4.695  14.312 -0.0057  0.6130 -0.8176
  567TMC3    C1 8459   3.672   0.170  14.208 -0.0877 -0.3971  0.5827
  567TMC3    C2 8460   3.700   0.240  14.096 -0.7248  0.1856 -0.2458
  567TMC3    C3 8461   3.831   0.277  14.076  0.3373  0.0841  0.0662
  567TMC3    C4 8462   3.755   0.138  14.311 -0.5237  0.4513 -0.2778
  567TMC3    C5 8463   3.881   0.184  14.286 -0.0336  0.5409 -0.0970
  567TMC3    C6 8464   3.929   0.231  14.165  0.2048  0.4759 -0.5460
  567TMC3     C 8465   3.539   0.117  14.211 -0.3047  0.2935  0.1327
  567TMC3     O 8466   3.462   0.173  14.134 -0.0538  0.0022  0.0795
  567TMC3     H 8467   3.632   0.258  14.014  2.3245  2.3425 -2.2981
  567TMC3    H1 8468   3.709   0.113  14.406  1.6913 -1.3764  0.3086
  567TMC3    H2 8469   4.029   0.270  14.152  0.2117  0.7398  0.3288
  567TMC3    C7 8470   3.955   0.211  14.405  0.2294 -0.0894  0.1578
  567TMC3    C8 8471   3.858   0.357  13.961 -0.6204  0.3355 -0.3864
  567TMC3    O1 8472   4.049   0.283  14.391  0.2860  0.2463 -0.3382
  567TMC3    O2 8473   3.767   0.391  13.885  0.2432  0.4576  0.3300
  568MPD2     C 8474   1.728   0.896  16.721  0.6954 -0.1510  0.4298
  568MPD2    C1 8475   1.597   0.908  16.768 -0.1587 -0.9018 -0.1776
  568MPD2    C2 8476   1.500   0.957  16.685 -0.1114  0.6125  0.4557
  568MPD2    C3 8477   1.533   0.997  16.555  0.3374 -1.1477 -0.6649
  568MPD2    C4 8478   1.660   0.981  16.509 -0.5685  0.3673  0.1570
  568MPD2    C5 8479   1.761   0.940  16.595 -0.3419  0.1142  0.1151
  568MPD2     H 8480   1.399   0.970  16.722 -0.8296  3.0881 -2.3654
  568MPD2    H1 8481   1.691   1.014  16.410 -0.0519  3.1127  1.2382
  568MPD2    H2 8482   1.802   0.855  16.789  1.1070  2.0888  1.3551
  568MPD2    H3 8483   1.860   0.933  16.552 -0.7984 -1.3421 -0.7012
  568MPD2     N 8484   1.427   1.052  16.483  0.0191  0.5311  0.5482
  568MPD2    H5 8485   1.340   1.069  16.531 -0.0726 -0.5104  0.7464
  568MPD2    N1 8486   1.580   0.851  16.897  0.2679 -0.4160  0.3536
  568MPD2    H7 8487   1.666   0.813  16.936  0.2970 -0.2822  0.4186
  569TMC3    C1 8488   1.297   1.108  16.298 -0.6046 -0.0570 -0.0061
  569TMC3    C2 8489   1.249   1.215  16.365 -0.7942 -0.2632  0.0472
  569TMC3    C3 8490   1.129   1.270  16.329 -1.2166 -0.3138 -0.2073
  569TMC3    C4 8491   1.245   1.069  16.183 -0.5079  0.2444  0.6678
  569TMC3    C5 8492   1.121   1.115  16.152 -0.2285  0.4373  0.1800
  569TMC3    C6 8493   1.060   1.207  16.231 -0.3918 -0.0564 -0.3225
  569TMC3     C 8494   1.425   1.060  16.343  0.1879 -0.8726  0.0484
  569TMC3     O 8495   1.493   0.998  16.258 -0.0712  0.6184 -0.4715
  569TMC3     H 8496   1.306   1.261  16.445  0.5282 -1.2412 -0.3259
  569TMC3    H1 8497   1.281   0.979  16.133 -0.6431 -0.3888  1.7097
  569TMC3    H2 8498   0.959   1.243  16.212 -0.6178  0.2997  1.5795
  569TMC3    C7 8499   1.087   1.128  16.012 -0.8528 -0.3200  0.0644
  569TMC3    C8 8500   1.113   1.415  16.318 -0.0851  0.0787 -0.2224
  569TMC3    O1 8501   1.123   1.040  15.935  0.4473  0.2470 -0.0233
  569TMC3    O2 8502   1.013   1.462  16.263 -0.2173  0.3314  0.3453
  570TMC3    C1 8503   0.697   3.833  16.350 -0.3151  0.4851 -0.4058
  570TMC3    C2 8504   0.780   3.864  16.244 -0.8298 -0.5093 -0.1862
  570TMC3    C3 8505   0.863   3.974  16.253 -0.5018 -0.3898 -0.3551
  570TMC3    C4 8506   0.698   3.910  16.461  0.9025  0.2773  0.8024
  570TMC3    C5 8507   0.768   4.022  16.455  0.3974  0.1110 -0.4441
  570TMC3    C6 8508   0.854   4.062  16.355 -0.4060  0.3445  0.1208
  570TMC3     C 8509   0.588   3.738  16.328 -0.3650 -0.2707 -0.7462
  570TMC3     O 8510   0.577   3.693  16.215  0.1171  0.6282 -0.3395
  570TMC3     H 8511   0.772   3.793  16.162 -0.2136 -0.2768 -0.4492
  570TMC3    H1 8512   0.641   3.892  16.552  1.7281  0.3269  1.3377
  570TMC3    H2 8513   0.923   4.144  16.369 -0.4504  0.0483  2.1241
  570TMC3    C7 8514   0.753   4.099  16.578 -0.1690  0.5132  0.3429
  570TMC3    C8 8515   0.950   4.001  16.142  1.0230 -0.2397 -0.4898
  570TMC3    O1 8516   0.696   4.051  16.674  0.4631 -0.5712 -0.3319
  570TMC3    O2 8517   1.033   4.086  16.169  0.1006  0.4600  0.0138
  571MPD2     C 8518   2.788   1.842   0.074 -0.3876 -0.0754  0.3574
  571MPD2    C1 8519   2.783   1.914   0.192 -0.1882  0.7379 -0.2968
  571MPD2    C2 8520   2.887   1.994   0.230 -0.0010 -0.4093 -0.1683
  571MPD2    C3 8521   3.003   2.000   0.156  0.3953  0.1086  0.1945
  571MPD2    C4 8522   3.009   1.932   0.035  0.3537 -0.5952  0.0805
  571MPD2    C5 8523   2.899   1.859  17.734  0.5005  0.4663  0.4265
  571MPD2     H 8524   2.881   2.048   0.323  0.4252  0.1561 -0.4693
  571MPD2    H1 8525   3.096   1.935  17.707  1.5395  3.3990  1.8910
  571MPD2    H2 8526   2.701   1.789   0.034 -0.8912  2.0114 -1.2869
  571MPD2    H3 8527   2.890   1.823  17.632 -0.4167  0.6283  0.4461
  571MPD2     N 8528   3.111   2.088   0.199  0.1923  0.6367 -0.4220
  571MPD2    H5 8529   3.177   2.108   0.124 -0.3236  1.4112 -0.6668
  571MPD2    N1 8530   2.668   1.907   0.273 -0.1710 -0.6475 -0.3762
  571MPD2    H7 8531   2.590   1.856   0.232  0.0216  0.6217 -2.3398
  572TMC3    C1 8532   3.222   2.267   0.312  1.0827 -0.3050  0.0476
  572TMC3    C2 8533   3.252   2.316   0.435  0.4539  1.0693  0.1469
  572TMC3    C3 8534   3.330   2.419   0.448  0.3748 -1.1930 -0.3238
  572TMC3    C4 8535   3.254   2.339   0.199  0.7561  0.3677 -0.1921
  572TMC3    C5 8536   3.347   2.436   0.215  0.0113 -0.3811 -0.9510
  572TMC3    C6 8537   3.381   2.484   0.337  0.2525  0.3835  0.0741
  572TMC3     C 8538   3.125   2.159   0.319  0.2959 -0.3109  0.1703
  572TMC3     O 8539   3.069   2.151   0.429 -0.3136  0.3149  0.9146
  572TMC3     H 8540   3.238   2.247   0.518 -0.0941  1.3727  0.3078
  572TMC3    H1 8541   3.222   2.307   0.100 -1.9760  0.7743  0.5500
  572TMC3    H2 8542   3.462   2.552   0.361  0.7603 -1.0681  2.4162
  572TMC3    C7 8543   3.358   2.518   0.103 -0.1598 -0.4798  0.0453
  572TMC3    C8 8544   3.395   2.436   0.582 -0.5798 -0.8375 -0.3439
  572TMC3    O1 8545   3.327   2.481  17.725  0.0857  0.8048 -0.5331
  572TMC3    O2 8546   3.505   2.497   0.595 -0.1691  0.0826 -0.0054
  573MPD2     C 8547   0.361   1.801   0.959 -0.0926  0.3348  0.6428
  573MPD2    C1 8548   0.271   1.897   1.013 -0.3023 -0.3830 -0.3450
  573MPD2    C2 8549   0.150   1.921   0.943  0.1502 -0.5810  0.8664
  573MPD2    C3 8550   0.119   1.850   0.821  0.4260 -0.0298  0.5938
  573MPD2    C4 8551   0.219   1.764   0.769 -0.5024 -0.1285  0.3950
  573MPD2    C5 8552   0.337   1.748   0.838 -0.3525 -0.4442 -0.1231
  573MPD2     H 8553   0.072   1.977   0.994  0.4381 -1.3324  2.1115
  573MPD2    H1 8554   0.200   1.709   0.677  0.8279  0.3096 -0.1454
  573MPD2    H2 8555   0.458   1.776   0.999 -0.4799  1.1677  2.0935
  573MPD2    H3 8556   0.398   1.670   0.795  1.3478  0.3939  0.7609
  573MPD2     N 8557   0.001   1.866   0.739  0.7484 -0.2270 -0.9360
  573MPD2    H5 8558   4.715   1.805   0.660  1.8672  1.9695 -2.9432
  573MPD2    N1 8559   0.290   1.966   1.136  0.5981  0.1000  0.2773
  573MPD2    H7 8560   0.221   2.037   1.161 -0.4091 -1.0767  0.8507
  574TMC3    C1 8561   4.524   1.943   0.677 -0.2159  0.3311  0.0192
  574TMC3    C2 8562   4.426   2.040   0.697 -0.2813  0.6362  1.4176
  574TMC3    C3 8563   4.332   2.054   0.600  0.6003  0.1119  0.1957
  574TMC3    C4 8564   4.527   1.867   0.558 -0.1312  0.2093  0.5229
  574TMC3    C5 8565   4.409   1.874   0.481 -0.4756  0.0195  0.4933
  574TMC3    C6 8566   4.314   1.970   0.498  0.4863  0.0170 -0.2562
  574TMC3     C 8567   4.632   1.947   0.774 -0.0629  0.4258  0.2421
  574TMC3     O 8568   4.609   2.022   0.870  0.4075  0.2986 -0.5941
  574TMC3     H 8569   4.421   2.099   0.788  0.1725 -1.3412  2.7382
  574TMC3    H1 8570   4.591   1.779   0.557 -2.4549 -1.5555  3.6274
  574TMC3    H2 8571   4.228   1.975   0.432  0.2543 -0.5159  0.0127
  574TMC3    C7 8572   4.372   1.761   0.397  0.4562 -0.2072  0.0341
  574TMC3    C8 8573   4.226   2.153   0.627 -0.7086 -0.2846 -0.3842
  574TMC3    O1 8574   4.255   1.748   0.366  0.0982  0.0714 -0.0993
  574TMC3    O2 8575   4.202   2.175   0.746 -0.2620 -0.3166  0.4847
  575TMC3    C1 8576   2.686   2.531  11.244 -0.6494 -1.2094  0.6179
  575TMC3    C2 8577   2.739   2.511  11.367 -0.4038  0.3333  0.4463
  575TMC3    C3 8578   2.658   2.519  11.474 -0.0583 -0.0678  0.2146
  575TMC3    C4 8579   2.548   2.557  11.229 -0.3569  1.0307  0.2530
  575TMC3    C5 8580   2.474   2.559  11.342  0.3510  0.4924  0.9210
  575TMC3    C6 8581   2.523   2.547  11.467  0.2263 -0.2979 -0.1376
  575TMC3     C 8582   2.762   2.500  11.124  0.4068 -0.5713 -0.1546
  575TMC3     O 8583   2.699   2.506  11.022 -0.0244 -0.1510  0.1263
  575TMC3     H 8584   2.842   2.485  11.385 -1.2249 -1.1739  2.9054
  575TMC3    H1 8585   2.502   2.579  11.133  1.1951 -1.1406 -1.0154
  575TMC3    H2 8586   2.457   2.566  11.552  0.1097 -0.1463 -0.2612
  575TMC3    C7 8587   2.337   2.610  11.338  0.2575 -0.6476  0.1913
  575TMC3    C8 8588   2.713   2.483  11.607  0.5918 -0.3233  0.0724
  575TMC3    O1 8589   2.254   2.539  11.395  0.0508  0.0474  0.4346
  575TMC3    O2 8590   2.831   2.457  11.619  0.3152 -0.3642  0.0266
  576MPD2     C 8591   2.190   3.814  12.036  0.1229 -0.0628  0.9705
  576MPD2    C1 8592   2.186   3.953  12.035  0.8624 -0.0036 -0.1590
  576MPD2    C2 8593   2.223   4.022  12.148  0.3760 -0.1688  1.0242
  576MPD2    C3 8594   2.252   3.954  12.265  0.3070 -0.1019 -0.2465
  576MPD2    C4 8595   2.268   3.816  12.269  0.8637  0.1209 -0.2921
  576MPD2    C5 8596   2.246   3.744  12.147  0.9427  0.3833  0.2501
  576MPD2     H 8597   2.208   4.129  12.146 -2.3746 -0.5475  1.2135
  576MPD2    H1 8598   2.301   3.773  12.363 -0.8444  1.5638  0.9794
  576MPD2    H2 8599   2.151   3.751  11.957  2.1411 -0.8647  0.6162
  576MPD2    H3 8600   2.241   3.636  12.151 -0.7465  0.3630 -1.8725
  576MPD2     N 8601   2.270   4.021  12.389  0.0304  0.3156 -0.5229
  576MPD2    H5 8602   2.288   3.958  12.467  0.5016 -0.6467 -1.4157
  576MPD2    N1 8603   2.169   4.030  11.917  0.1199 -0.0656  0.5873
  576MPD2    H7 8604   2.170   4.132  11.923  2.1678 -0.0010 -0.8411
  577TMC3    C1 8605   2.184   4.079  11.686  0.1846  0.0924  0.5310
  577TMC3    C2 8606   2.149   4.037  11.563  0.8401 -0.3991 -0.8074
  577TMC3    C3 8607   2.166   4.127  11.456 -0.5159 -0.1915 -0.5141
  577TMC3    C4 8608   2.238   4.206  11.712 -0.2849 -0.3022  0.2480
  577TMC3    C5 8609   2.235   4.289  11.604 -0.3888  0.1384  0.0535
  577TMC3    C6 8610   2.203   4.254  11.473 -0.1888  0.2648  0.3008
  577TMC3     C 8611   2.182   3.976  11.792 -0.4566  0.3426 -0.0425
  577TMC3     O 8612   2.181   3.858  11.757  0.5103  0.3188  0.4058
  577TMC3     H 8613   2.122   3.934  11.546  1.2587 -0.4956 -0.8992
  577TMC3    H1 8614   2.260   4.245  11.811  0.2362  0.4217 -0.1528
  577TMC3    H2 8615   2.217   4.318  11.386  3.5428 -2.1387 -0.8923
  577TMC3    C7 8616   2.294   4.422  11.630  0.4704  0.2516 -0.0718
  577TMC3    C8 8617   2.152   4.069  11.324  0.4650 -0.1538 -0.1102
  577TMC3    O1 8618   2.374   4.435  11.724 -0.3733  0.1109  0.2283
  577TMC3    O2 8619   2.084   3.969  11.322 -0.4955 -0.1611  0.4984
  578MPD2     C 8620   4.727   3.958   1.570  0.2430 -0.2653  0.0563
  578MPD2    C1 8621   0.107   4.022   1.541  0.0994 -0.1675  0.0216
  578MPD2    C2 8622   0.224   3.953   1.539  0.0144 -0.4209 -0.4358
  578MPD2    C3 8623   0.221   3.813   1.559 -0.0795  0.0150 -0.5062
  578MPD2    C4 8624   0.100   3.746   1.584  0.1268 -0.1668 -0.1423
  578MPD2    C5 8625   4.724   3.820   1.590  0.6053  0.3738 -0.4944
  578MPD2     H 8626   0.325   3.989   1.524  0.3463 -0.7886  0.8682
  578MPD2    H1 8627   0.101   3.640   1.605 -0.0892 -0.1960 -0.2787
  578MPD2    H2 8628   4.630   4.005   1.569  1.0081  1.2840 -1.9247
  578MPD2    H3 8629   4.630   3.769   1.606  0.8308  0.2938  0.5860
  578MPD2     N 8630   0.342   3.737   1.551  0.1656 -0.6116 -0.1594
  578MPD2    H5 8631   0.431   3.785   1.563 -0.5862  1.2423 -1.9466
  578MPD2    N1 8632   0.095   4.159   1.502 -0.2239  0.5068  0.2788
  578MPD2    H7 8633   0.002   4.200   1.510 -0.8354 -0.6524 -0.8669
  579TMC3    C1 8634   0.485   3.558   1.518 -0.1120 -0.2417 -0.6381
  579TMC3    C2 8635   0.577   3.610   1.608  0.1059  0.1028  0.8017
  579TMC3    C3 8636   0.702   3.615   1.564 -0.4804  0.8922 -1.1734
  579TMC3    C4 8637   0.523   3.508   1.396  0.1267 -0.3048 -0.1326
  579TMC3    C5 8638   0.650   3.528   1.356 -0.0983 -0.5845  0.6985
  579TMC3    C6 8639   0.743   3.578   1.435 -0.4554 -0.1825 -0.7275
  579TMC3     C 8640   0.350   3.601   1.527  0.0075 -0.3784 -0.7134
  579TMC3     O 8641   0.273   3.537   1.459  0.1251  0.2768 -0.0212
  579TMC3     H 8642   0.539   3.658   1.697 -0.7274 -0.7138  0.8827
  579TMC3    H1 8643   0.453   3.465   1.325 -1.6410 -1.6163  2.3813
  579TMC3    H2 8644   0.847   3.579   1.403 -0.6293 -0.2231 -1.2909
  579TMC3    C7 8645   0.680   3.526   1.210 -0.2645  0.5183  0.2980
  579TMC3    C8 8646   0.795   3.689   1.649 -0.3806 -0.0641 -0.0534
  579TMC3    O1 8647   0.794   3.507   1.170  0.2025  0.5988 -0.7324
  579TMC3    O2 8648   0.786   3.672   1.769  0.0875 -0.1527 -0.1430
  580TMC3    C1 8649   4.572   3.719  12.525  0.1346  0.1543 -0.8411
  580TMC3    C2 8650   4.680   3.777  12.461 -0.0924  0.1004 -0.5583
  580TMC3    C3 8651   0.056   3.701  12.453  0.3687  0.5630 -0.5523
  580TMC3    C4 8652   4.576   3.586  12.557  0.6211 -0.0880 -0.3207
  580TMC3    C5 8653   4.689   3.511  12.525 -0.2704  0.1025  0.1717
  580TMC3    C6 8654   0.067   3.573  12.484  0.4458  0.2251  0.2564
  580TMC3     C 8655   4.441   3.775  12.487 -0.4111 -0.4349 -0.2211
  580TMC3     O 8656   4.433   3.896  12.462  0.6198 -0.1240 -0.3246
  580TMC3     H 8657   4.681   3.881  12.429 -0.6414  0.7705  1.6017
  580TMC3    H1 8658   4.496   3.530  12.605  0.7225  0.4761  0.5172
  580TMC3    H2 8659   0.165   3.534  12.458  0.2373  0.6515 -1.1749
  580TMC3    C7 8660   4.652   3.375  12.479 -0.8017 -0.0280 -0.7545
  580TMC3    C8 8661   0.171   3.765  12.404  0.3471 -0.5445  0.3029
  580TMC3    O1 8662   4.562   3.324  12.543  0.0450 -0.2419 -0.3552
  580TMC3    O2 8663   0.277   3.736  12.456 -0.4503  0.6340 -0.4084
  581MPD2     C 8664   2.289   3.125  14.411 -0.0144  0.3195 -0.1150
  581MPD2    C1 8665   2.284   3.153  14.546 -0.7214 -0.0383 -0.6542
  581MPD2    C2 8666   2.178   3.217  14.605  0.3087 -0.4635 -0.1937
  581MPD2    C3 8667   2.067   3.243  14.527  0.3126 -0.3531 -0.6392
  581MPD2    C4 8668   2.061   3.212  14.390  0.3842  0.0017 -0.0736
  581MPD2    C5 8669   2.176   3.164  14.337  0.2338  0.2823  0.2020
  581MPD2     H 8670   2.170   3.233  14.711 -1.6493  0.7340 -0.5222
  581MPD2    H1 8671   1.974   3.230  14.327 -0.4781 -0.1633  1.0714
  581MPD2    H2 8672   2.383   3.105  14.361  0.4156 -1.0747  1.2719
  581MPD2    H3 8673   2.178   3.142  14.231  1.8921  3.6460 -0.4357
  581MPD2     N 8674   1.949   3.292  14.599  0.5219 -0.0378 -0.2354
  581MPD2    H5 8675   1.945   3.321  14.696 -0.2479  3.3318 -1.2997
  581MPD2    N1 8676   2.404   3.116  14.615  0.6336 -0.3691  0.4127
  581MPD2    H7 8677   2.465   3.051  14.567  0.4374 -1.5488  1.7726
  582TMC3    C1 8678   2.527   3.043  14.794  0.2565 -0.0767  0.0657
  582TMC3    C2 8679   2.592   3.078  14.910 -0.4323 -0.2482 -0.1615
  582TMC3    C3 8680   2.600   2.982  15.009 -0.6460  0.6213 -0.1145
  582TMC3    C4 8681   2.488   2.916  14.773 -0.0865  0.3694 -0.5158
  582TMC3    C5 8682   2.501   2.818  14.872 -0.0209  0.0603  0.2611
  582TMC3    C6 8683   2.555   2.854  14.989 -0.6664 -0.2058  0.2143
  582TMC3     C 8684   2.427   3.140  14.749  0.4731 -0.2200  0.8513
  582TMC3     O 8685   2.392   3.220  14.835 -0.0572  0.4874  0.4067
  582TMC3     H 8686   2.616   3.181  14.935 -0.0355 -0.1842 -0.7948
  582TMC3    H1 8687   2.438   2.892  14.680  0.1903  0.4612 -0.6894
  582TMC3    H2 8688   2.553   2.789  15.076 -1.3344  0.0638  0.4017
  582TMC3    C7 8689   2.371   2.766  14.874 -0.3766  0.3005  0.0762
  582TMC3    C8 8690   2.606   3.022  15.151  0.4826  1.0415 -0.4080
  582TMC3    O1 8691   2.326   2.699  14.784  0.7360  0.0448  0.1594
  582TMC3    O2 8692   2.519   2.968  15.221  0.1179 -0.1161  0.1974
  583MPD2     C 8693   2.777   0.193  17.282  0.4750  0.1167  0.2436
  583MPD2    C1 8694   2.772   0.267  17.164  0.0358 -0.7404 -0.4974
  583MPD2    C2 8695   2.701   0.381  17.155 -0.2988 -0.3328 -0.3269
  583MPD2    C3 8696   2.628   0.428  17.267 -0.1047 -0.5038  0.2731
  583MPD2    C4 8697   2.641   0.354  17.389  0.2131 -0.3297 -0.1655
  583MPD2    C5 8698   2.719   0.241  17.396 -0.0473  0.2110 -0.4479
  583MPD2     H 8699   2.701   0.421  17.054  0.7218  0.4283 -0.0343
  583MPD2    H1 8700   2.594   0.394  17.477 -1.4656 -2.1480 -0.2256
  583MPD2    H2 8701   2.816   0.092  17.291 -0.2623 -0.1160  0.8444
  583MPD2    H3 8702   2.735   0.188  17.488  0.5208  1.3586  0.1107
  583MPD2     N 8703   2.550   0.545  17.258 -0.3462  0.1726 -0.3112
  583MPD2    H5 8704   2.551   0.584  17.164 -2.7069  1.6809  0.2856
  583MPD2    N1 8705   2.834   0.218  17.045  0.7072 -0.1764 -0.0161
  583MPD2    H7 8706   2.817   0.275  16.962 -0.0341  0.8635  0.8471
  584TMC3    C1 8707   2.399   0.724  17.333  0.7450 -0.4262  0.7561
  584TMC3    C2 8708   2.392   0.778  17.212  0.3602  0.6027  0.3184
  584TMC3    C3 8709   2.323   0.889  17.194  0.2895 -0.1555  0.3160
  584TMC3    C4 8710   2.359   0.800  17.439 -0.2029  0.0819 -0.3215
  584TMC3    C5 8711   2.287   0.915  17.419 -0.2492 -0.8682 -0.0807
  584TMC3    C6 8712   2.267   0.967  17.298  0.3135  0.2980  0.1213
  584TMC3     C 8713   2.479   0.608  17.366 -0.1031 -0.3927 -0.3023
  584TMC3     O 8714   2.485   0.574  17.481  0.1582 -1.0426 -0.6950
  584TMC3     H 8715   2.444   0.733  17.128  0.4496 -0.2207  0.8074
  584TMC3    H1 8716   2.361   0.762  17.541 -0.8410 -0.1479 -0.3906
  584TMC3    H2 8717   2.216   1.061  17.280  0.2210  0.2086 -0.0796
  584TMC3    C7 8718   2.278   1.014  17.523  0.3758 -0.3048 -0.3834
  584TMC3    C8 8719   2.324   0.940  17.057 -0.0755  0.3154  0.6320
  584TMC3    O1 8720   2.287   1.130  17.495  0.0186  0.4645 -0.1241
  584TMC3    O2 8721   2.345   0.858  16.972  0.3485 -0.4864  0.0382
  585MPD2     C 8722   1.416   3.851   0.308 -0.1655  0.1884  0.2110
  585MPD2    C1 8723   1.518   3.888   0.229  0.3384  0.5392 -0.2251
  585MPD2    C2 8724   1.585   3.789   0.155 -0.3425  0.3412 -0.5350
  585MPD2    C3 8725   1.548   3.654   0.155 -0.0336 -0.4196 -0.4024
  585MPD2    C4 8726   1.437   3.623   0.238  0.7094 -0.5786 -0.4430
  585MPD2    C5 8727   1.379   3.724   0.311  0.3079  0.1851  0.0787
  585MPD2     H 8728   1.672   3.809   0.093 -0.9717  0.9143 -1.2374
  585MPD2    H1 8729   1.386   3.527   0.241  0.2864 -0.3892 -1.5691
  585MPD2    H2 8730   1.352   3.924   0.355  0.7230  0.9328  0.2730
  585MPD2    H3 8731   1.286   3.699   0.361  0.0375  2.0890  0.5467
  585MPD2     N 8732   1.600   3.560   0.064  0.3486  0.1827  0.2391
  585MPD2    H5 8733   1.564   3.466   0.078 -1.7890  0.6340 -2.2133
  585MPD2    N1 8734   1.545   4.022   0.228  0.3129 -0.3178 -0.1346
  585MPD2    H7 8735   1.491   4.079   0.292 -2.6504 -2.0491 -1.0638
  586TMC3    C1 8736   1.686   3.461  17.609  0.5755  0.7985 -0.4304
  586TMC3    C2 8737   1.800   3.438  17.537 -0.2510 -0.0750 -0.5388
  586TMC3    C3 8738   1.788   3.346  17.441  0.7516  0.8655  0.1575
  586TMC3    C4 8739   1.567   3.400  17.567  0.4744 -0.5811 -0.4066
  586TMC3    C5 8740   1.556   3.322  17.458  0.5695 -0.5030  0.2515
  586TMC3    C6 8741   1.673   3.283  17.403 -0.1924  0.5791 -0.9722
  586TMC3     C 8742   1.688   3.577  17.699  0.8603 -0.2739  0.2338
  586TMC3     O 8743   1.777   3.656  17.674  0.1661  0.9747  0.2495
  586TMC3     H 8744   1.894   3.467  17.582 -0.0764 -0.3140 -0.7443
  586TMC3    H1 8745   1.479   3.431  17.623 -0.6652 -2.7055 -1.0218
  586TMC3    H2 8746   1.685   3.205  17.329 -0.7663  0.0957 -0.5589
  586TMC3    C7 8747   1.427   3.303  17.406  0.8078 -0.0800 -0.5505
  586TMC3    C8 8748   1.912   3.290  17.393 -0.4295 -0.6072  0.5091
  586TMC3    O1 8749   1.342   3.258  17.476 -0.1620  0.1361  0.4400
  586TMC3    O2 8750   1.903   3.178  17.341  0.4026  0.6758 -0.2953
  587TMC3    C1 8751   3.659   2.940  16.127 -0.5508  0.2367  0.5836
  587TMC3    C2 8752   3.713   3.031  16.221 -0.4487 -0.2230 -0.6507
  587TMC3    C3 8753   3.841   3.018  16.275  0.0215 -0.7260  0.0516
  587TMC3    C4 8754   3.735   2.833  16.093 -0.2160  0.9381  0.1006
  587TMC3    C5 8755   3.859   2.820  16.155 -0.0481  0.8974  1.1263
  587TMC3    C6 8756   3.912   2.910  16.243  0.0393 -0.8863  0.8167
  587TMC3     C 8757   3.537   2.971  16.048  0.2908  0.1986  0.0434
  587TMC3     O 8758   3.522   3.087  16.006  0.1734 -0.3074 -0.7693
  587TMC3     H 8759   3.663   3.127  16.232 -2.8838 -1.6028  0.4013
  587TMC3    H1 8760   3.706   2.759  16.019  2.4569 -0.4108  0.3789
  587TMC3    H2 8761   4.002   2.904  16.304  0.3798  0.4852  0.4488
  587TMC3    C7 8762   3.923   2.699  16.117  0.5087  0.1791 -0.9363
  587TMC3    C8 8763   3.877   3.093  16.400  0.0436 -0.4042  1.0606
  587TMC3    O1 8764   3.863   2.613  16.054 -0.1557 -0.8558  0.4124
  587TMC3    O2 8765   3.965   3.051  16.469 -0.0908  0.0652 -0.7434
  588TMC3    C1 8766   1.505   0.883   9.542  0.0140 -0.3677  0.4876
  588TMC3    C2 8767   1.448   0.767   9.481 -0.2661 -0.0810  0.0665
  588TMC3    C3 8768   1.509   0.650   9.507  0.3721  0.0377 -0.0390
  588TMC3    C4 8769   1.631   0.887   9.597  1.2587 -0.4041 -0.0867
  588TMC3    C5 8770   1.693   0.763   9.610 -0.3761 -0.2909  0.5044
  588TMC3    C6 8771   1.630   0.646   9.564  0.1057  0.5547  0.3828
  588TMC3     C 8772   1.452   1.007   9.496 -0.1187  0.0603  0.7116
  588TMC3     O 8773   1.463   1.045   9.380  0.0863 -0.3920  0.0459
  588TMC3     H 8774   1.347   0.768   9.443  0.2703  2.4321 -1.2986
  588TMC3    H1 8775   1.678   0.983   9.617  0.7214  0.3715 -2.5023
  588TMC3    H2 8776   1.683   0.552   9.555 -2.2557 -0.7176 -0.2150
  588TMC3    C7 8777   1.781   0.751   9.723  0.5838 -0.4899 -0.0647
  588TMC3    C8 8778   1.439   0.523   9.494  0.2007  0.1249  0.5004
  588TMC3    O1 8779   1.863   0.666   9.726 -0.2880  0.2023  0.2099
  588TMC3    O2 8780   1.349   0.519   9.406 -0.3639  0.5417 -0.2845
  589TMC3    C1 8781   0.716   2.525   0.906  0.9119  0.0804  0.0150
  589TMC3    C2 8782   0.776   2.602   0.996 -0.6578  0.0464 -0.6101
  589TMC3    C3 8783   0.903   2.576   1.028  0.3805 -0.2742 -0.0721
  589TMC3    C4 8784   0.780   2.433   0.834  0.0291  0.5790 -0.0786
  589TMC3    C5 8785   0.910   2.401   0.872  0.5136 -0.0655  0.7543
  589TMC3    C6 8786   0.977   2.472   0.971 -0.1418 -0.3028 -0.4956
  589TMC3     C 8787   0.588   2.565   0.847 -0.2217  0.2626 -0.1005
  589TMC3     O 8788   0.571   2.564   0.725  0.0163 -0.0106 -0.6001
  589TMC3     H 8789   0.728   2.687   1.043 -2.7998 -1.4907 -0.0206
  589TMC3    H1 8790   0.739   2.388   0.744  0.3814  1.8892 -0.8947
  589TMC3    H2 8791   1.072   2.441   1.013  0.2560  1.7382  0.1143
  589TMC3    C7 8792   0.962   2.282   0.802 -0.5675 -0.3932 -0.5567
  589TMC3    C8 8793   0.976   2.672   1.114  0.3203  0.5883  0.2228
  589TMC3    O1 8794   0.878   2.213   0.748 -0.5058 -0.2676  0.2347
  589TMC3    O2 8795   0.908   2.755   1.176 -0.4167  0.1519 -0.2204
  590MPD2     C 8796   0.179   0.589  16.348  0.7288 -0.1362 -0.7159
  590MPD2    C1 8797   0.146   0.719  16.369 -0.2285  0.1712 -0.1413
  590MPD2    C2 8798   0.219   0.827  16.319  0.1260  0.0451 -0.2933
  590MPD2    C3 8799   0.330   0.797  16.235  0.4020  0.6702 -0.6317
  590MPD2    C4 8800   0.358   0.660  16.215 -0.1810  0.0094  0.2311
  590MPD2    C5 8801   0.290   0.558  16.273  0.3523 -0.0737 -0.3371
  590MPD2     H 8802   0.193   0.931  16.332  1.7672  0.4763 -0.4291
  590MPD2    H1 8803   0.437   0.629  16.147  0.1599 -0.9859  1.0806
  590MPD2    H2 8804   0.124   0.505  16.389  2.0842 -2.0091 -2.7456
  590MPD2    H3 8805   0.326   0.457  16.256 -1.9891 -0.7799 -1.1792
  590MPD2     N 8806   0.411   0.890  16.161 -0.3311 -0.0893 -0.2669
  590MPD2    H5 8807   0.482   0.851  16.100  0.4603 -1.3199  1.4097
  590MPD2    N1 8808   0.026   0.742  16.448 -0.5332  0.1447  0.7160
  590MPD2    H7 8809   4.703   0.661  16.469  1.4049 -1.9384 -2.1148
  591TMC3    C1 8810   0.452   1.101  16.056  0.0072  0.3522  0.0333
  591TMC3    C2 8811   0.527   1.028  15.967 -0.0226 -0.3626 -0.4478
  591TMC3    C3 8812   0.534   1.071  15.835 -0.3611  0.8659  0.7867
  591TMC3    C4 8813   0.380   1.210  16.017 -0.5036  0.1361  0.0583
  591TMC3    C5 8814   0.388   1.243  15.884 -0.1261 -0.0783  0.3101
  591TMC3    C6 8815   0.459   1.176  15.791  0.2470 -0.0560 -0.0281
  591TMC3     C 8816   0.379   1.027  16.158  0.0688  0.3884  0.7480
  591TMC3     O 8817   0.305   1.091  16.228 -0.5488  0.4244  0.3809
  591TMC3     H 8818   0.585   0.943  16.001  1.5812  0.6824 -0.5364
  591TMC3    H1 8819   0.321   1.265  16.090  2.2995  0.3504  2.1517
  591TMC3    H2 8820   0.464   1.215  15.690  0.8425  0.5178  0.2193
  591TMC3    C7 8821   0.315   1.365  15.853  0.9404  0.1281 -0.8324
  591TMC3    C8 8822   0.588   0.983  15.732  0.3521 -1.1726 -0.0305
  591TMC3    O1 8823   0.223   1.384  15.931 -0.4077  0.6284 -0.1888
  591TMC3    O2 8824   0.590   0.867  15.764  0.3256  0.0107 -0.2181
  592MPD2     C 8825   0.382   3.703  11.749  0.8048 -0.3954 -0.6449
  592MPD2    C1 8826   0.491   3.667  11.831  0.2843 -0.4810 -0.0620
  592MPD2    C2 8827   0.481   3.553  11.904 -0.0882  0.0957  0.3129
  592MPD2    C3 8828   0.359   3.480  11.893 -0.1049 -0.4270  0.0666
  592MPD2    C4 8829   0.248   3.524  11.833 -0.5235  0.0623  1.2343
  592MPD2    C5 8830   0.264   3.629  11.749 -0.2817  0.4999  0.7794
  592MPD2     H 8831   0.563   3.505  11.957  0.4162 -2.9335 -3.1128
  592MPD2    H1 8832   0.158   3.464  11.824 -0.9797  0.5647  2.4384
  592MPD2    H2 8833   0.383   3.786  11.680  0.0918  0.7390  0.7214
  592MPD2    H3 8834   0.187   3.659  11.678  1.4831  1.8737 -0.5528
  592MPD2     N 8835   0.367   3.352  11.948 -0.3008 -0.8564 -0.1985
  592MPD2    H5 8836   0.455   3.342  11.996 -0.2995 -1.4489 -0.3296
  592MPD2    N1 8837   0.599   3.756  11.822 -0.2332  0.1598  0.7611
  592MPD2    H7 8838   0.599   3.829  11.751  0.3354  0.6853  1.3013
  593TMC3    C1 8839   0.783   3.859  11.922 -0.5099  0.4552  0.0634
  593TMC3    C2 8840   0.824   3.919  12.036 -0.2937 -0.9385  0.0551
  593TMC3    C3 8841   0.919   4.016  12.023  0.1529 -0.3758  0.3382
  593TMC3    C4 8842   0.824   3.887  11.794  0.5853  0.1801  0.3292
  593TMC3    C5 8843   0.927   3.982  11.793  0.1102 -0.5975  0.0961
  593TMC3    C6 8844   0.974   4.051  11.904  0.4548  0.3340 -0.8397
  593TMC3     C 8845   0.689   3.756  11.926  0.0173 -0.0176 -0.0196
  593TMC3     O 8846   0.670   3.718  12.039 -0.0653  0.2013 -0.4797
  593TMC3     H 8847   0.788   3.890  12.134  2.0405 -2.9212  0.3196
  593TMC3    H1 8848   0.807   3.826  11.706 -0.0798 -0.0729  0.6347
  593TMC3    H2 8849   1.047   4.131  11.901  0.1980  0.5545 -1.1460
  593TMC3    C7 8850   0.994   4.016  11.671  0.2077  0.3104  0.0996
  593TMC3    C8 8851   0.983   4.062  12.146 -0.2639  0.3009 -0.5853
  593TMC3    O1 8852   1.106   4.068  11.677  0.8293 -0.1758 -0.2711
  593TMC3    O2 8853   0.913   4.092  12.244 -0.1813 -0.7829  0.0561
  594MPD2     C 8854   3.730   1.684  13.820 -1.1706 -0.2993  0.2798
  594MPD2    C1 8855   3.766   1.660  13.950  0.4767  0.0584 -0.0832
  594MPD2    C2 8856   3.901   1.676  13.980  0.2936  0.6710 -0.2475
  594MPD2    C3 8857   3.993   1.719  13.893 -0.2466  1.0440  0.3508
  594MPD2    C4 8858   3.954   1.742  13.764  0.0865 -0.0651  0.2361
  594MPD2    C5 8859   3.824   1.730  13.736  0.6577  0.2708  0.5527
  594MPD2     H 8860   3.927   1.662  14.084 -3.4187  0.0493  0.5889
  594MPD2    H1 8861   4.022   1.779  13.688 -0.3488  0.4505  0.0994
  594MPD2    H2 8862   3.626   1.696  13.793 -1.1666 -1.4957 -0.2474
  594MPD2    H3 8863   3.790   1.771  13.641 -4.3879 -1.8944  1.3934
  594MPD2     N 8864   4.115   1.763  13.941  0.5350 -0.1759  0.1828
  594MPD2    H5 8865   4.129   1.765  14.041  0.5583 -0.1753  0.1795
  594MPD2    N1 8866   3.669   1.618  14.045 -0.1699  0.2351  0.3287
  594MPD2    H7 8867   3.573   1.614  14.012 -0.2150 -0.5941  0.5809
  595TMC3    C1 8868   4.496   2.026  13.964  0.1106 -0.0630 -0.2244
  595TMC3    C2 8869   4.424   1.931  13.900  0.2472 -0.0213  0.4103
  595TMC3    C3 8870   4.308   1.889  13.954 -0.7074  0.0328  0.0175
  595TMC3    C4 8871   4.450   2.089  14.076  0.0511  0.7810 -0.6742
  595TMC3    C5 8872   4.325   2.057  14.120 -0.1995  0.6620 -0.2853
  595TMC3    C6 8873   4.255   1.955  14.062 -0.6133  0.1149 -0.2275
  595TMC3     C 8874   4.639   2.032  13.954  0.1443  0.2838 -0.5051
  595TMC3     O 8875   4.697   2.092  14.042  0.0880  0.4691  0.6980
  595TMC3     H 8876   4.456   1.889  13.806  1.5421 -2.3292  1.8997
  595TMC3    H1 8877   4.508   2.163  14.129  0.6771  0.3504 -0.7528
  595TMC3    H2 8878   4.159   1.925  14.104 -0.9101  2.2828  0.6025
  595TMC3    C7 8879   4.277   2.112  14.243  0.3869 -0.2380  0.0573
  595TMC3    C8 8880   4.214   1.817  13.869  0.0483  0.6685 -0.4012
  595TMC3    O1 8881   4.156   2.131  14.246 -0.3422 -0.2475  0.1921
  595TMC3    O2 8882   4.235   1.805  13.750  0.5462  0.0373 -0.3883
  596MPD2     C 8883   3.735   0.148  17.245 -0.2349  0.3529 -0.0238
  596MPD2    C1 8884   3.722   0.236  17.136 -0.9150 -0.1840  0.2553
  596MPD2    C2 8885   3.745   0.200  17.006 -0.1897  0.0969 -0.2078
  596MPD2    C3 8886   3.787   0.072  16.977 -0.2209 -0.0813  0.1051
  596MPD2    C4 8887   3.806   4.718  17.084  0.0214  0.3856 -0.3186
  596MPD2    C5 8888   3.787   0.024  17.215 -0.0366 -0.9476 -0.6923
  596MPD2     H 8889   3.720   0.270  16.926 -0.0208  0.6860  0.2538
  596MPD2    H1 8890   3.846   4.619  17.068  2.0094  0.7957  1.9917
  596MPD2    H2 8891   3.731   0.190  17.345  2.2830 -0.1193  0.2939
  596MPD2    H3 8892   3.808   4.685  17.291 -0.8405 -0.7938 -0.3185
  596MPD2     N 8893   3.787   0.027  16.849 -0.3793 -0.6756 -0.2156
  596MPD2    H5 8894   3.788   4.660  16.852 -0.8879 -0.6464  0.7243
  596MPD2    N1 8895   3.683   0.376  17.152 -0.3721 -0.5633 -1.1967
  596MPD2    H7 8896   3.675   0.425  17.063  0.2472 -0.7134 -1.3426
  597TMC3    C1 8897   3.568   0.569  17.227  0.8180 -0.1439  0.0556
  597TMC3    C2 8898   3.600   0.619  17.101  0.5290 -0.6158  0.7517
  597TMC3    C3 8899   3.522   0.705  17.040  0.4948  0.1152  0.2147
  597TMC3    C4 8900   3.455   0.615  17.294  0.5750 -0.0469  0.5175
  597TMC3    C5 8901   3.382   0.712  17.225  0.2620 -0.3381  0.1520
  597TMC3    C6 8902   3.412   0.753  17.096  0.7247 -0.1566 -0.1621
  597TMC3     C 8903   3.621   0.435  17.260  0.2169  0.1523 -0.0957
  597TMC3     O 8904   3.595   0.383  17.369  0.1640  0.3051  0.0352
  597TMC3     H 8905   3.697   0.595  17.058  1.4912  1.7039  1.6389
  597TMC3    H1 8906   3.428   0.575  17.391  0.5388  0.3579  0.6759
  597TMC3    H2 8907   3.348   0.821  17.042  1.3601  0.1098 -0.5835
  597TMC3    C7 8908   3.258   0.763  17.278 -0.1221 -0.1105  0.1168
  597TMC3    C8 8909   3.562   0.756  16.911 -0.5138 -0.1079  0.9202
  597TMC3    O1 8910   3.237   0.726  17.393  0.0409  0.5890 -0.0530
  597TMC3    O2 8911   3.639   0.685  16.848  0.9212  0.2521  0.0042
  598TMC3    C1 8912   1.341   1.198  15.174 -0.0384 -0.9505 -0.6360
  598TMC3    C2 8913   1.247   1.101  15.161 -0.4524 -0.0437 -0.1202
  598TMC3    C3 8914   1.163   1.098  15.053  0.3060  0.0346  0.0999
  598TMC3    C4 8915   1.353   1.303  15.085  1.0682 -0.7914 -0.2244
  598TMC3    C5 8916   1.255   1.309  14.993  0.4948 -0.2066 -0.0939
  598TMC3    C6 8917   1.165   1.203  14.968  1.1988  0.1345  0.6546
  598TMC3     C 8918   1.356   1.240  15.315  0.0261 -0.9212  0.4228
  598TMC3     O 8919   1.333   1.358  15.342 -0.1055  0.3951 -0.2367
  598TMC3     H 8920   1.229   1.035  15.245 -0.6895 -0.1999 -0.2961
  598TMC3    H1 8921   1.414   1.390  15.107  0.0479  0.6896 -3.3335
  598TMC3    H2 8922   1.102   1.206  14.880  1.4245 -1.5212  0.4382
  598TMC3    C7 8923   1.267   1.401  14.878  0.0338  0.0333 -0.4438
  598TMC3    C8 8924   1.075   0.981  15.024  0.3933 -0.9666 -0.3235
  598TMC3    O1 8925   1.220   1.361  14.773 -0.2997 -0.2926 -0.1921
  598TMC3    O2 8926   1.048   0.902  15.116 -0.3784  0.3094  0.3419
  599MPD2     C 8927   1.050   3.387  15.592  0.2915 -0.6209  0.3648
  599MPD2    C1 8928   1.150   3.400  15.686  0.0173 -0.3891 -0.2565
  599MPD2    C2 8929   1.112   3.420  15.810 -0.1570  0.1772  0.0357
  599MPD2    C3 8930   0.977   3.427  15.841  0.3609 -0.2066 -0.1095
  599MPD2    C4 8931   0.879   3.403  15.747 -0.5796  0.5899 -0.5424
  599MPD2    C5 8932   0.915   3.379  15.617  0.1956 -0.2697 -0.4295
  599MPD2     H 8933   1.192   3.419  15.883 -0.8060  2.0182  0.8054
  599MPD2    H1 8934   0.775   3.407  15.778 -0.2158 -2.5057  1.0791
  599MPD2    H2 8935   1.069   3.357  15.490  0.5107  0.5774  0.0547
  599MPD2    H3 8936   0.839   3.372  15.539 -1.2640  1.0615  0.8563
  599MPD2     N 8937   0.929   3.449  15.963  0.3218  0.3526 -0.1461
  599MPD2    H5 8938   0.828   3.442  15.970  0.5049 -0.6609  1.2950
  599MPD2    N1 8939   1.288   3.393  15.637 -0.2240  0.2448 -0.3187
  599MPD2    H7 8940   1.304   3.367  15.540 -1.0189  0.7811 -0.5974
  600TMC3    C1 8941   0.921   3.500  16.190 -0.5328  0.8994  0.2042
  600TMC3    C2 8942   0.808   3.424  16.205 -0.1289 -0.6750 -0.5560
  600TMC3    C3 8943   0.748   3.403  16.328 -0.7288 -0.6258 -0.0840
  600TMC3    C4 8944   0.969   3.575  16.295  0.0391  0.2426 -0.3529
  600TMC3    C5 8945   0.897   3.562  16.413 -0.8563 -0.2065  0.6902
  600TMC3    C6 8946   0.787   3.481  16.432 -0.1138  1.1215  0.2961
  600TMC3     C 8947   1.003   3.491  16.076  0.6848  0.3290 -0.0085
  600TMC3     O 8948   1.120   3.518  16.093 -0.1928  0.3869  0.0677
  600TMC3     H 8949   0.786   3.346  16.133  0.3719  0.7542 -2.2677
  600TMC3    H1 8950   1.046   3.649  16.277 -0.1286  0.3592 -0.5949
  600TMC3    H2 8951   0.738   3.467  16.528 -0.6682  0.3021 -0.1176
  600TMC3    C7 8952   0.951   3.629  16.529  0.1569  0.6295  0.4430
  600TMC3    C8 8953   0.627   3.330  16.342  0.3588  0.5388 -0.1474
  600TMC3    O1 8954   0.892   3.622  16.637 -0.3125 -0.3155 -0.2965
  600TMC3    O2 8955   0.612   3.275  16.451 -0.7712  0.3109 -0.2818
  601MPD2     C 8956   3.477   2.979  17.634  0.6727  0.3990  0.1121
  601MPD2    C1 8957   3.377   2.893  17.598  0.4114 -0.2313 -0.7416
  601MPD2    C2 8958   3.359   2.777  17.673 -0.2480 -0.2202 -0.3831
  601MPD2    C3 8959   3.424   2.761   0.056 -0.6650  0.2217  0.4861
  601MPD2    C4 8960   3.512   2.854   0.098  0.1671  0.2033  0.4796
  601MPD2    C5 8961   3.536   2.964   0.025  0.2904 -0.6820 -0.1019
  601MPD2     H 8962   3.279   2.717  17.632  0.9371  0.8170 -4.2346
  601MPD2    H1 8963   3.564   2.845   0.193 -0.2844  0.3360  0.7414
  601MPD2    H2 8964   3.511   3.058  17.568 -1.5712  1.4441  0.2025
  601MPD2    H3 8965   3.611   3.028   0.071  0.6822 -2.3709  1.5710
  601MPD2     N 8966   3.408   2.642   0.131  0.8544 -0.5355  0.3400
  601MPD2    H5 8967   3.430   2.653   0.230  2.0377  0.1157 -0.0023
  601MPD2    N1 8968   3.286   2.917  17.490  0.3660  0.0990  0.0784
  601MPD2    H7 8969   3.217   2.845  17.473  2.2328 -1.3847 -1.2899
  602TMC3    C1 8970   3.169   3.040  17.330 -0.1382 -0.9405  0.0323
  602TMC3    C2 8971   3.101   3.158  17.325  0.4331 -0.4348 -0.5116
  602TMC3    C3 8972   2.974   3.157  17.265  0.4476  0.0535 -0.2109
  602TMC3    C4 8973   3.129   2.925  17.264 -0.3821 -0.4948 -0.4747
  602TMC3    C5 8974   3.007   2.931  17.200  0.5461  0.5518 -0.4030
  602TMC3    C6 8975   2.927   3.046  17.200  0.1407 -0.6085 -0.0718
  602TMC3     C 8976   3.276   3.037  17.423 -0.0417  0.6235 -0.5989
  602TMC3     O 8977   3.343   3.137  17.427 -0.0626 -0.1793 -0.0164
  602TMC3     H 8978   3.148   3.248  17.363 -0.9949 -0.2166  0.7485
  602TMC3    H1 8979   3.205   2.848  17.260 -0.9983 -1.0154 -2.1802
  602TMC3    H2 8980   2.821   3.032  17.183  0.2219 -2.4134  0.9111
  602TMC3    C7 8981   2.955   2.819  17.117 -0.1053 -0.1657 -0.0083
  602TMC3    C8 8982   2.928   3.285  17.216  0.1212  0.4331  0.7941
  602TMC3    O1 8983   2.997   2.703  17.139  0.5850  0.5168 -0.1385
  602TMC3    O2 8984   3.013   3.373  17.205 -0.0600  0.2530 -0.0267
  603TMC3    C1 8985   0.870   2.912  11.718 -0.4856 -0.0148 -0.1853
  603TMC3    C2 8986   0.994   2.856  11.735 -0.0982  0.3300 -0.3358
  603TMC3    C3 8987   1.100   2.927  11.690  0.1269 -0.8940  0.1007
  603TMC3    C4 8988   0.862   3.026  11.643 -0.1166  0.6324  0.2966
  603TMC3    C5 8989   0.971   3.083  11.588 -0.0292 -0.1496 -0.1669
  603TMC3    C6 8990   1.095   3.048  11.621  0.0796  0.0261 -0.1104
  603TMC3     C 8991   0.745   2.849  11.773 -0.2172 -0.0813  0.3791
  603TMC3     O 8992   0.640   2.866  11.706 -0.3537 -0.3054 -0.1496
  603TMC3     H 8993   1.019   2.764  11.787  1.7107  1.1382  0.2383
  603TMC3    H1 8994   0.758   3.056  11.631 -0.3927 -0.2068  0.5653
  603TMC3    H2 8995   1.180   3.093  11.571  0.6304  0.6944  1.4322
  603TMC3    C7 8996   0.946   3.181  11.480  0.5421 -0.1996  0.6196
  603TMC3    C8 8997   1.231   2.880  11.726  0.1257  0.2526  0.3545
  603TMC3    O1 8998   1.023   3.278  11.484  0.5323  0.5975 -0.5566
  603TMC3    O2 8999   1.236   2.761  11.735  0.0653 -0.0437 -0.3785
  604MPD2     C 9000   2.256   0.821  15.990  0.7985 -0.9176 -0.3292
  604MPD2    C1 9001   2.247   0.949  15.947 -0.2931 -0.2382 -0.2206
  604MPD2    C2 9002   2.313   0.993  15.838 -0.7493 -0.1689 -0.2423
  604MPD2    C3 9003   2.391   0.906  15.761 -0.4679 -1.0473 -0.5626
  604MPD2    C4 9004   2.392   0.774  15.797 -0.6336 -0.4729 -0.5287
  604MPD2    C5 9005   2.323   0.733  15.907  0.2166  0.0500 -0.5089
  604MPD2     H 9006   2.310   1.098  15.810 -2.5835  0.3100  1.7591
  604MPD2    H1 9007   2.453   0.699  15.747  0.0686 -0.0556 -0.2984
  604MPD2    H2 9008   2.195   0.781  16.070  0.3790  1.3128  0.4791
  604MPD2    H3 9009   2.329   0.626  15.927  0.6958 -0.2570 -2.2509
  604MPD2     N 9010   2.479   0.958  15.665  0.2234  0.4088 -0.3167
  604MPD2    H5 9011   2.478   1.058  15.643  2.2365  0.5156  0.0691
  604MPD2    N1 9012   2.174   1.034  16.022  0.2125 -0.9549 -0.7798
  604MPD2    H7 9013   2.165   0.997  16.116  0.4211  1.2105  0.0985
  605TMC3    C1 9014   2.067   1.233  16.093 -0.0706  0.1426 -0.2688
  605TMC3    C2 9015   2.147   1.249  16.202  0.1718 -0.4786 -0.2033
  605TMC3    C3 9016   2.139   1.373  16.265 -1.2301 -0.2424 -0.3844
  605TMC3    C4 9017   1.974   1.325  16.059  0.2716 -0.4232  0.2945
  605TMC3    C5 9018   1.955   1.437  16.131  0.4588  0.9941 -0.4899
  605TMC3    C6 9019   2.040   1.463  16.235 -1.0642  0.3224  0.2534
  605TMC3     C 9020   2.121   1.154  15.988  0.4446 -0.4791  0.1484
  605TMC3     O 9021   2.100   1.193  15.875 -0.4339 -0.1032  0.8515
  605TMC3     H 9022   2.221   1.175  16.228 -0.8628 -1.5149 -0.2003
  605TMC3    H1 9023   1.902   1.314  15.979 -0.4437 -0.9145  0.9959
  605TMC3    H2 9024   2.040   1.560  16.283 -0.4358  0.4675 -0.0366
  605TMC3    C7 9025   1.836   1.513  16.116 -0.5810  0.1988 -0.0419
  605TMC3    C8 9026   2.253   1.409  16.347  0.4023  0.0901 -0.1324
  605TMC3    O1 9027   1.836   1.636  16.133 -0.0158 -0.3705  1.0075
  605TMC3    O2 9028   2.363   1.357  16.316  0.4566 -0.1191 -0.1970
  606TMC3    C1 9029   4.070   0.717   0.881 -0.0512  0.1797 -0.3823
  606TMC3    C2 9030   4.133   0.629   0.798 -0.4057 -0.1234 -0.3956
  606TMC3    C3 9031   4.067   0.508   0.778 -0.3133 -0.8068  0.7398
  606TMC3    C4 9032   3.943   0.698   0.935  0.3867  0.1532  0.5606
  606TMC3    C5 9033   3.885   0.581   0.901  0.1473  0.1245 -0.8006
  606TMC3    C6 9034   3.942   0.483   0.825  0.3271  0.2359  0.1614
  606TMC3     C 9035   4.135   0.845   0.917 -0.1045 -0.3270 -0.0461
  606TMC3     O 9036   4.064   0.941   0.956 -0.0295 -0.1700  0.2518
  606TMC3     H 9037   4.226   0.661   0.754 -0.8576 -1.4080 -2.2531
  606TMC3    H1 9038   3.907   0.780   0.998 -0.7080 -0.5175  0.8032
  606TMC3    H2 9039   3.901   0.384   0.813  0.6290  0.6090 -3.8663
  606TMC3    C7 9040   3.765   0.541   0.971 -0.0356  0.7865 -0.1401
  606TMC3    C8 9041   4.104   0.411   0.674  0.2999  0.0902 -0.3735
  606TMC3    O1 9042   3.757   0.570   1.090  0.0752  0.4198 -0.5807
  606TMC3    O2 9043   4.044   0.307   0.656 -0.2869  0.0053  0.5845
  607MPD2     C 9044   0.590   3.388  11.583 -0.1336 -0.0688  0.2961
  607MPD2    C1 9045   0.705   3.436  11.633 -0.4459 -0.6744 -0.1311
  607MPD2    C2 9046   0.743   3.402  11.760  0.4510  0.2111 -0.2254
  607MPD2    C3 9047   0.699   3.287  11.816 -0.0897  0.0197  0.1920
  607MPD2    C4 9048   0.595   3.224  11.755  0.3808 -0.2824  1.0336
  607MPD2    C5 9049   0.538   3.281  11.644 -0.1183  0.1988 -0.1021
  607MPD2     H 9050   0.820   3.459  11.811 -1.1314  1.1300  1.1530
  607MPD2    H1 9051   0.552   3.132  11.794  2.4436 -1.3906  0.7065
  607MPD2    H2 9052   0.540   3.427  11.495 -1.7676 -1.8641  0.4376
  607MPD2    H3 9053   0.446   3.232  11.614  1.1686 -1.9944 -0.4932
  607MPD2     N 9054   0.760   3.252  11.940 -0.3891 -0.6009 -0.4690
  607MPD2    H5 9055   0.837   3.315  11.957 -1.4340  0.5988 -0.1570
  607MPD2    N1 9056   0.779   3.539  11.576 -0.6060 -0.3851  0.0260
  607MPD2    H7 9057   0.867   3.563  11.620 -1.2728 -1.3635  1.8728
  608TMC3    C1 9058   0.883   3.650  11.402  0.2798 -0.3703 -0.3296
  608TMC3    C2 9059   0.995   3.598  11.458  0.4348 -0.4314  0.4849
  608TMC3    C3 9060   1.115   3.617  11.388  0.1529 -1.1755 -0.2252
  608TMC3    C4 9061   0.884   3.722  11.291  0.1999  0.5539  0.3094
  608TMC3    C5 9062   1.000   3.742  11.221  0.0441  0.1009  0.2924
  608TMC3    C6 9063   1.121   3.695  11.275  0.2366  0.0460 -0.3212
  608TMC3     C 9064   0.763   3.591  11.451  0.0157  0.2100 -0.0344
  608TMC3     O 9065   0.663   3.594  11.377  0.2670 -0.1545 -0.2429
  608TMC3     H 9066   0.998   3.549  11.554 -2.0353 -0.3704  0.5812
  608TMC3    H1 9067   0.793   3.769  11.256  0.8943  2.8864  1.6190
  608TMC3    H2 9068   1.212   3.706  11.217 -1.7937 -2.6326 -4.0633
  608TMC3    C7 9069   0.992   3.799  11.093 -0.3017  0.0795 -0.6763
  608TMC3    C8 9070   1.244   3.575  11.440  0.0152 -0.0165  0.6059
  608TMC3    O1 9071   0.887   3.792  11.033  0.3580  0.1863  0.4184
  608TMC3    O2 9072   1.339   3.646  11.424  0.1561 -0.2527  0.8837
  609TMC3    C1 9073   4.526   1.955   8.686  1.0628  0.2184 -0.0167
  609TMC3    C2 9074   4.516   1.833   8.632  0.3384  0.7375  0.1133
  609TMC3    C3 9075   4.623   1.769   8.566  0.4445  1.2486 -0.3542
  609TMC3    C4 9076   4.635   2.028   8.659 -0.2455 -0.5364  0.9088
  609TMC3    C5 9077   0.005   1.966   8.606 -1.3346  0.0930  0.2770
  609TMC3    C6 9078   0.008   1.831   8.560  0.2183 -0.5114  0.5585
  609TMC3     C 9079   4.421   2.017   8.763  0.5960 -0.4904  0.4653
  609TMC3     O 9080   4.447   2.124   8.818 -0.1379 -0.0112 -0.1157
  609TMC3     H 9081   4.435   1.771   8.670  0.0592  0.7658 -0.4463
  609TMC3    H1 9082   4.633   2.134   8.683 -1.8894 -0.2540 -0.4771
  609TMC3    H2 9083   0.097   1.791   8.512  1.0970  2.0630  0.0816
  609TMC3    C7 9084   0.133   2.010   8.654 -0.4813 -0.5850 -0.1626
  609TMC3    C8 9085   4.624   1.629   8.540  0.5266  0.7540 -0.2111
  609TMC3    O1 9086   0.143   2.066   8.761  0.0605 -0.1033 -0.1369
  609TMC3    O2 9087   4.731   1.574   8.513  0.0082  0.0155 -0.2333
  610TMC3    C1 9088   1.161   2.704  12.463  0.3921 -0.4356  0.2662
  610TMC3    C2 9089   1.297   2.728  12.437 -0.4784  0.1180 -0.0033
  610TMC3    C3 9090   1.387   2.639  12.476 -0.0127 -0.2929  0.5355
  610TMC3    C4 9091   1.122   2.583  12.511  0.1916 -0.2032 -0.6011
  610TMC3    C5 9092   1.224   2.496  12.551  0.1249  0.5310 -0.8239
  610TMC3    C6 9093   1.355   2.522  12.533 -0.0750  0.3311 -0.1752
  610TMC3     C 9094   1.069   2.811  12.456  0.1676  0.2930  0.5770
  610TMC3     O 9095   1.111   2.907  12.395 -0.1222 -0.0708 -0.6488
  610TMC3     H 9096   1.322   2.821  12.387  0.4546 -1.0226 -1.6241
  610TMC3    H1 9097   1.021   2.563  12.543  0.4266  2.8888  2.1912
  610TMC3    H2 9098   1.434   2.458  12.571 -1.1114 -1.0200 -0.2589
  610TMC3    C7 9099   1.195   2.378  12.619 -0.7076 -0.1884  0.0519
  610TMC3    C8 9100   1.531   2.670  12.478 -0.1148  0.8237  0.4633
  610TMC3    O1 9101   1.287   2.304  12.640 -0.0298  0.5074 -0.1691
  610TMC3    O2 9102   1.603   2.597  12.543 -0.0563 -0.2052  0.0390
  611MPD2     C 9103   4.305   3.070  10.448  0.3614  0.3707  0.7622
  611MPD2    C1 9104   4.441   3.057  10.419  0.0902 -0.2307  0.0271
  611MPD2    C2 9105   4.538   3.089  10.515  0.2706  0.1808  0.0197
  611MPD2    C3 9106   4.501   3.132  10.644 -0.6997 -1.2600  0.3312
  611MPD2    C4 9107   4.363   3.150  10.669 -0.4054  0.0388 -0.8917
  611MPD2    C5 9108   4.270   3.120  10.574 -0.2370 -0.4650 -0.3399
  611MPD2     H 9109   4.640   3.082  10.480  0.3175  0.9107  0.0204
  611MPD2    H1 9110   4.326   3.193  10.762 -2.6234  0.2964 -1.8899
  611MPD2    H2 9111   4.223   3.031  10.389  0.8438  0.9020 -0.2747
  611MPD2    H3 9112   4.168   3.129  10.610 -0.1132  0.4279 -0.2095
  611MPD2     N 9113   4.587   3.145  10.753  0.2990  0.0950 -0.1533
  611MPD2    H5 9114   4.540   3.163  10.841 -1.3633  1.2102 -1.2803
  611MPD2    N1 9115   4.477   3.010  10.288 -0.2429  0.5368 -0.3271
  611MPD2    H7 9116   4.390   2.983  10.245 -0.3506  2.2225 -1.1646
  612TMC3    C1 9117   0.045   3.143  10.878  0.1265 -0.0347  0.0496
  612TMC3    C2 9118   0.169   3.203  10.891  0.5222 -0.4100 -0.2381
  612TMC3    C3 9119   0.249   3.172  10.998  0.2022  0.5449 -0.0217
  612TMC3    C4 9120   4.731   3.053  10.970  0.4818  0.5232 -0.4674
  612TMC3    C5 9121   0.081   3.009  11.067  0.6023  0.5636  0.3292
  612TMC3    C6 9122   0.210   3.072  11.083  0.8850 -0.5541  0.0804
  612TMC3     C 9123   4.719   3.128  10.745 -0.0278  0.9228  0.5297
  612TMC3     O 9124   0.061   3.116  10.650  0.4225  0.2376  0.1553
  612TMC3     H 9125   0.193   3.290  10.830  0.5794  0.7845  1.4755
  612TMC3    H1 9126   4.643   2.995  10.945  0.3584  0.3385  0.3938
  612TMC3    H2 9127   0.256   3.061  11.180  3.2295  0.5490 -0.8844
  612TMC3    C7 9128   0.048   2.878  11.120  0.1251  0.0002 -0.6257
  612TMC3    C8 9129   0.381   3.245  11.014 -0.1548  0.3593 -0.5515
  612TMC3    O1 9130   4.664   2.855  11.140 -0.2293  0.1119 -0.3173
  612TMC3    O2 9131   0.420   3.321  10.926 -0.0459  0.1836 -0.6464
  613MPD2     C 9132   0.047   4.393  16.887 -0.5852 -0.7944 -0.1207
  613MPD2    C1 9133   0.063   4.466  16.773 -0.2126 -0.1753  0.0676
  613MPD2    C2 9134   4.705   4.454  16.676  0.2923  0.5068  0.5818
  613MPD2    C3 9135   4.596   4.372  16.693 -0.2126  0.1111 -0.3416
  613MPD2    C4 9136   4.566   4.320  16.814  0.2838 -0.7819  0.3850
  613MPD2    C5 9137   4.663   4.324  16.911 -1.6295 -0.0169  0.4111
  613MPD2     H 9138   4.720   4.498  16.578  0.8020 -1.1340 -0.0689
  613MPD2    H1 9139   4.472   4.268  16.827 -0.5554  0.9482  1.3021
  613MPD2    H2 9140   0.110   4.403  16.974  1.2603  0.8907 -1.6368
  613MPD2    H3 9141   4.644   4.274  17.005  0.4709 -1.1282  0.2437
  613MPD2     N 9142   4.509   4.351  16.586  0.0229  0.0400 -0.0820
  613MPD2    H5 9143   4.449   4.271  16.598 -0.3827  0.2648 -0.6596
  613MPD2    N1 9144   0.176   4.558  16.778  0.3723  0.0366 -0.1598
  613MPD2    H7 9145   0.233   4.553  16.862 -0.9410  1.6954  0.8109
  614TMC3    C1 9146   0.177   4.647  16.552  0.4127  0.8804  0.3783
  614TMC3    C2 9147   0.198   4.527  16.489  0.1023 -0.0796 -0.6338
  614TMC3    C3 9148   0.166   4.520  16.358  0.0594  0.4252 -0.0697
  614TMC3    C4 9149   0.137   0.020  16.487 -0.1656 -0.4766  0.1750
  614TMC3    C5 9150   0.106   0.001  16.357  0.5735  0.1586  0.4203
  614TMC3    C6 9151   0.125   4.625  16.279 -0.8350  0.3249  0.3094
  614TMC3     C 9152   0.205   4.660  16.692 -0.9575 -0.1879  0.7708
  614TMC3     O 9153   0.281   0.018  16.725 -0.1635 -0.1205 -0.0967
  614TMC3     H 9154   0.215   4.435  16.543  2.7068 -0.0739 -1.4436
  614TMC3    H1 9155   0.115   0.109  16.546 -2.1485 -0.8687  0.0508
  614TMC3    H2 9156   0.099   4.624  16.174  2.3831  0.4704 -0.4774
  614TMC3    C7 9157   0.094   0.123  16.289 -0.8519 -0.3766 -0.2923
  614TMC3    C8 9158   0.139   4.388  16.310  0.4210 -0.8477  0.4492
  614TMC3    O1 9159   0.162   0.217  16.328 -0.2878 -0.2507  0.2397
  614TMC3    O2 9160   0.082   4.315  16.388  0.8218  0.1113  0.0127
  615MPD2     C 9161   3.685   1.429  15.861 -0.1499 -0.9476  0.1912
  615MPD2    C1 9162   3.762   1.529  15.807  0.6737 -0.7978  0.2915
  615MPD2    C2 9163   3.723   1.585  15.682  0.1284  0.0565  0.0747
  615MPD2    C3 9164   3.608   1.547  15.613  0.2641 -0.1077 -0.6591
  615MPD2    C4 9165   3.531   1.448  15.678  0.1877 -0.7411  0.5181
  615MPD2    C5 9166   3.575   1.388  15.792 -0.8525  0.1372 -0.2919
  615MPD2     H 9167   3.785   1.664  15.642  1.0469  0.5723  2.5470
  615MPD2    H1 9168   3.447   1.406  15.624  1.5047 -2.0766 -0.5063
  615MPD2    H2 9169   3.712   1.386  15.957 -1.1296 -0.4563  0.6845
  615MPD2    H3 9170   3.516   1.313  15.843  0.1694  0.5189  1.4754
  615MPD2     N 9171   3.567   1.630  15.506  0.5724  0.4590  0.0445
  615MPD2    H5 9172   3.624   1.711  15.483  0.7089  0.1206 -0.8223
  615MPD2    N1 9173   3.872   1.592  15.865 -0.2813 -0.9468 -0.3709
  615MPD2    H7 9174   3.913   1.669  15.813  1.7630 -2.0366 -0.3890
  616TMC3    C1 9175   4.027   1.639  16.032 -0.0957  0.0209 -0.2518
  616TMC3    C2 9176   4.030   1.768  15.987  0.1152  0.0790 -0.1146
  616TMC3    C3 9177   4.125   1.855  16.041 -0.5106 -0.6836  0.8029
  616TMC3    C4 9178   4.107   1.594  16.134 -0.5967  0.2485 -0.1836
  616TMC3    C5 9179   4.190   1.689  16.196  0.6157 -0.4266  0.1326
  616TMC3    C6 9180   4.202   1.814  16.146  0.8278 -0.2048  0.6943
  616TMC3     C 9181   3.926   1.546  15.981 -1.1812  0.3063 -0.5117
  616TMC3     O 9182   3.920   1.437  16.033  0.2402 -0.0568 -1.0729
  616TMC3     H 9183   3.968   1.799  15.903  1.3190 -2.3671 -1.9130
  616TMC3    H1 9184   4.088   1.497  16.178  1.2544  0.1297  0.3199
  616TMC3    H2 9185   4.272   1.880  16.197  0.5413 -0.7860  1.8630
  616TMC3    C7 9186   4.316   1.638  16.251 -0.9958  0.2479  0.1522
  616TMC3    C8 9187   4.177   1.972  15.967  0.3972  0.1924 -0.4909
  616TMC3    O1 9188   4.401   1.722  16.276  0.0809  0.1294 -0.5349
  616TMC3    O2 9189   4.107   2.043  15.897 -0.5926  0.4423 -0.6453
  617MPD2     C 9190   1.872   4.345  13.616  0.2373  0.3621 -0.0731
  617MPD2    C1 9191   1.893   4.246  13.712  0.5490  0.5304 -0.3034
  617MPD2    C2 9192   1.792   4.241  13.811 -0.1575  0.0304 -0.2100
  617MPD2    C3 9193   1.681   4.323  13.810  0.0428  0.1601  0.4011
  617MPD2    C4 9194   1.668   4.413  13.714 -0.0107 -0.0803  0.4102
  617MPD2    C5 9195   1.765   4.426  13.622 -1.2229 -0.0142 -0.6682
  617MPD2     H 9196   1.784   4.156  13.877 -0.0706  0.6618  0.6084
  617MPD2    H1 9197   1.582   4.479  13.712 -0.8204 -1.1495 -0.0250
  617MPD2    H2 9198   1.942   4.363  13.536 -0.0300 -0.3237 -0.4599
  617MPD2    H3 9199   1.744   4.496  13.542 -1.3805  0.9738  0.2394
  617MPD2     N 9200   1.573   4.307  13.896  0.0304  0.0530 -0.7568
  617MPD2    H5 9201   1.486   4.350  13.864  0.9807  0.0322 -3.4026
  617MPD2    N1 9202   2.011   4.167  13.708  0.6034 -0.4281 -0.1740
  617MPD2    H7 9203   2.077   4.194  13.636 -0.6675  2.1191 -0.3956
  618TMC3    C1 9204   2.160   4.013  13.764 -0.5135  0.0859 -0.6071
  618TMC3    C2 9205   2.179   3.876  13.768  0.1428 -0.5657 -0.4822
  618TMC3    C3 9206   2.286   3.836  13.695  0.3745  0.1327  0.2401
  618TMC3    C4 9207   2.245   4.095  13.698  0.4949  0.4747 -0.8835
  618TMC3    C5 9208   2.360   4.047  13.645  0.4056  0.5892 -0.4784
  618TMC3    C6 9209   2.385   3.918  13.643 -0.1027  0.1393 -0.1233
  618TMC3     C 9210   2.035   4.066  13.792  0.4034 -0.3885 -0.7020
  618TMC3     O 9211   1.954   4.013  13.866  0.2821 -0.4167  0.5606
  618TMC3     H 9212   2.098   3.806  13.785 -0.7296  1.1223  2.2655
  618TMC3    H1 9213   2.236   4.202  13.717 -2.0245  0.4653 -2.1466
  618TMC3    H2 9214   2.480   3.882  13.606  0.5809  1.6206  0.1978
  618TMC3    C7 9215   2.466   4.157  13.624  0.8948 -0.7537  0.2310
  618TMC3    C8 9216   2.325   3.697  13.689  0.1829  0.5941 -0.0701
  618TMC3    O1 9217   2.475   4.237  13.718  0.3048  0.0905  0.0141
  618TMC3    O2 9218   2.331   3.632  13.792 -0.5157 -0.5349  0.4652
  619MPD2     C 9219   3.363   0.866  13.861 -0.1755  0.3422  1.2801
  619MPD2    C1 9220   3.267   0.939  13.791 -0.4980 -0.6666  0.4634
  619MPD2    C2 9221   3.150   0.860  13.767 -0.8360  0.8198  0.1935
  619MPD2    C3 9222   3.125   0.736  13.833 -0.0143 -0.8801 -0.0872
  619MPD2    C4 9223   3.229   0.674  13.888 -0.1390 -0.4628  0.1075
  619MPD2    C5 9224   3.354   0.736  13.895  0.4498  0.0196  0.0017
  619MPD2     H 9225   3.079   0.903  13.697  2.0644  0.5585 -2.9188
  619MPD2    H1 9226   3.225   0.571  13.922 -1.8074 -0.5438 -0.3480
  619MPD2    H2 9227   3.462   0.908  13.875 -0.2740  1.9596 -2.8966
  619MPD2    H3 9228   3.442   0.676  13.918  1.4664  2.5076  2.4909
  619MPD2     N 9229   3.011   0.663  13.806  0.2490 -0.2202 -0.3335
  619MPD2    H5 9230   3.013   0.566  13.836 -0.2549 -0.7538 -2.0793
  619MPD2    N1 9231   3.288   1.062  13.735 -0.2035 -0.1905 -0.0955
  619MPD2    H7 9232   3.223   1.095  13.665 -0.7605 -0.9512  0.0649
  620TMC3    C1 9233   3.365   1.279  13.716  0.1310  0.4984 -0.2898
  620TMC3    C2 9234   3.333   1.293  13.579  0.2009 -0.0047  0.0074
  620TMC3    C3 9235   3.306   1.412  13.520  0.4299  0.0792 -0.1379
  620TMC3    C4 9236   3.379   1.390  13.794 -0.3252  0.1259 -0.0142
  620TMC3    C5 9237   3.379   1.506  13.723 -0.5643  0.3046  0.2224
  620TMC3    C6 9238   3.336   1.520  13.599  0.1883  0.3696  0.2863
  620TMC3     C 9239   3.387   1.152  13.777 -0.3127 -0.3641 -0.8733
  620TMC3     O 9240   3.468   1.142  13.869 -0.0963 -0.9609 -0.4809
  620TMC3     H 9241   3.311   1.210  13.513  0.1920 -1.1727  1.4824
  620TMC3    H1 9242   3.411   1.389  13.898 -1.6137 -0.7689  0.3652
  620TMC3    H2 9243   3.320   1.620  13.560 -2.5010  0.0313  0.4977
  620TMC3    C7 9244   3.335   1.602  13.814 -0.2483  0.3773  0.0793
  620TMC3    C8 9245   3.173   1.423  13.467 -0.2361  0.1893  0.8952
  620TMC3    O1 9246   3.403   1.626  13.918 -0.4476  0.1629  0.1185
  620TMC3    O2 9247   3.113   1.524  13.509  0.1664 -0.4946  0.0835
  621MPD2     C 9248   4.589   1.302   9.437  0.4184 -0.4198  0.2339
  621MPD2    C1 9249   4.589   1.319   9.577 -0.2102  0.5288  0.1676
  621MPD2    C2 9250   4.641   1.440   9.622 -0.2143 -0.4935  0.2118
  621MPD2    C3 9251   4.693   1.545   9.549 -0.4772  0.5483  0.0990
  621MPD2    C4 9252   4.696   1.520   9.408 -0.3843  0.6330  0.7785
  621MPD2    C5 9253   4.647   1.398   9.360 -0.0181  0.6533 -0.0626
  621MPD2     H 9254   4.642   1.451   9.730 -1.1448 -2.7118  0.4433
  621MPD2    H1 9255   0.002   1.594   9.340  1.1935 -1.3462 -0.4258
  621MPD2    H2 9256   4.534   1.223   9.387  1.4464  1.3160 -3.6792
  621MPD2    H3 9257   4.655   1.384   9.253 -1.3335 -1.9992  0.1890
  621MPD2     N 9258   4.728   1.661   9.608  0.1251 -0.4122  0.4050
  621MPD2    H5 9259   4.734   1.659   9.710  2.1899  0.3690  0.2973
  621MPD2    N1 9260   4.538   1.225   9.673  0.0001 -0.1943  0.3542
  621MPD2    H7 9261   4.552   1.256   9.768  1.7382 -0.7888  0.2907
  622TMC3    C1 9262   4.465   1.025   9.777 -0.3356 -0.4673  0.2456
  622TMC3    C2 9263   4.501   1.076   9.897 -0.7580 -0.5430  0.0720
  622TMC3    C3 9264   4.453   1.030  10.017 -0.0482  0.1108  0.6802
  622TMC3    C4 9265   4.365   0.933   9.776  0.2226 -0.1338 -0.1491
  622TMC3    C5 9266   4.309   0.897   9.892  0.0173 -0.6328 -0.6031
  622TMC3    C6 9267   4.354   0.935  10.014 -0.9321  0.7268 -0.1343
  622TMC3     C 9268   4.502   1.091   9.649  0.6977  0.2774  0.0733
  622TMC3     O 9269   4.488   1.036   9.540  0.1209 -0.1471  0.6325
  622TMC3     H 9270   4.556   1.169   9.908 -0.7513 -0.4622 -0.6114
  622TMC3    H1 9271   4.314   0.923   9.681  1.6731  0.4758 -0.9970
  622TMC3    H2 9272   4.313   0.904  10.109 -3.3946 -0.5970 -1.6271
  622TMC3    C7 9273   4.174   0.845   9.901 -0.8899  0.2934 -0.5238
  622TMC3    C8 9274   4.418   1.130  10.112 -0.6611  0.3560 -0.0948
  622TMC3    O1 9275   4.108   0.886   9.997  0.0947 -0.6594 -0.2775
  622TMC3    O2 9276   4.487   1.138  10.211  0.8620 -0.2828 -0.6626
  623MPD2     C 9277   2.762   1.173  15.810 -0.0652 -0.6514 -1.0630
  623MPD2    C1 9278   2.742   1.307  15.843  0.2902  1.0010 -0.4835
  623MPD2    C2 9279   2.828   1.371  15.925 -0.4403 -0.6975  0.4213
  623MPD2    C3 9280   2.935   1.303  15.981 -0.1437  0.7380  0.2182
  623MPD2    C4 9281   2.949   1.169  15.952 -0.3509  0.7598 -0.7097
  623MPD2    C5 9282   2.868   1.106  15.861  0.1632  0.0315  0.1099
  623MPD2     H 9283   2.802   1.467  15.969  0.4177  0.5642 -1.8456
  623MPD2    H1 9284   3.020   1.112  16.011 -0.5320  1.6036  0.3116
  623MPD2    H2 9285   2.693   1.122  15.744 -1.2075 -1.0215  0.4241
  623MPD2    H3 9286   2.881   1.002  15.832 -0.9699  0.0767 -0.5736
  623MPD2     N 9287   3.010   1.358  16.089  0.1510 -0.0497 -0.3507
  623MPD2    H5 9288   3.070   1.295  16.142 -0.5566  0.4640  1.0554
  623MPD2    N1 9289   2.638   1.386  15.803 -0.8255  0.1591 -0.4976
  623MPD2    H7 9290   2.642   1.482  15.835 -0.1785  0.6598 -2.0700
  624TMC3    C1 9291   3.080   1.650  16.446  0.7803 -0.2739  1.0137
  624TMC3    C2 9292   2.979   1.599  16.518 -1.1232  0.0424 -0.2417
  624TMC3    C3 9293   2.914   1.499  16.459  0.2566  0.2779  0.5796
  624TMC3    C4 9294   3.108   1.603  16.320  0.7490  0.2027 -1.2142
  624TMC3    C5 9295   3.050   1.492  16.273  0.2626  0.4430  0.3192
  624TMC3    C6 9296   2.951   1.434  16.348 -0.5896 -0.7233 -0.3632
  624TMC3     C 9297   3.191   1.706  16.517 -0.5087 -0.0876 -0.0079
  624TMC3     O 9298   3.191   1.702  16.641 -0.4764 -0.4113  0.0247
  624TMC3     H 9299   2.964   1.631  16.620  3.3320  1.7450 -0.1165
  624TMC3    H1 9300   3.181   1.640  16.249  1.8921 -0.2806 -0.2927
  624TMC3    H2 9301   2.894   1.351  16.308 -3.4815  0.6536  0.9513
  624TMC3    C7 9302   3.012   1.492  16.136 -0.0694 -0.1351 -0.6751
  624TMC3    C8 9303   2.768   1.487  16.483  0.2985 -0.0689  0.7982
  624TMC3    O1 9304   2.970   1.596  16.082  0.0907 -0.1241 -0.9193
  624TMC3    O2 9305   2.720   1.385  16.428 -0.5094 -0.1356 -0.1855
  625MPD2     C 9306   3.290   2.863   0.939 -0.1001 -0.3608 -0.3243
  625MPD2    C1 9307   3.274   2.992   0.997 -0.0781 -0.5005 -0.2795
  625MPD2    C2 9308   3.359   3.035   1.102 -0.1513  0.2145  0.3905
  625MPD2    C3 9309   3.470   2.957   1.141  0.4062  0.2397  0.5843
  625MPD2    C4 9310   3.488   2.836   1.078 -0.0899 -0.3940 -0.2660
  625MPD2    C5 9311   3.395   2.787   1.000 -0.1202 -0.1513  0.4011
  625MPD2     H 9312   3.342   3.129   1.154  0.5162  1.5580 -1.8374
  625MPD2    H1 9313   3.569   2.773   1.114  0.8384  0.9114 -0.0890
  625MPD2    H2 9314   3.230   2.821   0.859  0.3616  1.0892 -1.4365
  625MPD2    H3 9315   3.418   2.688   0.964  2.6387  0.6003  0.1416
  625MPD2     N 9316   3.563   3.007   1.241 -0.3912  0.4189  0.3572
  625MPD2    H5 9317   3.543   3.105   1.259 -1.6779  0.6280 -2.3308
  625MPD2    N1 9318   3.164   3.070   0.958  0.4051 -0.3511 -0.2576
  625MPD2    H7 9319   3.164   3.169   0.981  0.9916 -0.2931 -0.5130
  626TMC3    C1 9320   2.965   3.147   0.853 -0.1337 -0.2315  0.0971
  626TMC3    C2 9321   2.885   3.126   0.744  0.1789  0.8532  0.5417
  626TMC3    C3 9322   2.786   3.215   0.711  0.3275 -0.0934  0.5103
  626TMC3    C4 9323   2.941   3.250   0.938  0.2544  1.4064  0.3169
  626TMC3    C5 9324   2.838   3.338   0.915  0.3403  0.3905 -0.2048
  626TMC3    C6 9325   2.760   3.318   0.799 -0.3199 -0.0179 -0.3664
  626TMC3     C 9326   3.058   3.034   0.886 -0.1474  0.2062  0.0082
  626TMC3     O 9327   3.032   2.924   0.836  0.5056 -0.1027 -0.4919
  626TMC3     H 9328   2.904   3.043   0.677 -1.3738  2.4587 -1.8860
  626TMC3    H1 9329   2.988   3.242   1.035  1.5583  1.1422 -0.3332
  626TMC3    H2 9330   2.677   3.386   0.788 -1.6613 -1.3359  1.7536
  626TMC3    C7 9331   2.785   3.409   1.035  0.1429 -0.4927 -0.4343
  626TMC3    C8 9332   2.764   3.244   0.569  0.4710 -0.0428 -0.0088
  626TMC3    O1 9333   2.851   3.425   1.136  0.3581 -0.5425  0.5832
  626TMC3    O2 9334   2.755   3.362   0.535 -0.1951 -0.0505  0.3664
  627MPD2     C 9335   1.104   3.248  14.556 -0.0445  0.9042  0.6944
  627MPD2    C1 9336   1.210   3.163  14.586  0.7372 -0.7255 -0.1958
  627MPD2    C2 9337   1.189   3.028  14.584  0.1973  0.1529 -0.9878
  627MPD2    C3 9338   1.068   2.975  14.542 -0.3089  0.6461  0.5421
  627MPD2    C4 9339   0.967   3.060  14.502  0.0644 -0.4382  0.2561
  627MPD2    C5 9340   0.983   3.198  14.505  0.1096 -0.1810 -0.4532
  627MPD2     H 9341   1.262   2.951  14.605  1.5648  1.5419 -0.6592
  627MPD2    H1 9342   0.873   3.027  14.457  1.1672  0.4033 -2.6531
  627MPD2    H2 9343   1.117   3.356  14.555  4.4172  0.4062  1.8173
  627MPD2    H3 9344   0.912   3.270  14.467  0.3796  0.4482  0.2396
  627MPD2     N 9345   1.057   2.835  14.546 -0.0133 -0.0510  1.1022
  627MPD2    H5 9346   1.133   2.780  14.585  0.4930  0.4602  0.8341
  627MPD2    N1 9347   1.337   3.217  14.629 -0.0377 -0.0559 -0.1367
  627MPD2    H7 9348   1.412   3.153  14.655 -0.1229  0.9881  2.6477
  628TMC3    C1 9349   1.502   3.370  14.694  0.0311 -0.4229 -0.0792
  628TMC3    C2 9350   1.599   3.308  14.628 -0.6020  0.6468  0.1639
  628TMC3    C3 9351   1.727   3.349  14.652 -0.5851 -0.1049 -0.3591
  628TMC3    C4 9352   1.528   3.480  14.765 -0.1883 -0.4242 -0.2525
  628TMC3    C5 9353   1.660   3.517  14.781  1.1141 -0.3273  0.0096
  628TMC3    C6 9354   1.763   3.446  14.739 -0.4309  0.1041 -0.0750
  628TMC3     C 9355   1.364   3.353  14.642  0.7241 -0.8470 -0.2632
  628TMC3     O 9356   1.296   3.451  14.619 -0.4790 -0.5238 -0.0906
  628TMC3     H 9357   1.580   3.231  14.554 -2.4783 -1.5598  2.9680
  628TMC3    H1 9358   1.458   3.542  14.820 -1.5537 -1.3578 -0.9242
  628TMC3    H2 9359   1.860   3.495  14.744 -0.9668  1.2978 -1.6572
  628TMC3    C7 9360   1.683   3.663  14.798  0.2608  0.3460  0.5797
  628TMC3    C8 9361   1.818   3.294  14.556  0.6714 -0.2591 -0.4980
  628TMC3    O1 9362   1.786   3.697  14.855  0.1891  0.0804 -0.1903
  628TMC3    O2 9363   1.769   3.246  14.453  0.4209 -0.1285  0.3472
  629MPD2     C 9364   4.563   2.314  15.990  0.0340 -0.0931 -0.0188
  629MPD2    C1 9365   4.602   2.197  16.050  0.7290 -0.1702 -0.1084
  629MPD2    C2 9366   4.504   2.096  16.056 -0.2628  0.1985 -0.5514
  629MPD2    C3 9367   4.384   2.103  15.992  0.4940  0.0963  0.1843
  629MPD2    C4 9368   4.348   2.217  15.928  0.1141 -0.7958 -0.2008
  629MPD2    C5 9369   4.434   2.321  15.936 -0.0861 -0.2633  0.7252
  629MPD2     H 9370   4.524   2.002  16.107  0.5220 -0.2644 -1.7128
  629MPD2    H1 9371   4.259   2.240  15.872  0.4439  0.2875 -0.2768
  629MPD2    H2 9372   4.629   2.398  15.973  1.0676 -0.8719  0.1756
  629MPD2    H3 9373   4.393   2.409  15.889 -1.7878 -0.6291  1.5150
  629MPD2     N 9374   4.304   1.989  16.000  0.0863 -0.4979  0.0003
  629MPD2    H5 9375   4.349   1.906  16.036 -2.3768 -1.8376 -0.0379
  629MPD2    N1 9376   4.729   2.189  16.100 -0.4071 -0.0108 -0.1456
  629MPD2    H7 9377   0.059   2.266  16.083  1.1907 -1.3232 -0.0858
  630TMC3    C1 9378   0.185   2.085  16.192 -0.2121 -0.7109  0.3572
  630TMC3    C2 9379   0.266   2.146  16.102  0.7748 -0.1514 -0.2308
  630TMC3    C3 9380   0.396   2.164  16.141  0.5825 -0.2330 -0.5379
  630TMC3    C4 9381   0.235   2.036  16.309 -0.1006 -0.9536  0.1107
  630TMC3    C5 9382   0.359   2.056  16.344  0.0710  0.2181  0.5711
  630TMC3    C6 9383   0.441   2.134  16.266  0.6246  0.0237  0.9778
  630TMC3     C 9384   0.041   2.081  16.165  0.1438 -0.6570 -0.2438
  630TMC3     O 9385   4.711   1.993  16.229 -0.0624 -0.4183  0.2448
  630TMC3     H 9386   0.244   2.164  15.998  1.1951 -0.5981 -0.3961
  630TMC3    H1 9387   0.178   1.957  16.356 -0.6220  0.4136  1.7794
  630TMC3    H2 9388   0.548   2.139  16.282  0.8863  2.6101 -1.5842
  630TMC3    C7 9389   0.412   1.974  16.456  0.2644 -0.2104  0.3105
  630TMC3    C8 9390   0.497   2.197  16.045  0.1543 -0.5714  0.4674
  630TMC3    O1 9391   0.340   1.880  16.489  0.3907 -0.1380  0.1017
  630TMC3    O2 9392   0.581   2.275  16.086 -0.3998  0.0307 -0.1388
  631MPD2     C 9393   2.891   2.299  15.724 -0.9350  0.0640  0.0643
  631MPD2    C1 9394   2.961   2.367  15.625 -0.3697  0.5904 -0.1359
  631MPD2    C2 9395   3.019   2.288  15.529 -0.0757 -0.2322  0.0122
  631MPD2    C3 9396   3.014   2.150  15.531  0.1691  0.3713  0.0725
  631MPD2    C4 9397   2.935   2.092  15.629  0.5199  0.9872 -0.0228
  631MPD2    C5 9398   2.870   2.167  15.722 -0.1026  0.3737 -0.0047
  631MPD2     H 9399   3.080   2.324  15.447  0.5042 -0.0023  0.5461
  631MPD2    H1 9400   2.931   1.984  15.640 -0.8617  0.9670 -0.8279
  631MPD2    H2 9401   2.853   2.346  15.814  0.6367 -0.8484  1.2085
  631MPD2    H3 9402   2.810   2.111  15.793 -1.4282 -0.0824 -1.4835
  631MPD2     N 9403   3.092   2.073  15.440 -0.7269  0.2991  0.8088
  631MPD2    H5 9404   3.144   2.128  15.373  0.1069 -0.2604  1.0038
  631MPD2    N1 9405   2.953   2.509  15.612  0.1175  0.7348  0.0384
  631MPD2    H7 9406   2.898   2.551  15.686  0.9406  2.1324 -0.1421
  632TMC3    C1 9407   2.930   2.711  15.490  0.0995 -0.2645 -0.2540
  632TMC3    C2 9408   2.800   2.691  15.527 -0.0582 -0.0418  0.9171
  632TMC3    C3 9409   2.702   2.725  15.441  0.1120  0.1486 -0.4503
  632TMC3    C4 9410   2.957   2.751  15.361 -0.4037  0.8517  0.3170
  632TMC3    C5 9411   2.857   2.752  15.268 -0.2035 -0.7058 -0.8780
  632TMC3    C6 9412   2.734   2.747  15.306  0.1119  0.8618 -0.7134
  632TMC3     C 9413   3.002   2.587  15.512 -0.3869 -0.5772  0.0419
  632TMC3     O 9414   3.070   2.554  15.415 -0.3227  0.9245  0.0864
  632TMC3     H 9415   2.765   2.657  15.623 -1.0106 -1.0687  0.2119
  632TMC3    H1 9416   3.059   2.775  15.332 -0.3618 -1.6296 -1.5325
  632TMC3    H2 9417   2.661   2.731  15.228  1.8809 -0.0245 -2.1929
  632TMC3    C7 9418   2.886   2.699  15.137  0.4973  0.5554  0.0275
  632TMC3    C8 9419   2.571   2.691  15.481  0.6927 -0.0059 -0.5292
  632TMC3    O1 9420   2.829   2.742  15.036  0.0513  0.0029  0.3390
  632TMC3    O2 9421   2.544   2.617  15.578  0.3980 -0.2248 -0.7066
  633MPD2     C 9422   2.974   0.591   0.132  0.0586  0.7915 -1.0879
  633MPD2    C1 9423   3.011   0.469   0.078 -0.2977 -0.6974 -0.2564
  633MPD2    C2 9424   3.032   0.357   0.162 -0.3922 -0.1564 -0.1470
  633MPD2    C3 9425   3.015   0.368   0.300 -0.0435  0.4838 -0.2062
  633MPD2    C4 9426   2.979   0.491   0.350  0.1734  0.1577 -1.2773
  633MPD2    C5 9427   2.955   0.601   0.269  0.4084 -0.2548  0.4365
  633MPD2     H 9428   3.060   0.261   0.120  0.0844 -0.2855  0.4688
  633MPD2    H1 9429   2.968   0.498   0.457  2.0389 -1.7825 -0.9642
  633MPD2    H2 9430   2.959   0.685   0.080  0.7311  3.7617  4.0700
  633MPD2    H3 9431   2.938   0.695   0.320 -0.1965  0.8564 -1.8282
  633MPD2     N 9432   3.021   0.262   0.393  0.9361  0.3688  0.3128
  633MPD2    H5 9433   3.008   0.273   0.493 -0.8571 -0.1295  0.1297
  633MPD2    N1 9434   3.022   0.439  17.678  0.4470  0.0786  0.9951
  633MPD2    H7 9435   3.042   0.342  17.656  0.3778 -0.0584  1.5398
  634TMC3    C1 9436   3.045   0.464  17.445  0.2623 -0.4296 -0.6890
  634TMC3    C2 9437   3.132   0.369  17.441 -0.2460 -0.0984  0.1090
  634TMC3    C3 9438   3.168   0.311  17.321 -0.3127 -0.3504 -0.4918
  634TMC3    C4 9439   3.004   0.526  17.335  0.0480 -0.2053  0.1736
  634TMC3    C5 9440   3.042   0.471  17.217 -0.4925  0.1319  0.3197
  634TMC3    C6 9441   3.117   0.363  17.207 -0.5580 -0.7924 -0.4674
  634TMC3     C 9442   2.990   0.519  17.574  0.4596  0.5382 -0.2626
  634TMC3     O 9443   2.942   0.632  17.573  0.3450  0.2711  0.4124
  634TMC3     H 9444   3.166   0.313  17.528  1.6853 -0.9074 -1.1705
  634TMC3    H1 9445   2.938   0.611  17.342 -0.6102 -0.7332  0.3373
  634TMC3    H2 9446   3.134   0.325  17.107 -2.1320 -1.8183 -0.3444
  634TMC3    C7 9447   2.992   0.542  17.104  0.1628  0.0652 -0.4323
  634TMC3    C8 9448   3.239   0.184  17.319 -0.0198  0.0976 -0.1723
  634TMC3    O1 9449   3.057   0.515  17.005 -0.0281  0.5991  0.7649
  634TMC3    O2 9450   3.209   0.110  17.409  0.0618  0.6289 -0.8917
  635TMC3    C1 9451   2.517   1.926   0.453  0.2751  0.4067 -0.5660
  635TMC3    C2 9452   2.493   1.899   0.585  0.4399  0.1574 -0.6165
  635TMC3    C3 9453   2.368   1.922   0.635  0.7976  0.3262 -0.3663
  635TMC3    C4 9454   2.423   2.002   0.382 -0.4166  0.2561  0.4514
  635TMC3    C5 9455   2.301   2.027   0.443 -0.0153  0.2269 -0.2232
  635TMC3    C6 9456   2.267   1.975   0.562 -0.1528  0.6286 -0.2892
  635TMC3     C 9457   2.652   1.942   0.406 -0.3234 -0.1792 -0.4877
  635TMC3     O 9458   2.733   1.969   0.494  0.1547 -0.0731 -0.2546
  635TMC3     H 9459   2.574   1.865   0.649  0.4920 -0.0292 -0.7819
  635TMC3    H1 9460   2.445   2.034   0.281  1.2854  1.0642  1.0653
  635TMC3    H2 9461   2.165   1.976   0.599 -0.5693 -0.4611 -1.3807
  635TMC3    C7 9462   2.196   2.048   0.354 -0.0606 -0.3889  0.5319
  635TMC3    C8 9463   2.357   1.888   0.777  0.0382  0.5339 -0.5736
  635TMC3    O1 9464   2.219   2.011   0.240 -0.1617 -0.7945  0.4239
  635TMC3    O2 9465   2.447   1.839   0.840  0.4298 -0.1371 -0.7748
  636MPD2     C 9466   4.098   0.146  15.838 -0.9285  0.5911  0.1505
  636MPD2    C1 9467   4.168   0.188  15.948  0.0400 -0.2124  0.0112
  636MPD2    C2 9468   4.255   0.099  16.009 -0.0487 -0.4060 -0.0267
  636MPD2    C3 9469   4.279   4.702  15.961 -0.0807 -0.2445 -0.3020
  636MPD2    C4 9470   4.209   4.665  15.849 -0.0180 -0.0138  0.2748
  636MPD2    C5 9471   4.121   0.019  15.791  0.1640  0.2543 -0.6472
  636MPD2     H 9472   4.300   0.125  16.105 -0.1974  0.4070 -0.1829
  636MPD2    H1 9473   4.220   4.573  15.793 -2.2346 -0.6934  0.9693
  636MPD2    H2 9474   4.022   0.205  15.788 -0.1274 -0.8094 -2.6775
  636MPD2    H3 9475   4.074   4.719  15.700 -2.7596  3.1586 -0.2460
  636MPD2     N 9476   4.357   4.610  16.043 -0.0483  0.4806  0.9504
  636MPD2    H5 9477   4.397   4.648  16.128  0.4200  2.2176 -0.0496
  636MPD2    N1 9478   4.128   0.316  16.004 -0.3081 -0.6761 -0.6046
  636MPD2    H7 9479   4.161   0.332  16.099 -1.2644  0.4910 -0.4753
  637TMC3    C1 9480   4.417   4.402  16.123 -1.0933  0.1140  0.2425
  637TMC3    C2 9481   4.403   4.446  16.252 -0.1994  0.0332 -0.3349
  637TMC3    C3 9482   4.422   4.362  16.363  0.4445 -0.2990 -0.1412
  637TMC3    C4 9483   4.457   4.275  16.103  0.2490  0.4101 -0.5332
  637TMC3    C5 9484   4.483   4.193  16.213 -0.4745 -0.5210 -0.3997
  637TMC3    C6 9485   4.451   4.226  16.344  0.7450  0.0150  0.1715
  637TMC3     C 9486   4.374   4.480  16.010  0.1621  0.1018 -0.0667
  637TMC3     O 9487   4.367   4.429  15.899 -0.3587 -0.1107 -0.6053
  637TMC3     H 9488   4.357   4.542  16.275  0.7460  0.4218 -0.0606
  637TMC3    H1 9489   4.480   4.244  16.002  0.0015  1.5012 -0.9217
  637TMC3    H2 9490   4.489   4.163  16.423 -0.4402 -0.9701 -0.0542
  637TMC3    C7 9491   4.516   4.051  16.190 -0.2830  0.1366  0.2765
  637TMC3    C8 9492   4.491   4.427  16.473  0.0450  1.0587 -0.0653
  637TMC3    O1 9493   4.445   3.971  16.246 -0.3831  0.0295  0.3512
  637TMC3    O2 9494   4.535   4.540  16.460 -0.2781  0.1642 -0.5749
  638MPD2     C 9495   3.797   3.748  15.112  0.5040 -0.0198 -0.1478
  638MPD2    C1 9496   3.756   3.669  15.008  0.0874 -0.0882 -0.5669
  638MPD2    C2 9497   3.686   3.549  15.036 -0.3366  0.9525  0.2371
  638MPD2    C3 9498   3.676   3.506  15.165 -0.2886  0.2440 -0.4939
  638MPD2    C4 9499   3.708   3.593  15.270 -0.5348  0.2837 -0.7783
  638MPD2    C5 9500   3.771   3.713  15.240  0.5493 -0.5759 -0.1110
  638MPD2     H 9501   3.673   3.471  14.961 -1.5765  1.5663 -0.1945
  638MPD2    H1 9502   3.687   3.574  15.375  2.7261 -0.0960 -0.2119
  638MPD2    H2 9503   3.847   3.842  15.090 -2.3728  1.4775 -0.3538
  638MPD2    H3 9504   3.803   3.786  15.313  0.4715  0.6094 -1.2507
  638MPD2     N 9505   3.631   3.371  15.181 -0.6692  0.2707  0.0832
  638MPD2    H5 9506   3.613   3.322  15.094 -0.7801 -0.9421  0.7876
  638MPD2    N1 9507   3.779   3.707  14.878  0.1855 -0.0105 -0.2697
  638MPD2    H7 9508   3.845   3.784  14.870 -0.0472  0.0744 -1.2517
  639TMC3    C1 9509   3.598   3.170  15.270 -0.3722 -0.0929 -0.2324
  639TMC3    C2 9510   3.557   3.146  15.146  1.1244  0.5692  0.0087
  639TMC3    C3 9511   3.623   3.039  15.081  0.2758  0.2943 -0.6543
  639TMC3    C4 9512   3.697   3.105  15.328 -0.1278 -0.2790  0.1304
  639TMC3    C5 9513   3.764   3.003  15.265 -0.3083 -0.1082  0.3502
  639TMC3    C6 9514   3.723   2.967  15.145 -0.2770  0.1958 -0.5634
  639TMC3     C 9515   3.611   3.312  15.299 -0.2103 -0.1299  0.3324
  639TMC3     O 9516   3.618   3.346  15.417  0.3250  0.6100 -0.0983
  639TMC3     H 9517   3.484   3.212  15.099  1.7954  0.2226 -1.5115
  639TMC3    H1 9518   3.733   3.136  15.426  1.3217  0.4689 -0.6442
  639TMC3    H2 9519   3.770   2.883  15.096 -1.6205 -0.3517 -0.8999
  639TMC3    C7 9520   3.887   2.967  15.322  0.4354 -0.0145 -0.5537
  639TMC3    C8 9521   3.545   2.969  14.973 -0.0134  0.2275 -0.1603
  639TMC3    O1 9522   3.899   2.995  15.445 -0.0268 -0.7912 -0.1580
  639TMC3    O2 9523   3.605   2.884  14.906 -0.2043  0.1475  1.1574
  640MPD2     C 9524   4.669   3.166   9.725 -0.0526  0.0491 -0.5937
  640MPD2    C1 9525   4.564   3.081   9.701 -0.3114 -0.4891 -0.1426
  640MPD2    C2 9526   4.438   3.100   9.762 -0.1902 -0.2688  0.2128
  640MPD2    C3 9527   4.425   3.203   9.855  0.0103 -0.2150 -0.4363
  640MPD2    C4 9528   4.535   3.279   9.884 -0.2732 -0.2410 -0.5411
  640MPD2    C5 9529   4.656   3.264   9.821  0.7244 -0.1135 -0.1317
  640MPD2     H 9530   4.358   3.039   9.722 -2.4795  2.7425  0.1562
  640MPD2    H1 9531   4.540   3.357   9.960 -0.0031 -0.6204 -0.1653
  640MPD2    H2 9532   0.028   3.167   9.670  0.4388 -1.1811  0.2248
  640MPD2    H3 9533   4.734   3.334   9.849  0.1811 -0.2423  1.6917
  640MPD2     N 9534   4.302   3.237   9.926  0.2780  0.0305  0.0378
  640MPD2    H5 9535   4.303   3.316   9.990 -2.1975 -0.7949  1.0807
  640MPD2    N1 9536   4.586   2.981   9.598 -0.4921 -0.4103 -0.5755
  640MPD2    H7 9537   4.677   2.963   9.559 -0.8461 -0.9671 -1.1371
  641TMC3    C1 9538   4.549   2.841   9.416 -0.2683  0.1754 -0.1950
  641TMC3    C2 9539   4.670   2.789   9.431  0.2422  0.1006 -0.5120
  641TMC3    C3 9540   4.721   2.714   9.327  0.1354  0.1332  0.7627
  641TMC3    C4 9541   4.468   2.824   9.307  0.2726  0.1497 -0.8678
  641TMC3    C5 9542   4.523   2.761   9.197 -0.0691 -1.0781 -0.3214
  641TMC3    C6 9543   4.647   2.699   9.206  0.5495 -0.6568 -0.0133
  641TMC3     C 9544   4.487   2.913   9.526 -0.3960 -0.2628 -0.7010
  641TMC3     O 9545   4.366   2.919   9.525  0.1935 -0.1375 -0.2259
  641TMC3     H 9546   4.717   2.781   9.528  0.0074  0.1552 -0.3966
  641TMC3    H1 9547   4.367   2.865   9.316 -0.2370 -1.4036  0.5536
  641TMC3    H2 9548   4.691   2.644   9.124 -0.4494 -0.7998 -0.4500
  641TMC3    C7 9549   4.436   2.713   9.091 -0.4016 -0.6289 -0.3824
  641TMC3    C8 9550   0.110   2.634   9.335  0.1750  0.2696 -0.1408
  641TMC3    O1 9551   4.481   2.621   9.020  0.2281  0.1178  0.3372
  641TMC3    O2 9552   0.142   2.564   9.240 -0.0908  0.0447 -0.0748
  642TMC3    C1 9553   0.347   3.878  12.877  0.3912  0.6266 -0.0086
  642TMC3    C2 9554   0.464   3.946  12.902  0.0439  0.2457  0.3807
  642TMC3    C3 9555   0.575   3.868  12.875 -0.8250 -0.2143  0.1631
  642TMC3    C4 9556   0.331   3.762  12.797 -0.0239  0.5605 -0.4317
  642TMC3    C5 9557   0.448   3.697  12.769  0.0003 -0.2037  0.5359
  642TMC3    C6 9558   0.570   3.751  12.802  0.6074 -0.5711  0.4060
  642TMC3     C 9559   0.223   3.953  12.896  0.3853  0.4466 -0.1339
  642TMC3     O 9560   0.248   4.072  12.913  0.3890 -0.0380  0.7616
  642TMC3     H 9561   0.472   4.039  12.958 -2.8446  0.7994 -0.1121
  642TMC3    H1 9562   0.234   3.715  12.783  0.5218 -0.9894  0.9771
  642TMC3    H2 9563   0.664   3.698  12.791  0.4368 -1.2249  2.2135
  642TMC3    C7 9564   0.440   3.574  12.687  0.3875 -0.1145 -0.1870
  642TMC3    C8 9565   0.698   3.910  12.933  0.0699 -0.5103 -0.1659
  642TMC3    O1 9566   0.544   3.530  12.641 -0.3423 -0.0994  0.4125
  642TMC3    O2 9567   0.703   3.994  13.020 -0.0139 -0.0523  0.5306
  643TMC3    C1 9568   4.640   2.578   0.016 -0.4163 -0.0838 -0.1988
  643TMC3    C2 9569   4.518   2.628  17.721  0.4754  0.5495  0.6216
  643TMC3    C3 9570   4.428   2.555  17.659  0.1359  0.3892  0.4311
  643TMC3    C4 9571   4.677   2.456  17.704  0.0829  0.2095 -0.0337
  643TMC3    C5 9572   4.598   2.388  17.618  0.5150  0.2553  1.4315
  643TMC3    C6 9573   4.464   2.431  17.604  0.1022  0.3266  0.2262
  643TMC3     C 9574   4.695   2.616   0.146 -0.3508 -0.6775  0.0486
  643TMC3     O 9575   4.659   2.728   0.180  0.1409  0.5221  0.5021
  643TMC3     H 9576   4.482   2.713   0.041 -1.2252  0.9711 -1.0943
  643TMC3    H1 9577   0.049   2.436  17.708 -0.2842 -1.6603  0.4150
  643TMC3    H2 9578   4.394   2.387  17.535  0.4616 -1.0238  0.7324
  643TMC3    C7 9579   4.656   2.346  17.495 -0.1779  0.1127 -0.3188
  643TMC3    C8 9580   4.317   2.624  17.597 -0.6826 -0.3646 -0.6667
  643TMC3    O1 9581   0.040   2.373  17.482 -0.3304 -0.2002  0.1128
  643TMC3    O2 9582   4.224   2.554  17.559 -0.0150 -0.3307 -0.8217
  644MPD2     C 9583   4.268   2.964   8.648  0.2518 -0.2269 -0.4233
  644MPD2    C1 9584   4.351   2.999   8.748  0.3408  0.2724  0.2146
  644MPD2    C2 9585   4.299   3.072   8.855  0.0729 -0.4693  0.3795
  644MPD2    C3 9586   4.170   3.134   8.855 -0.2237 -0.1153  0.2260
  644MPD2    C4 9587   4.096   3.105   8.744 -0.2949  0.5464  0.3380
  644MPD2    C5 9588   4.145   3.021   8.650  0.1761  0.2298  0.3648
  644MPD2     H 9589   4.348   3.079   8.952  1.9477 -0.6570 -0.5558
  644MPD2    H1 9590   4.000   3.150   8.721 -0.8990 -1.5374 -1.1578
  644MPD2    H2 9591   4.295   2.905   8.561 -0.5695 -3.0062  1.2135
  644MPD2    H3 9592   4.078   3.002   8.567  1.7212 -0.5673 -0.6990
  644MPD2     N 9593   4.117   3.206   8.966 -0.6298  0.1642  0.2582
  644MPD2    H5 9594   4.172   3.218   9.051  2.2567 -0.5702 -1.5312
  644MPD2    N1 9595   4.479   2.940   8.763 -0.7128  0.4383  0.4273
  644MPD2    H7 9596   4.501   2.865   8.698  0.2916 -0.2571  1.5609
  645TMC3    C1 9597   3.967   3.317   9.111  0.0449 -0.9010  0.1627
  645TMC3    C2 9598   3.840   3.303   9.158 -0.4818  0.5858 -0.5377
  645TMC3    C3 9599   3.812   3.366   9.271 -0.2913 -0.9324  0.8647
  645TMC3    C4 9600   4.068   3.386   9.168 -0.3799 -0.2219 -0.0679
  645TMC3    C5 9601   4.028   3.445   9.292  0.2583  0.8168  0.0455
  645TMC3    C6 9602   3.901   3.438   9.344 -0.0765  0.2726 -0.1769
  645TMC3     C 9603   3.987   3.257   8.977 -0.1510 -0.0057  0.2372
  645TMC3     O 9604   3.891   3.251   8.903 -0.1998 -0.0335 -0.4815
  645TMC3     H 9605   3.765   3.253   9.098 -0.5622 -0.9721  0.8405
  645TMC3    H1 9606   4.161   3.415   9.120 -0.3155  1.8933  1.3603
  645TMC3    H2 9607   3.882   3.491   9.436  2.3864 -0.1089  0.5665
  645TMC3    C7 9608   4.124   3.533   9.359 -0.3891  0.3913 -0.2463
  645TMC3    C8 9609   3.688   3.332   9.330 -0.8929  0.4233  0.4661
  645TMC3    O1 9610   4.086   3.575   9.465  0.2966  0.3075 -0.5768
  645TMC3    O2 9611   3.646   3.228   9.288 -0.4746 -0.0934 -0.4151
  646MPD2     C 9612   3.897   2.161  14.484 -0.6859  0.3109  0.2114
  646MPD2    C1 9613   3.834   2.217  14.589  0.0476  0.1190  0.2035
  646MPD2    C2 9614   3.728   2.303  14.558 -0.3853 -0.3796  0.4238
  646MPD2    C3 9615   3.685   2.326  14.424  0.0622  0.3091  0.2493
  646MPD2    C4 9616   3.747   2.262  14.323  0.3710 -0.2036 -0.2931
  646MPD2    C5 9617   3.846   2.174  14.356 -0.1763 -0.0797 -0.3361
  646MPD2     H 9618   3.684   2.358  14.641 -0.7497 -3.5896  2.3656
  646MPD2    H1 9619   3.722   2.276  14.219 -0.7124  2.8757  0.4004
  646MPD2    H2 9620   3.986   2.100  14.489 -1.1419 -0.2500  1.3348
  646MPD2    H3 9621   3.898   2.131  14.272  1.4917 -2.4567  1.9449
  646MPD2     N 9622   3.585   2.426  14.392  0.2174  0.1905  0.3457
  646MPD2    H5 9623   3.544   2.481  14.468 -0.1743  2.3123 -1.4067
  646MPD2    N1 9624   3.891   2.188  14.709  0.7602 -0.1029 -0.1578
  646MPD2    H7 9625   3.959   2.113  14.710 -1.6032 -2.2144  1.1145
  647TMC3    C1 9626   3.950   2.208  14.934 -0.4625 -0.7049  0.4071
  647TMC3    C2 9627   3.914   2.173  15.065  0.6251  0.2761  0.2956
  647TMC3    C3 9628   4.016   2.146  15.155 -0.6660  0.3761  0.3292
  647TMC3    C4 9629   4.079   2.199  14.885  0.5057 -0.6341 -0.2824
  647TMC3    C5 9630   4.172   2.177  14.983 -0.0661 -0.0166  0.4121
  647TMC3    C6 9631   4.146   2.150  15.114  0.1655  0.2162 -0.1647
  647TMC3     C 9632   3.845   2.237  14.831 -0.6005  0.3898  0.4918
  647TMC3     O 9633   3.748   2.304  14.856  0.1912  0.0637 -0.4055
  647TMC3     H 9634   3.811   2.186  15.096  0.3234 -2.5945  0.5056
  647TMC3    H1 9635   4.111   2.213  14.783  0.1112 -0.2000 -0.3447
  647TMC3    H2 9636   4.229   2.114  15.173  0.8638  1.0486 -0.6360
  647TMC3    C7 9637   4.294   2.126  14.945  0.5317 -0.1839  0.1313
  647TMC3    C8 9638   3.993   2.030  15.234  0.6999  0.0100 -0.5622
  647TMC3    O1 9639   4.388   2.157  15.020 -0.2151 -0.3196  0.2151
  647TMC3    O2 9640   4.086   1.992  15.304  0.5055  0.4509  0.5410
  648TMC3    C1 9641   3.711   0.014  16.641  0.6246 -0.3323 -0.4120
  648TMC3    C2 9642   3.744   4.616  16.626  0.9070  0.6189 -0.5089
  648TMC3    C3 9643   3.681   4.540  16.535  0.2109 -0.4585 -0.8195
  648TMC3    C4 9644   3.608   0.064  16.560 -0.1740 -0.0453  0.0567
  648TMC3    C5 9645   3.539   4.717  16.470 -0.1668  0.0463  0.2790
  648TMC3    C6 9646   3.574   4.583  16.463  0.1857 -0.0768 -0.0541
  648TMC3     C 9647   3.773   0.103  16.731  0.2713  0.1330 -0.1827
  648TMC3     O 9648   3.779   0.225  16.709 -0.4577  0.2545 -0.1535
  648TMC3     H 9649   3.833   4.577  16.675 -0.3895 -2.5223 -0.6433
  648TMC3    H1 9650   3.595   0.171  16.550 -0.7241 -0.0006  1.2210
  648TMC3    H2 9651   3.519   4.517  16.398 -1.0986  0.3527  0.5969
  648TMC3    C7 9652   3.483   0.029  16.345 -0.1812 -0.1921 -0.8109
  648TMC3    C8 9653   3.725   4.405  16.518  0.4409  0.3802 -0.4033
  648TMC3    O1 9654   3.478   4.688  16.251 -0.5632 -0.1885  0.2175
  648TMC3    O2 9655   3.796   4.351  16.603  0.1396 -0.3093  0.2476
  649TMC3    C1 9656   1.639   0.878  12.956  0.0628 -0.4559  0.0833
  649TMC3    C2 9657   1.744   0.967  12.954  0.8122  0.1900 -0.3208
  649TMC3    C3 9658   1.855   0.949  13.026  0.2777 -0.5253  0.4008
  649TMC3    C4 9659   1.639   0.770  13.047  0.0578  0.6075 -0.1321
  649TMC3    C5 9660   1.765   0.754  13.111 -0.0193 -0.3873 -0.4887
  649TMC3    C6 9661   1.874   0.832  13.098  0.0120  0.0029  0.0419
  649TMC3     C 9662   1.516   0.918  12.885 -0.8684  0.0769 -0.0409
  649TMC3     O 9663   1.512   1.038  12.864  0.4572 -0.1915 -0.5013
  649TMC3     H 9664   1.740   1.062  12.901 -0.2274 -0.5076 -1.5059
  649TMC3    H1 9665   1.560   0.696  13.049 -0.7579  1.4843 -0.0729
  649TMC3    H2 9666   1.965   0.817  13.154 -0.3038 -3.3425 -0.3488
  649TMC3    C7 9667   1.782   0.628  13.174 -0.0507 -0.6118  0.2859
  649TMC3    C8 9668   1.978   1.021  12.983 -0.1336 -0.1716  0.6988
  649TMC3    O1 9669   1.683   0.556  13.174  0.1370  0.0417  0.0326
  649TMC3    O2 9670   1.952   1.133  12.950 -0.4214  0.9976 -0.5654
  650TMC3    C1 9671   4.393   2.504  12.504 -0.0368 -0.4181  0.1557
  650TMC3    C2 9672   4.313   2.556  12.602  0.4048  0.0487  0.0760
  650TMC3    C3 9673   4.282   2.689  12.595  0.0222 -0.3082 -0.0272
  650TMC3    C4 9674   4.432   2.579  12.390  0.2620 -0.9236  0.8119
  650TMC3    C5 9675   4.415   2.713  12.397 -0.5294  0.3111  0.0948
  650TMC3    C6 9676   4.348   2.774  12.504 -0.2671  0.1892  0.3425
  650TMC3     C 9677   4.415   2.359  12.510 -0.2833  0.2284  0.0739
  650TMC3     O 9678   4.349   2.293  12.590 -0.1145 -0.6264  0.3024
  650TMC3     H 9679   4.267   2.502  12.684 -1.1860  2.0665  0.5355
  650TMC3    H1 9680   4.450   2.524  12.299 -0.7254 -0.0213  0.0812
  650TMC3    H2 9681   4.325   2.878  12.486 -1.1659 -0.4289 -2.1322
  650TMC3    C7 9682   4.475   2.799  12.289 -0.1865  0.0520  0.4467
  650TMC3    C8 9683   4.175   2.742  12.685  0.1617  0.4731 -1.0026
  650TMC3    O1 9684   4.500   2.738  12.189  0.1698  1.0328  0.6552
  650TMC3    O2 9685   4.091   2.667  12.730 -0.4122 -0.2489  0.1358
  651MPD2     C 9686   3.780   0.144   9.960 -0.4509 -0.6246  0.6166
  651MPD2    C1 9687   3.777   0.228  10.067 -0.0310 -0.5335 -0.1174
  651MPD2    C2 9688   3.895   0.288  10.111 -0.1360  0.4178 -0.6279
  651MPD2    C3 9689   4.016   0.253  10.062  0.5534 -0.3066  0.1900
  651MPD2    C4 9690   4.020   0.162   9.958  0.8869  0.0336 -0.3597
  651MPD2    C5 9691   3.906   0.115   9.909 -0.2749  0.2865 -0.3068
  651MPD2     H 9692   3.893   0.360  10.191 -2.9878 -0.1776 -0.1523
  651MPD2    H1 9693   4.109   0.116   9.917 -1.3963 -3.0347 -1.9069
  651MPD2    H2 9694   3.694   0.094   9.916 -1.4577  1.3878  0.2791
  651MPD2    H3 9695   3.910   0.050   9.822  2.3671 -1.1339  0.8590
  651MPD2     N 9696   4.135   0.320  10.110 -0.4234 -0.3001  0.4111
  651MPD2    H5 9697   4.112   0.378  10.190 -0.7148 -0.2860  0.3181
  651MPD2    N1 9698   3.654   0.277  10.111  0.0370 -0.2650  0.8402
  651MPD2    H7 9699   3.664   0.360  10.169 -0.0204  1.2189 -1.2463
  652TMC3    C1 9700   4.575   0.434  10.213  0.0603  0.8590 -0.4694
  652TMC3    C2 9701   4.488   0.355  10.146 -0.3556  0.2861 -0.2544
  652TMC3    C3 9702   4.358   0.396  10.128  0.7214 -0.0251  0.2873
  652TMC3    C4 9703   4.531   0.547  10.274 -0.0824 -0.1606 -0.1943
  652TMC3    C5 9704   4.401   0.587  10.258  0.2188  0.1269  0.4717
  652TMC3    C6 9705   4.313   0.514  10.176 -0.2986  1.1503 -0.4064
  652TMC3     C 9706   4.692   0.383  10.277  0.2453  0.2942  0.0051
  652TMC3     O 9707   4.716   0.419  10.393  0.0325 -0.0638  0.2205
  652TMC3     H 9708   4.529   0.259  10.116  0.6141  0.5293  0.2877
  652TMC3    H1 9709   4.604   0.592  10.341 -0.8055  2.1682 -0.9897
  652TMC3    H2 9710   4.212   0.549  10.155 -0.2183  0.6728 -1.5896
  652TMC3    C7 9711   4.355   0.705  10.325  0.2999  0.6445  0.5448
  652TMC3    C8 9712   4.267   0.301  10.077 -0.4073  0.1847  0.2832
  652TMC3    O1 9713   4.237   0.717  10.356  0.4874 -0.2487 -0.3534
  652TMC3    O2 9714   4.324   0.226   9.997  0.1561 -0.9418  0.5382
  653MPD2     C 9715   2.633   0.278   0.113  0.2112  0.6868 -1.2740
  653MPD2    C1 9716   2.539   0.350   0.043 -0.0377 -0.0660  0.5195
  653MPD2    C2 9717   2.467   0.280  17.683  0.3544  0.3211 -0.8032
  653MPD2    C3 9718   2.463   0.145  17.680  0.4933  0.2126 -0.0850
  653MPD2    C4 9719   2.548   0.077   0.024 -0.0320 -0.5948  1.6215
  653MPD2    C5 9720   2.646   0.142   0.098 -0.4469  0.5598 -0.4870
  653MPD2     H 9721   2.407   0.337  17.613  0.8521 -0.0101 -1.4957
  653MPD2    H1 9722   2.553   4.703   0.029 -0.6966 -0.6859  0.1118
  653MPD2    H2 9723   2.703   0.332   0.176  0.1039 -2.2241  1.3623
  653MPD2    H3 9724   2.725   0.094   0.154 -0.6509 -0.2875 -0.9389
  653MPD2     N 9725   2.370   0.083  17.599 -0.3883 -0.5289  0.0245
  653MPD2    H5 9726   2.296   0.141  17.560 -0.1207  0.6682  1.3030
  653MPD2    N1 9727   2.563   0.495   0.030 -0.1369 -0.2964  0.5726
  653MPD2    H7 9728   2.544   0.538  17.678  1.7227  1.1494  0.8844
  654TMC3    C1 9729   2.241   4.636  17.510  1.1220  0.5738 -0.0078
  654TMC3    C2 9730   2.160   4.717  17.441 -0.3103 -0.2444  0.2810
  654TMC3    C3 9731   2.055   4.658  17.379  0.1129 -0.9181  0.1892
  654TMC3    C4 9732   2.221   4.505  17.518 -0.2251  0.4515  0.2008
  654TMC3    C5 9733   2.117   4.446  17.450 -0.0728 -0.1682 -0.1520
  654TMC3    C6 9734   2.021   4.523  17.387 -0.1249  0.1768 -0.1958
  654TMC3     C 9735   2.365   4.681  17.574 -0.1057 -0.5424  0.0539
  654TMC3     O 9736   2.442   4.597  17.613  0.9753 -0.3986 -0.0983
  654TMC3     H 9737   2.178   0.090  17.436 -1.6845 -0.0971 -1.3981
  654TMC3    H1 9738   2.286   4.444  17.581 -0.4054 -1.1537 -1.1845
  654TMC3    H2 9739   1.927   4.487  17.346  1.3229 -1.2231 -2.2868
  654TMC3    C7 9740   2.074   4.314  17.481 -0.0883 -0.3670  0.3795
  654TMC3    C8 9741   1.954   0.020  17.321  0.2132  0.0315 -0.0531
  654TMC3    O1 9742   1.955   4.285  17.463  0.2016  0.2457  0.6197
  654TMC3    O2 9743   1.967   0.143  17.335  0.0034 -0.6262 -0.5778
  655MPD2     C 9744   3.745   0.092  15.871  0.7657  0.1104  0.1747
  655MPD2    C1 9745   3.676   0.190  15.806  0.5012 -0.2249  0.2609
  655MPD2    C2 9746   3.636   0.175  15.678  0.1779  0.0860 -0.0272
  655MPD2    C3 9747   3.662   0.058  15.614 -0.6487  0.2334 -0.6870
  655MPD2    C4 9748   3.737   4.696  15.673  0.1975 -0.1323 -0.4030
  655MPD2    C5 9749   3.779   4.711  15.801  0.5526  0.1710 -0.3716
  655MPD2     H 9750   3.591   0.260  15.626 -0.3097 -1.0691 -1.5173
  655MPD2    H1 9751   3.760   4.611  15.608 -0.9492 -0.7578 -0.0001
  655MPD2    H2 9752   3.776   0.100  15.975  1.4427 -1.5588  0.0986
  655MPD2    H3 9753   3.842   4.629  15.834 -2.3866 -1.3167  1.5384
  655MPD2     N 9754   3.631   0.034  15.474  0.3264  0.0683  0.3380
  655MPD2    H5 9755   3.658   4.679  15.435  1.5533 -1.0513  3.7475
  655MPD2    N1 9756   3.652   0.324  15.859  0.5143 -0.0236 -0.1184
  655MPD2    H7 9757   3.604   0.393  15.801  0.9019 -2.5397 -3.4761
  656TMC3    C1 9758   3.631   0.486  16.033 -0.5717 -0.5242 -0.3806
  656TMC3    C2 9759   3.642   0.510  16.171 -0.5663  0.8322  0.0450
  656TMC3    C3 9760   3.570   0.612  16.228  0.3466  0.4774  0.4443
  656TMC3    C4 9761   3.556   0.575  15.948  0.6713 -0.0619  0.1733
  656TMC3    C5 9762   3.486   0.668  16.016 -0.1322  0.5506  0.6519
  656TMC3    C6 9763   3.496   0.694  16.152  0.4920  0.3830  0.2899
  656TMC3     C 9764   3.681   0.353  15.994 -1.0546 -0.4790 -0.0735
  656TMC3     O 9765   3.736   0.285  16.078 -0.2609  0.3267  0.3957
  656TMC3     H 9766   3.693   0.440  16.236  0.5107  0.9977 -0.6080
  656TMC3    H1 9767   3.563   0.567  15.840 -1.9879  1.5675 -0.1065
  656TMC3    H2 9768   3.434   0.775  16.189  0.9132  0.7406  0.2126
  656TMC3    C7 9769   3.456   0.794  15.950  0.3705  0.0887  0.0851
  656TMC3    C8 9770   3.534   0.597  16.370  0.8350 -0.7527  0.7473
  656TMC3    O1 9771   3.488   0.897  16.007  0.4303  0.1316 -0.4196
  656TMC3    O2 9772   3.573   0.496  16.425 -0.2565 -0.1467  0.0251
  657TMC3    C1 9773   2.649   4.028  15.324 -0.2135  0.3398  0.2856
  657TMC3    C2 9774   2.740   4.019  15.426 -0.6070  0.3287 -0.2113
  657TMC3    C3 9775   2.735   4.117  15.521 -0.3525 -0.4974  0.0513
  657TMC3    C4 9776   2.557   4.135  15.310  0.2426  0.4541 -0.1688
  657TMC3    C5 9777   2.561   4.226  15.410  0.4161 -0.0142  0.4563
  657TMC3    C6 9778   2.645   4.218  15.519  0.5738  0.5546 -0.8304
  657TMC3     C 9779   2.694   3.957  15.200 -0.7216  0.1188 -0.1985
  657TMC3     O 9780   2.613   3.928  15.113 -0.6683  0.1192  0.3250
  657TMC3     H 9781   2.808   3.936  15.443 -0.7308  0.3999  0.6539
  657TMC3    H1 9782   2.497   4.137  15.220  0.2987 -0.4157 -0.2321
  657TMC3    H2 9783   2.645   4.300  15.590 -0.8430 -0.0532 -0.1374
  657TMC3    C7 9784   2.460   4.330  15.413 -0.8779 -0.7460 -0.3551
  657TMC3    C8 9785   2.814   4.101  15.643 -0.1946 -0.1347  0.7584
  657TMC3    O1 9786   2.476   4.416  15.497  0.1743  0.0678  0.2617
  657TMC3    O2 9787   2.793   4.195  15.720  0.1799  0.5523 -0.5718
  658MPD2     C 9788   3.961   0.231  14.917 -0.4546  0.8757  0.6683
  658MPD2    C1 9789   3.868   0.140  14.874  0.0265 -0.1711 -0.0339
  658MPD2    C2 9790   3.860   0.113  14.737  0.2467  0.3260  0.1841
  658MPD2    C3 9791   3.931   0.185  14.646 -1.1639 -0.2764 -0.5580
  658MPD2    C4 9792   4.022   0.282  14.688  0.1821  0.0634 -0.6767
  658MPD2    C5 9793   4.040   0.295  14.821 -0.2408 -0.7421  0.4762
  658MPD2     H 9794   3.798   0.033  14.698  2.8020 -0.3944 -2.3880
  658MPD2    H1 9795   4.076   0.340  14.614 -2.5015  0.6033 -2.1885
  658MPD2    H2 9796   3.971   0.252  15.022 -0.2088 -0.6416  0.9483
  658MPD2    H3 9797   4.108   0.364  14.869  2.9572 -3.4265 -0.1546
  658MPD2     N 9798   3.904   0.148  14.512  0.6559  0.2636  0.0009
  658MPD2    H5 9799   3.825   0.086  14.501  2.1355 -1.9927  2.1542
  658MPD2    N1 9800   3.779   0.088  14.976  0.2932  0.3958  0.1313
  658MPD2    H7 9801   3.777   0.137  15.065 -1.4128 -0.2083  0.4356
  659TMC3    C1 9802   3.581   4.734  15.057 -0.2135  0.2611 -0.4231
  659TMC3    C2 9803   3.624   0.042  15.186  0.4320 -0.0499 -0.5309
  659TMC3    C3 9804   3.521   0.052  15.276 -0.2714 -0.0820 -0.6067
  659TMC3    C4 9805   3.449   4.722  15.025  0.0721  0.0553 -0.4649
  659TMC3    C5 9806   3.355   0.015  15.122  0.0681  0.2400  0.1515
  659TMC3    C6 9807   3.383   0.051  15.246  0.3518  0.0453 -0.3636
  659TMC3     C 9808   3.683   4.730  14.955  0.0844 -0.5182  0.1469
  659TMC3     O 9809   3.649   4.680  14.846 -0.0728  0.2386 -0.5303
  659TMC3     H 9810   3.727   0.059  15.216  0.2359 -2.4669  1.5025
  659TMC3    H1 9811   3.430   4.671  14.932  0.8306  0.5143 -0.8677
  659TMC3    H2 9812   3.306   0.056  15.322 -0.1820 -1.2568 -0.8153
  659TMC3    C7 9813   3.223   4.690  15.097 -0.4916 -0.5507 -0.0689
  659TMC3    C8 9814   3.541   0.107  15.406  0.8112 -0.7342  0.4977
  659TMC3    O1 9815   3.160   4.658  15.198  0.9753  0.5635 -0.1683
  659TMC3    O2 9816   3.456   0.191  15.447  0.5754 -0.5685 -0.1437
  660MPD2     C 9817   2.084   3.398  12.671  0.5693  0.1654 -0.8355
  660MPD2    C1 9818   1.961   3.411  12.619  0.8376  0.1862 -0.6600
  660MPD2    C2 9819   1.853   3.363  12.696 -0.5675  0.0259 -0.0574
  660MPD2    C3 9820   1.872   3.307  12.823  0.5343 -0.0745  0.0585
  660MPD2    C4 9821   1.997   3.301  12.881 -0.7225 -0.4126  0.1248
  660MPD2    C5 9822   2.098   3.346  12.798 -0.5699  0.7736  0.1338
  660MPD2     H 9823   1.753   3.369  12.654 -0.6749  2.7565  0.5207
  660MPD2    H1 9824   2.024   3.267  12.979  0.5119  0.0181 -0.0682
  660MPD2    H2 9825   2.167   3.415  12.604  0.3089 -0.6426 -1.3744
  660MPD2    H3 9826   2.196   3.338  12.844  0.2058 -0.8687 -1.8274
  660MPD2     N 9827   1.762   3.276  12.912 -0.9292 -0.2018  0.4319
  660MPD2    H5 9828   1.788   3.224  12.995  1.9866  1.6011  0.6590
  660MPD2    N1 9829   1.946   3.473  12.494  0.0410  0.4068 -0.0159
  660MPD2    H7 9830   2.030   3.524  12.467 -0.4171  0.4743 -1.2988
  661TMC3    C1 9831   1.849   3.639  12.368 -0.4868 -0.5308  0.6838
  661TMC3    C2 9832   1.862   3.652  12.229  0.8616  0.4551  0.4039
  661TMC3    C3 9833   1.825   3.772  12.174 -0.0344  1.2502  0.2154
  661TMC3    C4 9834   1.784   3.739  12.436  0.1523  0.2356 -0.1662
  661TMC3    C5 9835   1.741   3.846  12.367 -0.8759 -0.6607 -0.3317
  661TMC3    C6 9836   1.769   3.883  12.239 -0.0587  0.5849  0.1026
  661TMC3     C 9837   1.836   3.505  12.430 -0.0849  0.2051  0.0257
  661TMC3     O 9838   1.719   3.476  12.447 -0.1177 -0.3240 -0.2767
  661TMC3     H 9839   1.918   3.578  12.173 -0.4185  0.1723 -0.5030
  661TMC3    H1 9840   1.749   3.726  12.538 -2.1084  1.1549 -0.8123
  661TMC3    H2 9841   1.719   3.965  12.190  2.0230  2.0911  0.5250
  661TMC3    C7 9842   1.634   3.906  12.432  0.0155  0.3075  0.0457
  661TMC3    C8 9843   1.829   3.775  12.030  0.0001  0.6767  0.0970
  661TMC3    O1 9844   1.622   3.917  12.555  0.3792  0.3152 -0.9540
  661TMC3    O2 9845   1.807   3.665  11.974  0.4496 -0.1861 -0.4309
  662MPD2     C 9846   2.399   3.341  17.219  0.3493  0.6039 -0.5049
  662MPD2    C1 9847   2.317   3.235  17.228 -0.1620 -0.0792 -0.3433
  662MPD2    C2 9848   2.192   3.247  17.278  0.6076 -0.6565 -0.3771
  662MPD2    C3 9849   2.141   3.368  17.323  0.2480  0.0247  0.0448
  662MPD2    C4 9850   2.230   3.471  17.313 -0.2469  0.3824  0.3877
  662MPD2    C5 9851   2.356   3.455  17.270 -0.4888  0.4162 -0.3574
  662MPD2     H 9852   2.121   3.165  17.280 -1.0344  0.7904  0.7000
  662MPD2    H1 9853   2.205   3.567  17.357 -0.4848  1.1405 -1.4135
  662MPD2    H2 9854   2.499   3.341  17.177  0.3134 -0.8081 -0.6017
  662MPD2    H3 9855   2.420   3.542  17.265 -1.7801  1.5855  3.2071
  662MPD2     N 9856   2.013   3.384  17.380 -0.6921  0.1605  0.1106
  662MPD2    H5 9857   1.984   3.481  17.396 -0.2788  0.6366 -2.0247
  662MPD2    N1 9858   2.356   3.107  17.183 -0.0705  0.2790 -0.3611
  662MPD2    H7 9859   2.297   3.024  17.189  0.1219 -0.0111 -2.2363
  663TMC3    C1 9860   2.472   2.927  17.119 -0.4295 -0.2170  0.3585
  663TMC3    C2 9861   2.542   2.826  17.183  0.1233 -1.1408  0.4206
  663TMC3    C3 9862   2.491   2.700  17.184  0.2315  0.1718  0.0799
  663TMC3    C4 9863   2.358   2.902  17.049 -0.9487 -0.1977  0.2401
  663TMC3    C5 9864   2.315   2.767  17.047 -0.4279 -0.9410  0.1426
  663TMC3    C6 9865   2.372   2.674  17.130 -0.7295  0.6721 -0.2962
  663TMC3     C 9866   2.481   3.062  17.162  0.4950  0.6143  0.0877
  663TMC3     O 9867   2.593   3.107  17.188  0.5685  0.7677 -0.4037
  663TMC3     H 9868   2.636   2.859  17.225  1.6426 -2.3692 -2.0090
  663TMC3    H1 9869   2.318   2.974  16.977  0.1134 -0.0962 -0.2412
  663TMC3    H2 9870   2.358   2.568  17.110 -1.6461  0.9910 -1.3443
  663TMC3    C7 9871   2.213   2.731  16.952  0.9047  0.3660  0.0298
  663TMC3    C8 9872   2.521   2.637  17.306  0.2678 -0.2869 -0.3118
  663TMC3    O1 9873   2.224   2.781  16.837 -0.1513 -0.6011 -0.0330
  663TMC3    O2 9874   2.637   2.641  17.341  0.5997  0.0748  0.3023
  664MPD2     C 9875   0.010   1.218  17.312 -0.4294  0.2190 -0.6724
  664MPD2    C1 9876   0.115   1.289  17.355  0.7392 -0.6195 -0.3801
  664MPD2    C2 9877   0.164   1.275  17.483 -0.4619 -0.3387 -0.0262
  664MPD2    C3 9878   0.111   1.182  17.573 -0.5055 -0.3477 -0.1370
  664MPD2    C4 9879   0.006   1.101  17.526  0.4238 -0.1707 -0.0732
  664MPD2    C5 9880   4.697   1.120  17.402  0.0985 -0.7671 -1.3097
  664MPD2     H 9881   0.245   1.341  17.512 -0.4244 -1.0241  1.4617
  664MPD2    H1 9882   4.689   1.034  17.595  0.3024  0.1783  0.1726
  664MPD2    H2 9883   4.699   1.226  17.214 -0.4105  0.5932 -0.6491
  664MPD2    H3 9884   4.613   1.057  17.376 -1.6654  0.9505  0.2251
  664MPD2     N 9885   0.176   1.170  17.700  0.8195  0.3837 -0.1578
  664MPD2    H5 9886   0.253   1.232  17.721  2.2593 -1.5985  0.4050
  664MPD2    N1 9887   0.173   1.399  17.283  0.2508  0.7441 -0.0300
  664MPD2    H7 9888   0.234   1.461  17.335  1.6079 -0.1030 -0.6074
  665TMC3    C1 9889   0.178   1.159   0.188 -0.0940  0.8376  0.4647
  665TMC3    C2 9890   0.084   1.176   0.289  0.8063 -0.8062  0.5607
  665TMC3    C3 9891   0.131   1.241   0.404 -0.0537  0.2980 -0.1633
  665TMC3    C4 9892   0.311   1.162   0.211  0.5804 -0.1880  1.1286
  665TMC3    C5 9893   0.359   1.210   0.328 -0.0287 -0.4725  0.4911
  665TMC3    C6 9894   0.270   1.251   0.425  1.1430 -0.3838 -0.1941
  665TMC3     C 9895   0.131   1.095   0.068  0.0329  0.3434  0.7406
  665TMC3     O 9896   0.031   1.022   0.074  0.2177  0.2397  0.4443
  665TMC3     H 9897   4.715   1.183   0.259  1.2773  0.4910 -0.7979
  665TMC3    H1 9898   0.387   1.128   0.142  2.5286  0.8372  2.8032
  665TMC3    H2 9899   0.296   1.282   0.526  0.8673 -0.2767 -0.1561
  665TMC3    C7 9900   0.482   1.284   0.327  0.0139  0.3349 -0.0266
  665TMC3    C8 9901   0.058   1.321   0.496 -0.1314 -0.0213 -0.2146
  665TMC3    O1 9902   0.558   1.270   0.234  0.1370  0.0714  0.3780
  665TMC3    O2 9903   0.125   1.412   0.540  0.0743 -0.5215  0.9643
  666TMC3    C1 9904   0.112   1.856   9.645 -0.2806 -0.0520  0.0778
  666TMC3    C2 9905   0.186   1.791   9.740  0.2310 -0.7154 -0.6691
  666TMC3    C3 9906   0.201   1.857   9.856 -0.3112 -0.5921 -0.4786
  666TMC3    C4 9907   0.062   1.981   9.660 -0.2848 -0.0093 -0.6911
  666TMC3    C5 9908   0.069   2.030   9.782  0.1424  0.2562  0.2317
  666TMC3    C6 9909   0.136   1.974   9.883  0.0771  0.4858 -0.3457
  666TMC3     C 9910   0.032   1.778   9.554 -0.2899  0.1098 -0.1325
  666TMC3     O 9911   4.728   1.825   9.448  0.0440 -0.2373  0.0583
  666TMC3     H 9912   0.235   1.696   9.726 -0.0726 -0.7641 -1.4149
  666TMC3    H1 9913   4.733   2.026   9.585 -2.7238 -0.0804  1.3327
  666TMC3    H2 9914   0.139   2.029   9.976 -0.7525 -0.0356 -0.0048
  666TMC3    C7 9915   4.696   2.126   9.821 -0.5133  1.2343 -0.2847
  666TMC3    C8 9916   0.260   1.774   9.963 -0.8379 -0.4952 -0.6308
  666TMC3    O1 9917   4.642   2.107   9.935  0.0496 -0.2050  0.1568
  666TMC3    O2 9918   0.261   1.650   9.956 -0.0580  0.4910  0.2468
  667MPD2     C 9919   0.835   1.226  14.791 -0.2128 -0.2469 -0.5651
  667MPD2    C1 9920   0.724   1.244  14.879 -0.2864 -0.4191  0.0684
  667MPD2    C2 9921   0.626   1.152  14.879 -0.1607  0.6399 -0.7621
  667MPD2    C3 9922   0.623   1.051  14.788 -0.2730  0.6504  0.6242
  667MPD2    C4 9923   0.734   1.035  14.702  0.6772  0.0224  0.2964
  667MPD2    C5 9924   0.838   1.127  14.695  0.2465 -0.0436  0.1814
  667MPD2     H 9925   0.556   1.151  14.962 -1.5497  1.7205 -1.9186
  667MPD2    H1 9926   0.738   0.960  14.623  0.8895 -1.4453  1.6973
  667MPD2    H2 9927   0.915   1.299  14.794 -1.4175  1.0231  0.8153
  667MPD2    H3 9928   0.914   1.118  14.618  0.8944 -2.0160  1.0678
  667MPD2     N 9929   0.525   0.956  14.781 -0.1438 -1.0401  0.6463
  667MPD2    H5 9930   0.540   0.878  14.719  0.7193 -0.5240  0.2142
  667MPD2    N1 9931   0.735   1.335  14.990 -0.4576  0.1836  0.3639
  667MPD2    H7 9932   0.660   1.332  15.058 -0.5328 -1.7962  0.1929
  668TMC3    C1 9933   0.797   1.507  15.126  0.4898 -0.0127  0.0368
  668TMC3    C2 9934   0.872   1.624  15.125  0.0092 -0.6612  0.1343
  668TMC3    C3 9935   0.888   1.695  15.238 -0.4299  0.1943 -0.0204
  668TMC3    C4 9936   0.751   1.451  15.243 -0.2591  0.0028 -0.2396
  668TMC3    C5 9937   0.756   1.534  15.350  0.1187 -0.4089  0.3853
  668TMC3    C6 9938   0.818   1.657  15.343 -0.1315  0.0032  0.1116
  668TMC3     C 9939   0.838   1.421  15.016  0.1147  0.2088 -0.0658
  668TMC3     O 9940   0.944   1.443  14.957 -0.3967  0.2792  0.1292
  668TMC3     H 9941   0.898   1.665  15.028 -1.8663 -0.7382 -0.3889
  668TMC3    H1 9942   0.694   1.359  15.252  1.3502 -0.9854  0.0054
  668TMC3    H2 9943   0.827   1.711  15.436 -0.9400  0.2833  0.0347
  668TMC3    C7 9944   0.715   1.468  15.474  0.3558  0.0946 -0.0244
  668TMC3    C8 9945   0.986   1.808  15.247  0.7142  0.1960  0.4091
  668TMC3    O1 9946   0.710   1.345  15.487  0.0699 -0.2225  0.3448
  668TMC3    O2 9947   1.008   1.856  15.358  0.2659  0.7827  0.4049
  669TMC3    C1 9948   3.503   1.377  14.391 -0.3018  0.0968  0.3080
  669TMC3    C2 9949   3.374   1.417  14.378  0.0664 -0.7933  0.0594
  669TMC3    C3 9950   3.351   1.525  14.299  0.4005  0.0128 -0.3209
  669TMC3    C4 9951   3.611   1.437  14.333 -0.2944  0.6519 -0.4822
  669TMC3    C5 9952   3.586   1.547  14.256 -0.2486 -0.0785 -0.1512
  669TMC3    C6 9953   3.458   1.590  14.236 -0.8978 -0.4450 -1.1839
  669TMC3     C 9954   3.533   1.303  14.503  0.5965  0.0101 -0.6598
  669TMC3     O 9955   3.452   1.219  14.541  0.1024  0.2676 -0.4402
  669TMC3     H 9956   3.293   1.369  14.432  0.4237 -1.2960  0.1450
  669TMC3    H1 9957   3.712   1.398  14.329  0.0303  1.3693  0.8490
  669TMC3    H2 9958   3.418   1.670  14.175  0.2869  0.5973 -0.6122
  669TMC3    C7 9959   3.698   1.579  14.173 -0.2348 -0.4053  0.5462
  669TMC3    C8 9960   3.221   1.595  14.320 -0.1013  0.5617  0.7395
  669TMC3    O1 9961   3.802   1.568  14.235  0.3323  0.2539  0.2839
  669TMC3    O2 9962   3.223   1.704  14.378  0.4028 -0.2577  0.0880
  670MPD2     C 9963   1.551   3.858  13.506  0.0704 -0.3290  0.5116
  670MPD2    C1 9964   1.678   3.821  13.539  0.7564  0.5396  0.2887
  670MPD2    C2 9965   1.731   3.837  13.668 -0.0185 -1.0543 -0.7136
  670MPD2    C3 9966   1.642   3.882  13.761  0.7560 -0.7976  0.7833
  670MPD2    C4 9967   1.514   3.916  13.725 -0.4425 -0.0426  0.2534
  670MPD2    C5 9968   1.476   3.918  13.602 -0.6340 -0.6237 -0.0247
  670MPD2     H 9969   1.826   3.793  13.694  0.3268 -0.6304 -1.2665
  670MPD2    H1 9970   1.445   3.961  13.795 -0.2187 -0.8433  0.9923
  670MPD2    H2 9971   1.499   3.852  13.411  0.2468 -1.0242  0.4607
  670MPD2    H3 9972   1.376   3.952  13.578 -1.2157 -0.9204  2.0524
  670MPD2     N 9973   1.674   3.874  13.898 -0.0033 -0.4427  0.3899
  670MPD2    H5 9974   1.769   3.843  13.913  0.5522  0.2753 -1.5612
  670MPD2    N1 9975   1.776   3.775  13.441  0.9903  0.6230  0.2715
  670MPD2    H7 9976   1.864   3.745  13.480  1.3744  0.4679 -0.7354
  671TMC3    C1 9977   1.641   3.822  14.124  0.0673  0.5053 -0.6132
  671TMC3    C2 9978   1.776   3.807  14.136  0.6696 -0.1840  0.0186
  671TMC3    C3 9979   1.830   3.749  14.247 -0.7435  0.1826  0.1166
  671TMC3    C4 9980   1.565   3.747  14.209  0.4707 -0.8182  0.3383
  671TMC3    C5 9981   1.618   3.678  14.314  0.0726 -0.2146  0.4608
  671TMC3    C6 9982   1.751   3.682  14.338 -0.3083 -0.7744 -0.0698
  671TMC3     C 9983   1.581   3.851  13.995 -0.4409  0.2097  0.3149
  671TMC3     O 9984   1.459   3.847  13.995  0.0669 -0.4290  0.0372
  671TMC3     H 9985   1.846   3.870  14.082 -0.1273  0.5335 -0.1926
  671TMC3    H1 9986   1.457   3.744  14.205  0.5356 -1.1731 -1.3890
  671TMC3    H2 9987   1.795   3.607  14.404  1.2858 -2.9214 -3.5222
  671TMC3    C7 9988   1.577   3.540  14.296  0.1256 -0.2543  0.4157
  671TMC3    C8 9989   1.974   3.706  14.243  0.2659 -0.7967 -0.3704
  671TMC3    O1 9990   1.663   3.467  14.247 -0.2557  0.1471  0.2205
  671TMC3    O2 9991   2.033   3.722  14.137  0.0414 -0.8277  0.2860
  672MPD2     C 9992   1.805   4.727   1.263  0.7322  0.4404 -0.6288
  672MPD2    C1 9993   1.929   4.685   1.204 -0.1343  0.7145  0.1322
  672MPD2    C2 9994   2.021   0.047   1.194  0.4211 -0.4767 -0.0569
  672MPD2    C3 9995   2.013   0.170   1.253 -0.5939 -0.4500  0.7278
  672MPD2    C4 9996   1.891   0.212   1.310 -0.4299 -0.8577 -0.4406
  672MPD2    C5 9997   1.786   0.116   1.311  0.4317 -0.1578  0.7070
  672MPD2     H 9998   2.108   0.015   1.138  0.7948 -1.9358  1.3521
  672MPD2    H1 9999   1.875   0.313   1.346  0.7905 -1.1047  0.7879
  672MPD2    H210000   1.719   4.661   1.262  1.5630 -0.6269 -1.7605
  672MPD2    H310001   1.692   0.146   1.357  0.4995 -0.1011  0.8069
  672MPD2     N10002   2.123   0.256   1.240  0.7124 -0.1625 -0.3825
  672MPD2    H510003   2.115   0.351   1.275 -0.7168 -0.2851 -0.4091
  672MPD2    N110004   1.948   4.568   1.130 -0.2273  0.1008 -0.0061
  672MPD2    H710005   2.032   4.561   1.072  1.2022 -1.3231  2.2324
  673TMC3    C110006   1.916   4.406   0.978 -0.0622  0.9970 -0.0006
  673TMC3    C210007   1.925   4.267   0.984 -0.0728  0.1673 -0.9775
  673TMC3    C310008   1.968   4.208   0.870  0.2469  0.2144  0.1262
  673TMC3    C410009   1.940   4.478   0.864  0.2817  0.2793  0.7645
  673TMC3    C510010   1.975   4.410   0.753  0.1173  0.0717 -0.3355
  673TMC3    C610011   1.981   4.272   0.752 -0.3136 -0.2403  0.2571
  673TMC3     C10012   1.859   4.479   1.088 -0.3468 -0.2934 -0.2513
  673TMC3     O10013   1.757   4.445   1.144 -0.0350 -0.3043  0.9562
  673TMC3     H10014   1.907   4.205   1.071 -0.4325  1.3960 -0.1777
  673TMC3    H110015   1.920   4.584   0.871  0.5436  0.3046  1.1524
  673TMC3    H210016   1.993   4.216   0.660 -0.5421 -0.1946  0.2002
  673TMC3    C710017   1.963   4.487   0.632 -0.5155  0.0309 -0.1810
  673TMC3    C810018   2.066   4.098   0.882  0.2937 -0.0416  0.6143
  673TMC3    O110019   1.938   4.421   0.535 -0.7096  0.0991 -0.1344
  673TMC3    O210020   2.072   4.021   0.790 -0.5122 -0.7252 -0.2899
  674MPD2     C10021   2.402   4.276   0.112  0.0430  0.0982  0.1953
  674MPD2    C110022   2.316   4.174   0.130  0.5138 -0.6509  0.0364
  674MPD2    C210023   2.180   4.203   0.137  0.0272  0.8486 -0.3292
  674MPD2    C310024   2.137   4.330   0.131  0.0526  0.1257 -0.4110
  674MPD2    C410025   2.229   4.437   0.122  0.3549  0.1748 -0.4559
  674MPD2    C510026   2.359   4.403   0.128 -0.2161 -0.5473  0.1639
  674MPD2     H10027   2.111   4.121   0.151 -0.6966  0.8907 -3.6142
  674MPD2    H110028   2.197   4.541   0.114 -3.5603 -1.0251 -0.2155
  674MPD2    H210029   2.507   4.251   0.102 -0.3398 -0.8202 -1.6529
  674MPD2    H310030   2.434   4.480   0.116 -0.8646  0.0122 -0.3031
  674MPD2     N10031   1.999   4.347   0.119 -0.5096  0.1835 -0.1136
  674MPD2    H510032   1.946   4.262   0.133 -0.2014  0.0264  0.1135
  674MPD2    N110033   2.373   4.042   0.126  0.8385 -0.8272 -0.0285
  674MPD2    H710034   2.466   4.033   0.084  0.6840 -1.2681 -0.2751
  675TMC3    C110035   2.386   3.807   0.175  0.3048  0.0839 -1.0793
  675TMC3    C210036   2.316   3.703   0.211  0.4634  0.2238 -0.8924
  675TMC3    C310037   2.381   3.577   0.210 -0.0788 -0.2837 -0.9715
  675TMC3    C410038   2.523   3.804   0.143 -0.2300  0.6838 -0.1267
  675TMC3    C510039   2.584   3.684   0.170 -0.3419 -0.9081 -0.4129
  675TMC3    C610040   2.514   3.567   0.187 -0.2368  0.7478 -0.7432
  675TMC3     C10041   2.306   3.926   0.172 -0.1457 -0.7578  0.4096
  675TMC3     O10042   2.198   3.927   0.233 -0.4696  0.0514 -0.1697
  675TMC3     H10043   2.209   3.711   0.220  0.3502  1.2096 -3.4528
  675TMC3    H110044   2.585   3.888   0.115  0.4044 -0.3114 -1.7201
  675TMC3    H210045   2.566   3.473   0.193 -1.9284 -0.0281  1.7967
  675TMC3    C710046   2.730   3.678   0.196  0.0036  0.3527  0.2372
  675TMC3    C810047   2.304   3.460   0.242  0.3494  0.5150  0.0027
  675TMC3    O110048   2.788   3.568   0.189  0.9754  0.1678 -0.1917
  675TMC3    O210049   2.356   3.352   0.220 -0.7131 -0.3274 -0.4217
  676MPD2     C10050   4.305   2.838  10.786 -0.8274  0.4620 -0.0090
  676MPD2    C110051   4.393   2.816  10.888  0.1372 -0.4475  0.2757
  676MPD2    C210052   4.492   2.720  10.871 -0.0564 -0.1207 -0.8801
  676MPD2    C310053   4.493   2.648  10.751 -0.2657 -0.0016  0.1469
  676MPD2    C410054   4.392   2.656  10.656 -0.1107  0.2469  0.5904
  676MPD2    C510055   4.295   2.749  10.682  0.5129  0.3994  1.5050
  676MPD2     H10056   4.575   2.707  10.940 -1.6618 -0.6496  0.9440
  676MPD2    H110057   4.376   2.599  10.565 -0.8944 -0.4656  1.1705
  676MPD2    H210058   4.231   2.916  10.800 -1.5781 -0.3544  0.5360
  676MPD2    H310059   4.213   2.761  10.612  2.6563  1.0249 -0.8623
  676MPD2     N10060   4.604   2.553  10.719 -0.0422 -0.6266 -0.1282
  676MPD2    H510061   4.585   2.496  10.638 -0.0843  0.4110 -0.8382
  676MPD2    N110062   4.379   2.886  11.011 -1.1374  0.1596  0.8251
  676MPD2    H710063   4.447   2.866  11.084 -0.5656 -0.9701 -0.0029
  677TMC3    C110064   4.287   3.016  11.192  0.4025  0.6367  0.7624
  677TMC3    C210065   4.382   2.954  11.272 -0.2788 -0.1650 -0.1158
  677TMC3    C310066   4.445   3.034  11.368  0.3710 -0.1554  0.3415
  677TMC3    C410067   4.259   3.150  11.197 -0.0494  0.2803  0.2112
  677TMC3    C510068   4.327   3.228  11.282  0.5903 -0.0355  0.4262
  677TMC3    C610069   4.428   3.173  11.368 -0.0357  0.4756  0.0470
  677TMC3     C10070   4.281   2.972  11.045  0.2721 -0.6148  0.1022
  677TMC3     O10071   4.205   3.042  10.975 -0.2383  0.4909  0.7185
  677TMC3     H10072   4.404   2.851  11.247  0.0307 -0.1460  0.0914
  677TMC3    H110073   4.183   3.198  11.137  1.0625  2.7320  0.7249
  677TMC3    H210074   4.484   3.236  11.436 -1.3037 -0.1094  1.6582
  677TMC3    C710075   4.292   3.366  11.296  0.3658 -0.4946 -0.1576
  677TMC3    C810076   4.556   2.978  11.444  0.2790  0.4980  0.6711
  677TMC3    O110077   4.177   3.409  11.281  0.0293  0.6307  0.4218
  677TMC3    O210078   4.640   3.056  11.493  0.0465 -0.8486  0.2452
  678MPD2     C10079   1.391   2.919   1.290  0.4001 -0.0957  0.8895
  678MPD2    C110080   1.432   2.797   1.235 -0.4716 -0.0956  0.1609
  678MPD2    C210081   1.339   2.709   1.172  0.1396 -0.2132  0.9584
  678MPD2    C310082   1.205   2.745   1.183 -0.2157 -0.6455  0.0381
  678MPD2    C410083   1.174   2.872   1.221  0.4118 -0.8767  0.3019
  678MPD2    C510084   1.264   2.961   1.266  0.0558 -0.1601 -0.6376
  678MPD2     H10085   1.372   2.617   1.125 -0.4714  0.0241  0.0617
  678MPD2    H110086   1.075   2.914   1.224  1.6597  2.2171 -2.9239
  678MPD2    H210087   1.452   2.996   1.334 -1.0424 -0.3805  3.4053
  678MPD2    H310088   1.237   3.062   1.293 -3.3385 -1.0440 -0.6736
  678MPD2     N10089   1.112   2.662   1.109  0.2317  0.0094  0.5565
  678MPD2    H510090   1.151   2.585   1.055 -1.0706  0.5235 -1.1026
  678MPD2    N110091   1.567   2.750   1.237  0.1139  0.1047  0.1298
  678MPD2    H710092   1.596   2.677   1.173  0.0936 -0.1329  0.3916
  679TMC3    C110093   2.000   2.709   1.363 -0.1043  0.0649  0.1440
  679TMC3    C210094   1.879   2.768   1.386 -0.6333  0.1674  0.2951
  679TMC3    C310095   1.792   2.759   1.282  0.5057 -0.1595 -0.2405
  679TMC3    C410096   2.033   2.654   1.242 -0.5263  0.3294  0.3298
  679TMC3    C510097   1.944   2.654   1.139 -1.0200 -0.2225  1.0547
  679TMC3    C610098   1.820   2.691   1.165 -0.4946 -0.3500 -0.0525
  679TMC3     C10099   2.091   2.700   1.478 -1.1316  0.0807 -0.3815
  679TMC3     O10100   2.206   2.686   1.448 -0.2973 -0.5971 -0.0618
  679TMC3     H10101   1.835   2.799   1.480  1.6171 -1.0535  1.7351
  679TMC3    H110102   2.131   2.615   1.218  0.3656  3.5747 -1.2587
  679TMC3    H210103   1.756   2.716   1.081  0.4719  1.9389 -0.1227
  679TMC3    C710104   1.970   2.613   1.001 -0.3908  0.3356  0.1177
  679TMC3    C810105   1.662   2.810   1.315  0.1876  0.1504  0.0920
  679TMC3    O110106   1.872   2.582   0.934  0.5199 -0.1782  0.0381
  679TMC3    O210107   1.648   2.888   1.407 -0.1154 -0.6779  0.0200
  680MPD2     C10108   1.283   1.183  13.651 -0.0182  0.5601  0.2020
  680MPD2    C110109   1.396   1.116  13.694 -0.1887  1.0998 -0.1248
  680MPD2    C210110   1.506   1.190  13.737 -0.4450 -0.1365 -0.1723
  680MPD2    C310111   1.506   1.325  13.724  0.9682 -0.6216 -0.0414
  680MPD2    C410112   1.390   1.387  13.681 -0.3198  0.3960  0.4706
  680MPD2    C510113   1.279   1.321  13.652  0.1390  0.9518 -0.2640
  680MPD2     H10114   1.590   1.136  13.781  0.4807  1.2045 -0.2936
  680MPD2    H110115   1.386   1.494  13.663  2.1566  0.7452  1.9647
  680MPD2    H210116   1.198   1.134  13.604 -0.2151 -0.3324  1.4895
  680MPD2    H310117   1.191   1.374  13.618 -1.5457 -2.1264 -0.7528
  680MPD2     N10118   1.611   1.409  13.761  0.1693 -0.0922  0.0619
  680MPD2    H510119   1.601   1.510  13.753  2.6076  0.2320  1.2125
  680MPD2    N110120   1.395   0.976  13.700  0.3388  0.2456 -0.0011
  680MPD2    H710121   1.486   0.931  13.706  0.4060  0.2053 -1.4818
  681TMC3    C110122   1.332   0.769  13.783 -0.0867 -0.2170 -0.1870
  681TMC3    C210123   1.280   0.729  13.902  0.6044 -0.1114 -0.9897
  681TMC3    C310124   1.361   0.663  13.989  0.2690  0.2549 -0.1233
  681TMC3    C410125   1.454   0.722  13.742 -0.6850  0.1751 -0.1352
  681TMC3    C510126   1.530   0.638  13.824  1.0531  0.4213 -0.0814
  681TMC3    C610127   1.482   0.607  13.949 -0.7947 -0.2962 -1.0494
  681TMC3     C10128   1.281   0.903  13.737  0.5080  0.3004  0.0098
  681TMC3     O10129   1.173   0.950  13.766  0.2665 -0.3162  0.5338
  681TMC3     H10130   1.184   0.773  13.928  0.8277 -0.4284  0.3497
  681TMC3    H110131   1.491   0.759  13.647 -1.4713 -0.0451 -0.5251
  681TMC3    H210132   1.530   0.528  14.005  1.0872  2.5612  1.4066
  681TMC3    C710133   1.658   0.582  13.780  0.1895  0.3406  0.0552
  681TMC3    C810134   1.333   0.685  14.132  0.6222 -0.3956  0.2710
  681TMC3    O110135   1.726   0.533  13.870 -0.1606 -0.7100 -0.6538
  681TMC3    O210136   1.221   0.732  14.155  0.0062  0.3348 -0.4579
  682MPD2     C10137   3.657   2.678  10.349 -0.0632 -1.3454 -0.0947
  682MPD2    C110138   3.696   2.552  10.383 -0.2326 -0.6194 -0.2493
  682MPD2    C210139   3.672   2.497  10.507  0.1245  0.3375 -0.8663
  682MPD2    C310140   3.608   2.572  10.606 -0.3366  0.1768 -0.3295
  682MPD2    C410141   3.570   2.700  10.568 -0.3231 -0.3791  0.1375
  682MPD2    C510142   3.596   2.752  10.444  0.0298 -0.3078  0.0658
  682MPD2     H10143   3.709   2.399  10.533 -1.3539  0.5598  2.1668
  682MPD2    H110144   3.520   2.764  10.640 -0.5311 -0.2355 -0.1329
  682MPD2    H210145   3.671   2.719  10.250 -0.5217  0.6578  0.6721
  682MPD2    H310146   3.565   2.854  10.422 -0.9343 -1.0216 -1.8817
  682MPD2     N10147   3.580   2.519  10.734  0.3959 -0.0955 -0.0042
  682MPD2    H510148   3.558   2.592  10.801  2.8474 -1.8682  2.7374
  682MPD2    N110149   3.768   2.471  10.293  0.0745 -0.2056 -0.0979
  682MPD2    H710150   3.799   2.377  10.317  1.0304  0.6335  1.9280
  683TMC3    C110151   3.623   2.425  11.117  0.0460  0.1711  0.2840
  683TMC3    C210152   3.595   2.299  11.161 -0.2549  1.1626 -0.0469
  683TMC3    C310153   3.554   2.212  11.072 -0.0079  1.0259  0.7983
  683TMC3    C410154   3.601   2.463  10.987  0.2799 -0.9247  0.1760
  683TMC3    C510155   3.564   2.359  10.902 -0.3674 -0.3074 -0.1892
  683TMC3    C610156   3.546   2.231  10.939  0.4771 -0.1126 -0.0867
  683TMC3     C10157   3.670   2.522  11.210 -0.4399 -0.6306  0.1873
  683TMC3     O10158   3.660   2.638  11.179  0.8904  0.7239 -0.1518
  683TMC3     H10159   3.584   2.281  11.267  0.4244  2.5580  0.2540
  683TMC3    H110160   3.626   2.565  10.962 -2.3246 -0.3431 -0.0723
  683TMC3    H210161   3.539   2.157  10.860 -1.6702 -1.3356  1.2407
  683TMC3    C710162   3.587   2.384  10.764  0.0672 -0.0443 -0.1608
  683TMC3    C810163   3.477   2.109  11.122 -0.6430 -0.0593 -0.2020
  683TMC3    O110164   3.583   2.285  10.690  0.4510  0.6781 -0.1332
  683TMC3    O210165   3.388   2.143  11.199 -0.2670  0.0104 -0.4378
  684MPD2     C10166   2.201   1.856  16.207  0.4642  0.0014  0.3489
  684MPD2    C110167   2.174   1.866  16.070 -0.0842 -0.4295 -0.7287
  684MPD2    C210168   2.149   1.986  16.014 -0.3274  0.0118  0.2151
  684MPD2    C310169   2.182   2.102  16.086 -0.1736  0.3660 -0.5595
  684MPD2    C410170   2.211   2.093  16.220  0.6888 -0.1943 -0.2595
  684MPD2    C510171   2.214   1.970  16.280 -0.0350  0.9201  0.3420
  684MPD2     H10172   2.126   1.996  15.909 -1.7417 -1.8449  0.3667
  684MPD2    H110173   2.242   2.181  16.275 -2.0102 -0.2497  1.3908
  684MPD2    H210174   2.197   1.761  16.259  0.0913  0.0183  0.3460
  684MPD2    H310175   2.235   1.958  16.386 -1.7963 -1.4006  0.4127
  684MPD2     N10176   2.156   2.235  16.030 -0.3354 -0.0689 -0.0925
  684MPD2    H510177   2.173   2.319  16.084 -1.2168 -1.2688  2.0744
  684MPD2    N110178   2.184   1.754  15.986  0.7532  0.4287  0.2480
  684MPD2    H710179   2.145   1.772  15.894  1.3975 -2.4394 -0.6015
  685TMC3    C110180   2.261   1.548  15.898  0.8028 -0.7584  0.1314
  685TMC3    C210181   2.154   1.533  15.817  0.1208  0.1483  0.6047
  685TMC3    C310182   2.183   1.467  15.699 -0.0536  0.4926  0.3269
  685TMC3    C410183   2.389   1.502  15.878 -0.0658 -1.3550 -0.4389
  685TMC3    C510184   2.407   1.434  15.757  0.3882 -0.0600 -0.3407
  685TMC3    C610185   2.305   1.419  15.670 -0.1801 -0.0394  0.0707
  685TMC3     C10186   2.264   1.644  16.007 -0.3722 -0.2961 -0.2450
  685TMC3     O10187   2.344   1.633  16.102  0.9320  0.3977 -0.5771
  685TMC3     H10188   2.054   1.555  15.853 -0.5133 -3.3492  0.9033
  685TMC3    H110189   2.469   1.530  15.946 -0.2172 -1.3212 -0.2721
  685TMC3    H210190   2.320   1.363  15.579  0.8687  0.5093 -0.0907
  685TMC3    C710191   2.517   1.349  15.745 -0.4546  0.4474 -0.1144
  685TMC3    C810192   2.076   1.416  15.623  0.2172  0.4254  0.1541
  685TMC3    O110193   2.497   1.240  15.690 -0.1344 -0.4484  0.2934
  685TMC3    O210194   2.096   1.324  15.545  0.3183 -0.0133  0.6561
  686MPD2     C10195   3.326   2.330  15.609 -0.1592  0.4355  0.8401
  686MPD2    C110196   3.388   2.208  15.611 -0.3460 -0.2311  0.3714
  686MPD2    C210197   3.471   2.177  15.508  0.0753 -0.2440 -0.5025
  686MPD2    C310198   3.465   2.248  15.382  0.3472  0.7390 -0.2689
  686MPD2    C410199   3.399   2.372  15.379  0.5962 -0.2097 -0.3019
  686MPD2    C510200   3.339   2.412  15.497 -0.0509 -0.9653  0.7770
  686MPD2     H10201   3.542   2.095  15.508  0.5212  0.1248  0.9027
  686MPD2    H110202   3.399   2.433  15.289 -1.1147 -1.1149 -0.9159
  686MPD2    H210203   3.256   2.366  15.685 -1.6239 -0.1319 -0.2346
  686MPD2    H310204   3.278   2.501  15.502 -0.0602 -0.8287 -1.8569
  686MPD2     N10205   3.522   2.192  15.263 -0.3708 -0.0114 -0.0564
  686MPD2    H510206   3.534   2.259  15.188  1.0646  2.3806  2.3052
  686MPD2    N110207   3.351   2.107  15.705  0.7045 -0.2950  0.2420
  686MPD2    H710208   3.267   2.126  15.759  1.1304  2.4967 -0.0796
  687TMC3    C110209   3.441   1.973  15.309  0.2343 -0.5363  0.2347
  687TMC3    C210210   3.306   2.005  15.313 -0.0368  0.0455 -0.4801
  687TMC3    C310211   3.224   1.906  15.361 -0.1887  0.1749 -0.0041
  687TMC3    C410212   3.496   1.846  15.349  0.4449 -0.5366  0.1265
  687TMC3    C510213   3.405   1.751  15.386  0.7676 -0.1510 -0.6090
  687TMC3    C610214   3.271   1.782  15.396  0.7418  0.3292  0.7052
  687TMC3     C10215   3.527   2.059  15.230 -0.3882 -0.4546  0.2524
  687TMC3     O10216   3.573   2.002  15.134 -0.3876  0.6987  0.1572
  687TMC3     H10217   3.267   2.085  15.253 -1.3481  0.5161  0.9893
  687TMC3    H110218   3.602   1.830  15.331  0.4546 -1.6735  1.2223
  687TMC3    H210219   3.204   1.710  15.442  1.3493  0.2351  1.4312
  687TMC3    C710220   3.439   1.628  15.454  0.2627  0.0515 -1.0827
  687TMC3    C810221   3.104   1.939  15.438 -0.3682  0.0562 -0.4678
  687TMC3    O110222   3.353   1.539  15.454 -0.2700 -0.1191  0.5250
  687TMC3    O210223   3.056   1.854  15.515 -0.1518  0.0875  0.6573
  688MPD2     C10224   2.800   1.010  17.282  0.5329 -0.6948  0.2843
  688MPD2    C110225   2.855   0.911  17.368  0.6203  0.1099 -0.2288
  688MPD2    C210226   2.986   0.872  17.349 -0.1256 -0.1520  0.6320
  688MPD2    C310227   3.057   0.912  17.239 -0.6306 -0.0244  0.2341
  688MPD2    C410228   2.994   0.995  17.150 -0.2633 -0.3112 -0.2396
  688MPD2    C510229   2.872   1.051  17.172  0.0409  0.0272 -0.0975
  688MPD2     H10230   3.041   0.817  17.426  1.3185 -0.7194 -0.7968
  688MPD2    H110231   3.044   1.030  17.060  0.7368 -1.9074 -0.3105
  688MPD2    H210232   2.700   1.053  17.287  0.3566 -1.2172  1.2065
  688MPD2    H310233   2.825   1.124  17.107  1.5765  1.8199  0.8096
  688MPD2     N10234   3.191   0.865  17.209 -0.0017  0.6666 -0.4167
  688MPD2    H510235   3.230   0.887  17.118 -0.7791 -1.5246 -1.2719
  688MPD2    N110236   2.789   0.869  17.488 -0.1077 -0.0618  0.1492
  688MPD2    H710237   2.842   0.800  17.542 -1.2777 -0.6592  0.5275
  689TMC3    C110238   2.649   0.876  17.681 -0.2392 -0.6077 -0.2316
  689TMC3    C210239   2.642   0.972   0.039 -0.3313  0.1980 -0.0122
  689TMC3    C310240   2.645   0.933   0.172  0.0555 -0.6969 -1.1673
  689TMC3    C410241   2.668   0.745  17.704 -0.1508  0.1622 -0.1217
  689TMC3    C510242   2.645   0.710   0.100 -0.4235 -0.3599 -0.4256
  689TMC3    C610243   2.640   0.799   0.200 -1.1634 -0.4763 -0.2849
  689TMC3     C10244   2.675   0.924  17.545  0.2136  0.0477  0.0222
  689TMC3     O10245   2.605   1.014  17.506  0.2931  0.7677 -0.3429
  689TMC3     H10246   2.630   1.074   0.006 -0.8624 -0.4449 -1.7925
  689TMC3    H110247   2.659   0.670  17.626  0.7666  0.8267 -0.8580
  689TMC3    H210248   2.620   0.769   0.303 -0.4580 -0.0391 -0.0218
  689TMC3    C710249   2.601   0.571   0.133 -0.0843  0.6658 -0.4964
  689TMC3    C810250   2.623   1.032   0.282  0.0029  0.3403  0.1098
  689TMC3    O110251   2.586   0.542   0.249  0.1725 -0.3363  1.3255
  689TMC3    O210252   2.603   0.985   0.393  0.6101 -0.0281 -0.0936
  690MPD2     C10253   0.449   2.580  15.750  0.2448  0.0493  0.1809
  690MPD2    C110254   0.415   2.482  15.664  0.3001 -0.5610  0.1682
  690MPD2    C210255   0.523   2.443  15.581 -0.3450 -0.1357  0.0769
  690MPD2    C310256   0.647   2.498  15.580  0.3573  0.4564 -0.3714
  690MPD2    C410257   0.671   2.600  15.672 -0.4039  0.4103  0.6408
  690MPD2    C510258   0.573   2.635  15.752 -0.6136 -0.3359  0.2136
  690MPD2     H10259   0.508   2.361  15.512 -2.0470  1.9306 -2.0345
  690MPD2    H110260   0.766   2.651  15.682 -0.2867  0.5539 -1.2707
  690MPD2    H210261   0.375   2.608  15.823 -1.3918 -0.8532 -1.1208
  690MPD2    H310262   0.594   2.718  15.819 -0.3807  0.0212 -0.2984
  690MPD2     N10263   0.746   2.454  15.487 -0.0103 -0.2807  0.3578
  690MPD2    H510264   0.728   2.375  15.426 -0.9245  0.8337 -0.8144
  690MPD2    N110265   0.291   2.416  15.670  0.1007 -0.1213  0.5275
  690MPD2    H710266   0.287   2.328  15.619 -1.3550  0.7126 -0.8022
  691TMC3    C110267   0.078   2.371  15.709  0.1865  0.3241  0.5596
  691TMC3    C210268   4.687   2.421  15.683 -0.4700 -0.6819  0.7727
  691TMC3    C310269   4.594   2.332  15.631  0.3298 -0.2785 -0.0558
  691TMC3    C410270   0.100   2.231  15.716 -1.0428  0.6564 -0.3298
  691TMC3    C510271   4.727   2.146  15.685 -0.0935 -0.0224 -0.2225
  691TMC3    C610272   4.616   2.201  15.631 -0.3143 -0.3150 -0.6663
  691TMC3     C10273   0.185   2.467  15.729  0.0519  0.2841 -0.3155
  691TMC3     O10274   0.160   2.581  15.764 -0.3266 -0.2080 -0.4875
  691TMC3     H10275   4.683   2.529  15.672  0.5576 -0.6552  0.6797
  691TMC3    H110276   0.192   2.191  15.757 -1.2374  1.0157  0.4636
  691TMC3    H210277   4.528   2.141  15.615 -0.4304 -0.3130 -0.0501
  691TMC3    C710278   4.727   2.018  15.757  0.4067 -0.5078  0.1750
  691TMC3    C810279   4.499   2.373  15.532 -0.6671  0.4496 -0.1272
  691TMC3    O110280   0.080   2.010  15.843 -0.0228 -0.2433 -0.0948
  691TMC3    O210281   4.500   2.293  15.437 -0.2635 -0.1389 -0.0129
  692TMC3    C110282   1.520   3.412  15.620 -0.7823  0.5312  0.7925
  692TMC3    C210283   1.632   3.493  15.647 -0.3331  0.0570  0.1814
  692TMC3    C310284   1.758   3.437  15.610  0.1188  0.6628  0.1709
  692TMC3    C410285   1.524   3.291  15.561  0.0976  0.4538 -0.1277
  692TMC3    C510286   1.648   3.238  15.539  0.3172 -0.2970 -0.7221
  692TMC3    C610287   1.763   3.302  15.565 -0.3871 -1.0925 -0.1180
  692TMC3     C10288   1.400   3.439  15.698 -0.2945 -0.1028  0.6617
  692TMC3     O10289   1.401   3.535  15.778 -0.3177 -0.0301  0.5070
  692TMC3     H10290   1.616   3.596  15.678  0.0528  0.3274 -0.5186
  692TMC3    H110291   1.433   3.233  15.549  1.1522 -1.6125  1.7928
  692TMC3    H210292   1.853   3.273  15.511  0.0293  0.5153 -0.2729
  692TMC3    C710293   1.643   3.121  15.463 -0.5346  0.1903 -0.5497
  692TMC3    C810294   1.876   3.472  15.677 -0.6852  0.5331 -0.0893
  692TMC3    O110295   1.557   3.129  15.375 -0.2990 -0.1297  0.2827
  692TMC3    O210296   1.964   3.392  15.675 -0.2621  0.3464 -0.1993
  693MPD2     C10297   1.475   1.751  10.825  0.3374 -0.8137  0.1497
  693MPD2    C110298   1.422   1.654  10.900  0.1348 -0.7246  0.1545
  693MPD2    C210299   1.500   1.564  10.973  0.3595 -0.2855  0.5923
  693MPD2    C310300   1.639   1.563  10.958  0.1722  0.6280 -1.0913
  693MPD2    C410301   1.697   1.654  10.875  0.1050  0.1587  0.4736
  693MPD2    C510302   1.612   1.750  10.814  0.3025 -0.0836 -0.1524
  693MPD2     H10303   1.461   1.497  11.047 -1.1686  2.1018  1.9542
  693MPD2    H110304   1.803   1.640  10.857  0.4455 -1.9293  4.1236
  693MPD2    H210305   1.413   1.818  10.766  0.8461 -1.2883 -0.9186
  693MPD2    H310306   1.653   1.818  10.740  1.1174  0.6584  0.9845
  693MPD2     N10307   1.719   1.451  10.999 -0.6948  0.3644 -0.2503
  693MPD2    H510308   1.815   1.447  10.968 -0.4470  2.4395  0.2489
  693MPD2    N110309   1.280   1.662  10.908 -0.3657  0.2362  0.1837
  693MPD2    H710310   1.228   1.716  10.839  0.0788 -0.5943 -0.8027
  694TMC3    C110311   1.070   1.624  10.981  0.6957 -0.0394 -0.4095
  694TMC3    C210312   1.018   1.615  10.851 -0.5591  0.2794  0.3701
  694TMC3    C310313   0.881   1.603  10.840 -0.2789 -0.0438 -0.4184
  694TMC3    C410314   0.990   1.618  11.091  0.5390 -0.6849 -0.1868
  694TMC3    C510315   0.854   1.621  11.075  0.0295  0.1950 -0.0040
  694TMC3    C610316   0.799   1.609  10.952  0.2539 -0.4232 -0.1157
  694TMC3     C10317   1.208   1.601  11.003 -0.0138  0.4274  0.0576
  694TMC3     O10318   1.243   1.540  11.108  0.2152 -0.1266  0.1136
  694TMC3     H10319   1.090   1.605  10.771 -1.3955  0.4755 -0.4127
  694TMC3    H110320   1.030   1.607  11.191 -0.0743  0.8624  0.2329
  694TMC3    H210321   0.692   1.589  10.957 -0.4426  3.6869  0.8805
  694TMC3    C710322   0.772   1.570  11.180  0.3129 -0.5644  0.3163
  694TMC3    C810323   0.821   1.548  10.714 -0.8947  0.6488 -0.5407
  694TMC3    O110324   0.688   1.640  11.239 -0.1775 -0.4829 -0.0422
  694TMC3    O210325   0.717   1.486  10.730  0.2741 -0.0399  0.1481
  695MPD2     C10326   2.167   3.353  13.394  0.2139  0.2744  0.3621
  695MPD2    C110327   2.118   3.280  13.500 -0.4443  0.5971  0.6508
  695MPD2    C210328   1.984   3.271  13.524  0.5533  0.4614 -0.4763
  695MPD2    C310329   1.896   3.346  13.446 -0.3326  0.0659  0.1757
  695MPD2    C410330   1.945   3.408  13.333 -0.3382 -0.7852  0.3540
  695MPD2    C510331   2.079   3.418  13.311 -0.3188  0.0870 -0.1734
  695MPD2     H10332   1.938   3.216  13.606  1.4359  0.6439  0.1507
  695MPD2    H110333   1.887   3.480  13.276  0.3515  0.4554  1.2121
  695MPD2    H210334   2.271   3.382  13.382  0.0531  1.3034  1.4782
  695MPD2    H310335   2.108   3.489  13.234  1.1837 -1.4388 -1.0001
  695MPD2     N10336   1.765   3.340  13.486 -0.2004  0.4590  0.0249
  695MPD2    H510337   1.753   3.298  13.578 -3.4128 -0.1195 -0.6805
  695MPD2    N110338   2.203   3.233  13.601 -0.9414  0.7202 -0.5309
  695MPD2    H710339   2.161   3.209  13.690  2.0676  1.7520  1.1369
  696TMC3    C110340   1.533   3.371  13.502  0.3811  1.0139 -0.3242
  696TMC3    C210341   1.530   3.298  13.618 -0.0243  0.3891 -0.1791
  696TMC3    C310342   1.416   3.309  13.701  0.9510 -0.1177  0.3478
  696TMC3    C410343   1.423   3.436  13.454 -0.1313  0.1056  0.1119
  696TMC3    C510344   1.324   3.455  13.546  0.1007  0.1090 -0.0205
  696TMC3    C610345   1.316   3.397  13.668  0.2028 -0.9464  0.8871
  696TMC3     C10346   1.657   3.391  13.429 -0.3425  0.0276  0.3919
  696TMC3     O10347   1.646   3.453  13.320 -0.2321  0.3760 -0.0336
  696TMC3     H10348   1.603   3.220  13.638 -0.9158 -0.6239 -0.9421
  696TMC3    H110349   1.417   3.481  13.355  1.0355 -0.8200 -0.3736
  696TMC3    H210350   1.232   3.425  13.731 -0.6753 -2.6834  0.4791
  696TMC3    C710351   1.225   3.554  13.514 -0.7063 -0.3186 -0.3718
  696TMC3    C810352   1.448   3.280  13.845  0.0722 -0.1057 -0.5363
  696TMC3    O110353   1.201   3.570  13.398 -0.3777 -0.0794 -0.5494
  696TMC3    O210354   1.568   3.266  13.879 -0.3464 -0.0804 -0.2648
  697MPD2     C10355   1.206   0.294  15.746  0.1485 -0.4259  0.5439
  697MPD2    C110356   1.232   0.232  15.625  0.5166 -0.6485 -0.7678
  697MPD2    C210357   1.227   0.315  15.512  0.2722 -0.3571 -0.2011
  697MPD2    C310358   1.192   0.452  15.518 -0.0954  0.3196  0.7822
  697MPD2    C410359   1.158   0.506  15.639 -0.1761  0.1650 -0.2268
  697MPD2    C510360   1.166   0.428  15.753 -0.1622  0.4198 -0.5266
  697MPD2     H10361   1.257   0.275  15.415  0.6965  0.5191 -0.4310
  697MPD2    H110362   1.143   0.613  15.649 -0.8047 -0.1174  1.9640
  697MPD2    H210363   1.211   0.240  15.840 -0.5946  1.5798  1.7195
  697MPD2    H310364   1.153   0.475  15.850  0.3876  0.7157 -0.5934
  697MPD2     N10365   1.190   0.541  15.412  0.1569 -0.0166  1.0885
  697MPD2    H510366   1.186   0.642  15.427  0.8721  0.2536 -0.5124
  697MPD2    N110367   1.251   0.094  15.608 -0.2146 -0.3620 -0.1247
  697MPD2    H710368   1.242   0.067  15.510  0.1548 -3.4889  0.6956
  698TMC3    C110369   1.218   0.611  15.186 -0.5519  0.2338  0.4507
  698TMC3    C210370   1.327   0.685  15.234 -0.2770  0.0059 -0.7504
  698TMC3    C310371   1.402   0.752  15.137  0.0603  0.6983  0.0675
  698TMC3    C410372   1.196   0.582  15.057 -0.8332  0.6207 -0.3118
  698TMC3    C510373   1.299   0.622  14.974 -0.6628 -0.7015 -0.4291
  698TMC3    C610374   1.399   0.716  15.007  0.1842  0.0542  0.1056
  698TMC3     C10375   1.191   0.506  15.280  0.0001 -0.8180 -0.4070
  698TMC3     O10376   1.196   0.400  15.219  0.1929  0.3759  0.1639
  698TMC3     H10377   1.357   0.682  15.338 -3.4820  0.6034  0.1999
  698TMC3    H110378   1.133   0.499  15.027  0.8778 -0.5399 -0.6698
  698TMC3    H210379   1.471   0.768  14.945  1.9336 -1.6565  0.6943
  698TMC3    C710380   1.297   0.564  14.845 -0.1589  0.2958  0.3972
  698TMC3    C810381   1.500   0.840  15.198  0.3908 -0.0702 -0.3976
  698TMC3    O110382   1.192   0.515  14.813  0.1335 -0.1284  0.1031
  698TMC3    O210383   1.476   0.882  15.312  0.1748 -0.2098  0.6013
  699TMC3    C110384   1.541   3.242  12.998 -0.0321 -0.1015  0.1843
  699TMC3    C210385   1.590   3.194  13.121 -0.0186 -0.0771  0.4364
  699TMC3    C310386   1.495   3.145  13.209  0.4462  0.3809 -0.2761
  699TMC3    C410387   1.407   3.249  12.982 -0.3556  0.0935 -0.7452
  699TMC3    C510388   1.319   3.217  13.075  0.5078 -0.0554 -0.0169
  699TMC3    C610389   1.363   3.152  13.188 -0.4966  0.3380  0.3351
  699TMC3     C10390   1.627   3.303  12.894  0.4257  0.4737 -1.2724
  699TMC3     O10391   1.577   3.355  12.795  0.4331  0.1957 -0.4754
  699TMC3     H10392   1.693   3.206  13.153 -0.4649 -0.0335  1.8372
  699TMC3    H110393   1.364   3.282  12.887 -1.5796  0.9842  0.1205
  699TMC3    H210394   1.291   3.130  13.266 -1.4743 -0.1689 -0.7152
  699TMC3    C710395   1.175   3.218  13.055  0.1337  0.2858  0.5018
  699TMC3    C810396   1.521   3.064  13.326  0.7720 -0.6111 -0.1221
  699TMC3    O110397   1.109   3.141  13.125 -0.2676 -0.1930 -0.0733
  699TMC3    O210398   1.422   3.019  13.385  0.3383 -0.1987  0.2235
  700TMC3    C110399   0.610   1.367  17.508 -0.2712 -0.6584  0.1019
  700TMC3    C210400   0.679   1.266  17.577  0.7292  0.7825  0.1221
  700TMC3    C310401   0.810   1.285  17.601  0.3987  0.2775 -0.0883
  700TMC3    C410402   0.671   1.483  17.475 -0.0763  0.2259  1.1038
  700TMC3    C510403   0.803   1.497  17.498  0.0440  1.0583  0.2683
  700TMC3    C610404   0.878   1.400  17.558 -0.0657  0.5521  0.2548
  700TMC3     C10405   0.529   1.315  17.399  0.2190  0.3486 -0.2852
  700TMC3     O10406   0.484   1.203  17.414 -0.3006 -0.4082  0.4600
  700TMC3     H10407   0.633   1.172  17.605  1.5709 -0.6530 -3.2707
  700TMC3    H110408   0.616   1.566  17.433 -2.5517 -1.4253  1.0819
  700TMC3    H210409   0.986   1.395  17.557 -0.1327 -1.6549  3.4977
  700TMC3    C710410   0.863   1.621  17.456  0.2706  0.5258  0.1846
  700TMC3    C810411   0.892   1.169  17.576  0.1203  0.2102  0.0834
  700TMC3    O110412   0.808   1.680  17.366 -0.3716  0.3787 -0.1844
  700TMC3    O210413   0.857   1.089  17.490  0.2787 -0.3180  0.9490
  701TMC3    C110414   0.723   4.030  15.806  0.4773  0.1888 -0.1152
  701TMC3    C210415   0.754   3.930  15.721 -0.2129 -0.0783 -0.2921
  701TMC3    C310416   0.838   3.957  15.621 -0.1492  0.2036  0.2628
  701TMC3    C410417   0.765   4.157  15.788 -0.2047  0.4071  0.1267
  701TMC3    C510418   0.841   4.181  15.672 -0.1658  0.7555  0.3423
  701TMC3    C610419   0.882   4.084  15.583 -1.1273  0.1152 -0.4841
  701TMC3     C10420   0.618   4.008  15.910  0.0319  0.3082  0.5353
  701TMC3     O10421   0.641   4.061  16.021 -0.4385 -0.3125  0.3678
  701TMC3     H10422   0.725   3.828  15.744  1.1363 -0.7858 -1.7096
  701TMC3    H110423   0.726   4.239  15.847  0.6088 -0.5125  1.9408
  701TMC3    H210424   0.942   4.108  15.496  0.2041  1.3929  0.7880
  701TMC3    C710425   0.868   4.313  15.636 -0.5107 -0.9138 -0.4957
  701TMC3    C810426   0.863   3.855  15.515  0.4606  0.1380  0.9009
  701TMC3    O110427   0.884   4.340  15.519 -0.7723 -0.9177  0.3111
  701TMC3    O210428   0.945   3.884  15.428  0.1362 -0.3144 -0.1669
  702MPD2     C10429   0.353   2.456  10.182 -0.0026  0.2365 -0.1587
  702MPD2    C110430   0.251   2.514  10.250  0.1771 -0.7105 -0.2277
  702MPD2    C210431   0.190   2.627  10.202 -1.4324 -0.0202 -0.1159
  702MPD2    C310432   0.211   2.672  10.076  0.3027  0.1485  0.1982
  702MPD2    C410433   0.307   2.613  10.002 -0.0599  0.1106 -0.9606
  702MPD2    C510434   0.376   2.507  10.055 -0.2372 -0.9406  0.5619
  702MPD2     H10435   0.103   2.671  10.249 -1.6684  1.2223 -1.7081
  702MPD2    H110436   0.318   2.653   9.902  0.2437  1.6489 -0.3131
  702MPD2    H210437   0.411   2.370  10.213  2.0917  1.7244  0.0347
  702MPD2    H310438   0.449   2.463   9.988 -0.4158  1.4215 -1.1926
  702MPD2     N10439   0.104   2.762  10.027  1.1132 -0.4754 -0.0734
  702MPD2    H510440   0.041   2.803  10.095  2.3764 -1.8428  1.9497
  702MPD2    N110441   0.206   2.477  10.379 -0.1078  0.4363  0.1716
  702MPD2    H710442   0.137   2.536  10.424 -1.8952 -1.0451 -0.6219
  703TMC3    C110443   4.687   2.858   9.900 -0.7836 -0.6545 -0.1464
  703TMC3    C210444   4.590   2.765   9.881  0.8400  0.5045 -0.6326
  703TMC3    C310445   4.491   2.757   9.976 -0.6408 -0.0010 -0.8482
  703TMC3    C410446   4.680   2.934  10.010 -0.6724  0.5721  0.1961
  703TMC3    C510447   4.577   2.937  10.097 -0.3161 -0.1664  0.3770
  703TMC3    C610448   4.483   2.836  10.087  0.0072 -0.8745  0.5603
  703TMC3     C10449   0.075   2.784   9.898 -0.5568  0.1866 -0.0817
  703TMC3     O10450   0.132   2.747   9.795 -0.0098  0.4902  0.3611
  703TMC3     H10451   4.596   2.691   9.802 -0.0487  1.6192 -1.7258
  703TMC3    H110452   0.024   3.009  10.018  1.7249 -1.9550  0.4463
  703TMC3    H210453   4.414   2.819  10.169 -1.2493 -1.5599 -0.6458
  703TMC3    C710454   4.594   3.007  10.220 -0.4820  0.7502  0.5483
  703TMC3    C810455   4.428   2.623   9.974 -0.2695 -0.0875  0.3840
  703TMC3    O110456   4.695   3.075  10.234 -0.7379 -0.1490  0.3711
  703TMC3    O210457   4.497   2.539   9.920 -0.0915  0.3621 -0.1331
  704TMC3    C110458   2.642   0.524  12.153 -0.0116 -0.4725 -0.0798
  704TMC3    C210459   2.680   0.525  12.020 -0.8268  0.4826  0.1533
  704TMC3    C310460   2.765   0.425  11.983  0.4954  0.2067 -0.0295
  704TMC3    C410461   2.703   0.447  12.253  0.3946 -0.4067  0.2301
  704TMC3    C510462   2.795   0.354  12.214 -0.1341 -0.8712  1.0142
  704TMC3    C610463   2.828   0.340  12.080 -0.3886 -0.3012 -0.1087
  704TMC3     C10464   2.522   0.593  12.185  0.1024  0.5756  0.4358
  704TMC3     O10465   2.481   0.580  12.300 -0.4329  0.0441 -0.0887
  704TMC3     H10466   2.632   0.583  11.942 -2.0401 -0.0686  0.4908
  704TMC3    H110467   2.675   0.471  12.355  0.7199 -0.9350  0.4433
  704TMC3    H210468   2.902   0.269  12.046 -2.8926 -4.0774  2.3469
  704TMC3    C710469   2.808   0.227  12.285  0.7963  0.5044  0.8397
  704TMC3    C810470   2.730   0.371  11.855 -0.0095 -0.4675 -0.7390
  704TMC3    O110471   2.861   0.130  12.226 -0.3215  0.4069 -0.0258
  704TMC3    O210472   2.713   0.250  11.842  0.0608  0.0874 -0.9949
  705MPD2     C10473   2.105   3.052  16.328  0.1312  0.2471  0.6461
  705MPD2    C110474   2.087   3.177  16.271 -0.1120 -0.0563  0.1978
  705MPD2    C210475   1.981   3.260  16.308  0.4164 -0.1608 -0.5659
  705MPD2    C310476   1.915   3.238  16.428 -0.5905 -0.0598 -0.8514
  705MPD2    C410477   1.947   3.125  16.501  0.2859 -0.1834 -0.2962
  705MPD2    C510478   2.038   3.029  16.451  0.5394 -0.8859  0.4220
  705MPD2     H10479   1.951   3.346  16.250 -1.5619 -2.0391 -2.3306
  705MPD2    H110480   1.875   3.095  16.577 -0.9112 -0.1671 -1.4071
  705MPD2    H210481   2.178   2.977  16.298 -0.0612 -0.3937  1.7623
  705MPD2    H310482   2.087   2.954  16.512  0.0910  0.8232  2.8835
  705MPD2     N10483   1.801   3.319  16.463  0.1983  0.2385  0.0586
  705MPD2    H510484   1.767   3.395  16.405  1.5792  1.2860  0.6245
  705MPD2    N110485   2.170   3.213  16.160  0.4351 -0.3191  0.1728
  705MPD2    H710486   2.150   3.302  16.116 -2.1191  0.1862  2.3292
  706TMC3    C110487   2.428   3.222  15.782 -0.1960 -0.4418  0.2094
  706TMC3    C210488   2.451   3.357  15.796 -0.1379 -0.7865  0.1208
  706TMC3    C310489   2.414   3.411  15.912 -0.7218  0.7207 -0.1976
  706TMC3    C410490   2.363   3.140  15.871  0.2139  0.5675 -0.2453
  706TMC3    C510491   2.333   3.207  15.992  0.4823 -0.1526 -0.1071
  706TMC3    C610492   2.354   3.342  16.011 -0.5660 -0.3378  0.2166
  706TMC3     C10493   2.491   3.140  15.674  0.3238 -0.2376 -0.0414
  706TMC3     O10494   2.435   3.048  15.619 -0.0831  0.1755 -0.2384
  706TMC3     H10495   2.521   3.410  15.732  1.8583 -2.6541  0.7622
  706TMC3    H110496   2.372   3.032  15.865 -1.3688  0.3339  1.1940
  706TMC3    H210497   2.330   3.390  16.105  0.1792  0.6418 -0.0997
  706TMC3    C710498   2.262   3.132  16.096 -0.5086 -0.3233 -0.4423
  706TMC3    C810499   2.384   3.550  15.901  0.2736 -0.4623  0.0539
  706TMC3    O110500   2.276   3.011  16.103  0.3883  0.2053  0.0485
  706TMC3    O210501   2.368   3.591  15.786 -0.3684  0.1951  0.1637
  707TMC3    C110502   4.287   2.497   1.814 -0.9134 -0.2992 -0.0034
  707TMC3    C210503   4.291   2.484   1.677  0.0590  0.1269 -0.6829
  707TMC3    C310504   4.170   2.507   1.620  0.5853  0.4168 -0.2199
  707TMC3    C410505   4.175   2.528   1.887  0.6765 -0.1819  0.2564
  707TMC3    C510506   4.064   2.559   1.817 -0.9407 -0.2313  0.6372
  707TMC3    C610507   4.059   2.557   1.682 -0.4494  0.2119  0.1163
  707TMC3     C10508   4.406   2.446   1.893 -0.2140  0.1040  0.1530
  707TMC3     O10509   4.397   2.467   2.011  0.2209 -0.3875 -0.1194
  707TMC3     H10510   4.376   2.447   1.621  0.9315  0.9169  0.1226
  707TMC3    H110511   4.189   2.536   1.994  0.9614 -0.7473  0.2624
  707TMC3    H210512   3.968   2.561   1.623 -0.2652  1.4319 -0.0843
  707TMC3    C710513   3.938   2.562   1.879 -0.7530 -0.4513  0.1724
  707TMC3    C810514   4.155   2.476   1.480  0.6170  0.2907 -0.6472
  707TMC3    O110515   3.843   2.540   1.812  0.2056  0.0233  0.0214
  707TMC3    O210516   4.072   2.531   1.411  0.6034 -0.3036 -0.2585
  708MPD2     C10517   0.316   1.028  13.934  0.2043 -0.9927 -0.5949
  708MPD2    C110518   0.362   1.156  13.965 -0.3492  0.1767 -0.4678
  708MPD2    C210519   0.389   1.192  14.091 -0.0760 -0.1827 -0.1657
  708MPD2    C310520   0.376   1.102  14.190  0.3507  0.3832  0.6511
  708MPD2    C410521   0.339   0.971  14.161 -0.9155  0.2920  0.1941
  708MPD2    C510522   0.303   0.936  14.031  0.1838  0.1546 -0.2826
  708MPD2     H10523   0.400   1.295  14.124 -1.4925  0.0112 -0.2730
  708MPD2    H110524   0.341   0.887  14.229 -2.5330  0.0213 -0.0736
  708MPD2    H210525   0.285   0.990  13.838  1.6952 -0.7174 -1.1818
  708MPD2    H310526   0.263   0.837  14.010 -0.7730  0.4722  0.0587
  708MPD2     N10527   0.408   1.143  14.320 -0.3675  0.1384 -0.2825
  708MPD2    H510528   0.439   1.238  14.339  0.1775 -0.1361  0.2123
  708MPD2    N110529   0.369   1.257  13.867  0.0470 -0.7332 -0.4627
  708MPD2    H710530   0.388   1.350  13.905 -2.9646  0.8219 -2.7985
  709TMC3    C110531   0.318   1.379  13.671 -0.1544 -0.3538 -0.8197
  709TMC3    C210532   0.198   1.372  13.610 -0.0991  0.0498  0.1257
  709TMC3    C310533   0.101   1.462  13.650 -0.1804  0.2708  0.8221
  709TMC3    C410534   0.364   1.480  13.756 -0.0102 -0.1898 -0.4268
  709TMC3    C510535   0.261   1.562  13.795  0.9332  0.0675  0.2642
  709TMC3    C610536   0.132   1.550  13.748  0.0978  0.4249  0.3093
  709TMC3     C10537   0.341   1.251  13.733 -0.0640 -0.3569  0.1956
  709TMC3     O10538   0.322   1.146  13.672 -0.3734  0.0980  0.1771
  709TMC3     H10539   0.165   1.282  13.559  1.5916  0.6823 -2.0655
  709TMC3    H110540   0.457   1.480  13.811 -1.4563  0.9141  2.0073
  709TMC3    H210541   0.049   1.612  13.780  1.3343  0.9069  2.5832
  709TMC3    C710542   0.283   1.633  13.916 -0.0212  0.3625  0.1899
  709TMC3    C810543   4.703   1.446  13.606 -0.0788 -0.6805 -0.6131
  709TMC3    O110544   0.393   1.686  13.932  0.2868  0.0569 -0.0622
  709TMC3    O210545   4.617   1.433  13.690  0.0947 -0.3195 -0.1135
  710TMC3    C110546   1.706   2.559   0.187  0.4610 -0.1265 -0.6467
  710TMC3    C210547   1.790   2.558   0.077 -0.2420  0.2306 -0.0973
  710TMC3    C310548   1.926   2.528   0.101 -0.3431 -0.6783 -0.0112
  710TMC3    C410549   1.755   2.553   0.312  0.7028  0.4452 -0.1789
  710TMC3    C510550   1.893   2.540   0.330  0.2391  0.0592  0.4152
  710TMC3    C610551   1.983   2.528   0.230 -0.5757  0.0309 -0.6378
  710TMC3     C10552   1.579   2.604   0.163 -1.1926  0.2246  0.0209
  710TMC3     O10553   1.527   2.589   0.054 -0.1124 -0.2065 -0.3880
  710TMC3     H10554   1.752   2.551  17.714 -0.5271  0.0602  0.0242
  710TMC3    H110555   1.688   2.541   0.395  2.9524  0.4774  1.6294
  710TMC3    H210556   2.091   2.533   0.242 -0.6704  2.4093 -0.7288
  710TMC3    C710557   1.937   2.548   0.469 -0.2173  0.0605 -0.6651
  710TMC3    C810558   2.012   2.510  17.718  0.0625  0.0157  0.2788
  710TMC3    O110559   1.852   2.579   0.550 -0.3263 -0.2068  0.2080
  710TMC3    O210560   1.977   2.570  17.614 -0.1128 -0.1258  0.3158
  711TMC3    C110561   0.972   4.129  14.958  0.0269  0.0768  0.8399
  711TMC3    C210562   0.971   4.153  15.093 -0.2355  0.6013 -0.4809
  711TMC3    C310563   1.091   4.197  15.145 -0.7873  0.6926 -0.1067
  711TMC3    C410564   1.091   4.120  14.882  0.0637 -0.4223  0.4432
  711TMC3    C510565   1.209   4.145  14.947 -0.3726  0.1897 -0.2846
  711TMC3    C610566   1.209   4.195  15.075 -0.3188  1.0207  0.4517
  711TMC3     C10567   0.862   4.058  14.902 -0.0634 -0.1564  0.0343
  711TMC3     O10568   0.898   3.990  14.807 -0.5272  0.2975 -0.2685
  711TMC3     H10569   0.892   4.113  15.156 -0.4061  0.8999 -0.5083
  711TMC3    H110570   1.087   4.088  14.779 -0.1929  2.0969 -0.3255
  711TMC3    H210571   1.294   4.235  15.129  1.2359  0.1989 -1.3912
  711TMC3    C710572   1.294   4.023  14.958 -0.0415  0.3230  0.0772
  711TMC3    C810573   1.129   4.162  15.275  0.3684 -0.6440  0.3510
  711TMC3    O110574   1.404   4.030  15.002  0.6261  0.3209  0.3840
  711TMC3    O210575   1.179   4.248  15.346  0.7319  0.3958 -0.1618
  712MPD2     C10576   2.960   4.635  13.384 -0.5988 -0.6139 -0.3161
  712MPD2    C110577   2.822   4.659  13.397  0.7641 -0.0337 -0.7856
  712MPD2    C210578   2.780   0.044  13.456  0.0901  0.4053  0.0238
  712MPD2    C310579   2.870   0.141  13.498 -0.2174  0.2431  0.2547
  712MPD2    C410580   3.001   0.119  13.478 -0.1104 -1.4419 -0.7537
  712MPD2    C510581   3.043   4.734  13.424  0.1576  0.1884 -0.2735
  712MPD2     H10582   2.674   0.060  13.469 -0.2430 -0.4609 -1.6787
  712MPD2    H110583   3.079   0.192  13.500  1.1964 -2.8518 -0.7142
  712MPD2    H210584   3.006   4.550  13.336 -0.1560  0.0226 -1.0191
  712MPD2    H310585   3.150   4.713  13.419 -0.2692 -1.7429 -1.4690
  712MPD2     N10586   2.833   0.260  13.565  0.1593  0.3043  0.4023
  712MPD2    H510587   2.911   0.309  13.608  0.8174 -1.6720  1.4663
  712MPD2    N110588   2.724   4.577  13.349  0.2247  0.5495  0.3474
  712MPD2    H710589   2.635   4.615  13.380 -0.0926 -0.5171  0.7309
  713TMC3    C110590   2.692   0.423  13.662 -0.0256  0.9918 -0.3289
  713TMC3    C210591   2.803   0.493  13.705  0.5220  0.5410  0.3570
  713TMC3    C310592   2.782   0.626  13.736  0.0740  0.5404  0.2336
  713TMC3    C410593   2.561   0.476  13.673 -0.0450 -0.4624 -0.0395
  713TMC3    C510594   2.548   0.615  13.695  0.6129 -0.6861  0.9114
  713TMC3    C610595   2.659   0.690  13.721 -0.1851 -0.3833  0.1579
  713TMC3     C10596   2.700   0.293  13.595  0.4653  0.1242 -0.3600
  713TMC3     O10597   2.593   0.244  13.568 -0.3336 -0.0673 -0.3004
  713TMC3     H10598   2.902   0.450  13.717 -0.2207 -0.3723  3.2484
  713TMC3    H110599   2.476   0.415  13.648  2.0213 -2.3503 -2.4825
  713TMC3    H210600   2.638   0.786  13.767  1.1760 -0.2251  0.4505
  713TMC3    C710601   2.441   0.681  13.624  0.5000 -0.0554  0.9068
  713TMC3    C810602   2.897   0.717  13.763 -0.8001 -0.2008 -0.2977
  713TMC3    O110603   2.329   0.631  13.629 -0.0444 -0.2032 -0.1728
  713TMC3    O210604   2.865   0.836  13.752  0.4390  0.5429  0.5228
  714MPD2     C10605   0.207   3.272   0.697 -0.4299  0.0592  0.4607
  714MPD2    C110606   0.236   3.278   0.831  0.2442 -0.7039 -0.5490
  714MPD2    C210607   0.145   3.340   0.916 -0.6405 -0.3009  0.3418
  714MPD2    C310608   0.033   3.403   0.867 -0.5047 -0.0918 -0.0080
  714MPD2    C410609   4.734   3.402   0.733  0.1946 -0.5430  0.2624
  714MPD2    C510610   0.091   3.332   0.654  0.0492  0.3913  0.1828
  714MPD2     H10611   0.163   3.357   1.021 -1.4249  0.4023  0.3627
  714MPD2    H110612   4.641   3.440   0.693  1.1090  0.3815 -0.9860
  714MPD2    H210613   0.276   3.221   0.630 -0.8183  0.5337 -0.3027
  714MPD2    H310614   0.060   3.314   0.552 -1.9948 -0.2710  0.8955
  714MPD2     N10615   4.684   3.473   0.961  0.1244 -0.3557 -0.6173
  714MPD2    H510616   4.698   3.451   1.059 -0.8123 -1.5270 -0.7386
  714MPD2    N110617   0.358   3.221   0.877 -0.0597 -0.5020  0.9411
  714MPD2    H710618   0.423   3.195   0.804 -0.4258  0.7930  0.1542
  715TMC3    C110619   0.533   3.151   1.012  0.4246  0.7554  0.4081
  715TMC3    C210620   0.580   3.066   0.916 -0.3449  0.6359  0.7709
  715TMC3    C310621   0.713   3.024   0.917 -0.0119  0.0105 -0.3249
  715TMC3    C410622   0.611   3.196   1.112  0.0621  0.2081 -0.1124
  715TMC3    C510623   0.741   3.158   1.114  0.5428 -1.3791  0.7355
  715TMC3    C610624   0.796   3.073   1.018  0.3921 -0.8335 -0.1992
  715TMC3     C10625   0.401   3.208   1.004  0.1860  0.2904 -0.2581
  715TMC3     O10626   0.354   3.251   1.108  0.2821  0.5191 -0.3595
  715TMC3     H10627   0.511   3.034   0.839 -1.6858  3.9896  0.5657
  715TMC3    H110628   0.570   3.270   1.181 -2.3798 -0.9463 -0.3364
  715TMC3    H210629   0.898   3.038   1.032  0.6118 -0.4777 -0.9258
  715TMC3    C710630   0.841   3.211   1.208  1.0788 -0.1138 -0.0372
  715TMC3    C810631   0.760   2.929   0.824  0.8933  0.4373 -0.9626
  715TMC3    O110632   0.956   3.239   1.166 -0.0760  0.4211  0.6528
  715TMC3    O210633   0.683   2.878   0.744 -0.6986  0.7302  0.1390
  716MPD2     C10634   0.368   2.629   9.601 -0.1123  0.3891  0.3998
  716MPD2    C110635   0.297   2.581   9.492 -0.0441  0.2073 -0.2917
  716MPD2    C210636   0.336   2.459   9.434  0.0738  0.4267  0.3213
  716MPD2    C310637   0.441   2.391   9.486 -0.2798 -0.3056 -0.2858
  716MPD2    C410638   0.507   2.437   9.600  0.7109  0.1369 -0.3675
  716MPD2    C510639   0.472   2.557   9.658 -0.2877  0.2452  0.1052
  716MPD2     H10640   0.288   2.430   9.342 -0.9160  0.0766  0.9551
  716MPD2    H110641   0.599   2.394   9.639  1.2387 -0.1871 -1.9636
  716MPD2    H210642   0.350   2.732   9.632  2.6680  0.6055  1.2302
  716MPD2    H310643   0.526   2.604   9.740  1.7432 -1.8906 -0.0022
  716MPD2     N10644   0.481   2.272   9.410  0.2414  0.1131  0.2550
  716MPD2    H510645   0.427   2.253   9.326 -0.1114  0.6148  0.3670
  716MPD2    N110646   0.186   2.659   9.448  0.8944 -0.5405 -0.1325
  716MPD2    H710647   0.163   2.742   9.502 -0.0753  0.7725 -2.5716
  717TMC3    C110648   0.609   2.085   9.351 -0.5923  0.0745  0.8513
  717TMC3    C210649   0.569   2.097   9.222  0.0029  0.5388  0.2724
  717TMC3    C310650   0.599   2.003   9.134  0.1048 -0.1031  0.2361
  717TMC3    C410651   0.705   1.992   9.374 -0.4858 -0.1975 -0.4598
  717TMC3    C510652   0.730   1.890   9.283  0.9976  0.4168 -0.3332
  717TMC3    C610653   0.672   1.888   9.162  0.4840  0.0595  0.4182
  717TMC3     C10654   0.590   2.194   9.444 -0.0916  0.0847  0.2031
  717TMC3     O10655   0.667   2.200   9.537 -0.3984 -0.2078  0.1685
  717TMC3     H10656   0.494   2.169   9.193 -1.0893 -0.0928  1.5379
  717TMC3    H110657   0.753   1.990   9.471  2.3296  0.4594 -1.8521
  717TMC3    H210658   0.689   1.806   9.093 -0.7448 -1.3014  1.7458
  717TMC3    C710659   0.790   1.760   9.332 -0.1231  0.7573 -0.1348
  717TMC3    C810660   0.526   2.012   9.008 -0.1127  0.1546  0.6412
  717TMC3    O110661   0.862   1.763   9.428 -0.0485 -0.5766  0.1605
  717TMC3    O210662   0.413   2.061   9.021 -0.2389 -0.4788  0.5008
  718MPD2     C10663   4.265   0.668  12.840 -0.2392  0.4329 -0.7632
  718MPD2    C110664   4.201   0.639  12.724  0.6284  0.1949 -0.2802
  718MPD2    C210665   4.105   0.537  12.724  0.0112  0.3005  0.2993
  718MPD2    C310666   4.072   0.470  12.835  0.3900  0.0056  0.2896
  718MPD2    C410667   4.149   0.493  12.951 -0.0463  0.2843 -0.2008
  718MPD2    C510668   4.233   0.599  12.958 -0.2305  0.0058  0.1995
  718MPD2     H10669   4.039   0.520  12.639 -0.3656 -1.9715  1.0645
  718MPD2    H110670   4.134   0.453  13.051 -1.4376 -0.5423 -0.7300
  718MPD2    H210671   4.322   0.759  12.849  1.6849 -0.7976 -0.5852
  718MPD2    H310672   4.261   0.629  13.058  0.9367 -1.9448  0.4514
  718MPD2     N10673   3.985   0.362  12.817  0.2112 -0.0682  1.0721
  718MPD2    H510674   3.929   0.367  12.733  2.9642  0.6677 -0.7079
  718MPD2    N110675   4.225   0.721  12.616 -0.4590 -0.2776 -0.6409
  718MPD2    H710676   4.318   0.760  12.608 -0.1828 -1.0401 -1.1496
  719TMC3    C110677   4.196   0.801  12.394  0.4561  0.0362  0.2035
  719TMC3    C210678   4.122   0.738  12.293 -0.9702  0.1562  0.3719
  719TMC3    C310679   4.193   0.641  12.223  0.6973 -0.6578 -0.2570
  719TMC3    C410680   4.336   0.799  12.400  0.1938  0.0350  0.5114
  719TMC3    C510681   4.399   0.704  12.327 -0.5601 -0.5442 -0.1442
  719TMC3    C610682   4.323   0.622  12.244 -0.8659 -0.6607  0.5357
  719TMC3     C10683   4.140   0.738  12.510 -0.3232 -0.0516  0.6353
  719TMC3     O10684   4.029   0.695  12.493 -0.6135  0.2105  0.1828
  719TMC3     H10685   4.016   0.750  12.278 -0.8803 -1.6629 -1.8846
  719TMC3    H110686   4.384   0.884  12.446 -1.6867  1.2696  0.1896
  719TMC3    H210687   4.378   0.553  12.182 -1.4640  0.0060 -0.7404
  719TMC3    C710688   4.527   0.746  12.290 -0.1650 -0.6812  0.3742
  719TMC3    C810689   4.118   0.514  12.197 -0.2129  0.4160 -0.0462
  719TMC3    O110690   4.569   0.714  12.181  0.4594  0.1165  0.4801
  719TMC3    O210691   4.176   0.407  12.214 -0.0743  0.4688 -0.8244
  720MPD2     C10692   2.350   2.453  14.031  0.0078 -0.6137 -0.4751
  720MPD2    C110693   2.454   2.437  13.935 -0.1048 -0.1251 -0.6426
  720MPD2    C210694   2.582   2.401  13.975  0.2973  0.2705 -0.8171
  720MPD2    C310695   2.602   2.391  14.112  0.2712  0.0846 -0.4741
  720MPD2    C410696   2.499   2.406  14.209 -0.0086 -0.1670  0.9495
  720MPD2    C510697   2.376   2.434  14.166 -0.5693 -0.0283  0.1254
  720MPD2     H10698   2.663   2.375  13.909  1.5366 -1.9127  1.5796
  720MPD2    H110699   2.502   2.392  14.316  1.7935  1.7539  1.1500
  720MPD2    H210700   2.246   2.481  14.012  0.2494  0.7877  0.2803
  720MPD2    H310701   2.293   2.454  14.233 -0.7517 -1.1024  0.2205
  720MPD2     N10702   2.729   2.365  14.162  0.0135  0.2792 -0.6491
  720MPD2    H510703   2.806   2.380  14.098  2.1888  1.1622  2.1458
  720MPD2    N110704   2.429   2.448  13.792  0.1060 -0.2930  0.1216
  720MPD2    H710705   2.502   2.435  13.723  0.0999  1.4365 -0.2060
  721TMC3    C110706   2.904   2.337  14.323 -0.3328  0.4336  0.0941
  721TMC3    C210707   2.943   2.347  14.452  0.3177 -0.3614 -0.0435
  721TMC3    C310708   3.077   2.344  14.469 -0.4465  0.6282 -0.6383
  721TMC3    C410709   2.995   2.299  14.226 -0.4031 -0.4182 -0.0064
  721TMC3    C510710   3.127   2.290  14.246  0.6196 -0.3635  0.6786
  721TMC3    C610711   3.171   2.312  14.371 -0.0547  0.1070 -0.2063
  721TMC3     C10712   2.763   2.331  14.294  0.5020  0.3413 -0.0765
  721TMC3     O10713   2.697   2.314  14.393  0.5310  0.0021  0.3376
  721TMC3     H10714   2.873   2.350  14.534 -2.8257  0.7915 -2.7259
  721TMC3    H110715   2.968   2.270  14.125 -2.8970  2.3657 -0.1383
  721TMC3    H210716   3.276   2.317  14.400 -0.1086  2.2992 -0.3971
  721TMC3    C710717   3.219   2.228  14.159 -0.1247  0.3562 -0.1520
  721TMC3    C810718   3.141   2.372  14.600 -0.0991  0.3554  0.4123
  721TMC3    O110719   3.206   2.240  14.037  0.6859  0.1179 -0.1943
  721TMC3    O210720   3.255   2.334  14.611 -0.6004 -0.7319  0.4849
  722MPD2     C10721   1.378   0.740  13.320 -0.6232  0.5840 -0.2423
  722MPD2    C110722   1.382   0.876  13.276  0.1799 -0.9417 -0.2883
  722MPD2    C210723   1.277   0.918  13.196  0.2142  0.0640 -0.0379
  722MPD2    C310724   1.181   0.838  13.147  0.4380  0.1333 -0.0393
  722MPD2    C410725   1.192   0.707  13.171  0.7833  0.0010 -0.5446
  722MPD2    C510726   1.284   0.657  13.264 -0.5398 -0.5673 -0.0305
  722MPD2     H10727   1.278   1.020  13.159  0.3085 -0.6887 -2.0923
  722MPD2    H110728   1.124   0.630  13.135  1.6296 -0.1457 -1.8204
  722MPD2    H210729   1.449   0.701  13.392 -0.8082  1.5023  0.4375
  722MPD2    H310730   1.280   0.556  13.305 -1.8741 -0.9868 -1.2032
  722MPD2     N10731   1.077   0.899  13.076 -0.2222  0.6104  0.1286
  722MPD2    H510732   1.068   1.000  13.080 -0.8058  0.6554 -2.2340
  722MPD2    N110733   1.473   0.969  13.321 -0.0383 -0.3559  0.1313
  722MPD2    H710734   1.446   1.063  13.293  3.6619  0.2605 -1.4086
  723TMC3    C110735   0.877   0.909  12.951  0.0009 -0.2803 -0.5056
  723TMC3    C210736   0.797   0.856  12.856 -0.1161  0.2845  0.2816
  723TMC3    C310737   0.682   0.928  12.815 -0.2445  0.0301 -0.5656
  723TMC3    C410738   0.863   1.035  13.005  0.7293 -0.0561  0.7580
  723TMC3    C510739   0.756   1.101  12.954  0.3037 -0.2999 -0.3135
  723TMC3    C610740   0.660   1.055  12.868 -0.0219  0.0675  0.3689
  723TMC3     C10741   0.988   0.827  13.002 -0.6646  1.0317 -0.2598
  723TMC3     O10742   0.978   0.708  12.974  0.3777 -0.6656  1.1490
  723TMC3     H10743   0.812   0.762  12.804  0.1528  0.4682  0.0354
  723TMC3    H110744   0.927   1.083  13.078  1.6181  0.5926 -0.4520
  723TMC3    H210745   0.567   1.106  12.848 -0.5931 -0.7196  1.0415
  723TMC3    C710746   0.759   1.241  12.972 -0.4976  0.4124 -0.1267
  723TMC3    C810747   0.583   0.876  12.719  0.5991 -0.0716  0.7016
  723TMC3    O110748   0.839   1.285  13.054  0.2009  0.0917  0.0889
  723TMC3    O210749   0.503   0.961  12.677 -0.3521 -0.3649  0.3558
  724TMC3    C110750   2.032   3.886  10.357 -0.0998 -0.3060  0.3955
  724TMC3    C210751   2.123   3.984  10.338 -0.3535  0.2944  0.2091
  724TMC3    C310752   2.087   4.081  10.252  0.3181  1.1093  1.1469
  724TMC3    C410753   1.934   3.856  10.267 -0.7441  0.0009  0.7461
  724TMC3    C510754   1.903   3.953  10.166  0.2666 -0.1956  0.5922
  724TMC3    C610755   1.975   4.068  10.163 -0.0560 -0.0733  0.0635
  724TMC3     C10756   2.044   3.794  10.474  0.0291  0.9114 -0.3905
  724TMC3     O10757   1.943   3.745  10.518  0.1981  0.1546  0.4305
  724TMC3     H10758   2.191   4.000  10.421  1.7184  1.8056 -1.7908
  724TMC3    H110759   1.876   3.768  10.292 -0.3420  0.1175  2.0986
  724TMC3    H210760   1.951   4.143  10.089  0.9439 -1.3774 -1.5831
  724TMC3    C710761   1.779   3.942  10.088  0.1553  0.7113 -0.1338
  724TMC3    C810762   2.206   4.165  10.223  0.2194 -0.7387 -0.6627
  724TMC3    O110763   1.709   3.855  10.130  0.3829  0.1421 -0.0272
  724TMC3    O210764   2.316   4.133  10.268  0.1055  0.1585 -0.7386
  725TMC3    C110765   3.394   2.370  12.815  0.0174  0.4975  0.7150
  725TMC3    C210766   3.271   2.382  12.751 -0.9158  0.3831  0.1443
  725TMC3    C310767   3.228   2.282  12.678  0.4461 -0.5397 -0.2835
  725TMC3    C410768   3.474   2.261  12.792  0.1722  0.0802  0.5520
  725TMC3    C510769   3.428   2.172  12.706  0.4278 -0.0063  0.0491
  725TMC3    C610770   3.302   2.177  12.643 -0.2531 -0.6974 -0.4714
  725TMC3     C10771   3.461   2.486  12.869 -0.1117 -0.1338  0.3668
  725TMC3     O10772   3.423   2.593  12.819  0.0854 -0.2930  0.8093
  725TMC3     H10773   3.212   2.470  12.773  1.7809  1.5141  2.8734
  725TMC3    H110774   3.578   2.261  12.821  0.6097 -1.1756 -0.9907
  725TMC3    H210775   3.269   2.094  12.581 -1.2298 -2.0198  1.7858
  725TMC3    C710776   3.524   2.086  12.643 -0.3602 -0.3309 -0.3513
  725TMC3    C810777   3.102   2.302  12.619  0.2039 -0.3762  0.5015
  725TMC3    O110778   3.493   2.047  12.532 -0.0564 -0.0182  0.1201
  725TMC3    O210779   3.031   2.207  12.601 -0.1290 -0.2844  0.6466
  726MPD2     C10780   1.050   4.269  10.316 -0.5499  0.1718  0.2939
  726MPD2    C110781   0.960   4.331  10.224  0.9301  0.1678  0.4360
  726MPD2    C210782   0.826   4.311  10.251 -0.2532  0.2265  0.2868
  726MPD2    C310783   0.783   4.244  10.371 -0.1903 -0.4671  0.6339
  726MPD2    C410784   0.876   4.185  10.453 -0.3263  0.3118  0.0135
  726MPD2    C510785   1.004   4.203  10.420  0.0510 -0.1793 -0.6593
  726MPD2     H10786   0.742   4.344  10.191  0.0416  2.1290  0.9450
  726MPD2    H110787   0.855   4.128  10.543 -0.7967  1.1659  0.4486
  726MPD2    H210788   1.155   4.287  10.297 -0.9104  1.6508 -0.3219
  726MPD2    H310789   1.069   4.150  10.488  0.0798 -0.2780 -0.7643
  726MPD2     N10790   0.642   4.238  10.405 -0.2280 -0.1457  0.4705
  726MPD2    H510791   0.625   4.196  10.496 -1.0320  1.5763  1.1214
  726MPD2    N110792   1.002   4.408  10.114  0.4532 -0.1012 -0.5648
  726MPD2    H710793   0.927   4.439  10.053 -0.6867  0.0258  0.9083
  727TMC3    C110794   1.126   4.558   9.989  0.2893  0.4013 -0.2603
  727TMC3    C210795   1.216   4.666   9.994 -0.3871 -0.4483  0.7118
  727TMC3    C310796   1.192   0.037   9.909  0.8148 -0.3893 -0.1512
  727TMC3    C410797   1.018   4.555   9.913  0.3773 -0.0884 -0.1513
  727TMC3    C510798   1.012   4.657   9.820  0.6190  0.0862  0.2430
  727TMC3    C610799   1.093   0.034   9.820 -0.1226 -0.8235  0.3365
  727TMC3     C10800   1.127   4.472  10.108 -0.1919  0.5177 -0.2109
  727TMC3     O10801   1.222   4.474  10.183  0.1861  0.1473 -0.3900
  727TMC3     H10802   1.289   4.672  10.074 -0.3116  0.1035  0.6028
  727TMC3    H110803   0.947   4.474   9.897 -2.1302  2.3774 -1.4077
  727TMC3    H210804   1.087   0.100   9.735 -2.2984 -1.3801  0.0404
  727TMC3    C710805   0.897   4.644   9.728  0.3985 -0.4901  0.2257
  727TMC3    C810806   1.255   0.163   9.954  0.2920 -0.1806 -0.3765
  727TMC3    O110807   0.849   4.535   9.707 -0.1581 -0.1211  0.5102
  727TMC3    O210808   1.333   0.160  10.047  0.3254 -0.2598 -0.5182
  728TMC3    C110809   0.912   2.511  15.334 -0.0837  0.1514 -0.3377
  728TMC3    C210810   1.032   2.572  15.320 -0.5032  0.2083 -0.7003
  728TMC3    C310811   1.052   2.665  15.218 -0.4962 -0.0088 -0.1696
  728TMC3    C410812   0.814   2.537  15.244 -0.2989  0.4675  0.4453
  728TMC3    C510813   0.833   2.634  15.146 -0.0471 -0.1401 -0.3617
  728TMC3    C610814   0.952   2.695  15.134 -0.7567  0.5447 -0.3400
  728TMC3     C10815   0.867   2.510  15.468  0.4960  0.6184  0.2431
  728TMC3     O10816   0.929   2.589  15.538  0.4331  0.1931 -0.5216
  728TMC3     H10817   1.115   2.553  15.388 -1.2770  3.5271  1.1961
  728TMC3    H110818   0.715   2.493  15.237  0.5169 -1.2314 -0.5892
  728TMC3    H210819   0.960   2.776  15.062  1.6220  2.9420  2.6323
  728TMC3    C710820   0.734   2.647  15.048 -0.5426 -0.8646  0.4068
  728TMC3    C810821   1.177   2.742  15.219 -0.3672  0.0109 -0.9485
  728TMC3    O110822   0.656   2.554  15.035  0.1139  0.0542 -0.3490
  728TMC3    O210823   1.270   2.708  15.295 -0.0586 -0.4014  0.2148
  729MPD2     C10824   3.577   4.113   0.336  0.1026  0.4596  0.3944
  729MPD2    C110825   3.512   4.194   0.245 -0.4250 -0.2273  0.0171
  729MPD2    C210826   3.410   4.276   0.286  0.3206 -0.0793 -0.3781
  729MPD2    C310827   3.385   4.286   0.420  0.4057  0.7497  0.6332
  729MPD2    C410828   3.447   4.206   0.510 -0.0096  0.7537 -0.0557
  729MPD2    C510829   3.544   4.119   0.468  0.6404  0.1334 -0.2933
  729MPD2     H10830   3.349   4.334   0.217  1.4293  0.6320 -0.7501
  729MPD2    H110831   3.420   4.220   0.614  0.5168 -0.4730  0.2461
  729MPD2    H210832   3.668   4.057   0.319 -1.0212 -0.8398 -1.2724
  729MPD2    H310833   3.605   4.073   0.545  0.7177 -0.1112 -0.5006
  729MPD2     N10834   3.292   4.378   0.480  0.3918 -0.1739 -0.0036
  729MPD2    H510835   3.293   4.380   0.581  3.2611  0.8828 -0.0305
  729MPD2    N110836   3.556   4.187   0.112 -0.2047 -0.4594  0.3830
  729MPD2    H710837   3.619   4.108   0.098  0.1109  0.2099 -1.9585
  730TMC3    C110838   3.162   4.572   0.483  0.4055  0.5638 -0.0152
  730TMC3    C210839   3.225   4.609   0.600 -0.2574  0.1216  0.2196
  730TMC3    C310840   3.212   0.000   0.644  0.1471 -0.3232  0.8989
  730TMC3    C410841   3.067   4.649   0.433 -0.2079  0.0221 -0.3553
  730TMC3    C510842   3.054   0.045   0.478 -0.6029 -0.1553  0.0746
  730TMC3    C610843   3.131   0.087   0.577 -0.5122 -0.4833  0.0494
  730TMC3     C10844   3.211   4.459   0.408 -0.5963 -0.7147 -0.1692
  730TMC3     O10845   3.186   4.472   0.283  0.5043  0.4092  0.3351
  730TMC3     H10846   3.299   4.552   0.654 -0.0591 -0.8385 -1.0747
  730TMC3    H110847   3.021   4.612   0.342 -2.7095 -0.0360  0.9331
  730TMC3    H210848   3.132   0.190   0.612  0.6937 -0.1667 -0.9179
  730TMC3    C710849   3.035   0.130   0.361  0.0644 -0.3475  0.1656
  730TMC3    C810850   3.289   0.047   0.752 -0.2097 -0.5975 -0.7050
  730TMC3    O110851   3.066   0.081   0.253  0.6496  0.1491  0.6108
  730TMC3    O210852   3.323   4.697   0.832  0.0176  0.1814  0.7950
  731MPD2     C10853   3.001   2.032  12.176  0.1884 -0.0418  0.2690
  731MPD2    C110854   2.931   1.918  12.135 -0.3285 -0.2730  0.3536
  731MPD2    C210855   2.820   1.890  12.208  0.5076  0.0909  0.3210
  731MPD2    C310856   2.779   1.966  12.318 -0.1594  0.6535  1.2532
  731MPD2    C410857   2.853   2.079  12.358 -0.2798  0.4194 -0.3723
  731MPD2    C510858   2.964   2.112  12.289  0.3334  0.0237 -0.3211
  731MPD2     H10859   2.770   1.795  12.189 -2.2963  1.7005 -0.3020
  731MPD2    H110860   2.831   2.138  12.447  0.0168 -0.8231  0.5145
  731MPD2    H210861   3.083   2.069  12.116 -0.2121  0.6724  0.1561
  731MPD2    H310862   3.016   2.203  12.314 -0.3829  0.4166 -0.2387
  731MPD2     N10863   2.671   1.915  12.392 -0.4243  0.1649 -0.5351
  731MPD2    H510864   2.633   1.825  12.364 -0.3395  0.1066 -0.4624
  731MPD2    N110865   2.982   1.851  12.017  0.1066 -0.0456 -0.1023
  731MPD2    H710866   3.077   1.873  11.990 -0.2139  0.3369 -0.9360
  732TMC3    C110867   2.961   1.754  11.810 -0.5594 -0.3891 -0.4390
  732TMC3    C210868   2.862   1.738  11.718  0.3198 -0.2249 -0.1310
  732TMC3    C310869   2.884   1.780  11.590  0.2512  0.2889 -0.0406
  732TMC3    C410870   3.080   1.805  11.781 -0.0130 -0.4246 -0.3724
  732TMC3    C510871   3.097   1.848  11.650 -0.2041 -0.8086 -0.2745
  732TMC3    C610872   3.001   1.824  11.546  0.3116 -0.6814 -0.2087
  732TMC3     C10873   2.906   1.759  11.940 -0.5809  0.0294  0.1438
  732TMC3     O10874   2.800   1.707  11.970  0.3339  0.4000 -0.9762
  732TMC3     H10875   2.785   1.668  11.748 -0.2971  0.7248  0.4825
  732TMC3    H110876   3.163   1.812  11.851 -0.6291  1.8060  0.1483
  732TMC3    H210877   3.019   1.859  11.445  2.4139 -1.7819 -0.2142
  732TMC3    C710878   3.215   1.927  11.605 -0.0714  0.2754 -0.4873
  732TMC3    C810879   2.766   1.797  11.505  0.0745  0.1311  0.0181
  732TMC3    O110880   3.216   1.973  11.491 -0.3096 -0.1067 -0.2446
  732TMC3    O210881   2.771   1.801  11.385 -0.0783  0.2229 -1.0901
  733TMC3    C110882   3.631   0.111  12.880 -0.4052 -0.3097  0.4939
  733TMC3    C210883   3.748   0.155  12.941 -0.1873  0.5100 -0.3967
  733TMC3    C310884   3.848   0.186  12.860 -0.4432  0.1138 -0.7169
  733TMC3    C410885   3.610   0.102  12.746  0.2359  0.4662  0.0622
  733TMC3    C510886   3.724   0.127  12.668 -0.4113 -1.1056 -0.4426
  733TMC3    C610887   3.841   0.172  12.720 -0.2312 -0.0091  0.7126
  733TMC3     C10888   3.516   0.112  12.963 -0.1713  0.3171  0.2402
  733TMC3     O10889   3.531   0.159  13.071 -0.2087 -0.4747 -0.1368
  733TMC3     H10890   3.761   0.173  13.047 -0.9432 -0.2277 -0.1758
  733TMC3    H110891   3.513   0.072  12.708 -0.2457  0.7414  1.0712
  733TMC3    H210892   3.927   0.198  12.660  0.4573 -0.1056  1.6675
  733TMC3    C710893   3.692   0.136  12.524  0.0890 -0.4507 -1.0325
  733TMC3    C810894   3.946   0.270  12.917 -0.1532 -0.5763 -0.2149
  733TMC3    O110895   3.575   0.114  12.494 -0.3066 -0.2109  0.4840
  733TMC3    O210896   3.980   0.256  13.032 -0.2189  0.3049 -0.2309
  734MPD2     C10897   1.455   3.347  11.864 -0.2680 -0.6411 -0.2370
  734MPD2    C110898   1.322   3.317  11.852 -0.3033 -0.1163  0.1945
  734MPD2    C210899   1.250   3.358  11.742  0.6779  0.9313 -0.1286
  734MPD2    C310900   1.308   3.431  11.639 -0.0792 -0.4968  0.1164
  734MPD2    C410901   1.435   3.477  11.662 -0.8649 -0.3806  0.0040
  734MPD2    C510902   1.505   3.439  11.773 -0.2080 -0.0728  0.1740
  734MPD2     H10903   1.150   3.321  11.719 -0.1696  0.9248  3.6525
  734MPD2    H110904   1.482   3.557  11.605  3.3674 -2.8002  0.1158
  734MPD2    H210905   1.512   3.311  11.948  0.2758 -0.7880 -0.6659
  734MPD2    H310906   1.610   3.463  11.778 -0.2112 -0.2706  1.1038
  734MPD2     N10907   1.227   3.464  11.532  0.6314  0.1118 -0.0277
  734MPD2    H510908   1.135   3.422  11.529  1.0313 -0.4842 -3.4941
  734MPD2    N110909   1.257   3.254  11.966  0.9317  0.4647 -0.1834
  734MPD2    H710910   1.321   3.225  12.040 -0.6617  0.1024  1.0420
  735TMC3    C110911   1.062   3.189  12.093 -0.7085 -0.0238  0.7475
  735TMC3    C210912   0.935   3.217  12.114 -0.2194 -0.2625 -0.3919
  735TMC3    C310913   0.842   3.116  12.104 -0.5482  0.2017  0.2809
  735TMC3    C410914   1.101   3.061  12.102  0.1748 -0.2374 -0.2645
  735TMC3    C510915   1.009   2.957  12.103 -0.3741 -0.0145 -0.2795
  735TMC3    C610916   0.878   2.983  12.093 -0.0673  0.3563 -0.6120
  735TMC3     C10917   1.119   3.264  11.981  0.0614  0.1770  0.3129
  735TMC3     O10918   1.036   3.329  11.918  0.1248  0.2424 -0.3111
  735TMC3     H10919   0.911   3.322  12.128 -0.0513  0.0312 -2.2552
  735TMC3    H110920   1.203   3.042  12.072 -0.2436 -2.6963 -0.1181
  735TMC3    H210921   0.807   2.901  12.086 -1.0395  0.9208  2.7079
  735TMC3    C710922   1.062   2.824  12.092 -0.7801  0.4294  0.4783
  735TMC3    C810923   0.727   3.148  12.029  0.4400 -0.1776  0.7845
  735TMC3    O110924   1.171   2.812  12.038 -0.0578  0.0627 -0.7375
  735TMC3    O210925   0.644   3.058  12.020  0.0429  0.1590  0.4746
  736MPD2     C10926   0.936   2.520  12.242  0.2338  0.2010 -0.5202
  736MPD2    C110927   1.021   2.592  12.165 -0.0289  0.0979  0.3336
  736MPD2    C210928   1.146   2.543  12.133 -0.0689  0.2263  0.6150
  736MPD2    C310929   1.195   2.427  12.188  0.4135 -0.1869  0.0409
  736MPD2    C410930   1.108   2.348  12.266  0.0474 -0.2344  0.2294
  736MPD2    C510931   0.978   2.396  12.286  0.3001  0.3309  0.2194
  736MPD2     H10932   1.207   2.606  12.069 -1.3145  0.6797 -0.1149
  736MPD2    H110933   1.137   2.247  12.288 -1.4586 -0.6596  0.3105
  736MPD2    H210934   0.840   2.552  12.281  0.6652  0.6674  0.1690
  736MPD2    H310935   0.907   2.336  12.342 -1.4461 -0.0210 -2.3527
  736MPD2     N10936   1.327   2.379  12.165 -0.7214  0.2170 -0.8419
  736MPD2    H510937   1.359   2.296  12.213 -3.3097  0.6514  1.5924
  736MPD2    N110938   0.975   2.721  12.130 -1.1106  0.0893 -0.4135
  736MPD2    H710939   0.884   2.740  12.169 -0.6696  1.1122  0.1162
  737TMC3    C110940   1.558   2.404  12.125 -0.0408  0.3752 -0.1790
  737TMC3    C210941   1.644   2.511  12.112 -0.0631 -0.3221 -0.2519
  737TMC3    C310942   1.736   2.507  12.018  0.0644  0.3722  0.0608
  737TMC3    C410943   1.580   2.285  12.063 -0.0103  0.1257  0.1043
  737TMC3    C510944   1.686   2.285  11.973  0.1560 -0.1367 -0.5588
  737TMC3    C610945   1.760   2.395  11.939 -0.3345 -0.1936 -0.2414
  737TMC3     C10946   1.425   2.451  12.103 -0.6647 -0.6544  0.4155
  737TMC3     O10947   1.425   2.557  12.049 -1.0064  0.2390 -1.0825
  737TMC3     H10948   1.636   2.587  12.189 -0.1964  0.8160 -1.3841
  737TMC3    H110949   1.499   2.213  12.069 -0.6286  0.5508 -2.7522
  737TMC3    H210950   1.824   2.408  11.852 -0.7505 -0.1514 -0.5368
  737TMC3    C710951   1.701   2.165  11.896  0.7126 -0.7802 -0.0495
  737TMC3    C810952   1.760   2.638  11.959 -0.7423  0.1765  0.5212
  737TMC3    O110953   1.602   2.097  11.891  0.0756  0.4965  0.7696
  737TMC3    O210954   1.872   2.656  11.913 -0.5191  0.1610  0.1253
  738MPD2     C10955   1.740   0.989  15.280 -0.0426 -0.0952  0.8104
  738MPD2    C110956   1.722   0.941  15.150  0.1439  0.0370  0.7341
  738MPD2    C210957   1.820   0.970  15.054  0.1491  0.0740 -0.0529
  738MPD2    C310958   1.940   1.030  15.096 -0.3041 -0.3991 -0.2420
  738MPD2    C410959   1.957   1.067  15.230  0.0519  0.7478 -0.5629
  738MPD2    C510960   1.852   1.056  15.315 -0.5402 -0.5807  0.3205
  738MPD2     H10961   1.804   0.943  14.950 -0.5921  1.4275 -0.2851
  738MPD2    H110962   2.047   1.106  15.277  1.4199 -0.4367 -2.2119
  738MPD2    H210963   1.680   0.984  15.370 -1.2963  0.7882  0.0317
  738MPD2    H310964   1.856   1.100  15.414 -0.0827 -1.5217  0.7198
  738MPD2     N10965   2.048   1.045  15.010  0.1332 -1.3192  0.2212
  738MPD2    H510966   2.142   1.052  15.048  0.3821 -1.5053 -0.3659
  738MPD2    N110967   1.609   0.857  15.116 -0.4232 -0.2362  0.2301
  738MPD2    H710968   1.600   0.827  15.020 -1.6618  2.3117 -0.4382
  739TMC3    C110969   2.152   1.068  14.803  0.2074  0.3692  0.2476
  739TMC3    C210970   2.146   1.119  14.674 -0.0452  0.6589 -0.1567
  739TMC3    C310971   2.257   1.112  14.600  0.0042  0.2227  0.6182
  739TMC3    C410972   2.267   1.014  14.862 -0.8358  0.7022  0.2687
  739TMC3    C510973   2.387   1.017  14.782 -0.0255 -0.5124  0.2967
  739TMC3    C610974   2.377   1.075  14.657  0.1562 -0.4609  0.2937
  739TMC3     C10975   2.028   1.061  14.878  0.9831  0.4188  0.0612
  739TMC3     O10976   1.930   1.104  14.821  0.3138 -0.2835 -0.1966
  739TMC3     H10977   2.049   1.155  14.639 -0.4056  1.9327  2.1927
  739TMC3    H110978   2.262   0.958  14.954 -1.4274 -1.2104 -0.9100
  739TMC3    H210979   2.458   1.060  14.587 -0.4853 -0.6233 -0.4175
  739TMC3    C710980   2.487   0.919  14.814 -0.2743 -0.2860  0.0306
  739TMC3    C810981   2.251   1.191  14.483  0.2628  0.4228  0.2890
  739TMC3    O110982   2.454   0.827  14.889  0.1499 -0.2407 -0.0510
  739TMC3    O210983   2.140   1.218  14.446  0.0177 -0.1959 -0.3426
  740TMC3    C110984   2.471   2.712  14.370 -0.6045 -0.2881  0.2793
  740TMC3    C210985   2.512   2.683  14.496 -1.3372  0.4394  0.3156
  740TMC3    C310986   2.648   2.655  14.504  0.5057  1.1180  0.0988
  740TMC3    C410987   2.560   2.740  14.267  0.6515  0.5187  0.2259
  740TMC3    C510988   2.694   2.726  14.285 -0.0355 -0.5026  0.6795
  740TMC3    C610989   2.744   2.683  14.401 -0.2472  0.1972  0.2813
  740TMC3     C10990   2.335   2.757  14.357  0.9812 -0.0182 -0.5264
  740TMC3     O10991   2.314   2.846  14.273  0.4837 -0.2203  0.7169
  740TMC3     H10992   2.448   2.666  14.582 -0.8135 -2.4733  0.1317
  740TMC3    H110993   2.520   2.773  14.172 -0.6914  4.6521  2.2446
  740TMC3    H210994   2.850   2.662  14.405 -0.5657 -1.2135  1.2778
  740TMC3    C710995   2.784   2.703  14.165  0.5514 -0.4223  0.1207
  740TMC3    C810996   2.695   2.573  14.620 -0.4291  0.5649 -0.7159
  740TMC3    O110997   2.899   2.674  14.179  0.0159  0.5202 -0.1152
  740TMC3    O210998   2.816   2.576  14.640 -0.1992  0.5894  0.5121
  741TMC3    C110999   2.152   1.749  14.355 -0.1280  0.1325 -0.9350
  741TMC3    C211000   2.051   1.661  14.315 -0.4396 -0.5823  0.2823
  741TMC3    C311001   2.030   1.553  14.393 -0.2059 -0.0462  0.1714
  741TMC3    C411002   2.231   1.732  14.464  0.4345 -0.0566  0.6003
  741TMC3    C511003   2.204   1.622  14.541 -0.1113 -0.3228 -0.0660
  741TMC3    C611004   2.106   1.522  14.505  0.3643  0.1252  0.3458
  741TMC3     C11005   2.168   1.859  14.270  0.0715  0.5966 -0.3186
  741TMC3     O11006   2.070   1.879  14.200 -0.5128  0.3884  0.5975
  741TMC3     H11007   1.990   1.673  14.226  0.3486 -0.6773 -0.2707
  741TMC3    H111008   2.305   1.803  14.495  0.6801 -0.2688  0.5017
  741TMC3    H211009   2.091   1.439  14.573 -2.4249 -1.6405 -2.4401
  741TMC3    C711010   2.300   1.600  14.650 -0.4344 -0.4278  0.0210
  741TMC3    C811011   1.902   1.478  14.373 -0.6409 -0.4646  0.6154
  741TMC3    O111012   2.406   1.661  14.645  0.0285  0.0401  0.1982
  741TMC3    O211013   1.833   1.511  14.278  0.8418  0.0188  0.1251
  742TMC3    C111014   1.925   0.357  15.424 -0.7469  0.9010  0.5039
  742TMC3    C211015   1.851   0.354  15.309  0.0442  0.4192 -0.2496
  742TMC3    C311016   1.922   0.320  15.200 -0.1517  0.5530 -0.4654
  742TMC3    C411017   2.061   0.323  15.432 -0.2845 -0.5873 -0.1338
  742TMC3    C511018   2.122   0.290  15.315  0.3665 -1.1356 -0.3494
  742TMC3    C611019   2.056   0.287  15.199 -0.4186  0.1779  0.0993
  742TMC3     C11020   1.849   0.382  15.549  0.1755  0.2010 -0.4027
  742TMC3     O11021   1.873   0.319  15.652 -0.3307  0.1816  0.4195
  742TMC3     H11022   1.744   0.342  15.326 -0.1245 -0.5401 -2.0168
  742TMC3    H111023   2.110   0.329  15.529 -0.3229  3.0029 -0.3517
  742TMC3    H211024   2.112   0.265  15.109 -1.8575 -3.3245  0.0375
  742TMC3    C711025   2.261   0.242  15.315  0.8955  0.0978 -0.2356
  742TMC3    C811026   1.849   0.271  15.085  0.3416  0.3406  0.2349
  742TMC3    O111027   2.297   0.179  15.219  0.3139 -0.3562  0.2655
  742TMC3    O211028   1.909   0.200  15.006  0.2347 -0.2405 -0.0766
  743MPD2     C11029   0.117   1.700   1.723  0.0830  0.1733  0.3751
  743MPD2    C111030   0.172   1.710   1.597  0.0228  0.0103 -0.3713
  743MPD2    C211031   0.306   1.711   1.580 -0.1580 -0.0200  0.1874
  743MPD2    C311032   0.392   1.707   1.690 -0.3835  0.0956  0.2170
  743MPD2    C411033   0.336   1.712   1.816  0.2739  0.0265 -0.3147
  743MPD2    C511034   0.198   1.707   1.830  0.9934 -0.0688  0.7062
  743MPD2     H11035   0.345   1.737   1.482  0.4251 -0.8399  0.2034
  743MPD2    H111036   0.399   1.711   1.904  0.7976  2.2022 -0.6699
  743MPD2    H211037   0.010   1.692   1.742  0.4202 -2.6394  1.0827
  743MPD2    H311038   0.158   1.697   1.930  2.0897 -0.5858  1.0955
  743MPD2     N11039   0.532   1.689   1.663  0.0464 -0.2851 -0.4989
  743MPD2    H511040   0.565   1.698   1.567  1.3479 -2.8724 -0.2780
  743MPD2    N111041   0.079   1.702   1.493  0.3992 -0.3182  0.2101
  743MPD2    H711042   4.717   1.715   1.520  0.6956 -1.0433  1.5994
  744TMC3    C111043   0.006   1.708   1.275  0.7536  0.2636  0.2540
  744TMC3    C211044   4.647   1.805   1.304 -0.3930 -0.5915  0.4220
  744TMC3    C311045   4.564   1.851   1.204  0.6370 -0.4315 -0.0974
  744TMC3    C411046   0.015   1.651   1.153  0.2486  0.2234  0.5038
  744TMC3    C511047   4.658   1.692   1.065 -0.3642  0.2321 -0.4268
  744TMC3    C611048   4.578   1.797   1.081 -0.1871 -0.3629 -0.5320
  744TMC3     C11049   0.119   1.684   1.358 -0.3382  0.4389  0.5345
  744TMC3     O11050   0.230   1.663   1.320 -0.0560 -0.0004 -0.7250
  744TMC3     H11051   4.646   1.855   1.400 -1.1416 -0.1806  0.1992
  744TMC3    H111052   0.100   1.589   1.125 -1.2212 -2.3975  1.8665
  744TMC3    H211053   4.520   1.826   0.993  1.8622  2.2150 -1.0321
  744TMC3    C711054   4.654   1.616   0.934  0.7780 -0.7578 -0.9909
  744TMC3    C811055   4.452   1.938   1.239  0.0806 -0.1897 -0.4039
  744TMC3    O111056   0.024   1.561   0.901  0.0938 -0.1928 -0.4032
  744TMC3    O211057   4.428   1.935   1.359  0.1352  0.1404  0.2824
  745TMC3    C111058   2.612   4.394  13.286 -0.5174 -0.7534  0.2878
  745TMC3    C211059   2.538   4.403  13.401  0.1642 -0.7077  0.1276
  745TMC3    C311060   2.404   4.380  13.387 -0.1539 -0.0868  0.1404
  745TMC3    C411061   2.554   4.382  13.160 -0.1565  0.1822  0.2507
  745TMC3    C511062   2.414   4.364  13.147 -0.2586 -0.4288 -0.8908
  745TMC3    C611063   2.350   4.359  13.268 -0.4300  0.5382 -0.3381
  745TMC3     C11064   2.742   4.459  13.289  0.4887 -0.8480 -0.7290
  745TMC3     O11065   2.836   4.411  13.225 -0.4252 -0.1669  0.1877
  745TMC3     H11066   2.597   4.401  13.491 -0.9268 -0.4887  0.8493
  745TMC3    H111067   2.615   4.393  13.071  0.3815  0.8989  0.7082
  745TMC3    H211068   2.241   4.361  13.269 -0.3868  3.1428 -0.9031
  745TMC3    C711069   2.362   4.469  13.066  1.0456 -0.3928  0.0176
  745TMC3    C811070   2.303   4.430  13.486  0.6682 -0.0557 -0.1221
  745TMC3    O111071   2.239   4.475  13.047 -0.8311 -0.0895 -0.2083
  745TMC3    O211072   2.189   4.394  13.472 -0.1491 -0.0217 -0.5669
  746TMC3    C111073   0.048   2.410  10.742  0.1782  0.4003  0.1166
  746TMC3    C211074   0.130   2.430  10.634 -0.3134 -0.0468 -0.0429
  746TMC3    C311075   0.156   2.328  10.549  0.2785 -0.1317 -0.4288
  746TMC3    C411076   4.714   2.288  10.748 -0.6693  0.3108  0.4673
  746TMC3    C511077   0.001   2.193  10.652  0.6982  0.2574  0.6562
  746TMC3    C611078   0.098   2.206  10.558 -0.1750 -1.0493  0.0357
  746TMC3     C11079   4.709   2.520  10.802 -0.1025  0.6212  0.2932
  746TMC3     O11080   4.731   2.561  10.914  0.3685  0.2861  0.1465
  746TMC3     H11081   0.193   2.518  10.629  0.1040 -0.1910  2.5819
  746TMC3    H111082   4.639   2.276  10.826 -0.9653  2.6960  0.5624
  746TMC3    H211083   0.119   2.137  10.478 -2.9831  0.4511 -1.9760
  746TMC3    C711084   4.680   2.057  10.672  0.2491  0.1466  0.3286
  746TMC3    C811085   0.239   2.353  10.437  0.2459 -0.0592  0.4365
  746TMC3    O111086   4.668   1.986  10.576  0.0357  0.1366  0.0591
  746TMC3    O211087   0.309   2.263  10.393  0.9291 -0.1133  0.2846
  747TMC3    C111088   2.321   2.236  11.103 -0.3571  0.6857 -0.1522
  747TMC3    C211089   2.219   2.147  11.136  0.1712  0.3465  0.8146
  747TMC3    C311090   2.234   2.085  11.253 -0.4408  0.6733 -0.0543
  747TMC3    C411091   2.428   2.264  11.183  0.4742  0.3455  0.3353
  747TMC3    C511092   2.434   2.188  11.296  0.0066  0.1449 -0.0221
  747TMC3    C611093   2.344   2.093  11.335 -0.3727  0.1205  0.2029
  747TMC3     C11094   2.324   2.292  10.963  0.7926  0.3315 -0.0022
  747TMC3     O11095   2.367   2.407  10.949  0.1758  0.2528  0.0537
  747TMC3     H11096   2.133   2.129  11.073  1.3148  1.5901 -1.0914
  747TMC3    H111097   2.509   2.321  11.140 -0.4593  0.3496 -1.4007
  747TMC3    H211098   2.362   2.026  11.419  2.4703  0.3463 -0.2303
  747TMC3    C711099   2.555   2.195  11.376 -0.5430  0.2025 -0.2233
  747TMC3    C811100   2.110   2.025  11.296  0.1563 -0.3861  0.1255
  747TMC3    O111101   2.656   2.250  11.331  0.2747  0.3607 -0.3835
  747TMC3    O211102   2.036   1.979  11.209 -0.0177 -0.0204  0.6266
  748MPD2     C11103   4.593   3.066   1.078  0.3088  0.3959  0.0717
  748MPD2    C111104   4.600   2.930   1.068 -0.4772 -0.9019  0.4949
  748MPD2    C211105   4.612   2.875   0.938 -0.3013 -0.6002  0.0363
  748MPD2    C311106   4.605   2.959   0.830  0.7579  0.2392 -0.9701
  748MPD2    C411107   4.592   3.094   0.849  0.2766 -0.5907 -0.6105
  748MPD2    C511108   4.585   3.145   0.972  0.1673 -0.1821  0.4913
  748MPD2     H11109   4.599   2.770   0.916 -3.4590 -0.3232  0.5271
  748MPD2    H111110   4.569   3.165   0.771  0.5546  1.0491  0.7921
  748MPD2    H211111   4.573   3.115   1.173 -0.6984  0.2102 -0.0379
  748MPD2    H311112   4.554   3.248   0.988 -1.2111 -0.7480  1.4620
  748MPD2     N11113   4.608   2.908   0.698 -0.6914  0.0992 -0.3245
  748MPD2    H511114   4.593   2.808   0.688 -2.8461  0.3557  0.1545
  748MPD2    N111115   4.576   2.859   1.185 -0.2481  0.1882 -0.6060
  748MPD2    H711116   4.539   2.913   1.262  1.6493  2.0154 -0.9336
  749TMC3    C111117   4.577   2.909   0.468  0.4744  0.1654  0.4891
  749TMC3    C211118   4.468   2.823   0.471 -0.1645 -0.3043  0.1964
  749TMC3    C311119   4.394   2.808   0.364 -0.5607 -0.2493  1.2293
  749TMC3    C411120   4.599   2.985   0.358  0.4143 -0.0077  0.6598
  749TMC3    C511121   4.512   2.984   0.251 -0.6286 -0.1330 -0.4617
  749TMC3    C611122   4.403   2.892   0.255  0.2943 -0.1438  0.7986
  749TMC3     C11123   4.606   2.990   0.585 -0.7344 -0.3741 -0.2467
  749TMC3     O11124   4.628   3.107   0.558 -0.0926  0.1260 -0.0512
  749TMC3     H11125   4.438   2.768   0.559 -0.4122 -0.0846  0.2506
  749TMC3    H111126   4.686   3.050   0.352  0.2768  0.1852  0.7747
  749TMC3    H211127   4.345   2.901   0.164  0.5661  1.6214  0.8101
  749TMC3    C711128   4.471   3.118   0.205 -0.3414 -0.0668  1.1004
  749TMC3    C811129   4.376   2.667   0.332 -0.2643  0.6510 -1.0812
  749TMC3    O111130   4.422   3.128   0.092  0.2869  0.1382  0.0400
  749TMC3    O211131   4.317   2.643   0.230 -0.1199  0.6297  0.3737
  750MPD2     C11132   4.179   4.179  11.411  0.4018  0.5910  0.3483
  750MPD2    C111133   4.106   4.077  11.470 -0.3753 -0.0686 -0.5230
  750MPD2    C211134   4.068   3.968  11.393 -0.5815 -0.1547 -0.3545
  750MPD2    C311135   4.090   3.960  11.258 -0.4314  1.0519 -0.0641
  750MPD2    C411136   4.150   4.070  11.198 -0.8940  0.5179  0.5852
  750MPD2    C511137   4.201   4.174  11.275 -0.4086  0.3714  0.7263
  750MPD2     H11138   4.017   3.886  11.443 -0.2578  1.2761  2.3465
  750MPD2    H111139   4.161   4.061  11.091 -1.9678 -1.4504  0.6369
  750MPD2    H211140   4.196   4.265  11.474 -5.2084  1.5970  0.5033
  750MPD2    H311141   4.259   4.250  11.225 -1.8989 -0.6084 -2.4842
  750MPD2     N11142   4.059   3.848  11.180  0.3383 -1.1409 -0.3829
  750MPD2    H511143   4.107   3.838  11.091 -1.1976 -0.2721 -1.3225
  750MPD2    N111144   4.056   4.098  11.601  0.3096  0.1057  0.1434
  750MPD2    H711145   4.064   4.189  11.646  0.1921  0.2535 -0.1367
  751TMC3    C111146   3.951   3.649  11.125 -0.0754  0.8391  0.1238
  751TMC3    C211147   3.872   3.545  11.165  0.1278  0.1880  0.1713
  751TMC3    C311148   3.848   3.447  11.066  0.5697  0.6370  0.5082
  751TMC3    C411149   3.983   3.681  10.995 -0.0465  0.5222 -0.0194
  751TMC3    C511150   3.951   3.583  10.897 -0.3199 -0.1712 -0.5148
  751TMC3    C611151   3.884   3.471  10.937 -0.5528  0.8871  0.1185
  751TMC3     C11152   3.966   3.757  11.216  0.2136 -0.2297  0.4010
  751TMC3     O11153   3.904   3.746  11.321  0.8456  0.0512 -0.0977
  751TMC3     H11154   3.844   3.525  11.268  0.6078 -1.7674 -0.0696
  751TMC3    H111155   4.026   3.772  10.955 -0.5913  0.4738 -0.7207
  751TMC3    H211156   3.857   3.389  10.871  0.5787 -0.1936  0.9967
  751TMC3    C711157   4.012   3.586  10.759  0.5224  0.5757 -0.1835
  751TMC3    C811158   3.807   3.312  11.091  0.4620 -0.3738 -0.4441
  751TMC3    O111159   4.110   3.656  10.749 -0.1227  0.1476  0.4973
  751TMC3    O211160   3.756   3.256  10.994  0.2989 -0.2023 -0.4241
  752TMC3    C111161   3.737   3.277   0.227 -0.5693 -0.2444 -0.3061
  752TMC3    C211162   3.761   3.143   0.260  0.6848 -0.2916 -0.0945
  752TMC3    C311163   3.768   3.116   0.392 -0.4189  0.0170  0.1398
  752TMC3    C411164   3.710   3.374   0.318  0.2360  0.6829 -0.6585
  752TMC3    C511165   3.728   3.337   0.450 -0.3539  0.3854  0.7992
  752TMC3    C611166   3.749   3.209   0.493  0.9124 -0.5071 -0.1678
  752TMC3     C11167   3.736   3.302   0.085 -0.3498  0.9939 -0.4541
  752TMC3     O11168   3.747   3.210   0.008  0.0796 -0.8230 -0.0775
  752TMC3     H11169   3.793   3.065   0.193 -0.7939 -1.5109  0.6355
  752TMC3    H111170   3.698   3.479   0.294 -1.6906  0.2309 -1.6830
  752TMC3    H211171   3.743   3.180   0.598  1.2756  0.5439  0.1393
  752TMC3    C711172   3.720   3.437   0.553 -0.0789  0.6617 -0.9478
  752TMC3    C811173   3.818   2.984   0.432 -0.5357 -0.6641 -0.1388
  752TMC3    O111174   3.796   3.436   0.652 -0.2006 -0.2273  0.2597
  752TMC3    O211175   3.795   2.897   0.354  0.2973 -0.1442 -0.0133
  753TMC3    C111176   0.458   4.504  13.380 -0.4851  0.2920  0.9931
  753TMC3    C211177   0.579   4.489  13.445 -0.2662  0.0213 -0.6457
  753TMC3    C311178   0.622   4.365  13.477  0.5798  0.0831 -0.1041
  753TMC3    C411179   0.383   4.400  13.342  0.0201 -0.1864  0.0914
  753TMC3    C511180   0.431   4.272  13.362 -0.4320  0.3350 -0.3163
  753TMC3    C611181   0.548   4.255  13.441 -0.5863 -0.0220  0.4946
  753TMC3     C11182   0.426   4.639  13.328 -0.3287  0.3142 -0.2169
  753TMC3     O11183   0.483   0.002  13.376  0.0267  0.3154 -0.3623
  753TMC3     H11184   0.642   4.576  13.461  0.9991 -0.8956 -0.6605
  753TMC3    H111185   0.278   4.412  13.320  0.5074 -0.1757 -2.2418
  753TMC3    H211186   0.582   4.153  13.459 -1.0822  0.0015  1.5424
  753TMC3    C711187   0.357   4.159  13.305  0.1111 -0.4779  0.7542
  753TMC3    C811188   0.734   4.347  13.563 -0.2881  0.1111  0.5651
  753TMC3    O111189   0.239   4.182  13.285  0.4140 -0.2792 -0.2294
  753TMC3    O211190   0.785   4.238  13.553 -0.1283  0.2284 -0.2845
  754MPD2     C11191   4.296   3.612  13.134  0.1017  0.1478 -0.1400
  754MPD2    C111192   4.266   3.474  13.158  0.1880  0.4648 -0.7653
  754MPD2    C211193   4.136   3.432  13.143 -0.0514 -0.8267 -0.3221
  754MPD2    C311194   4.034   3.521  13.126  0.2044  0.1150 -0.1860
  754MPD2    C411195   4.064   3.653  13.107 -0.4908  0.3976 -0.7628
  754MPD2    C511196   4.191   3.693  13.111  0.3178  0.2721  0.2881
  754MPD2     H11197   4.112   3.327  13.153  3.1131 -1.2798  2.7487
  754MPD2    H111198   3.995   3.735  13.096 -1.1908 -0.2362 -1.1420
  754MPD2    H211199   4.399   3.646  13.133  0.3397 -0.6790 -4.1049
  754MPD2    H311200   4.196   3.800  13.094  1.6510  0.3311  1.0832
  754MPD2     N11201   3.902   3.482  13.104  0.0856  0.3155  0.8053
  754MPD2    H511202   3.836   3.551  13.073 -0.3485 -0.5287 -0.1441
  754MPD2    N111203   4.379   3.397  13.193 -0.3937  0.2712 -0.3350
  754MPD2    H711204   4.469   3.443  13.192 -0.8777  1.2349  0.4394
  755MPD2     C11205   3.143   3.908  13.040 -0.1855  0.9404 -0.5935
  755MPD2    C111206   3.112   3.789  12.979 -0.3766  0.1722 -0.3968
  755MPD2    C211207   3.207   3.686  12.968  0.2966 -0.2299 -0.2870
  755MPD2    C311208   3.334   3.704  13.016 -0.8055  0.3435 -0.8186
  755MPD2    C411209   3.373   3.825  13.068  0.2238  0.1536  0.4005
  755MPD2    C511210   3.280   3.929  13.073 -0.0323  0.0051  0.1111
  755MPD2     H11211   3.168   3.598  12.916  1.4709  1.6915 -4.3982
  755MPD2    H111212   3.476   3.842  13.097  0.3536  0.8215 -0.4572
  755MPD2    H211213   3.073   3.990  13.041  1.2914  2.1854  0.3697
  755MPD2    H311214   3.299   4.025  13.119 -2.6601 -0.1521  1.5021
  755MPD2     N11215   3.433   3.603  13.017  0.0955 -0.2723  0.3475
  755MPD2    H511216   3.527   3.625  13.050  0.6459 -2.2521  0.0858
  755MPD2    N111217   2.982   3.763  12.943  0.7339  0.1376 -0.0206
  755MPD2    H711218   2.960   3.667  12.919  0.8567  0.1445 -0.1552
  756MPD2     C11219   4.496   4.172   9.805  0.6079  0.0860  0.0024
  756MPD2    C111220   4.398   4.273   9.824 -0.0455  0.0802  0.5545
  756MPD2    C211221   4.267   4.248   9.801  0.6648 -0.6603  0.0340
  756MPD2    C311222   4.225   4.126   9.768 -0.1597 -0.1330 -0.8231
  756MPD2    C411223   4.317   4.019   9.754  0.2882  0.2544  0.5404
  756MPD2    C511224   4.448   4.050   9.762 -0.0532 -1.0295 -0.1258
  756MPD2     H11225   4.201   4.334   9.802  0.7928 -0.5409 -1.2456
  756MPD2    H111226   4.285   3.920   9.722 -0.0527  0.1039  1.3588
  756MPD2    H211227   4.602   4.189   9.816  0.9167 -0.7739 -1.7552
  756MPD2    H311228   4.522   3.974   9.742  2.4084  1.4368 -0.3328
  756MPD2     N11229   4.085   4.099   9.745 -0.4365 -0.4068 -0.2639
  756MPD2    H511230   4.026   4.182   9.742 -2.5602 -1.8716  1.0821
  756MPD2    N111231   4.439   4.401   9.864  0.6246 -0.0109 -0.1556
  756MPD2    H711232   4.365   4.464   9.893  0.0949  0.0587 -1.6461
  757MPD2     C11233   3.573   3.258   9.857 -0.0665  0.7291 -0.1861
  757MPD2    C111234   3.689   3.299   9.787 -0.6438  0.0177  0.2343
  757MPD2    C211235   3.722   3.432   9.796 -0.0960 -0.4887 -0.6920
  757MPD2    C311236   3.652   3.516   9.879  0.8806  0.9926  0.1415
  757MPD2    C411237   3.545   3.470   9.950 -0.4766 -0.1439 -0.3749
  757MPD2    C511238   3.497   3.341   9.933 -1.2604  0.8036 -0.2561
  757MPD2     H11239   3.808   3.470   9.743 -0.1071 -0.2622 -0.5474
  757MPD2    H111240   3.490   3.538  10.013  1.5880  0.9940  0.2146
  757MPD2    H211241   3.543   3.154   9.871  1.5059 -0.1216 -3.0758
  757MPD2    H311242   3.413   3.307   9.994  1.7696  0.0867  3.5516
  757MPD2     N11243   3.706   3.648   9.883 -0.4086 -0.2049 -0.2918
  757MPD2    H511244   3.782   3.669   9.819 -0.6278  2.8666  0.4603
  757MPD2    N111245   3.763   3.200   9.726 -0.1568  0.3083 -0.0525
  757MPD2    H711246   3.723   3.107   9.718 -0.6190  0.8129 -3.5579
  758MPD2     C11247   4.355   3.385  15.720 -0.0149  0.2141 -0.2025
  758MPD2    C111248   4.374   3.289  15.816  0.1364  0.6035  0.0580
  758MPD2    C211249   4.300   3.305  15.937 -0.3309 -0.6480  0.0325
  758MPD2    C311250   4.212   3.408  15.963  1.0119  0.2845 -0.5738
  758MPD2    C411251   4.198   3.509  15.867 -0.0258  0.0137  0.0729
  758MPD2    C511252   4.265   3.487  15.748 -1.1695 -0.0116  0.5294
  758MPD2     H11253   4.319   3.232  16.014 -0.3236 -2.6442 -1.8618
  758MPD2    H111254   4.130   3.590  15.891 -0.1451 -1.2737  4.0634
  758MPD2    H211255   4.393   3.384  15.619 -4.2467 -0.7777 -1.7712
  758MPD2    H311256   4.239   3.563  15.675 -0.1658  2.1587  2.4298
  758MPD2     N11257   4.154   3.432  16.095 -0.6367 -0.3527 -0.5511
  758MPD2    H511258   4.113   3.524  16.107 -1.2638 -0.7967  0.7356
  758MPD2    N111259   4.475   3.194  15.782 -0.1427  0.6814  0.0891
  758MPD2    H711260   4.509   3.188  15.687 -1.1558 -1.7407 -0.1322
  759MPD2     C11261   3.602   2.139   9.950 -0.7441 -0.2612 -0.4640
  759MPD2    C111262   3.670   2.049   9.874 -0.1521  0.2384 -0.1012
  759MPD2    C211263   3.729   2.082   9.755  0.4599  0.2284  0.0889
  759MPD2    C311264   3.732   2.209   9.713 -0.5967  0.2917 -0.7086
  759MPD2    C411265   3.667   2.303   9.795 -0.1606 -0.1021  0.0893
  759MPD2    C511266   3.603   2.265   9.906  0.2200 -0.7351  0.9746
  759MPD2     H11267   3.756   2.000   9.689  1.2039  0.8307 -0.3484
  759MPD2    H111268   3.656   2.407   9.768 -0.7885  0.0042  0.7644
  759MPD2    H211269   3.574   2.114  10.051 -0.7466 -2.4147 -1.0122
  759MPD2    H311270   3.556   2.340   9.970  2.3818  1.4449 -0.0177
  759MPD2     N11271   3.796   2.239   9.595  0.1869 -0.6173  0.1207
  759MPD2    H511272   3.823   2.163   9.535  1.6742  0.1013 -0.1263
  759MPD2    N111273   3.661   1.914   9.905 -0.4921 -0.4328 -0.0931
  759MPD2    H711274   3.714   1.856   9.841 -2.1042 -0.5791 -1.3020
  760MPD2     C11275   2.561   3.424  11.458  0.9029 -0.4536 -0.1446
  760MPD2    C111276   2.693   3.445  11.466 -0.1635 -0.5637  0.6086
  760MPD2    C211277   2.768   3.363  11.556  0.0094  0.6394 -0.5325
  760MPD2    C311278   2.711   3.273  11.641 -0.0472 -0.2860  0.5813
  760MPD2    C411279   2.576   3.259  11.634  0.6048 -0.4739  0.8065
  760MPD2    C511280   2.503   3.328  11.541 -0.2709  0.7331  0.4900
  760MPD2     H11281   2.872   3.391  11.572  0.5415 -1.1362 -0.8193
  760MPD2    H111282   2.518   3.188  11.692 -1.9936  0.4181 -0.6992
  760MPD2    H211283   2.485   3.475  11.400 -0.3237  0.6721  2.4404
  760MPD2    H311284   2.395   3.322  11.543 -0.2716  0.3284 -0.6908
  760MPD2     N11285   2.789   3.217  11.742 -0.3017 -0.4224 -0.1543
  760MPD2    H511286   2.888   3.220  11.720  0.0740  0.4077  1.6937
  760MPD2    N111287   2.770   3.551  11.402  0.4761  0.4526 -0.0999
  760MPD2    H711288   2.862   3.568  11.439 -0.3483  2.3493  1.0781
  761MPD2     C11289   3.995   2.867  11.259 -0.5354  0.0885 -0.3176
  761MPD2    C111290   3.943   2.898  11.136  0.4320 -0.3661 -0.0327
  761MPD2    C211291   3.898   3.028  11.111 -1.1146 -0.6149  0.2078
  761MPD2    C311292   3.890   3.113  11.220 -0.2907 -0.3420  0.3963
  761MPD2    C411293   3.940   3.078  11.343 -0.1095 -0.2444  0.7404
  761MPD2    C511294   3.988   2.950  11.363 -0.5315  0.3114 -0.6000
  761MPD2     H11295   3.869   3.070  11.016 -0.2322  1.8208  0.9946
  761MPD2    H111296   3.965   3.147  11.424  0.9020 -0.5990  0.7311
  761MPD2    H211297   4.031   2.765  11.267 -0.5165  0.1207 -0.0001
  761MPD2    H311298   4.020   2.919  11.462  1.1319 -0.0871 -1.2721
  761MPD2     N11299   3.871   3.254  11.203 -0.7846  0.2564 -0.1611
  761MPD2    H511300   3.900   3.313  11.280  1.6366  0.6004 -1.3377
  761MPD2    N111301   3.955   2.795  11.044  0.1786 -0.1654 -0.0274
  761MPD2    H711302   4.001   2.719  11.092  0.9707  0.0602 -0.4194
  762MPD2     C11303   4.218   2.310  10.315 -0.5241  0.0329 -0.1889
  762MPD2    C111304   4.168   2.438  10.334 -0.4177 -0.2847 -0.0496
  762MPD2    C211305   4.190   2.529  10.233 -0.0734 -0.3885 -0.5607
  762MPD2    C311306   4.277   2.507  10.130 -0.3714 -0.5256  0.2449
  762MPD2    C411307   4.334   2.383  10.118 -0.6460  0.3515  0.0770
  762MPD2    C511308   4.299   2.287  10.208 -0.3820  0.2420  0.3885
  762MPD2     H11309   4.140   2.624  10.253 -2.5577 -2.0026  0.8767
  762MPD2    H111310   4.395   2.369  10.029 -0.7851 -3.8568  0.6788
  762MPD2    H211311   4.184   2.223  10.371  1.2265  1.4375  3.0476
  762MPD2    H311312   4.325   2.184  10.182 -0.7921  0.2286  0.0117
  762MPD2     N11313   4.321   2.620  10.056  0.5744 -0.4665 -0.2078
  762MPD2    H511314   4.278   2.712  10.067  0.9350 -0.4884  1.3660
  762MPD2    N111315   4.090   2.456  10.455 -0.6733  0.1607 -0.4682
  762MPD2    H711316   4.088   2.384  10.527 -1.6241  2.2008  1.5517
  763MPD2     C11317   1.712   3.213  15.922 -0.4986  0.4833 -0.1896
  763MPD2    C111318   1.581   3.243  15.916 -0.0546 -0.3346 -0.0103
  763MPD2    C211319   1.536   3.352  15.984  0.1543  0.0838 -0.0494
  763MPD2    C311320   1.621   3.431  16.061  0.3598  0.4355 -0.6243
  763MPD2    C411321   1.758   3.402  16.061 -0.1822 -0.0593 -0.3503
  763MPD2    C511322   1.805   3.295  15.989  0.7600 -0.0252 -0.2150
  763MPD2     H11323   1.430   3.375  15.996  0.1756 -0.2372  0.7953
  763MPD2    H111324   1.831   3.468  16.106  0.5952 -1.6103  0.6805
  763MPD2    H211325   1.752   3.126  15.870  1.3000  0.4674  1.2156
  763MPD2    H311326   1.909   3.266  16.000  0.7647  0.7828  1.7595
  763MPD2     N11327   1.562   3.537  16.139  0.3070 -0.6252  0.2571
  763MPD2    H511328   1.477   3.581  16.105  0.8164 -0.4432 -0.7666
  763MPD2    N111329   1.487   3.150  15.864 -0.0005  0.8605 -0.1045
  763MPD2    H711330   1.391   3.183  15.858  0.3531  1.7603 -0.8818
  764MPD2     C11331   4.255   4.321  17.392 -0.4589  1.1522 -0.4227
  764MPD2    C111332   4.244   4.452  17.434 -0.2577  0.6421  0.0714
  764MPD2    C211333   4.289   4.480  17.563 -0.0478  0.0138 -0.0815
  764MPD2    C311334   4.335   4.377  17.648 -0.9090 -0.3992  0.3142
  764MPD2    C411335   4.353   4.249  17.594 -0.3331 -0.4384  0.3573
  764MPD2    C511336   4.322   4.225  17.465 -0.9978 -0.6472 -0.1909
  764MPD2     H11337   4.284   4.583  17.595 -0.8586 -0.2403  0.6101
  764MPD2    H111338   4.396   4.167  17.651  1.7959 -0.8232 -1.7895
  764MPD2    H211339   4.229   4.294  17.290  0.5010 -0.8786 -0.1153
  764MPD2    H311340   4.336   4.126  17.424  1.7665  0.7587 -2.6103
  764MPD2     N11341   4.352   4.401   0.047 -0.1857  0.4066  0.0895
  764MPD2    H511342   4.342   4.493   0.088  0.3666  0.3226  0.4170
  764MPD2    N111343   4.192   4.550  17.340 -0.2204 -0.2425  0.5183
  764MPD2    H711344   4.177   4.518  17.245 -0.4624 -0.2116  0.5472
  765MPD2     C11345   4.043   2.541  15.436 -0.2436  1.0995 -0.0795
  765MPD2    C111346   4.074   2.599  15.557 -0.2458  0.7187 -0.3439
  765MPD2    C211347   4.205   2.583  15.599 -0.7264  0.2352 -0.1278
  765MPD2    C311348   4.292   2.504  15.523 -0.0140  0.1166 -0.2617
  765MPD2    C411349   4.260   2.461  15.397 -0.2451 -0.5632 -0.2541
  765MPD2    C511350   4.136   2.481  15.356  0.6436 -0.2242 -0.1247
  765MPD2     H11351   4.245   2.624  15.691 -1.6749  2.1733 -0.5792
  765MPD2    H111352   4.329   2.414  15.329  0.9341  1.1610 -0.2344
  765MPD2    H211353   3.951   2.556  15.380 -0.5608 -2.0537 -0.3825
  765MPD2    H311354   4.115   2.467  15.251  1.7657  0.6798 -0.4668
  765MPD2     N11355   4.417   2.469  15.576 -0.2318  0.2464 -0.1258
  765MPD2    H511356   4.444   2.524  15.657  1.5063 -0.3436 -0.2885
  765MPD2    N111357   3.973   2.668  15.626 -0.4617 -0.4257  0.4115
  765MPD2    H711358   3.877   2.665  15.596 -0.3146 -0.4408 -0.0517
  766MPD2     C11359   3.410   2.780  15.359  0.6205 -0.0770 -0.0442
  766MPD2    C111360   3.542   2.761  15.382 -0.1360 -0.2115  0.4547
  766MPD2    C211361   3.615   2.684  15.293 -0.2968 -0.2859  1.1973
  766MPD2    C311362   3.552   2.648  15.176 -0.7321 -0.5988 -0.0150
  766MPD2    C411363   3.419   2.657  15.161  1.1203  0.3124 -0.4794
  766MPD2    C511364   3.347   2.725  15.253  0.2071 -0.5866  0.2872
  766MPD2     H11365   3.719   2.660  15.312 -0.2935  0.2358  1.8289
  766MPD2    H111366   3.363   2.623  15.075  3.2862  2.1677 -2.6168
  766MPD2    H211367   3.346   2.833  15.428  0.6318  1.6849 -1.3926
  766MPD2    H311368   3.238   2.726  15.249  0.3424  1.6465 -2.4673
  766MPD2     N11369   3.627   2.603  15.062  0.6037  0.6173  0.0322
  766MPD2    H511370   3.571   2.586  14.979 -0.8361 -0.7853  1.3022
  766MPD2    N111371   3.611   2.814  15.501  0.0939 -0.2884  0.0885
  766MPD2    H711372   3.711   2.800  15.501  0.3331  1.4500  0.0944
  767MPD2     C11373   3.175   2.952  14.954  0.3587 -0.6158 -0.0776
  767MPD2    C111374   3.309   2.928  14.913 -0.8708  0.5859 -0.1761
  767MPD2    C211375   3.339   2.865  14.799 -0.4824  0.0761 -0.0976
  767MPD2    C311376   3.236   2.807  14.728  0.4757 -0.8435  0.2322
  767MPD2    C411377   3.106   2.826  14.767  0.1504  0.3467 -0.2222
  767MPD2    C511378   3.073   2.903  14.876 -0.7100  0.8956 -0.0406
  767MPD2     H11379   3.441   2.848  14.765 -0.2759  0.8274  0.1423
  767MPD2    H111380   3.020   2.772  14.729  1.3789 -0.4427 -1.8555
  767MPD2    H211381   3.144   3.018  15.035 -0.7256  0.3141 -1.2564
  767MPD2    H311382   2.970   2.924  14.904 -0.7667  1.3870 -0.5993
  767MPD2     N11383   3.270   2.736  14.606  0.2648  0.2630 -0.4095
  767MPD2    H511384   3.369   2.723  14.592  0.5189  1.1738  0.5223
  767MPD2    N111385   3.413   2.986  14.991 -0.4449  0.2436  0.6081
  767MPD2    H711386   3.377   3.040  15.069  0.9099  0.3434  1.1680
  768MPD2     C11387   0.102   1.750  10.434  0.3448 -0.2029  0.7165
  768MPD2    C111388   0.055   1.645  10.508  0.0270 -0.1041 -0.2091
  768MPD2    C211389   0.088   1.643  10.639 -0.2484 -0.6647 -0.0571
  768MPD2    C311390   0.170   1.730  10.705 -0.2822 -0.3821 -0.0551
  768MPD2    C411391   0.226   1.827  10.625  0.3308  0.6352  0.1516
  768MPD2    C511392   0.190   1.839  10.490 -0.4415 -0.5153 -0.7823
  768MPD2     H11393   0.030   1.574  10.700 -0.6050  0.8151  1.2688
  768MPD2    H111394   0.300   1.900  10.655 -0.1747  1.7216 -1.2211
  768MPD2    H211395   0.055   1.773  10.339  0.1054 -0.0530  0.8696
  768MPD2    H311396   0.224   1.925  10.434 -0.4208  0.7524  1.1895
  768MPD2     N11397   0.210   1.724  10.842 -1.0084 -0.5682 -0.4285
  768MPD2    H511398   0.268   1.799  10.879 -3.3005  0.1721  1.6177
  768MPD2    N111399   4.681   1.557  10.472  0.0820  0.0120  0.8094
  768MPD2    H711400   4.645   1.501  10.548  0.8827  2.5125  3.0100
  769MPD2     C11401   0.771   3.490  15.182 -0.0138  0.9320  0.0408
  769MPD2    C111402   0.645   3.550  15.220 -0.2021 -0.0529 -0.2480
  769MPD2    C211403   0.644   3.639  15.327  0.1213  0.4722  0.3743
  769MPD2    C311404   0.760   3.665  15.394 -0.7526 -0.1970 -0.2728
  769MPD2    C411405   0.878   3.600  15.358 -0.1738  0.0949  0.8738
  769MPD2    C511406   0.887   3.514  15.254 -0.1138 -0.5044  0.0698
  769MPD2     H11407   0.551   3.671  15.374 -0.2345 -0.1373  0.0897
  769MPD2    H111408   0.970   3.631  15.406  0.6496 -1.6105  0.3978
  769MPD2    H211409   0.778   3.430  15.092  0.0535 -0.5591  1.0356
  769MPD2    H311410   0.983   3.485  15.214 -0.5100 -1.7251  0.0033
  769MPD2     N11411   0.758   3.769  15.494  0.1047 -0.4306  0.3537
  769MPD2    H511412   0.666   3.804  15.520  0.1355  0.5661 -0.8529
  769MPD2    N111413   0.528   3.510  15.152 -0.3010 -0.3305  0.3374
  769MPD2    H711414   0.539   3.432  15.088  1.9563  0.8717 -0.7344
  770MPD2     C11415   0.161   2.943  14.472 -0.2690 -0.6473  0.1506
  770MPD2    C111416   0.068   2.944  14.574 -0.0280 -0.0604 -0.0187
  770MPD2    C211417   0.064   3.059  14.649  0.1152  0.6002  0.3121
  770MPD2    C311418   0.162   3.154  14.630 -0.6127 -0.0643 -0.7290
  770MPD2    C411419   0.255   3.148  14.528 -0.5060 -0.4699  0.1818
  770MPD2    C511420   0.251   3.045  14.449  0.0111 -0.3890  0.1443
  770MPD2     H11421   4.718   3.073  14.720 -0.1818  3.2600 -0.5480
  770MPD2    H111422   0.331   3.223  14.509  1.1729 -2.1811  0.1566
  770MPD2    H211423   0.171   2.858  14.405 -0.1161  0.2962 -1.0331
  770MPD2    H311424   0.324   3.033  14.370  0.1461  0.4517  0.1457
  770MPD2     N11425   0.170   3.263  14.724  0.3754 -0.3105 -0.4064
  770MPD2    H511426   0.086   3.286  14.777  0.5054  2.8072 -1.5907
  770MPD2    N111427   4.728   2.828  14.606  0.1791 -0.3990  0.1259
  770MPD2    H711428   4.727   2.750  14.541  2.9555  0.8766 -1.4179
  771MPD2     C11429   1.259   2.063  13.841  0.7029 -0.4704  0.1239
  771MPD2    C111430   1.238   2.177  13.771 -0.2558  0.3652  0.3338
  771MPD2    C211431   1.186   2.172  13.647 -0.1992  0.1199  0.6838
  771MPD2    C311432   1.152   2.053  13.590 -0.1734  0.1919  0.7227
  771MPD2    C411433   1.164   1.937  13.665  0.3264 -0.7914  0.6364
  771MPD2    C511434   1.218   1.947  13.792 -0.5217  0.1610  0.5586
  771MPD2     H11435   1.192   2.259  13.582 -0.1906  0.2106  0.8064
  771MPD2    H111436   1.134   1.839  13.631 -1.1499 -0.6747  1.6052
  771MPD2    H211437   1.322   2.058  13.929  0.3734  0.8175  0.4325
  771MPD2    H311438   1.229   1.862  13.859 -1.8796  1.7119  2.7571
  771MPD2     N11439   1.093   2.058  13.461 -0.3041  0.1428  0.4263
  771MPD2    H511440   1.077   2.152  13.425  0.8767  0.3817  0.5356
  771MPD2    N111441   1.271   2.306  13.821  0.4059 -0.2537 -0.1275
  771MPD2    H711442   1.276   2.377  13.749  0.9995 -0.0400  0.1266
  772MPD2     C11443   0.893   2.786  13.678  0.2986 -0.3829 -0.0192
  772MPD2    C111444   0.898   2.722  13.803 -0.4318  0.0753  0.1784
  772MPD2    C211445   0.782   2.658  13.844  0.4366  0.6228 -0.0364
  772MPD2    C311446   0.669   2.659  13.761 -0.1595  0.4240  0.1966
  772MPD2    C411447   0.675   2.734  13.643 -0.0335  0.3341  0.4263
  772MPD2    C511448   0.780   2.798  13.601  0.1965  0.2348 -0.4044
  772MPD2     H11449   0.777   2.608  13.940  1.7402 -1.2143 -0.9307
  772MPD2    H111450   0.586   2.739  13.581  0.0151 -0.0744  0.3221
  772MPD2    H211451   0.979   2.835  13.633  0.1620  0.9386  1.1182
  772MPD2    H311452   0.785   2.856  13.509  1.3652 -1.3425 -1.3354
  772MPD2     N11453   0.555   2.585  13.790  0.2345  0.4899 -0.1370
  772MPD2    H511454   0.499   2.582  13.706  0.4336  1.0788 -0.2933
  772MPD2    N111455   1.018   2.694  13.867 -0.5473 -0.0257 -0.1401
  772MPD2    H711456   1.005   2.628  13.943 -1.9197  0.4725  0.0607
  773MPD2     C11457   0.007   3.700  17.649 -0.5149  0.4673  0.7989
  773MPD2    C111458   4.703   3.572  17.619 -0.4938  0.1014  0.2890
  773MPD2    C211459   0.016   3.463  17.688 -0.4770 -0.4141 -0.4268
  773MPD2    C311460   0.106   3.476   0.050  0.4137  0.7832 -0.1476
  773MPD2    C411461   0.143   3.608   0.079 -0.6471 -0.3901 -0.6237
  773MPD2    C511462   0.098   3.716   0.011  0.4088 -0.3986 -0.6199
  773MPD2     H11463   4.719   3.361  17.669 -2.9987  0.0459  1.2788
  773MPD2    H111464   0.215   3.627   0.157 -0.4218 -0.5454 -0.7904
  773MPD2    H211465   4.707   3.784  17.590  0.1696  0.7609  0.8151
  773MPD2    H311466   0.123   3.818   0.039 -0.2798  0.3186 -2.6187
  773MPD2     N11467   0.146   3.358   0.117  0.2261  0.3490  0.3067
  773MPD2    H511468   0.118   3.268   0.080  0.2762  0.5488 -0.2180
  773MPD2    N111469   4.614   3.550  17.510  0.1714 -0.0239 -0.3490
  773MPD2    H711470   4.575   3.457  17.505  3.6760 -1.5125  0.4702
  774MPD2     C11471   3.942   2.380  13.187  0.1856 -0.1326  0.4442
  774MPD2    C111472   3.922   2.428  13.315  0.6396 -0.9952 -0.5765
  774MPD2    C211473   3.947   2.564  13.349 -0.3494  0.2398 -0.2236
  774MPD2    C311474   4.005   2.645  13.253 -0.0680  0.3748 -0.2760
  774MPD2    C411475   4.018   2.598  13.122  0.6951  0.1150  1.6197
  774MPD2    C511476   3.982   2.468  13.092  0.0410 -0.3533 -0.7135
  774MPD2     H11477   3.931   2.599  13.450 -0.4396 -0.6465  0.0683
  774MPD2    H111478   4.054   2.656  13.038  0.4352 -5.1628 -2.1721
  774MPD2    H211479   3.919   2.277  13.163  2.4259 -0.3219 -0.9045
  774MPD2    H311480   4.004   2.433  12.992  2.0916  1.9683 -1.0846
  774MPD2     N11481   4.051   2.772  13.295 -0.3514 -0.0654  0.5410
  774MPD2    H511482   4.021   2.802  13.387 -1.3234 -1.4431  0.6770
  774MPD2    N111483   3.876   2.323  13.403 -0.3731 -0.0206 -0.5259
  774MPD2    H711484   3.881   2.227  13.370 -0.3694 -1.2121  3.0316
  775MPD2     C11485   1.058   3.792  15.874  0.7713  0.3354  0.8577
  775MPD2    C111486   1.034   3.906  15.938 -0.5198  1.1763 -0.7468
  775MPD2    C211487   1.077   4.029  15.890 -0.9536  0.7910  0.1146
  775MPD2    C311488   1.164   4.038  15.784 -0.2138  0.1418 -0.4753
  775MPD2    C411489   1.196   3.919  15.721  0.3324  0.2886  0.0324
  775MPD2    C511490   1.140   3.798  15.765 -0.1689  0.7683  0.1487
  775MPD2     H11491   1.044   4.119  15.940 -3.4158 -0.3273  0.4601
  775MPD2    H111492   1.254   3.908  15.630 -1.9285 -0.3495 -1.3303
  775MPD2    H211493   1.015   3.695  15.895 -1.0221  0.4172 -2.5794
  775MPD2    H311494   1.156   3.714  15.697 -1.0095  1.0624 -0.4197
  775MPD2     N11495   1.205   4.158  15.725  0.0047  0.2742  0.0728
  775MPD2    H511496   1.246   4.160  15.632 -0.0536 -0.8201  0.0245
  775MPD2    N111497   0.952   3.903  16.049  1.0649  0.2118  0.2529
  775MPD2    H711498   0.895   3.820  16.061 -1.0820  1.5433 -0.7354
  776MPD2     C11499   3.716   4.579  12.134  0.0140 -0.0775  0.0125
  776MPD2    C111500   3.728   4.516  12.015 -0.7773  0.6979 -0.0024
  776MPD2    C211501   3.744   4.587  11.891 -0.5723  0.5689  0.5123
  776MPD2    C311502   3.751   4.722  11.896 -0.2399 -0.0129 -0.3047
  776MPD2    C411503   3.722   0.051  12.015 -0.5915 -0.5574  0.2169
  776MPD2    C511504   3.706   4.714  12.131 -0.4254 -0.4301  0.1331
  776MPD2     H11505   3.759   4.542  11.793 -0.5262 -1.3445  1.3958
  776MPD2    H111506   3.715   0.157  12.036  1.3162 -0.4297  0.2006
  776MPD2    H211507   3.691   4.530  12.227 -0.5597 -2.9129 -1.6566
  776MPD2    H311508   3.670   0.024  12.223 -0.0820 -2.3532  1.1974
  776MPD2     N11509   3.775   0.067  11.783  0.3499 -0.6359  0.4132
  776MPD2    H511510   3.760   0.166  11.802 -1.8706 -1.1859  1.5404
  776MPD2    N111511   3.727   4.373  12.008 -0.2285  0.0132  0.3387
  776MPD2    H711512   3.756   4.325  12.092 -2.4219  1.0230  1.6655
  777MPD2     C11513   0.713   1.723   0.454  0.4817  0.3059  0.0038
  777MPD2    C111514   0.574   1.733   0.482  0.2006  0.2255  0.0036
  777MPD2    C211515   0.494   1.616   0.465  0.1119  0.0850 -0.9213
  777MPD2    C311516   0.553   1.503   0.417  0.4659 -0.5290  0.0208
  777MPD2    C411517   0.693   1.494   0.391 -0.6431 -0.8215 -0.1350
  777MPD2    C511518   0.766   1.610   0.402 -0.0251  0.4645  0.0541
  777MPD2     H11519   0.393   1.616   0.503  1.1168  0.2748  1.7522
  777MPD2    H111520   0.736   1.409   0.339 -0.2743 -0.7772  0.0973
  777MPD2    H211521   0.774   1.812   0.462 -1.4716  1.7106 -1.0500
  777MPD2    H311522   0.872   1.618   0.379 -0.1393 -0.3729 -0.7605
  777MPD2     N11523   0.461   1.404   0.391 -0.1467 -0.4070 -0.3482
  777MPD2    H511524   0.363   1.426   0.407  0.0284  1.5901 -1.9949
  777MPD2    N111525   0.519   1.851   0.528  0.0646  0.0940  0.1322
  777MPD2    H711526   0.578   1.923   0.569 -0.6894  0.0195  1.3514
  778MPD2     C11527   1.145   2.044  15.182  0.5640 -0.1272 -0.2277
  778MPD2    C111528   1.110   1.954  15.085 -0.0069  0.4578 -0.2919
  778MPD2    C211529   1.135   1.981  14.956  0.0151  0.9441  0.1310
  778MPD2    C311530   1.202   2.093  14.912 -0.0419  0.1512  0.2765
  778MPD2    C411531   1.236   2.184  15.013  0.1375 -0.8959  0.0974
  778MPD2    C511532   1.209   2.158  15.147  0.6301  0.1785  0.7559
  778MPD2     H11533   1.106   1.900  14.890 -1.0296  1.3272  0.1145
  778MPD2    H111534   1.294   2.274  14.999  1.7806 -1.7939  1.1151
  778MPD2    H211535   1.136   2.030  15.289  0.6437 -0.3652 -0.2516
  778MPD2    H311536   1.249   2.221  15.225 -0.9675  0.0755  1.6636
  778MPD2     N11537   1.228   2.103  14.771  0.6379  0.8176  0.2660
  778MPD2    H511538   1.198   2.027  14.711 -0.0827 -0.2963  2.0701
  778MPD2    N111539   1.028   1.846  15.119 -0.1747 -0.0573  0.5534
  778MPD2    H711540   1.013   1.782  15.041  0.8649  1.2479 -0.7281
  779MPD2     C11541   0.733   0.792  14.278 -0.4268  0.1542  0.0332
  779MPD2    C111542   0.871   0.786  14.244 -0.4372 -0.1221  0.1736
  779MPD2    C211543   0.944   0.909  14.256  0.1448  0.2878 -0.4955
  779MPD2    C311544   0.878   1.027  14.282  0.2075  0.4817  0.3890
  779MPD2    C411545   0.741   1.024  14.314  0.4169 -0.4506 -0.4295
  779MPD2    C511546   0.671   0.902  14.320  0.0597  0.1108 -0.5333
  779MPD2     H11547   1.051   0.919  14.238  0.2823  1.8060  1.1659
  779MPD2    H111548   0.687   1.116  14.332  2.3545  1.3823 -3.9934
  779MPD2    H211549   0.669   0.704  14.271 -1.1376  0.7283 -0.5697
  779MPD2    H311550   0.564   0.890  14.338  0.5742 -0.1148  2.3641
  779MPD2     N11551   0.949   1.145  14.268  0.1953  0.2670  0.0537
  779MPD2    H511552   1.048   1.125  14.277  0.3848  1.2461  0.1266
  779MPD2    N111553   0.938   0.672  14.186 -0.2602  0.0419 -0.0529
  779MPD2    H711554   1.033   0.701  14.166 -0.0948  0.3797  1.2214
  780MPD2     C11555   1.156   0.777   1.338 -0.3772  0.0178 -0.7208
  780MPD2    C111556   1.204   0.649   1.342  0.6010  0.3241 -0.2358
  780MPD2    C211557   1.304   0.609   1.252  0.5511 -0.2898  0.7247
  780MPD2    C311558   1.360   0.690   1.158  0.1303  0.8030  0.0834
  780MPD2    C411559   1.318   0.824   1.163 -0.2623 -0.2932 -0.2670
  780MPD2    C511560   1.213   0.862   1.250 -0.3822  0.2417  0.4526
  780MPD2     H11561   1.344   0.508   1.255  2.8012  0.6096  1.0292
  780MPD2    H111562   1.345   0.897   1.087 -0.3750 -0.8123 -0.8123
  780MPD2    H211563   1.079   0.811   1.405 -2.2327 -0.9152 -2.3868
  780MPD2    H311564   1.178   0.964   1.241  2.4573  1.0645 -0.8519
  780MPD2     N11565   1.453   0.640   1.060 -0.2000  0.1151  0.1559
  780MPD2    H511566   1.475   0.542   1.074 -0.9414  0.1494  1.6416
  780MPD2    N111567   1.151   0.558   1.440  0.5146 -0.0595 -0.2292
  780MPD2    H711568   1.079   0.599   1.499  1.4641  1.8613 -0.4090
  781MPD2     C11569   2.592   2.885  11.724  0.3637 -0.3058 -0.3542
  781MPD2    C111570   2.644   2.838  11.843 -0.0934 -0.7357  0.9887
  781MPD2    C211571   2.777   2.803  11.844  0.7085 -0.6135  0.6560
  781MPD2    C311572   2.854   2.793  11.730 -0.2729 -0.7553  0.3684
  781MPD2    C411573   2.795   2.841  11.613 -0.0004 -0.6597 -0.4553
  781MPD2    C511574   2.661   2.890  11.615  0.2353  0.2870  0.4158
  781MPD2     H11575   2.818   2.764  11.936 -1.9009  0.1264  2.1286
  781MPD2    H111576   2.852   2.840  11.521 -0.7606  0.3987 -0.9290
  781MPD2    H211577   2.486   2.897  11.704  0.2675  2.1320  1.6475
  781MPD2    H311578   2.614   2.922  11.522 -2.2240  0.4790  1.7154
  781MPD2     N11579   2.969   2.717  11.723  0.4046 -0.5687  0.5572
  781MPD2    H511580   3.008   2.701  11.631  1.7965  0.4028  0.9910
  781MPD2    N111581   2.564   2.827  11.955 -0.0556  1.0222  0.1811
  781MPD2    H711582   2.618   2.789  12.033  1.3963  1.8471 -0.4150
  782MPD2     C11583   4.420   4.069  10.155  0.1260  0.3098 -0.8290
  782MPD2    C111584   4.547   4.009  10.161 -0.4225 -0.1305  0.4281
  782MPD2    C211585   4.664   4.082  10.189  0.3188  0.3292  0.1779
  782MPD2    C311586   4.657   4.213  10.237 -0.1730  0.2000  0.0034
  782MPD2    C411587   4.531   4.273  10.246 -0.5047 -0.4766  0.3538
  782MPD2    C511588   4.425   4.207  10.191 -0.1177 -0.3995  0.2508
  782MPD2     H11589   0.027   4.036  10.183 -0.5026 -1.5617  1.4939
  782MPD2    H111590   4.519   4.375  10.278 -1.2193  0.8961 -4.1854
  782MPD2    H211591   4.330   4.022  10.117 -0.4431  1.3095 -0.7050
  782MPD2    H311592   4.336   4.268  10.185  1.5942  2.0409 -0.1373
  782MPD2     N11593   0.048   4.246  10.287  0.7459 -0.3108 -0.1995
  782MPD2    H511594   0.126   4.184  10.267  0.3742 -0.9392  0.3092
  782MPD2    N111595   4.549   3.872  10.118 -0.2562 -0.1882 -0.4599
  782MPD2    H711596   4.467   3.830  10.076  0.5035 -3.1560  0.9919
  783MPD2     C11597   3.949   3.341  10.495  0.4689  0.8839 -0.0385
  783MPD2    C111598   4.018   3.440  10.564 -0.5091  0.5886  0.9690
  783MPD2    C211599   4.142   3.474  10.524  0.3270  0.0403  0.5817
  783MPD2    C311600   4.198   3.420  10.409  0.3969 -0.6586 -0.3166
  783MPD2    C411601   4.131   3.319  10.346  0.4860  0.0267  0.5058
  783MPD2    C511602   4.009   3.279  10.392  0.7902 -0.9676 -0.2601
  783MPD2     H11603   4.198   3.554  10.571  1.1919 -0.6326  0.6898
  783MPD2    H111604   4.166   3.265  10.259 -0.5367 -0.9004  0.6689
  783MPD2    H211605   3.857   3.296  10.530 -1.1710  3.2418 -1.3857
  783MPD2    H311606   3.945   3.207  10.342 -0.5914 -0.1216  0.2910
  783MPD2     N11607   4.325   3.469  10.369 -0.1542 -0.5950  1.1281
  783MPD2    H511608   4.367   3.540  10.428  1.8547 -0.0666 -0.9443
  783MPD2    N111609   3.950   3.501  10.675 -0.2060  0.0662  0.4246
  783MPD2    H711610   3.857   3.465  10.690 -0.0618 -0.3162  0.3998
  784MPD2     C11611   2.531   3.920   1.030 -0.4279 -0.0248  0.8816
  784MPD2    C111612   2.504   4.041   1.088 -0.1183 -0.0888 -0.0655
  784MPD2    C211613   2.383   4.098   1.079  0.0030  0.1050  0.0133
  784MPD2    C311614   2.282   4.045   1.006  0.0766  0.4556 -0.1134
  784MPD2    C411615   2.302   3.919   0.951  0.2706 -0.5433 -0.1598
  784MPD2    C511616   2.431   3.861   0.955 -0.4745  0.0152  0.3133
  784MPD2     H11617   2.362   4.194   1.125  1.4450 -0.4448  1.8453
  784MPD2    H111618   2.232   3.859   0.895 -1.0836  0.6033  0.3235
  784MPD2    H211619   2.627   3.871   1.026 -0.0441  0.8126 -0.1166
  784MPD2    H311620   2.446   3.766   0.907 -0.3256  0.0713  0.2476
  784MPD2     N11621   2.164   4.119   0.979  0.2685 -0.3064  0.0416
  784MPD2    H511622   2.172   4.211   1.022 -3.5521  0.0376 -0.0243
  784MPD2    N111623   2.608   4.111   1.154 -0.0522  0.4459 -0.2520
  784MPD2    H711624   2.587   4.204   1.189 -0.7395 -0.7944  2.6634
  785MPD2     C11625   2.911   2.211  10.548 -0.8785  0.5274  0.1491
  785MPD2    C111626   2.802   2.160  10.485  0.0468  0.3844  0.2171
  785MPD2    C211627   2.793   2.022  10.467  0.0965 -0.1744 -0.9314
  785MPD2    C311628   2.907   1.944  10.494 -0.1902  0.2376  0.2853
  785MPD2    C411629   3.017   1.994  10.558  0.4231 -0.0086 -0.1385
  785MPD2    C511630   3.003   2.125  10.583  0.7199 -0.0489 -0.1074
  785MPD2     H11631   2.705   1.975  10.425 -1.8174  2.6264 -0.0921
  785MPD2    H111632   3.107   1.942  10.589 -0.0570 -0.9244 -0.2762
  785MPD2    H211633   2.929   2.315  10.571  2.1909  0.4268 -1.8201
  785MPD2    H311634   3.091   2.164  10.634  1.5150  0.6666 -2.0439
  785MPD2     N11635   2.892   1.805  10.471 -0.2380 -0.7991  0.4140
  785MPD2    H511636   2.807   1.775  10.426  0.0770 -1.4870  0.2655
  785MPD2    N111637   2.710   2.254  10.436 -0.2091 -0.2930  0.4705
  785MPD2    H711638   2.729   2.351  10.458  1.7537 -0.5724  0.0021
  786MPD2     C11639   1.402   0.153  14.870 -0.4108 -0.5820 -0.2075
  786MPD2    C111640   1.526   0.136  14.823  0.1490 -0.2639 -0.3399
  786MPD2    C211641   1.633   0.171  14.899 -0.2460  0.4165  0.1889
  786MPD2    C311642   1.615   0.245  15.015  0.3892  0.4844 -0.1328
  786MPD2    C411643   1.489   0.273  15.054 -0.1419 -0.0060  0.6375
  786MPD2    C511644   1.385   0.226  14.987  0.6604 -1.2434  0.4656
  786MPD2     H11645   1.733   0.152  14.863 -0.9961  0.2034 -1.8050
  786MPD2    H111646   1.475   0.335  15.142  1.4863  0.3041  0.6819
  786MPD2    H211647   1.321   0.106  14.815 -0.8049  1.1783 -1.1402
  786MPD2    H311648   1.286   0.250  15.024  1.6946  0.5493  2.1262
  786MPD2     N11649   1.719   0.299  15.098  0.4068 -0.4303  0.1581
  786MPD2    H511650   1.690   0.366  15.169  1.4410 -1.5381  1.6221
  786MPD2    N111651   1.558   0.079  14.696 -0.3641 -0.0201  0.8543
  786MPD2    H711652   1.658   0.068  14.686 -0.4044 -0.6049  1.0968
  787MPD2     C11653   1.959   4.294  14.659 -0.3807 -0.4969  0.8989
  787MPD2    C111654   1.905   4.315  14.535  0.5411 -0.7894  1.1612
  787MPD2    C211655   1.957   4.233  14.435  0.0540 -0.5357  0.9633
  787MPD2    C311656   2.052   4.138  14.456  0.5563 -0.2464  0.8311
  787MPD2    C411657   2.104   4.121  14.581 -0.6929  0.0747 -0.1152
  787MPD2    C511658   2.055   4.195  14.683 -0.3069 -0.8440 -0.2689
  787MPD2     H11659   1.927   4.251  14.332 -0.9503 -1.8085  1.0468
  787MPD2    H111660   2.186   4.052  14.594 -0.1996  1.2060  2.7787
  787MPD2    H211661   1.939   4.356  14.745  0.2670 -4.1159  3.6425
  787MPD2    H311662   2.090   4.175  14.784  1.0197 -0.8617 -0.7396
  787MPD2     N11663   2.091   4.061  14.346 -0.0516  0.6437  0.2849
  787MPD2    H511664   2.039   4.080  14.261 -1.4115  0.4175  1.0759
  787MPD2    N111665   1.790   4.401  14.524 -0.3366  0.0529 -0.4311
  787MPD2    H711666   1.760   4.451  14.607 -0.5528 -0.5602 -0.1449
  788MPD2     C11667   3.342   3.447   1.682 -0.8280  0.1553  0.3368
  788MPD2    C111668   3.431   3.484   1.578 -0.2544  0.4761  0.0483
  788MPD2    C211669   3.396   3.595   1.501  0.1782  0.4720  0.0386
  788MPD2    C311670   3.281   3.658   1.519  0.6048  0.2525  0.8769
  788MPD2    C411671   3.190   3.618   1.612 -0.0953 -0.9422 -0.2261
  788MPD2    C511672   3.223   3.514   1.696 -0.0771  0.1892  0.5299
  788MPD2     H11673   3.467   3.627   1.425  0.2185  1.0725  0.3345
  788MPD2    H111674   3.095   3.666   1.631  0.1891 -0.4706 -0.0139
  788MPD2    H211675   3.366   3.358   1.739 -2.9424  0.1354  1.1669
  788MPD2    H311676   3.150   3.491   1.773 -0.6906  0.6935  0.0958
  788MPD2     N11677   3.248   3.768   1.434 -0.5359  0.0220 -0.0627
  788MPD2    H511678   3.150   3.795   1.430 -0.9170 -1.0125  2.5291
  788MPD2    N111679   3.545   3.412   1.546 -0.0100  0.0009 -0.5162
  788MPD2    H711680   3.609   3.451   1.478  1.1152 -0.1092  0.4674
  789MPD2     C11681   3.831   3.244  16.657 -0.7563 -0.5631  0.1964
  789MPD2    C111682   3.790   3.285  16.536 -0.0165 -0.3687 -0.0522
  789MPD2    C211683   3.714   3.401  16.532 -0.2526 -0.2743  0.0531
  789MPD2    C311684   3.673   3.464  16.648 -0.0168  0.2988 -0.7179
  789MPD2    C411685   3.722   3.423  16.770  0.0211  0.3172 -0.3099
  789MPD2    C511686   3.798   3.309  16.775  0.8290  1.0943  0.3760
  789MPD2     H11687   3.676   3.440  16.438 -0.2415 -1.1216 -0.2969
  789MPD2    H111688   3.688   3.472  16.861  2.1614  2.3169 -0.6017
  789MPD2    H211689   3.888   3.153  16.676 -0.0511 -0.4804 -1.4794
  789MPD2    H311690   3.835   3.268  16.868  0.7333  2.0483  0.8302
  789MPD2     N11691   3.579   3.569  16.664  0.6202  0.5502 -0.0798
  789MPD2    H511692   3.558   3.605  16.757 -0.5165 -1.6812  0.5275
  789MPD2    N111693   3.805   3.209  16.419  0.4631  0.0021  0.2294
  789MPD2    H711694   3.767   3.256  16.337 -0.1737  0.2564  0.6742
  790MPD2     C11695   0.131   0.012  13.454  0.1046 -0.0365  0.0266
  790MPD2    C111696   0.085   4.618  13.459  0.0624  0.2649  0.0201
  790MPD2    C211697   4.732   4.579  13.364  0.2126  0.0246 -0.0640
  790MPD2    C311698   4.687   4.670  13.270  0.5069  1.1783 -0.7169
  790MPD2    C411699   4.709   0.067  13.279  0.1878 -0.2730 -0.4689
  790MPD2    C511700   0.075   0.105  13.371  0.7466  0.4870 -0.4467
  790MPD2     H11701   4.687   4.481  13.360 -1.7069  0.8588  1.4878
  790MPD2    H111702   4.666   0.145  13.216  0.1511  0.8096  0.8868
  790MPD2    H211703   0.206   0.039  13.528 -0.7147  1.3794  0.3574
  790MPD2    H311704   0.111   0.207  13.377  0.2294  0.6778 -0.6076
  790MPD2     N11705   4.593   4.616  13.170  0.1005 -0.7655 -0.0351
  790MPD2    H511706   4.574   4.517  13.181  1.4820 -0.9584  0.5037
  790MPD2    N111707   0.130   4.518  13.551  0.9244 -0.4196  0.1597
  790MPD2    H711708   0.090   4.426  13.538  1.1741 -0.7579  1.6985
  791MPD2     C11709   3.902   4.569  13.030 -0.1378 -0.2881 -0.0933
  791MPD2    C111710   3.980   4.459  12.982 -0.5235  0.7124 -0.2045
  791MPD2    C211711   3.912   4.359  12.919 -0.0670 -0.3534  0.0388
  791MPD2    C311712   3.777   4.353  12.926 -0.6202  0.4508 -0.3673
  791MPD2    C411713   3.705   4.452  12.989  0.3162 -0.4618  0.2680
  791MPD2    C511714   3.767   4.562  13.029 -0.8983 -0.3784 -0.1865
  791MPD2     H11715   3.959   4.268  12.883 -1.7371 -0.8753 -0.8269
  791MPD2    H111716   3.598   4.444  13.008 -0.2690  3.3941 -1.4580
  791MPD2    H211717   3.954   4.646  13.086  0.0318  0.4464 -1.2599
  791MPD2    H311718   3.713   4.638  13.085  0.6073 -0.3206  1.1646
  791MPD2     N11719   3.713   4.238  12.875  0.2346  0.4149  0.2102
  791MPD2    H511720   3.779   4.180  12.823 -0.7996  0.1015 -0.7422
  791MPD2    N111721   4.117   4.464  12.998 -0.0946 -0.9661 -0.3358
  791MPD2    H711722   4.164   4.542  13.042  0.4826  0.2648 -3.1496
  792MPD2     C11723   0.292   4.606  11.157  0.1537  0.3603 -0.7850
  792MPD2    C111724   0.266   4.724  11.089 -0.0206  0.2354  0.4471
  792MPD2    C211725   0.138   0.045  11.097  0.4299  0.2515  0.9566
  792MPD2    C311726   0.033   4.708  11.155  0.4084 -0.2610  0.4712
  792MPD2    C411727   0.060   4.590  11.219 -0.2718  0.0598 -0.1559
  792MPD2    C511728   0.184   4.541  11.221  0.6452  0.0610  0.7930
  792MPD2     H11729   0.126   0.145  11.059  1.6656  0.3926  0.9416
  792MPD2    H111730   4.713   4.527  11.253 -0.1776 -0.1334 -0.2887
  792MPD2    H211731   0.393   4.567  11.158  0.5682  1.4307 -1.2172
  792MPD2    H311732   0.203   4.451  11.278  0.5488 -0.5190 -0.0897
  792MPD2     N11733   4.632   0.024  11.154 -0.3228 -0.8579 -0.8075
  792MPD2    H511734   4.563   4.698  11.198 -0.5764 -0.1384 -0.1942
  792MPD2    N111735   0.375   0.042  11.018 -0.0027  0.1360  0.1942
  792MPD2    H711736   0.468   0.007  11.036 -0.6046 -2.0734 -1.0746
  793MPD2     C11737   4.118   0.070  10.406 -0.0869  1.0964  0.3222
  793MPD2    C111738   4.253   0.079  10.433  0.0710 -0.2058  0.3900
  793MPD2    C211739   4.293   0.105  10.559 -0.2308  0.1839  0.5885
  793MPD2    C311740   4.197   0.137  10.658  1.0669 -0.3235 -0.6169
  793MPD2    C411741   4.059   0.138  10.628 -0.2260 -0.4435  0.1146
  793MPD2    C511742   4.026   0.106  10.499  0.2996 -0.5644 -0.4834
  793MPD2     H11743   4.398   0.105  10.585 -0.2531  1.1229  0.6777
  793MPD2    H111744   3.973   0.136  10.693  0.5374 -1.5285  1.0885
  793MPD2    H211745   4.086   0.026  10.313  0.0343  0.5056  0.5616
  793MPD2    H311746   3.926   0.076  10.472  0.2344 -0.4623 -0.3544
  793MPD2     N11747   4.244   0.140  10.790 -0.1120 -0.7241 -0.0217
  793MPD2    H511748   4.342   0.120  10.810  0.3809  2.1159  0.3519
  793MPD2    N111749   4.356   0.039  10.350 -0.2764 -0.3181 -0.1182
  793MPD2    H711750   4.451   0.051  10.383 -0.7039 -0.4154  1.1658
  794MPD2     C11751   4.496   3.536  16.633  1.0564  0.3901 -0.4136
  794MPD2    C111752   4.416   3.607  16.721  0.6723 -1.0232  0.6507
  794MPD2    C211753   4.333   3.701  16.669  0.3247  0.1944  0.3926
  794MPD2    C311754   4.331   3.735  16.529  0.0250 -0.3599  0.3991
  794MPD2    C411755   4.400   3.655  16.445 -0.2536  0.3351 -0.1320
  794MPD2    C511756   4.483   3.563  16.497 -0.1711  1.6824 -0.4311
  794MPD2     H11757   4.275   3.758  16.741  3.1539  0.8430  2.1301
  794MPD2    H111758   4.398   3.659  16.337 -0.8374 -1.1061 -0.1788
  794MPD2    H211759   4.550   3.451  16.672  1.0855  0.2148 -0.8330
  794MPD2    H311760   4.549   3.503  16.435 -0.0706  1.2759  0.0710
  794MPD2     N11761   4.259   3.841  16.474 -0.2513  0.1521 -0.3971
  794MPD2    H511762   4.267   3.848  16.373 -1.4968  0.8027 -0.4471
  794MPD2    N111763   4.420   3.567  16.856 -0.0915  0.4665 -0.5467
  794MPD2    H711764   4.458   3.477  16.881 -0.5347  0.5995  0.6450
  795MPD2     C11765   2.280   1.067  13.325 -0.4755 -0.2479 -0.3397
  795MPD2    C111766   2.208   0.989  13.416 -0.4612  0.4048 -0.2248
  795MPD2    C211767   2.270   0.891  13.486  0.5031 -0.0819  0.1005
  795MPD2    C311768   2.408   0.878  13.479  0.1438  0.5032 -0.1430
  795MPD2    C411769   2.480   0.965  13.399  0.0513 -0.3648 -0.5426
  795MPD2    C511770   2.416   1.058  13.315  0.3284  0.1800  0.7725
  795MPD2     H11771   2.216   0.820  13.548  1.8345 -1.5071 -0.3498
  795MPD2    H111772   2.588   0.955  13.389  0.2964  1.8579 -0.0778
  795MPD2    H211773   2.229   1.132  13.255  2.5954  1.0144 -1.3585
  795MPD2    H311774   2.463   1.101  13.228 -0.1848 -2.3727 -0.7733
  795MPD2     N11775   2.485   0.792  13.560  0.3923 -0.3959  0.4266
  795MPD2    H511776   2.584   0.814  13.571  0.0193  2.2030 -1.3119
  795MPD2    N111777   2.071   1.013  13.443  0.6023 -0.3576  0.2066
  795MPD2    H711778   2.021   0.950  13.504 -0.6849  2.4760  2.0989
  796MPD2     C11779   1.756   2.623  15.431 -0.4749  0.2888  0.0697
  796MPD2    C111780   1.846   2.682  15.521  0.1431  0.2546  0.2474
  796MPD2    C211781   1.838   2.811  15.547  0.1244  0.5098 -0.7068
  796MPD2    C311782   1.743   2.885  15.476 -0.3670 -0.3312 -0.2301
  796MPD2    C411783   1.664   2.827  15.373 -0.2893 -0.0663 -0.1167
  796MPD2    C511784   1.665   2.696  15.352 -0.1651  0.1302 -0.6375
  796MPD2     H11785   1.895   2.859  15.626 -0.0322  2.1627 -1.6016
  796MPD2    H111786   1.584   2.884  15.328  0.3145  1.4984  0.7821
  796MPD2    H211787   1.765   2.519  15.404 -0.7264  0.2923 -0.0301
  796MPD2    H311788   1.613   2.652  15.268 -0.9781 -2.5780  1.2794
  796MPD2     N11789   1.728   3.024  15.511  0.2792  0.1224 -0.2496
  796MPD2    H511790   1.775   3.052  15.596 -2.0941  0.1750  1.0579
  796MPD2    N111791   1.949   2.600  15.575 -0.0456  0.2572  0.1267
  796MPD2    H711792   1.925   2.501  15.582  1.0606 -0.0815 -0.8735
  797MPD2     C11793   2.782   2.645  16.941  0.3904 -0.5451  0.1670
  797MPD2    C111794   2.780   2.779  16.941 -0.6653  0.8991 -0.1743
  797MPD2    C211795   2.691   2.849  16.860 -0.6392 -0.5693  0.3955
  797MPD2    C311796   2.603   2.780  16.775  0.8840 -0.0401 -0.2114
  797MPD2    C411797   2.606   2.646  16.778  0.0635  0.1857 -0.3534
  797MPD2    C511798   2.689   2.580  16.870 -0.0832  0.2913  0.4662
  797MPD2     H11799   2.702   2.955  16.877  1.3942 -0.5134 -1.2715
  797MPD2    H111800   2.550   2.586  16.708  0.3505  1.0673 -1.3487
  797MPD2    H211801   2.850   2.588  17.003  1.5150  1.0994  0.4291
  797MPD2    H311802   2.692   2.472  16.856 -1.1858  0.5747 -1.8458
  797MPD2     N11803   2.522   2.846  16.678  0.1973  0.2864  0.3678
  797MPD2    H511804   2.476   2.787  16.611  1.8382  0.3025 -0.7616
  797MPD2    N111805   2.862   2.863  17.025  0.2320 -0.7389  0.1386
  797MPD2    H711806   2.871   2.960  16.997  1.0055 -1.0646 -0.7533
  798MPD2     C11807   2.656   3.522  16.841  0.4958 -0.4612 -0.4277
  798MPD2    C111808   2.626   3.391  16.837 -0.1732  0.3638 -0.3728
  798MPD2    C211809   2.686   3.310  16.936 -0.2730 -0.6699  0.3802
  798MPD2    C311810   2.761   3.361  17.036  0.5152  0.8324  0.3995
  798MPD2    C411811   2.797   3.492  17.027 -0.3036 -0.1428 -0.2211
  798MPD2    C511812   2.738   3.575  16.938 -0.2343  0.2998  0.4633
  798MPD2     H11813   2.665   3.204  16.950 -3.7239  0.2276  2.2026
  798MPD2    H111814   2.881   3.533  17.083  0.7218 -3.9129  1.0106
  798MPD2    H211815   2.606   3.592  16.776  2.9913  1.8428  0.1415
  798MPD2    H311816   2.763   3.680  16.931 -0.4255  0.1410 -2.8251
  798MPD2     N11817   2.814   3.265  17.137 -0.1898 -0.3250 -0.1627
  798MPD2    H511818   2.770   3.174  17.139 -1.9476  0.5622  1.1613
  798MPD2    N111819   2.536   3.328  16.744 -0.7986  0.4705 -0.2394
  798MPD2    H711820   2.527   3.228  16.760  0.3512  0.2538 -0.9469
  799MPD2     C11821   1.690   3.953  14.785 -0.2774 -0.7025 -0.2020
  799MPD2    C111822   1.609   3.873  14.705  0.8570  0.4870 -0.1485
  799MPD2    C211823   1.540   3.932  14.602 -0.2603 -0.3832 -0.0055
  799MPD2    C311824   1.542   4.065  14.577 -0.0121  0.8969  0.4418
  799MPD2    C411825   1.619   4.141  14.656 -0.0742  0.6698  0.2651
  799MPD2    C511826   1.700   4.088  14.759 -0.4290  0.1309 -0.5289
  799MPD2     H11827   1.479   3.865  14.542  0.4302 -0.7296 -0.3206
  799MPD2    H111828   1.628   4.248  14.638 -0.7866  0.7143  0.2030
  799MPD2    H211829   1.737   3.907  14.872  4.1175 -0.4546 -2.4400
  799MPD2    H311830   1.774   4.153  14.803 -0.6525  0.1862 -0.2415
  799MPD2     N11831   1.472   4.120  14.465  0.1409  0.1466  0.2056
  799MPD2    H511832   1.472   4.222  14.461  1.6053  0.0940 -1.0195
  799MPD2    N111833   1.596   3.732  14.729 -0.5460  0.3956  0.2710
  799MPD2    H711834   1.525   3.687  14.672 -1.2482  3.1363 -1.0167
  800MPD2     C11835   2.177   4.688  13.912 -0.0408 -0.6246  0.6129
  800MPD2    C111836   2.312   4.690  13.894 -0.5247  0.1631 -0.7688
  800MPD2    C211837   2.374   4.621  13.789 -0.7141  0.0690  0.0271
  800MPD2    C311838   2.294   4.548  13.705  0.0928  0.0528  0.4204
  800MPD2    C411839   2.155   4.541  13.726  0.6456 -0.3274 -0.2868
  800MPD2    C511840   2.107   4.601  13.837  0.2985 -0.0113 -0.0306
  800MPD2     H11841   2.478   4.623  13.761 -0.1812  0.3010  2.0248
  800MPD2    H111842   2.080   4.495  13.663 -1.0266  0.9609  0.8019
  800MPD2    H211843   2.130   0.019  13.983  0.2179  1.1912 -0.8927
  800MPD2    H311844   2.000   4.600  13.848  0.3758 -1.1438  0.5828
  800MPD2     N11845   2.365   4.482  13.598 -0.2566 -0.1619 -0.3070
  800MPD2    H511846   2.464   4.497  13.588 -0.4282  1.0839 -0.1822
  800MPD2    N111847   2.389   0.043  13.971  0.0175  1.0727  0.0349
  800MPD2    H711848   2.333   0.104  14.029 -1.4767 -0.4488  0.2071
  801MPD2     C11849   2.392   0.729  14.102  0.0027  0.7300  0.1556
  801MPD2    C111850   2.398   0.631  14.196  0.3886  0.4831 -0.1633
  801MPD2    C211851   2.317   0.649  14.310  0.5311 -0.3108 -0.0176
  801MPD2    C311852   2.246   0.763  14.340 -0.1639  0.5848 -0.0015
  801MPD2    C411853   2.247   0.864  14.245 -0.2565  0.1353 -0.3668
  801MPD2    C511854   2.316   0.840  14.128  0.0361  0.2794  0.6447
  801MPD2     H11855   2.314   0.566  14.380  3.2418 -2.0922 -2.0385
  801MPD2    H111856   2.180   0.950  14.249  0.8817  0.9891  0.4070
  801MPD2    H211857   2.438   0.709  14.006  1.1304 -0.0093  0.8586
  801MPD2    H311858   2.300   0.909  14.046 -1.3445 -1.0411 -0.1908
  801MPD2     N11859   2.167   0.784  14.455 -0.8763  0.3244 -0.3940
  801MPD2    H511860   2.104   0.863  14.462 -0.5517  0.6095 -0.6648
  801MPD2    N111861   2.463   0.513  14.160  0.0250  0.0616  0.3840
  801MPD2    H711862   2.435   0.424  14.202  0.8234  0.5157  1.8889
  802MPD2     C11863   1.498   1.548  17.562 -0.1424 -0.5697  0.4586
  802MPD2    C111864   1.617   1.521  17.626 -0.3661 -0.1344 -0.6516
  802MPD2    C211865   1.722   1.484  17.545  0.2655 -0.2389  0.2847
  802MPD2    C311866   1.709   1.450  17.410 -0.2397  0.5561  0.0813
  802MPD2    C411867   1.584   1.461  17.357  0.8678 -0.1976  0.1098
  802MPD2    C511868   1.483   1.519  17.428 -0.0332  0.8998  0.7485
  802MPD2     H11869   1.822   1.481  17.586  0.0859  2.3285  0.9089
  802MPD2    H111870   1.551   1.445  17.255 -2.1097  0.1206  1.0321
  802MPD2    H211871   1.412   1.576  17.621 -0.8903 -0.7728 -0.5482
  802MPD2    H311872   1.387   1.530  17.379 -0.6380 -0.5224  1.6091
  802MPD2     N11873   1.820   1.389  17.343 -0.2855 -0.2112 -0.2097
  802MPD2    H511874   1.915   1.403  17.375 -0.0318 -1.1744 -0.5339
  802MPD2    N111875   1.635   1.531   0.031 -0.0820 -0.3440  0.2627
  802MPD2    H711876   1.727   1.502   0.063 -0.4707 -1.0198  0.7818
  803MPD2     C11877   2.488   4.069  11.500  0.2959  0.0591 -0.9085
  803MPD2    C111878   2.548   4.179  11.553  0.6578 -0.5528  0.5709
  803MPD2    C211879   2.593   4.180  11.687 -0.1666  0.0724 -0.7788
  803MPD2    C311880   2.555   4.076  11.770 -0.1668 -0.2652  0.2915
  803MPD2    C411881   2.496   3.963  11.715  0.7210 -0.1527  0.3411
  803MPD2    C511882   2.481   3.953  11.579  0.3046  0.0083  0.4207
  803MPD2     H11883   2.647   4.265  11.727 -0.9260 -0.6776  1.8952
  803MPD2    H111884   2.481   3.874  11.774 -0.2258 -0.6438 -0.6425
  803MPD2    H211885   2.446   4.067  11.400 -2.4465 -2.7390  0.2711
  803MPD2    H311886   2.432   3.865  11.540  0.0583 -0.2771  1.3692
  803MPD2     N11887   2.561   4.076  11.910  0.3763 -0.7948 -0.9141
  803MPD2    H511888   2.537   3.985  11.949 -1.0977 -0.2732 -0.5942
  803MPD2    N111889   2.578   4.293  11.484  0.6230  0.1763  0.7604
  803MPD2    H711890   2.639   4.363  11.526 -2.0385  2.5955  0.6179
  804MPD2     C11891   2.441   1.105  16.835  0.1025 -0.6283 -0.0316
  804MPD2    C111892   2.418   1.148  16.968 -0.0463  0.1487 -0.2215
  804MPD2    C211893   2.454   1.283  16.992 -0.4377 -0.4618  0.4016
  804MPD2    C311894   2.532   1.361  16.910  0.2504  0.2398 -0.5696
  804MPD2    C411895   2.556   1.312  16.781 -0.3545 -0.1231  0.0170
  804MPD2    C511896   2.509   1.191  16.746 -0.2056  0.1319  0.4947
  804MPD2     H11897   2.424   1.322  17.088 -0.3405  0.3190  0.1111
  804MPD2    H111898   2.614   1.358  16.702 -3.2284  1.2245 -1.2801
  804MPD2    H211899   2.421   1.001  16.811  2.1074 -1.3652  1.4700
  804MPD2    H311900   2.524   1.143  16.649  1.6969  0.7667  0.4747
  804MPD2     N11901   2.580   1.479  16.969  0.0151  0.1483 -0.0088
  804MPD2    H511902   2.542   1.495  17.062  1.2963 -0.6211  0.6401
  804MPD2    N111903   2.355   1.076  17.066  0.0044  0.4680  0.6036
  804MPD2    H711904   2.339   1.129  17.151 -3.1500 -0.3659  0.5201
  805MPD2     C11905   1.249   3.828  15.349 -0.1435  0.3674 -0.7450
  805MPD2    C111906   1.261   3.967  15.350 -0.6477 -0.3804 -0.3586
  805MPD2    C211907   1.369   4.033  15.409 -0.2969  0.4962  0.2311
  805MPD2    C311908   1.465   3.960  15.471  0.5689  0.1764  0.3178
  805MPD2    C411909   1.447   3.817  15.482 -0.1492 -0.2607  0.1354
  805MPD2    C511910   1.343   3.756  15.419  0.5109  0.1500  0.0925
  805MPD2     H11911   1.364   4.142  15.402 -1.7151  0.3975 -0.2644
  805MPD2    H111912   1.533   3.760  15.516 -0.5669  0.2178  2.0114
  805MPD2    H211913   1.173   3.780  15.289  0.4981 -1.2776 -0.2674
  805MPD2    H311914   1.343   3.647  15.417  2.4185  0.1639 -1.0727
  805MPD2     N11915   1.590   4.029  15.503  0.1231  0.6587 -0.4118
  805MPD2    H511916   1.584   4.119  15.457  1.7023  1.6752  1.3546
  805MPD2    N111917   1.151   4.029  15.278  0.4323  0.2705  1.0760
  805MPD2    H711918   1.097   3.960  15.226 -0.6956  2.1642 -0.2618
  806MPD2     C11919   1.926   3.254   0.532  0.6274  0.2367 -0.1860
  806MPD2    C111920   1.962   3.377   0.586  0.2635  0.0107 -0.6085
  806MPD2    C211921   2.051   3.455   0.507  1.0166  0.5057 -0.2761
  806MPD2    C311922   2.125   3.403   0.395 -0.2047 -0.4193  0.0645
  806MPD2    C411923   2.097   3.276   0.356 -0.5020  0.3006  0.2950
  806MPD2    C511924   1.992   3.212   0.419 -0.0972 -0.4143 -0.5015
  806MPD2     H11925   2.090   3.547   0.549  0.6328  0.0222  1.1268
  806MPD2    H111926   2.153   3.224   0.279  0.6586 -0.6400  1.7726
  806MPD2    H211927   1.850   3.184   0.566 -0.9096  1.6886 -0.5944
  806MPD2    H311928   1.966   3.112   0.388 -1.2404  0.4675 -2.3745
  806MPD2     N11929   2.219   3.493   0.341  0.1669  0.2792  0.4697
  806MPD2    H511930   2.229   3.584   0.384  1.8802 -0.0127  0.6933
  806MPD2    N111931   1.909   3.415   0.711  0.6495 -0.0038  0.2954
  806MPD2    H711932   1.863   3.336   0.754 -0.2264  1.5334  2.1561
  807MPD2     C11933   1.428   3.320   1.289 -0.7320  0.5166 -0.1088
  807MPD2    C111934   1.544   3.344   1.353 -0.6657  0.3840 -0.2369
  807MPD2    C211935   1.545   3.335   1.489 -0.2828 -0.2205  0.2433
  807MPD2    C311936   1.438   3.280   1.556  0.3946  0.7866  0.5133
  807MPD2    C411937   1.318   3.249   1.489  0.3039 -0.0205 -0.5365
  807MPD2    C511938   1.315   3.288   1.362 -0.2292 -0.2876 -0.6813
  807MPD2     H11939   1.636   3.351   1.546 -0.4373  1.2960  0.0622
  807MPD2    H111940   1.222   3.221   1.531 -0.2423  2.6256  0.0162
  807MPD2    H211941   1.405   3.327   1.183  1.1320 -0.6659 -0.5820
  807MPD2    H311942   1.217   3.280   1.317 -0.4378 -0.1132 -0.2608
  807MPD2     N11943   1.451   3.253   1.697  0.6455  0.2155  0.3466
  807MPD2    H511944   1.529   3.293   1.748 -1.2793  3.3153  0.8431
  807MPD2    N111945   1.660   3.388   1.288 -0.6100  0.5970  0.2925
  807MPD2    H711946   1.738   3.415   1.346 -0.4176 -1.2742  0.9054
  808MPD2     C11947   2.351   0.629  10.081 -0.1411 -1.0721 -0.1557
  808MPD2    C111948   2.419   0.537   9.994  0.2202 -0.0313  0.2973
  808MPD2    C211949   2.554   0.550   9.994 -0.8557 -0.1136  0.4342
  808MPD2    C311950   2.624   0.629  10.083  0.0755  0.8714  0.8227
  808MPD2    C411951   2.556   0.709  10.171 -0.1324  0.4651  0.4930
  808MPD2    C511952   2.419   0.708  10.169  0.0037 -0.4307  0.0024
  808MPD2     H11953   2.610   0.485   9.927  0.0496  0.8866  0.2161
  808MPD2    H111954   2.610   0.767  10.245 -0.1985  1.7679 -0.4888
  808MPD2    H211955   2.243   0.635  10.093  0.0644  1.2511  0.4674
  808MPD2    H311956   2.369   0.777  10.236  1.4468  2.5302 -1.9914
  808MPD2     N11957   2.764   0.639  10.083  0.2443  0.4737 -0.5058
  808MPD2    H511958   2.812   0.706  10.142  1.3888 -1.0016  0.2435
  808MPD2    N111959   2.353   0.456   9.899  0.1465 -0.5609 -0.3975
  808MPD2    H711960   2.410   0.382   9.859 -0.5471 -1.6644  0.6525
  809MPD2     C11961   3.197   0.307   9.252 -0.7433 -0.0469  0.9874
  809MPD2    C111962   3.291   0.376   9.330  0.3654 -0.0134  0.4805
  809MPD2    C211963   3.254   0.448   9.436  0.6771 -0.0044 -0.5028
  809MPD2    C311964   3.122   0.450   9.482 -0.3505 -0.2802  0.3170
  809MPD2    C411965   3.031   0.375   9.409  0.0793 -0.2106 -0.4674
  809MPD2    C511966   3.065   0.315   9.288  0.2136 -0.5526  0.2566
  809MPD2     H11967   3.322   0.496   9.505  0.4477 -0.4325  0.0236
  809MPD2    H111968   2.933   0.357   9.453  0.1293  2.1316  0.5705
  809MPD2    H211969   3.223   0.248   9.165  0.3324  0.4284  0.9903
  809MPD2    H311970   2.991   0.259   9.232 -2.3218  0.9670  2.0721
  809MPD2     N11971   3.085   0.512   9.600 -0.3069  0.1325 -0.1292
  809MPD2    H511972   2.990   0.492   9.629 -0.0709 -0.0695  0.5095
  809MPD2    N111973   3.429   0.370   9.310  0.7449  0.2176  0.4544
  809MPD2    H711974   3.493   0.423   9.369  2.4693 -2.3334  0.8528
  810MPD2     C11975   2.006   4.614  10.336 -0.8379  0.4309 -0.2910
  810MPD2    C111976   1.930   4.675  10.242  0.9277 -0.0148 -0.4263
  810MPD2    C211977   1.945   0.080  10.217  0.2016 -0.0340  0.1862
  810MPD2    C311978   2.033   0.159  10.289  0.7216  0.0511  0.4069
  810MPD2    C411979   2.103   0.094  10.387 -0.1366  0.0729 -0.0757
  810MPD2    C511980   2.096   4.691  10.399 -0.3484  1.0868  0.2508
  810MPD2     H11981   1.870   0.125  10.153 -0.5418 -0.5739  0.6714
  810MPD2    H111982   2.179   0.145  10.445  1.0153 -0.9480 -0.6887
  810MPD2    H211983   2.002   4.506  10.351  0.0804  0.3380 -0.7337
  810MPD2    H311984   2.150   4.637  10.476  0.0487 -0.5163 -1.1500
  810MPD2     N11985   2.051   0.303  10.265 -0.6776  1.0371  0.0131
  810MPD2    H511986   2.110   0.352  10.331  0.5619  0.1356 -0.4122
  810MPD2    N111987   1.831   4.603  10.165 -1.2097  0.2526 -0.3447
  810MPD2    H711988   1.780   4.655  10.095  0.1503  2.4281  0.2814
  811MPD2     C11989   1.313   0.035   9.583 -0.5146 -0.0123  0.1797
  811MPD2    C111990   1.422   0.066   9.660  0.0623  0.7293  0.4589
  811MPD2    C211991   1.475   0.194   9.666 -0.2811 -0.6949 -0.3680
  811MPD2    C311992   1.414   0.291   9.579  0.4419  0.6524  0.2424
  811MPD2    C411993   1.302   0.256   9.509  0.1136 -0.5793  0.6889
  811MPD2    C511994   1.249   0.132   9.510  0.0435  0.2458  0.3326
  811MPD2     H11995   1.570   0.214   9.715  0.2736  0.0713 -1.7612
  811MPD2    H111996   1.244   0.335   9.462 -1.5369 -0.9735  2.0153
  811MPD2    H211997   1.273   4.669   9.576 -1.7056  0.4751 -0.1368
  811MPD2    H311998   1.160   0.110   9.453  0.9614 -1.1929 -0.5427
  811MPD2     N11999   1.467   0.423   9.584  0.2624  0.1927 -0.1204
  811MPD2    H512000   1.555   0.436   9.634 -0.7035 -0.0903  1.6303
  811MPD2    N112001   1.469   4.686   9.732 -0.4302  0.0109 -0.2610
  811MPD2    H712002   1.411   4.603   9.734 -1.4959  0.7731  0.2634
  812MPD2     C12003   4.622   4.314  12.164  0.2719  0.1695  0.1034
  812MPD2    C112004   0.017   4.309  12.117  0.2153  0.7984  0.1707
  812MPD2    C212005   0.120   4.275  12.200  0.6110 -0.1868 -0.5166
  812MPD2    C312006   0.095   4.254  12.335  0.4830 -0.5687  0.6758
  812MPD2    C412007   4.700   4.265  12.383 -0.2150  0.5537 -0.7399
  812MPD2    C512008   4.601   4.293  12.296  0.1227 -0.0414  0.0618
  812MPD2     H12009   0.219   4.274  12.156  0.8440 -1.6509  0.0312
  812MPD2    H112010   4.665   4.234  12.482 -1.5106 -0.4907 -1.5214
  812MPD2    H212011   4.536   4.346  12.106  1.6226  2.0693 -0.8430
  812MPD2    H312012   4.499   4.287  12.331  0.7312 -1.6982  1.5267
  812MPD2     N12013   0.207   4.219  12.417  0.0876  0.4115  0.3276
  812MPD2    H512014   0.300   4.203  12.380  0.5935  0.9678  1.3468
  812MPD2    N112015   0.030   4.365  11.981  0.9758  0.0953  0.3602
  812MPD2    H712016   4.685   4.396  11.927 -1.2750 -0.4459  3.3120
  813MPD2     C12017   3.894   1.440  12.674  0.3444  0.0265  0.2618
  813MPD2    C112018   3.996   1.433  12.762 -0.1891 -0.4237  0.5823
  813MPD2    C212019   3.964   1.444  12.898  0.1974  0.9993  0.4893
  813MPD2    C312020   3.838   1.425  12.943  0.2743  0.9963  0.1689
  813MPD2    C412021   3.739   1.402  12.854  0.2680 -0.2093  0.1973
  813MPD2    C512022   3.768   1.427  12.721 -0.4064  0.5134  0.1452
  813MPD2     H12023   4.043   1.472  12.967 -1.0140  1.7654  1.5648
  813MPD2    H112024   3.636   1.387  12.884  0.5644 -0.0163  1.2906
  813MPD2    H212025   3.913   1.479  12.575 -0.3256  0.1632  0.1918
  813MPD2    H312026   3.690   1.440  12.647 -0.1700 -0.9474 -0.3580
  813MPD2     N12027   3.824   1.426  13.085 -0.0834 -1.0531 -0.3123
  813MPD2    H512028   3.909   1.443  13.138 -0.8560  0.1973  0.5443
  813MPD2    N112029   4.131   1.453  12.714  0.0038 -0.2682  0.1234
  813MPD2    H712030   4.144   1.473  12.616 -1.7112  0.5984  0.0727
  814MPD2     C12031   0.195   3.135  12.580  0.2373  0.2545  0.0497
  814MPD2    C112032   0.290   3.210  12.508 -0.6247 -0.3310  0.6047
  814MPD2    C212033   0.330   3.332  12.559 -0.3561 -0.3069 -0.0030
  814MPD2    C312034   0.286   3.379  12.681  0.5297 -0.3704  0.9280
  814MPD2    C412035   0.214   3.294  12.765  0.3493 -0.0322  1.1221
  814MPD2    C512036   0.155   3.180  12.706  0.0943  0.5701 -0.0807
  814MPD2     H12037   0.394   3.400  12.505 -0.8622  0.4319  0.3214
  814MPD2    H112038   0.178   3.307  12.867 -1.4035  0.7328  0.4258
  814MPD2    H212039   0.140   3.050  12.542 -0.0091  1.1543 -1.6355
  814MPD2    H312040   0.085   3.117  12.759 -0.1652 -0.6684 -1.8940
  814MPD2     N12041   0.344   3.496  12.741  0.3010 -0.7297 -0.2719
  814MPD2    H512042   0.297   3.530  12.824 -0.5551 -0.4292 -0.8817
  814MPD2    N112043   0.346   3.160  12.388  0.9489 -0.2544  0.3468
  814MPD2    H712044   0.414   3.215  12.337  2.0565 -2.3387 -0.4190
  815MPD2     C12045   0.928   1.447  11.642 -0.6373 -0.0774 -0.6033
  815MPD2    C112046   0.986   1.325  11.636 -0.8278  0.4889 -0.8025
  815MPD2    C212047   0.933   1.226  11.721  0.2198  0.4489  0.2541
  815MPD2    C312048   0.827   1.249  11.803  0.2348 -0.1472  0.1002
  815MPD2    C412049   0.776   1.380  11.818  0.2805 -0.1449  0.0455
  815MPD2    C512050   0.829   1.477  11.728 -0.3504 -0.2480  0.7445
  815MPD2     H12051   0.967   1.123  11.718  2.1949  1.0934  0.3416
  815MPD2    H112052   0.695   1.392  11.890  1.3729 -0.4036  1.3131
  815MPD2    H212053   0.952   1.522  11.569 -1.9868 -1.0267 -2.0166
  815MPD2    H312054   0.788   1.577  11.729 -2.6740 -1.1896  3.8801
  815MPD2     N12055   0.754   1.138  11.850 -0.3033  0.3139  0.1017
  815MPD2    H512056   0.789   1.044  11.833 -1.5325 -0.0746 -0.2814
  815MPD2    N112057   1.070   1.297  11.527  0.0824  0.2548 -0.7409
  815MPD2    H712058   1.101   1.380  11.477  1.8894 -0.2240 -0.3916
  816MPD2     C12059   1.190   1.041   0.031 -0.2667  0.9992 -0.0095
  816MPD2    C112060   1.106   1.062  17.663 -0.0023 -0.4109 -0.1510
  816MPD2    C212061   1.123   0.979  17.553 -0.0464  0.9063 -0.4599
  816MPD2    C312062   1.223   0.881  17.551  0.4986 -0.3929 -0.4509
  816MPD2    C412063   1.306   0.864  17.662  0.1800 -0.3042  0.0150
  816MPD2    C512064   1.286   0.942   0.032 -0.2868  0.7097  0.6248
  816MPD2     H12065   1.072   1.000  17.461 -0.2955  0.6997 -0.3690
  816MPD2    H112066   1.377   0.784  17.682  1.5274  1.2569  1.4052
  816MPD2    H212067   1.192   1.113   0.112  0.0640 -0.5874  1.3916
  816MPD2    H312068   1.345   0.933   0.122  0.6919 -0.3690 -0.1279
  816MPD2     N12069   1.244   0.810  17.422 -0.2883 -0.0564  0.3122
  816MPD2    H512070   1.207   0.855  17.340  1.8424  0.7971 -0.1928
  816MPD2    N112071   1.008   1.168  17.660 -0.3967 -0.1775  0.1403
  816MPD2    H712072   1.007   1.234  17.737 -2.7972  1.7645 -1.5493
  817MPD2     C12073   0.630   2.734   9.378  0.4431 -0.1104 -0.3165
  817MPD2    C112074   0.629   2.657   9.266  0.1545  0.4830 -0.0119
  817MPD2    C212075   0.541   2.680   9.166  0.1898 -0.1386  0.6966
  817MPD2    C312076   0.436   2.769   9.186  0.0964 -0.1482 -0.4402
  817MPD2    C412077   0.433   2.840   9.301 -0.3919 -0.1820 -0.5107
  817MPD2    C512078   0.525   2.820   9.396  0.0974 -0.0411 -0.0783
  817MPD2     H12079   0.560   2.613   9.083  0.7042 -0.7710  1.3298
  817MPD2    H112080   0.345   2.897   9.330 -0.5428  0.4437 -2.2026
  817MPD2    H212081   0.699   2.727   9.461 -1.2142 -3.2298  0.7749
  817MPD2    H312082   0.516   2.869   9.493 -0.7589 -1.5545  0.5981
  817MPD2     N12083   0.341   2.775   9.081 -0.1071  0.3128  0.4462
  817MPD2    H512084   0.357   2.706   9.008  2.4061 -0.8293  2.0954
  817MPD2    N112085   0.722   2.555   9.239  0.0396 -0.0002  0.2472
  817MPD2    H712086   0.706   2.498   9.157  1.2544  0.4953 -0.3396
  818MPD2     C12087   4.351   2.462   9.649  0.1785  0.5282 -0.1090
  818MPD2    C112088   4.344   2.367   9.744  0.8836 -0.2140  0.0907
  818MPD2    C212089   4.453   2.284   9.776 -0.3018  0.0375 -0.2413
  818MPD2    C312090   4.568   2.301   9.700 -0.5465 -0.3817 -0.1809
  818MPD2    C412091   4.573   2.393   9.598 -0.4109 -0.1335  0.7765
  818MPD2    C512092   4.468   2.481   9.577  0.6556 -1.1797 -0.2066
  818MPD2     H12093   4.442   2.211   9.855  0.3056 -1.3333 -1.4317
  818MPD2    H112094   4.668   2.408   9.549 -0.8560 -1.8037 -0.5936
  818MPD2    H212095   4.267   2.527   9.628 -0.1948 -0.0719 -0.4491
  818MPD2    H312096   4.471   2.553   9.495 -1.9645 -0.8976 -0.0418
  818MPD2     N12097   4.678   2.215   9.719  0.1840 -0.7800  0.5424
  818MPD2    H512098   0.022   2.213   9.656 -0.3908  0.0907 -0.1998
  818MPD2    N112099   4.222   2.338   9.806 -0.3576 -0.0222 -0.0324
  818MPD2    H712100   4.225   2.250   9.856 -1.0543  0.9566  1.7374
  819MPD2     C12101   2.065   3.996  15.378  0.0413 -0.4244  0.4392
  819MPD2    C112102   2.126   3.875  15.377 -0.2172 -0.4218  0.0064
  819MPD2    C212103   2.235   3.847  15.457 -0.6392 -0.6557  0.3808
  819MPD2    C312104   2.294   3.948  15.536 -0.0885  0.7009  0.3812
  819MPD2    C412105   2.237   4.077  15.520  0.1892 -0.5139  0.0191
  819MPD2    C512106   2.118   4.097  15.449  0.3358 -0.0618 -0.6003
  819MPD2     H12107   2.279   3.749  15.473 -0.1068 -0.0833  2.4771
  819MPD2    H112108   2.294   4.163  15.553  2.1970 -1.0685 -2.0072
  819MPD2    H212109   1.975   4.025  15.326  0.6073  0.7927  0.1273
  819MPD2    H312110   2.084   4.198  15.430  1.8934  0.8705  1.5048
  819MPD2     N12111   2.403   3.921  15.624  0.3193 -0.2016  0.3687
  819MPD2    H512112   2.423   3.821  15.630 -1.5263 -0.6843 -1.3068
  819MPD2    N112113   2.056   3.780  15.296  0.0070 -0.4468 -1.0391
  819MPD2    H712114   1.982   3.811  15.235 -2.8091  0.3549  2.7409
  820MPD2     C12115   1.147   3.685  14.951 -0.1069 -0.6973 -0.2627
  820MPD2    C112116   1.244   3.778  14.974  0.1132 -0.3394 -0.1729
  820MPD2    C212117   1.369   3.739  15.021  0.2123 -0.1924  0.0640
  820MPD2    C312118   1.382   3.608  15.063 -0.2068  0.3198  0.5526
  820MPD2    C412119   1.279   3.518  15.053 -0.7829 -0.7202  0.4258
  820MPD2    C512120   1.162   3.552  14.990  0.3839 -0.3888 -1.0718
  820MPD2     H12121   1.454   3.805  15.013 -0.4328  0.6137 -0.0817
  820MPD2    H112122   1.288   3.417  15.091 -3.1611 -1.7296 -1.6774
  820MPD2    H212123   1.055   3.710  14.899 -1.1316 -1.8312  0.9935
  820MPD2    H312124   1.084   3.479  14.971 -1.2083  1.0151  0.1088
  820MPD2     N12125   1.503   3.561  15.122 -0.1841 -0.2669  0.1378
  820MPD2    H512126   1.504   3.463  15.149 -0.6986 -0.5665 -0.9335
  820MPD2    N112127   1.219   3.908  14.924  0.1414  0.0071  0.3776
  820MPD2    H712128   1.122   3.922  14.895  0.0692 -1.7020 -0.1653
  821MPD2     C12129   2.340   4.730  12.899 -0.0756  0.1293 -0.2639
  821MPD2    C112130   2.438   4.698  12.989 -0.4627  0.0042 -0.2295
  821MPD2    C212131   2.534   0.060  13.019 -0.4554 -0.1017  0.3679
  821MPD2    C312132   2.527   0.188  12.973  0.4515  0.1004  0.6062
  821MPD2    C412133   2.427   0.218  12.878  0.4444  1.1765  0.0006
  821MPD2    C512134   2.331   0.128  12.852 -0.6947  0.0214 -0.5047
  821MPD2     H12135   2.616   0.043  13.088 -0.4162 -1.9044 -0.1256
  821MPD2    H112136   2.430   0.314  12.826  1.2040  0.9845 -0.3106
  821MPD2    H212137   2.249   4.673  12.887 -0.3870  0.5730 -0.0272
  821MPD2    H312138   2.252   0.157  12.783  0.6247  1.7239 -1.2888
  821MPD2     N12139   2.608   0.298  13.020  0.8668  0.0437 -1.1051
  821MPD2    H512140   2.577   0.390  12.989  2.0412  0.7401 -0.2345
  821MPD2    N112141   2.455   4.569  13.048 -0.0627  0.0440 -0.3861
  821MPD2    H712142   2.546   4.554  13.090 -1.0906 -1.3503  1.3218
  822MPD2     C12143   3.381   0.198  16.120  0.4517  0.1039 -0.8611
  822MPD2    C112144   3.386   0.233  16.250  0.0331  0.4126 -0.5503
  822MPD2    C212145   3.324   0.349  16.297 -0.4213  0.2928 -0.7619
  822MPD2    C312146   3.266   0.430  16.201  0.4370 -0.3225  0.1055
  822MPD2    C412147   3.263   0.397  16.066  0.0908  0.1160  0.1304
  822MPD2    C512148   3.314   0.276  16.028  0.5698  0.0858 -0.3401
  822MPD2     H12149   3.317   0.378  16.401 -1.7936 -1.8703 -0.2300
  822MPD2    H112150   3.215   0.464  15.995  0.3133  0.7207  0.5482
  822MPD2    H212151   3.416   0.100  16.089  1.1351 -0.5857  2.1304
  822MPD2    H312152   3.321   0.242  15.925  2.4479 -2.2134  0.5254
  822MPD2     N12153   3.204   0.541  16.257 -0.2605  0.2132 -0.3435
  822MPD2    H512154   3.198   0.541  16.358 -0.8162 -0.6046 -0.3774
  822MPD2    N112155   3.439   0.158  16.353  0.2942 -0.0075 -0.2281
  822MPD2    H712156   3.437   0.195  16.447  0.6382 -0.5078 -0.0220
  823MPD2     C12157   2.717   0.892  16.855  0.0482 -0.0048  0.1356
  823MPD2    C112158   2.815   0.808  16.805 -0.5291  0.2405  0.5602
  823MPD2    C212159   2.859   0.706  16.892 -0.0850 -0.0804  0.0859
  823MPD2    C312160   2.815   0.701  17.022  0.2567  0.0501 -0.1847
  823MPD2    C412161   2.721   0.785  17.061 -0.5503  0.3673  0.1554
  823MPD2    C512162   2.675   0.889  16.986 -0.2247  0.1369  0.2717
  823MPD2     H12163   2.930   0.627  16.869 -0.5542 -0.0834 -1.4104
  823MPD2    H112164   2.698   0.771  17.166  1.3709  0.5611  0.6124
  823MPD2    H212165   2.664   0.969  16.800 -2.6600 -1.3451  0.8761
  823MPD2    H312166   2.609   0.967  17.022 -1.9962 -1.7361  1.0851
  823MPD2     N12167   2.884   0.623  17.124  0.4825  0.0743  0.3092
  823MPD2    H512168   2.848   0.640  17.218 -0.8683 -0.4483 -0.1076
  823MPD2    N112169   2.858   0.826  16.671 -0.4475  0.6863 -0.1590
  823MPD2    H712170   2.854   0.920  16.633  0.5130  0.5071 -0.7084
  824MPD2     C12171   3.748   4.134  16.416  0.7341  0.2384 -0.1214
  824MPD2    C112172   3.732   4.237  16.332  0.8777  0.0208  0.3581
  824MPD2    C212173   3.722   4.213  16.193 -0.3769  0.5986 -0.1048
  824MPD2    C312174   3.762   4.087  16.146  0.5213 -0.3135  0.3365
  824MPD2    C412175   3.795   3.984  16.236  0.8066  0.1039 -0.8143
  824MPD2    C512176   3.782   4.017  16.368 -0.1781  0.5857 -0.0976
  824MPD2     H12177   3.709   4.293  16.120 -4.2674  1.3166  1.4318
  824MPD2    H112178   3.835   3.884  16.223  1.3323  0.3876 -1.4436
  824MPD2    H212179   3.746   4.140  16.524  0.0712 -0.9442 -0.0720
  824MPD2    H312180   3.814   3.941  16.438  0.7866 -2.0123 -3.3692
  824MPD2     N12181   3.772   4.077  16.009 -0.7440 -0.0407 -0.3043
  824MPD2    H512182   3.751   4.159  15.953 -1.6702  0.0364  0.1541
  824MPD2    N112183   3.703   4.365  16.386  0.4971  0.3366 -0.7017
  824MPD2    H712184   3.682   4.436  16.315  1.0314  0.6576 -0.5410
  825MPD2     C12185   3.869   4.416  15.288 -0.1789 -0.0010  0.9628
  825MPD2    C112186   3.947   4.420  15.401  0.1752  0.1626 -0.3345
  825MPD2    C212187   4.024   4.532  15.425  0.0619  0.1278  0.0043
  825MPD2    C312188   4.025   4.634  15.334  0.4988 -0.0273  0.4197
  825MPD2    C412189   3.955   4.631  15.220  0.2002 -0.0254  0.4156
  825MPD2    C512190   3.888   4.518  15.194 -0.1854 -0.3367  0.7089
  825MPD2     H12191   4.086   4.529  15.513 -1.2856  0.3895  0.9661
  825MPD2    H112192   3.937   4.718  15.158  1.0954  0.4727  0.8570
  825MPD2    H212193   3.809   4.330  15.259 -0.1552  0.3684 -0.1938
  825MPD2    H312194   3.834   4.511  15.100  2.4436 -0.6920 -0.7722
  825MPD2     N12195   4.106   0.016  15.354  0.3030 -0.3426 -0.4898
  825MPD2    H512196   4.099   0.085  15.281 -1.5510 -0.8955 -0.8555
  825MPD2    N112197   3.933   4.307  15.483  0.4904 -0.0163  0.0077
  825MPD2    H712198   3.886   4.229  15.440  1.9864 -0.5676 -0.6044
  826MPD2     C12199   3.990   4.641  13.710 -0.0571  0.3165  0.6683
  826MPD2    C112200   3.900   4.537  13.690 -0.3527  0.1362 -0.3953
  826MPD2    C212201   3.767   4.559  13.710  0.0006 -0.0780 -0.2023
  826MPD2    C312202   3.717   4.690  13.736 -0.5751  0.3174 -0.0458
  826MPD2    C412203   3.808   0.056  13.747  0.0403  0.1215 -0.0450
  826MPD2    C512204   3.941   0.031  13.732 -0.4248  0.5049  0.2031
  826MPD2     H12205   3.701   4.473  13.708 -2.9502  2.2078  0.0864
  826MPD2    H112206   3.771   0.155  13.769 -0.9454 -0.1552 -0.4419
  826MPD2    H212207   4.094   4.631  13.683  0.4521 -0.2833  2.8553
  826MPD2    H312208   4.011   0.113  13.742  0.9479 -0.7826  1.0158
  826MPD2     N12209   3.580   4.716  13.761 -0.1083 -0.0481 -0.0690
  826MPD2    H512210   3.571   0.077  13.793  1.8783  0.6771 -1.6844
  826MPD2    N112211   3.960   4.411  13.648  0.3532  0.0442  0.1387
  826MPD2    H712212   4.060   4.416  13.632  0.6107  1.2496  1.9846
  827MPD2     C12213   0.308   1.361   9.739 -0.1545 -0.0965 -0.5622
  827MPD2    C112214   0.295   1.226   9.779 -0.5427 -0.2545 -0.2038
  827MPD2    C212215   0.241   1.142   9.682 -0.0976  0.1794 -0.6271
  827MPD2    C312216   0.207   1.176   9.557  0.0878 -0.3315 -0.7964
  827MPD2    C412217   0.226   1.309   9.515 -0.1675  0.4101 -0.3432
  827MPD2    C512218   0.276   1.398   9.608 -0.5895  0.2830  0.3149
  827MPD2     H12219   0.219   1.037   9.701  0.9827 -0.2286 -1.6364
  827MPD2    H112220   0.186   1.340   9.419 -0.9632 -1.3064 -0.5713
  827MPD2    H212221   0.341   1.437   9.810 -1.0411 -1.3262  1.1693
  827MPD2    H312222   0.278   1.506   9.598 -0.6307  0.2466 -0.0776
  827MPD2     N12223   0.148   1.085   9.471 -0.6861  0.0120  0.1914
  827MPD2    H512224   0.101   1.011   9.523  0.1668 -1.5834 -1.3046
  827MPD2    N112225   0.323   1.191   9.915  0.0136 -0.1266  0.1428
  827MPD2    H712226   0.345   1.267   9.979  0.6576 -0.9307  0.8726
  828MPD2     C12227   2.932   0.719  12.309 -0.6522 -0.6190 -0.2615
  828MPD2    C112228   2.842   0.814  12.262 -0.0330  0.7706  1.0460
  828MPD2    C212229   2.889   0.903  12.159 -0.3502 -0.0701  0.3985
  828MPD2    C312230   3.015   0.890  12.103  0.7783 -0.4230  0.3153
  828MPD2    C412231   3.102   0.792  12.159 -0.9953 -0.1569 -0.4654
  828MPD2    C512232   3.059   0.711  12.256  0.2448  1.0487 -0.2084
  828MPD2     H12233   2.816   0.974  12.124 -0.7926 -0.6024  0.2370
  828MPD2    H112234   3.203   0.784  12.120 -0.8652  0.5870 -0.2707
  828MPD2    H212235   2.913   0.644  12.385  1.3756 -1.3321 -0.4613
  828MPD2    H312236   3.136   0.646  12.296  1.5885  1.8432 -1.4956
  828MPD2     N12237   3.061   0.976  12.002 -0.3907 -0.3952  0.0766
  828MPD2    H512238   3.161   0.976  11.985 -0.6687 -0.5469 -1.5190
  828MPD2    N112239   2.717   0.839  12.325 -0.3511  0.5364 -0.2753
  828MPD2    H712240   2.660   0.915  12.288  1.4900  0.7851 -2.6154
  829MPD2     C12241   2.130   1.385  12.113  0.6810 -0.1997  0.2815
  829MPD2    C112242   2.073   1.306  12.219 -0.6631 -0.1763  0.1563
  829MPD2    C212243   2.153   1.239  12.310 -0.1461  0.0993  0.5356
  829MPD2    C312244   2.290   1.253  12.307 -0.1858  0.0708 -0.4782
  829MPD2    C412245   2.347   1.333  12.210 -0.2650 -0.4760 -0.2098
  829MPD2    C512246   2.269   1.395  12.111 -0.1118  0.1894 -0.1785
  829MPD2     H12247   2.110   1.172  12.385 -0.8579 -2.1804 -1.9167
  829MPD2    H112248   2.453   1.334  12.190 -0.2956 -2.1837 -0.4642
  829MPD2    H212249   2.075   1.418  12.026 -1.0110  0.9897  1.7838
  829MPD2    H312250   2.320   1.458  12.039 -2.2226  0.4603 -1.4532
  829MPD2     N12251   2.372   1.182  12.392 -0.2457 -0.6620 -0.0905
  829MPD2    H512252   2.469   1.163  12.371  0.1056  0.0034  0.9535
  829MPD2    N112253   1.939   1.270  12.190  0.2642 -0.1698  0.7133
  829MPD2    H712254   1.891   1.312  12.111 -0.2361  1.0729  1.6607
  830MPD2     C12255   2.949   3.336  15.872  0.0513 -0.0052 -0.0992
  830MPD2    C112256   2.923   3.451  15.801  0.1252 -0.1235  0.6518
  830MPD2    C212257   3.025   3.482  15.701  0.2024 -0.0044 -0.2175
  830MPD2    C312258   3.137   3.396  15.672 -0.3730 -0.0329 -0.2781
  830MPD2    C412259   3.156   3.288  15.756  0.8857  0.3899  0.1391
  830MPD2    C512260   3.056   3.261  15.851 -0.4119 -0.4730 -0.1646
  830MPD2     H12261   2.999   3.562  15.632 -0.8777  1.1431  1.4918
  830MPD2    H112262   3.233   3.214  15.741  1.2506  0.3710  2.0208
  830MPD2    H212263   2.897   3.310  15.963 -2.0636  0.0771 -1.3046
  830MPD2    H312264   3.068   3.176  15.917  1.3815  1.6241  2.2536
  830MPD2     N12265   3.248   3.438  15.606  0.2400 -0.5616  0.2792
  830MPD2    H512266   3.336   3.389  15.621  0.2138 -0.3521  1.1013
  830MPD2    N112267   2.818   3.537  15.834 -0.3136 -0.0288 -0.2097
  830MPD2    H712268   2.760   3.517  15.915  1.7575  1.0731  1.5259
  831MPD2     C12269   3.343   0.809  16.607  0.3852  0.5046 -0.1515
  831MPD2    C112270   3.394   0.694  16.545 -0.4395  0.4681 -0.4278
  831MPD2    C212271   3.353   0.576  16.601  0.3328 -0.3219  0.0448
  831MPD2    C312272   3.255   0.566  16.702 -0.3310  0.2590 -0.5825
  831MPD2    C412273   3.210   0.684  16.758 -0.1421  0.3018  0.5393
  831MPD2    C512274   3.257   0.800  16.715 -0.3435  0.6581 -0.2599
  831MPD2     H12275   3.404   0.484  16.576 -0.7848 -0.3865 -1.9568
  831MPD2    H112276   3.133   0.682  16.834 -2.3479 -0.1037 -1.6975
  831MPD2    H212277   3.378   0.908  16.579  3.0072 -0.4585 -0.2451
  831MPD2    H312278   3.216   0.892  16.755 -0.5503  1.0892 -1.4536
  831MPD2     N12279   3.206   0.451  16.760 -0.5482 -0.1777 -0.6177
  831MPD2    H512280   3.145   0.471  16.838 -1.1164  3.5929 -2.0575
  831MPD2    N112281   3.476   0.701  16.428  0.4448 -0.3834  0.1696
  831MPD2    H712282   3.478   0.792  16.382  0.2249 -0.4479  0.0308
  832MPD2     C12283   1.707   1.386  16.824  0.2540 -0.6136 -0.7386
  832MPD2    C112284   1.662   1.513  16.850  0.9373  0.7655  0.6334
  832MPD2    C212285   1.540   1.553  16.801 -0.1043 -0.0491 -0.0293
  832MPD2    C312286   1.451   1.466  16.744 -0.1475 -0.2410 -0.0519
  832MPD2    C412287   1.492   1.331  16.722 -0.2163  0.2242  0.2669
  832MPD2    C512288   1.616   1.301  16.760  0.1392 -0.6743 -0.3582
  832MPD2     H12289   1.495   1.650  16.819 -2.4238 -1.1409  0.0546
  832MPD2    H112290   1.437   1.254  16.670 -0.8952  1.6534 -1.1143
  832MPD2    H212291   1.803   1.341  16.846 -0.3043 -1.6282 -0.3943
  832MPD2    H312292   1.656   1.208  16.721  1.3571  0.6622 -2.3386
  832MPD2     N12293   1.318   1.499  16.701 -0.0264 -0.6525  0.7638
  832MPD2    H512294   1.256   1.420  16.685 -0.0171 -0.4646 -0.2256
  832MPD2    N112295   1.753   1.603  16.914  0.2818  0.3387 -0.0643
  832MPD2    H712296   1.842   1.569  16.949  0.1340 -0.7318 -0.7006
  833MPD2     C12297   3.535   3.542  12.220 -0.6152 -0.1751  0.0630
  833MPD2    C112298   3.526   3.568  12.086  0.2004  0.6945 -0.2317
  833MPD2    C212299   3.617   3.500  12.005  0.6985 -0.5582  0.4434
  833MPD2    C312300   3.718   3.418  12.060  0.5933 -0.0009  0.0934
  833MPD2    C412301   3.726   3.395  12.190  0.4676  0.1036 -0.0192
  833MPD2    C512302   3.640   3.461  12.272  0.0873  1.0139  0.1944
  833MPD2     H12303   3.612   3.515  11.898  0.6424 -0.1481  0.5019
  833MPD2    H112304   3.793   3.331  12.246 -2.0427 -2.1804  0.3374
  833MPD2    H212305   3.452   3.583  12.277  0.8447  0.0837  2.0314
  833MPD2    H312306   3.664   3.452  12.377 -0.1159 -1.1906  0.0608
  833MPD2     N12307   3.793   3.357  11.959 -1.1059  0.0163  0.2996
  833MPD2    H512308   3.760   3.372  11.864  0.7247 -0.6398 -0.4313
  833MPD2    N112309   3.415   3.644  12.047 -0.0231  0.6761  0.2549
  833MPD2    H712310   3.364   3.694  12.119  1.6971 -0.3481  2.1904
  834MPD2     C12311   3.868   2.403  11.491 -0.4741 -0.5885 -0.1186
  834MPD2    C112312   3.813   2.502  11.408 -0.3523 -0.2017 -0.7900
  834MPD2    C212313   3.799   2.632  11.455  0.0671  0.3603  0.8092
  834MPD2    C312314   3.855   2.669  11.577 -0.5555 -0.3629 -0.8150
  834MPD2    C412315   3.918   2.572  11.653  0.0048 -0.5441 -0.0480
  834MPD2    C512316   3.929   2.444  11.612  0.3387  0.1004 -0.1318
  834MPD2     H12317   3.749   2.707  11.395 -1.0960 -0.1522  1.1423
  834MPD2    H112318   3.961   2.592  11.750  0.6587 -1.2903 -0.1850
  834MPD2    H212319   3.867   2.297  11.468  2.5477 -0.0340 -2.8298
  834MPD2    H312320   3.971   2.371  11.679  0.7142  1.1490  0.7690
  834MPD2     N12321   3.835   2.803  11.622 -0.8091  0.2258  0.3683
  834MPD2    H512322   3.771   2.860  11.568  0.7846 -0.4768 -2.2492
  834MPD2    N112323   3.746   2.448  11.297 -0.7141 -1.0043 -0.0197
  834MPD2    H712324   3.762   2.350  11.279  0.4726 -0.8822  0.3838
  835MPD2     C12325   3.638   0.777  10.969 -0.3946 -0.2176 -0.0025
  835MPD2    C112326   3.622   0.904  11.021  0.1960  0.1419 -0.8114
  835MPD2    C212327   3.669   0.930  11.149 -0.0929 -0.0334  0.5811
  835MPD2    C312328   3.696   0.823  11.236  0.4399 -0.4863 -0.2039
  835MPD2    C412329   3.710   0.695  11.181  0.4787 -0.0851  0.6255
  835MPD2    C512330   3.681   0.671  11.048 -0.5006 -0.0681  0.0356
  835MPD2     H12331   3.661   1.033  11.184 -1.5142 -0.5390  1.7444
  835MPD2    H112332   3.718   0.605  11.242 -0.4760 -0.2753  0.4656
  835MPD2    H212333   3.602   0.768  10.867  0.6659 -1.7556 -0.2494
  835MPD2    H312334   3.667   0.569  11.013  1.5314  0.2415 -1.5972
  835MPD2     N12335   3.716   0.838  11.378 -0.3599 -0.1160  0.1365
  835MPD2    H512336   3.730   0.749  11.425 -0.7955  0.0869  0.6435
  835MPD2    N112337   3.568   0.999  10.927 -0.5548 -0.2342  0.1772
  835MPD2    H712338   3.551   0.964  10.833 -0.5076 -0.0073  0.0859
  836MPD2     C12339   3.488   1.519  11.819 -0.2010  0.4051  0.4188
  836MPD2    C112340   3.497   1.388  11.867 -1.0531  0.1028  0.9462
  836MPD2    C212341   3.396   1.344  11.951  1.2006  0.2383 -0.6848
  836MPD2    C312342   3.304   1.431  11.999  0.2431 -0.1134 -0.0935
  836MPD2    C412343   3.306   1.559  11.962 -0.0309  0.2408 -0.4636
  836MPD2    C512344   3.395   1.608  11.874  0.1188 -0.5656 -0.9817
  836MPD2     H12345   3.389   1.238  11.973  1.2323  0.0957 -1.3554
  836MPD2    H112346   3.232   1.626  12.006  0.4651  0.0033  0.7319
  836MPD2    H212347   3.559   1.550  11.743 -0.0095  0.0616  0.4592
  836MPD2    H312348   3.393   1.710  11.837  2.5479 -0.4843 -0.8634
  836MPD2     N12349   3.199   1.388  12.084  0.4316  0.0502  0.9054
  836MPD2    H512350   3.129   1.459  12.103 -2.7636 -2.0658 -2.9053
  836MPD2    N112351   3.599   1.307  11.807 -0.1284 -0.9795 -0.3815
  836MPD2    H712352   3.630   1.348  11.719  0.3720  1.4397  0.9084
  837MPD2     C12353   1.984   0.842   9.950  0.5510  0.0548  0.2743
  837MPD2    C112354   1.865   0.908   9.904  0.0254 -0.2434 -0.0010
  837MPD2    C212355   1.822   1.026   9.961 -0.5812  0.4642 -0.1970
  837MPD2    C312356   1.895   1.087  10.060  0.4200  0.0763  0.0977
  837MPD2    C412357   2.013   1.029  10.111  0.0430 -0.0827 -0.9486
  837MPD2    C512358   2.057   0.912  10.048  1.0129 -0.3185  0.7194
  837MPD2     H12359   1.737   1.070   9.910  0.1328 -1.3731 -2.9910
  837MPD2    H112360   2.084   1.088  10.168 -1.0090  0.7662 -0.5250
  837MPD2    H212361   2.020   0.749   9.906 -2.2966 -2.1857  2.6233
  837MPD2    H312362   2.147   0.861  10.081  1.0282 -0.0283  1.1273
  837MPD2     N12363   1.845   1.207  10.110  0.4740 -0.0742  0.3064
  837MPD2    H512364   1.754   1.242  10.081 -0.6369 -2.3719  1.0391
  837MPD2    N112365   1.779   0.862   9.802 -0.1954  0.0295  0.1604
  837MPD2    H712366   1.703   0.924   9.776  1.1176  1.6205  0.1049
  838MPD2     C12367   0.416   3.999  12.008 -0.1741  0.5200  0.3291
  838MPD2    C112368   0.273   3.993  11.989  0.2471  0.0444 -0.1433
  838MPD2    C212369   0.187   3.934  12.076  0.2669  0.1195  0.1936
  838MPD2    C312370   0.245   3.881  12.195  0.1538 -0.2221 -0.1442
  838MPD2    C412371   0.384   3.882  12.218  0.0642 -0.1813  1.0051
  838MPD2    C512372   0.464   3.947  12.125  0.4760  0.2201  0.2828
  838MPD2     H12373   0.081   3.927  12.055  0.4893 -1.0880 -0.4837
  838MPD2    H112374   0.430   3.819  12.293 -0.7269 -0.8526  0.9247
  838MPD2    H212375   0.484   4.038  11.934  1.8847  0.5606  2.2399
  838MPD2    H312376   0.571   3.932  12.124  0.1884 -1.7043 -1.8401
  838MPD2     N12377   0.151   3.831  12.286 -0.0219  0.6158 -0.5519
  838MPD2    H512378   0.053   3.822  12.262 -0.7547  0.9334  2.2723
  838MPD2    N112379   0.225   4.038  11.861  0.4265  0.2837  0.4006
  838MPD2    H712380   0.126   4.035  11.838  0.6625  0.4053 -0.6557
  839MPD2     C12381   4.295   3.635  11.443  0.3434 -0.1612 -0.0388
  839MPD2    C112382   4.403   3.570  11.385  0.0980 -0.2169 -0.0461
  839MPD2    C212383   4.527   3.632  11.407 -0.0200 -0.0525  0.5860
  839MPD2    C312384   4.534   3.754  11.474 -0.0493  0.1004 -1.1243
  839MPD2    C412385   4.424   3.813  11.532  0.0283  0.1889 -0.8417
  839MPD2    C512386   4.304   3.754  11.502  0.2368 -0.4592  0.1439
  839MPD2     H12387   4.617   3.590  11.363 -1.1978  0.4142 -2.2284
  839MPD2    H112388   4.431   3.912  11.577  0.0555 -0.1793 -0.0410
  839MPD2    H212389   4.196   3.592  11.435  0.2394  0.2946 -1.1625
  839MPD2    H312390   4.218   3.812  11.534  0.0631  0.2725 -1.6856
  839MPD2     N12391   4.664   3.831  11.505  0.0230  0.0886 -0.2035
  839MPD2    H512392   4.657   3.916  11.560  0.1883  0.9023 -1.4500
  839MPD2    N112393   4.402   3.450  11.321 -1.0491 -0.2743 -0.1780
  839MPD2    H712394   4.492   3.409  11.296 -1.8334 -1.3566 -1.2771
  840MPD2     C12395   0.795   1.453  10.211 -0.1203 -0.1605 -0.0376
  840MPD2    C112396   0.728   1.389  10.316  0.4075 -0.6583  0.1169
  840MPD2    C212397   0.755   1.429  10.447  0.5274  0.4501  0.6244
  840MPD2    C312398   0.856   1.524  10.472  0.5888  0.2100 -0.2038
  840MPD2    C412399   0.920   1.588  10.371  0.9246 -0.4859 -0.6516
  840MPD2    C512400   0.890   1.549  10.240  0.0983  0.8365 -0.3724
  840MPD2     H12401   0.702   1.391  10.534  1.5740  0.1781  1.1411
  840MPD2    H112402   0.994   1.665  10.391 -0.6408  0.8440  0.0609
  840MPD2    H212403   0.780   1.416  10.110  3.0490 -0.4033 -0.4100
  840MPD2    H312404   0.947   1.589  10.157  1.3652  0.1180  0.1381
  840MPD2     N12405   0.892   1.574  10.602  0.0076 -0.3761  0.3314
  840MPD2    H512406   0.970   1.639  10.607  1.3809 -2.2294  2.8647
  840MPD2    N112407   0.620   1.301  10.280  0.5736 -0.1565  0.0263
  840MPD2    H712408   0.587   1.298  10.184 -0.2993  1.3533  0.2764
  841MPD2     C12409   4.311   0.433  15.010  0.0044 -0.3224  0.3090
  841MPD2    C112410   4.406   0.345  14.953  0.2309 -0.3958 -0.7909
  841MPD2    C212411   4.522   0.395  14.910  0.2096 -0.1612 -0.3933
  841MPD2    C312412   4.558   0.527  14.931 -0.0038 -0.4231  1.2129
  841MPD2    C412413   4.470   0.608  14.999 -0.3150  0.4149 -0.9568
  841MPD2    C512414   4.345   0.561  15.022 -0.3804 -0.4502  0.6466
  841MPD2     H12415   4.591   0.325  14.864  1.5210 -1.1681  3.0464
  841MPD2    H112416   4.491   0.710  15.029 -2.2524  0.8649 -1.1395
  841MPD2    H212417   4.215   0.406  15.053  0.5466 -2.2758  0.3053
  841MPD2    H312418   4.278   0.626  15.076  1.2898  3.1206 -1.5522
  841MPD2     N12419   4.692   0.567  14.898  0.2702  0.0260 -0.3838
  841MPD2    H512420   0.016   0.493  14.860  0.3102 -1.1118  1.9198
  841MPD2    N112421   4.381   0.202  14.922 -0.6289 -0.1327 -0.3109
  841MPD2    H712422   4.448   0.151  14.866  0.3488  0.3944  0.3752
  842MPD2     C12423   0.724   2.032  16.647  0.0301  0.4147  0.0643
  842MPD2    C112424   0.605   1.963  16.614 -0.1210 -0.4768  0.9655
  842MPD2    C212425   0.558   1.863  16.696 -0.1802 -0.5034  0.2476
  842MPD2    C312426   0.620   1.841  16.816  0.1647 -0.6142 -0.2550
  842MPD2    C412427   0.737   1.908  16.857 -0.0252 -0.4914 -0.3732
  842MPD2    C512428   0.786   1.997  16.761 -0.5357 -0.5687 -0.1832
  842MPD2     H12429   0.461   1.818  16.676 -0.6369  0.3442  0.5593
  842MPD2    H112430   0.795   1.894  16.948  1.1157 -2.2446 -1.3739
  842MPD2    H212431   0.752   2.126  16.600  0.5564 -0.3150 -1.0854
  842MPD2    H312432   0.873   2.057  16.784 -1.0034 -0.2604  0.7869
  842MPD2     N12433   0.568   1.756  16.911  0.3222  0.3582 -0.6534
  842MPD2    H512434   0.609   1.748  17.003  2.6845  1.8670 -1.5828
  842MPD2    N112435   0.524   2.025  16.511 -0.3044  0.5034  0.3426
  842MPD2    H712436   0.573   2.107  16.475 -0.4351  0.8500  0.9453
  843MPD2     C12437   2.926   2.510   0.193 -0.4185 -0.0586  0.6438
  843MPD2    C112438   2.948   2.514   0.335  0.5774  0.3724  0.9000
  843MPD2    C212439   3.029   2.613   0.392  0.5615 -0.0297 -0.0255
  843MPD2    C312440   3.081   2.715   0.307 -0.4673 -0.7520 -0.0951
  843MPD2    C412441   3.068   2.718   0.168 -0.0144  0.4262 -0.3155
  843MPD2    C512442   2.989   2.610   0.114  0.3340  0.6986 -0.7551
  843MPD2     H12443   3.042   2.632   0.498 -0.8464  0.1660  0.1087
  843MPD2    H112444   3.114   2.793   0.104  0.3316  0.8493  0.4226
  843MPD2    H212445   2.871   2.426   0.152 -2.4075  0.3003  2.5845
  843MPD2    H312446   2.966   2.618   0.009 -1.4862 -2.7214 -0.6005
  843MPD2     N12447   3.155   2.824   0.365  0.3693  0.3456  0.5945
  843MPD2    H512448   3.164   2.900   0.298 -2.6733 -0.3358 -0.5719
  843MPD2    N112449   2.885   2.416   0.418  0.1763 -0.4935 -0.5380
  843MPD2    H712450   2.821   2.356   0.367  2.5149 -2.2486 -1.3874
  844MPD2     C12451   1.177   1.700  16.248 -0.4110  0.1314 -1.2526
  844MPD2    C112452   1.270   1.616  16.304  0.2317  0.2685 -0.1671
  844MPD2    C212453   1.405   1.654  16.314 -1.1319 -0.6263  1.0247
  844MPD2    C312454   1.446   1.778  16.271  0.1394  0.2679 -0.0030
  844MPD2    C412455   1.345   1.857  16.217  0.1056  0.4658  0.0579
  844MPD2    C512456   1.217   1.824  16.203  0.4741  0.9125 -1.0468
  844MPD2     H12457   1.474   1.589  16.366  1.2289  0.8404 -0.3065
  844MPD2    H112458   1.371   1.956  16.182  0.6009  0.7965  1.3545
  844MPD2    H212459   1.076   1.666  16.229 -0.6742  0.1770  0.0655
  844MPD2    H312460   1.146   1.892  16.156  0.4281  1.6748  0.1254
  844MPD2     N12461   1.583   1.811  16.276  0.2846 -0.0772 -0.0976
  844MPD2    H512462   1.637   1.751  16.338 -2.6885  0.5434  3.0859
  844MPD2    N112463   1.235   1.481  16.335  0.2307  0.2729 -0.1521
  844MPD2    H712464   1.307   1.430  16.386  1.8167  0.6751 -1.9496
  845MPD2     C12465   1.751   2.680  15.997  0.0662 -0.6117  0.4652
  845MPD2    C112466   1.788   2.679  16.127  0.8057 -0.4110 -0.2798
  845MPD2    C212467   1.833   2.560  16.188 -0.5691 -0.3903 -0.0303
  845MPD2    C312468   1.847   2.445  16.107 -1.0655 -0.4393 -0.0085
  845MPD2    C412469   1.820   2.453  15.975  0.6699  1.1089 -0.1623
  845MPD2    C512470   1.770   2.568  15.920 -0.0459  0.2625 -0.2046
  845MPD2     H12471   1.861   2.559  16.293 -0.5847 -2.2709 -0.0447
  845MPD2    H112472   1.821   2.360  15.918 -2.2297  1.2811 -0.4857
  845MPD2    H212473   1.712   2.773  15.956  0.6738 -1.7706 -2.7510
  845MPD2    H312474   1.730   2.582  15.820  0.8019 -1.1477 -0.7328
  845MPD2     N12475   1.873   2.316  16.163 -0.2874 -0.1925 -0.3690
  845MPD2    H512476   1.867   2.241  16.095 -0.5890 -0.1171 -0.4267
  845MPD2    N112477   1.761   2.800  16.204  0.3426  0.1606 -0.3967
  845MPD2    H712478   1.722   2.878  16.153 -0.6914  0.0832  0.2886
  846MPD2     C12479   2.847   2.628  13.652  0.4082 -0.3087 -0.4138
  846MPD2    C112480   2.721   2.686  13.679  0.0609 -0.1943 -1.0464
  846MPD2    C212481   2.680   2.712  13.807  0.4558 -0.0821 -0.1897
  846MPD2    C312482   2.764   2.680  13.914  0.4133 -0.1739  0.3744
  846MPD2    C412483   2.886   2.621  13.888 -0.5267 -0.4929  0.6006
  846MPD2    C512484   2.923   2.601  13.765  0.0179  0.0696 -0.1550
  846MPD2     H12485   2.593   2.776  13.817  1.3369  1.3967 -1.9936
  846MPD2    H112486   2.948   2.578  13.966  1.0872 -0.4857 -0.6650
  846MPD2    H212487   2.880   2.607  13.551 -2.7619  1.8663 -1.8816
  846MPD2    H312488   3.024   2.562  13.757 -0.4111 -1.0264 -0.2553
  846MPD2     N12489   2.716   2.701  14.043 -0.0267  0.0855 -0.0780
  846MPD2    H512490   2.627   2.751  14.044  0.1498  0.4022  0.0013
  846MPD2    N112491   2.629   2.724  13.575 -0.4117  0.0598 -0.1173
  846MPD2    H712492   2.552   2.785  13.600 -1.9834 -0.7197 -3.0005
  847MPD2     C12493   2.642   3.609  14.665  0.2276 -0.0692 -0.0940
  847MPD2    C112494   2.757   3.689  14.653 -0.0090 -0.0337  0.3702
  847MPD2    C212495   2.877   3.631  14.633 -0.9017  0.0009  0.5935
  847MPD2    C312496   2.887   3.495  14.606  0.1702  0.0269 -0.7981
  847MPD2    C412497   2.778   3.413  14.601  0.2151 -0.1191 -0.0254
  847MPD2    C512498   2.656   3.469  14.639  0.2209 -0.0443  0.1385
  847MPD2     H12499   2.967   3.691  14.630  0.6634 -2.4582 -0.7577
  847MPD2    H112500   2.783   3.305  14.590 -0.2018 -0.1733  0.3170
  847MPD2    H212501   2.544   3.644  14.694  0.9526  0.4646  1.7089
  847MPD2    H312502   2.564   3.413  14.651 -0.5868  0.7221 -2.4519
  847MPD2     N12503   3.021   3.440  14.591  0.0215 -0.0368  0.2860
  847MPD2    H512504   3.093   3.507  14.565  0.1763 -0.8583 -1.4235
  847MPD2    N112505   2.746   3.831  14.680  0.2103 -0.5127 -0.3419
  847MPD2    H712506   2.831   3.886  14.676 -0.2901  0.3920  1.5134
  848MPD2     C12507   0.843   1.801  16.172  0.0326  0.2131  1.0911
  848MPD2    C112508   0.889   1.893  16.269  0.6738  0.0515 -0.2092
  848MPD2    C212509   0.941   2.007  16.216  0.4524  0.3601 -0.3964
  848MPD2    C312510   0.950   2.041  16.079 -0.6012 -0.4318 -0.3734
  848MPD2    C412511   0.898   1.952  15.988 -0.3359 -0.6148 -0.2308
  848MPD2    C512512   0.851   1.832  16.040  0.2446 -0.4350 -0.3772
  848MPD2     H12513   0.976   2.080  16.288  2.1425  0.0029 -0.8499
  848MPD2    H112514   0.899   1.970  15.881  1.7170 -0.7605 -0.2287
  848MPD2    H212515   0.800   1.705  16.198  0.8216 -0.0433  1.4363
  848MPD2    H312516   0.811   1.762  15.967 -1.2054  0.7195 -0.6945
  848MPD2     N12517   0.996   2.167  16.038  0.3282 -0.7663 -0.3336
  848MPD2    H512518   0.971   2.192  15.942  0.2573  0.1465 -0.0801
  848MPD2    N112519   0.907   1.866  16.406 -0.3167 -0.2828 -0.1266
  848MPD2    H712520   0.966   1.924  16.465 -1.1881  1.9537 -1.4607
  849MPD2     C12521   0.264   1.771  14.183 -0.2268 -0.1482  0.7606
  849MPD2    C112522   0.200   1.650  14.159 -0.0072  0.1961  0.3968
  849MPD2    C212523   0.163   1.573  14.267  0.6339  0.2423 -0.6785
  849MPD2    C312524   0.186   1.618  14.393 -0.3768  0.1149 -0.5085
  849MPD2    C412525   0.237   1.744  14.409 -0.3604 -0.1549  0.6372
  849MPD2    C512526   0.283   1.814  14.304  0.1190  0.4640 -0.9553
  849MPD2     H12527   0.121   1.475  14.251  0.1185  0.2345  0.7345
  849MPD2    H112528   0.254   1.780  14.510  0.7756  0.3773  0.2585
  849MPD2    H212529   0.288   1.829  14.095 -0.0449 -1.2566  0.0810
  849MPD2    H312530   0.347   1.900  14.320  1.4046 -0.6216 -0.2218
  849MPD2     N12531   0.150   1.540  14.508  0.1395  0.4938  0.1447
  849MPD2    H512532   0.171   1.587  14.596  0.6383 -1.5030  1.1011
  849MPD2    N112533   0.198   1.606  14.027 -0.0008  0.2926 -0.3768
  849MPD2    H712534   0.118   1.547  14.008 -0.6971  0.8859  0.6727
  850MPD2     C12535   2.799   4.687  14.816  0.1850 -0.2232 -0.1217
  850MPD2    C112536   2.831   4.604  14.925 -0.8236 -0.0235  0.0816
  850MPD2    C212537   2.964   4.619  14.972  0.7647  0.0586  0.0058
  850MPD2    C312538   3.055   4.714  14.925  1.1929  0.2024  0.4320
  850MPD2    C412539   3.012   0.063  14.826  0.9269 -0.2760  0.5915
  850MPD2    C512540   2.890   0.042  14.773 -0.0980 -0.1943  0.3426
  850MPD2     H12541   3.010   4.554  15.045  0.4942 -1.2790 -1.0011
  850MPD2    H112542   3.067   0.144  14.781  2.2014 -1.3066  0.2804
  850MPD2    H212543   2.709   4.673  14.756  1.3750 -0.6686 -1.7955
  850MPD2    H312544   2.870   0.097  14.681  1.2487 -0.9659 -0.4112
  850MPD2     N12545   3.180   0.003  14.975 -0.5145  0.4068 -0.0275
  850MPD2    H512546   3.229   0.065  14.912 -0.4578  1.6673  1.2452
  850MPD2    N112547   2.743   4.500  14.957  0.7316  0.1902  0.6738
  850MPD2    H712548   2.666   4.483  14.893  0.3942 -0.1208  1.1629
  851MPD2     C12549   3.201   4.259  15.719 -0.1144  0.8358  0.3309
  851MPD2    C112550   3.160   4.207  15.600  0.4275  0.1427  0.1745
  851MPD2    C212551   3.223   4.097  15.549  0.1052  0.2161  0.1389
  851MPD2    C312552   3.327   4.038  15.618  0.3286 -0.7347 -0.4319
  851MPD2    C412553   3.363   4.084  15.743  0.0111 -0.1540 -0.4086
  851MPD2    C512554   3.305   4.196  15.787  0.9426 -0.0412 -0.1788
  851MPD2     H12555   3.197   4.053  15.453  2.3435  3.5586 -2.0069
  851MPD2    H112556   3.439   4.042  15.807 -0.2477 -0.6737 -0.4458
  851MPD2    H212557   3.163   4.351  15.763 -2.3313 -0.5172  1.2150
  851MPD2    H312558   3.323   4.239  15.885 -1.4441 -0.0292  0.2550
  851MPD2     N12559   3.397   3.939  15.552 -0.2446  0.3753  0.2230
  851MPD2    H512560   3.352   3.910  15.466 -0.9660 -1.0765  1.0936
  851MPD2    N112561   3.056   4.279  15.538 -0.9320  0.4686  0.3892
  851MPD2    H712562   3.019   4.358  15.589 -0.3681  0.2515  1.1438
  852MPD2     C12563   3.192   1.472   9.867  0.0046  0.2522 -0.1830
  852MPD2    C112564   3.153   1.575   9.941  0.4510  0.6082  0.2773
  852MPD2    C212565   3.186   1.704   9.902 -0.3762 -0.1209 -0.2329
  852MPD2    C312566   3.266   1.727   9.787 -0.2142 -0.5084 -0.1014
  852MPD2    C412567   3.303   1.614   9.710  0.2288 -0.0892 -0.0281
  852MPD2    C512568   3.271   1.491   9.754 -0.0181  0.1812  0.6441
  852MPD2     H12569   3.148   1.785   9.964 -1.9812 -1.6915  0.8150
  852MPD2    H112570   3.356   1.636   9.618 -0.4000 -0.6415 -0.5275
  852MPD2    H212571   3.146   1.376   9.885 -0.4694  0.7998  1.5704
  852MPD2    H312572   3.297   1.407   9.690 -1.1610 -0.4667  1.0055
  852MPD2     N12573   3.288   1.857   9.757  0.2922 -0.0565  0.6001
  852MPD2    H512574   3.240   1.924   9.817 -0.0713 -1.7312  2.1694
  852MPD2    N112575   3.072   1.553  10.056  0.2743  0.5007 -0.5100
  852MPD2    H712576   3.041   1.639  10.100 -1.0924 -0.1950 -0.0931
  853MPD2     C12577   4.315   1.831  12.313  0.0578  0.0612 -0.1549
  853MPD2    C112578   4.268   1.959  12.300  0.4124 -0.3363  0.0946
  853MPD2    C212579   4.286   2.020  12.178 -1.0766 -0.0247  0.0614
  853MPD2    C312580   4.370   1.966  12.087  1.1187 -0.6144  0.1110
  853MPD2    C412581   4.429   1.842  12.110 -0.7228 -0.1572  0.0617
  853MPD2    C512582   4.392   1.773  12.216 -0.1922  0.6541 -0.2678
  853MPD2     H12583   4.242   2.117  12.164  0.5361  0.7904  0.5851
  853MPD2    H112584   4.485   1.791  12.032 -0.4574 -0.9717  0.7885
  853MPD2    H212585   4.290   1.758  12.390  0.0958 -0.2029 -0.3909
  853MPD2    H312586   4.424   1.670  12.231  1.1673  0.9713 -0.9813
  853MPD2     N12587   4.395   2.028  11.962  0.1387 -0.3668  0.6782
  853MPD2    H512588   4.472   1.982  11.915  2.5484  2.8425  1.5320
  853MPD2    N112589   4.200   2.015  12.406  0.1669 -0.6931  0.6097
  853MPD2    H712590   4.216   1.966  12.494 -1.2233 -0.1874  1.1483
  854MPD2     C12591   0.880   2.198  12.688 -0.1249 -0.0972  0.5175
  854MPD2    C112592   1.016   2.231  12.698  0.1214  0.2179  0.4237
  854MPD2    C212593   1.089   2.138  12.775 -0.6514 -1.1943  0.0125
  854MPD2    C312594   1.044   2.020  12.831 -1.1170 -0.3769 -0.1769
  854MPD2    C412595   0.912   1.989  12.802 -0.2671  0.3468  0.5559
  854MPD2    C512596   0.830   2.078  12.738  1.1844 -0.0414  0.6080
  854MPD2     H12597   1.193   2.163  12.795 -0.8797  0.4881 -0.9695
  854MPD2    H112598   0.858   1.904  12.843 -0.2091 -0.1577 -0.4182
  854MPD2    H212599   0.815   2.256  12.624  1.3174  1.0192  0.0758
  854MPD2    H312600   0.726   2.053  12.721  1.6764 -2.2095  0.7469
  854MPD2     N12601   1.133   1.924  12.888  0.2688  0.7875 -0.2141
  854MPD2    H512602   1.102   1.828  12.890  0.3242  0.8041  2.1708
  854MPD2    N112603   1.060   2.346  12.637 -0.1519  0.1292 -0.4867
  854MPD2    H712604   0.988   2.407  12.602 -2.0305 -1.5034  0.5675
  855MPD2     C12605   2.126   1.614  13.283 -0.4587  0.4009  0.0054
  855MPD2    C112606   2.001   1.637  13.341 -0.1107 -0.2401  0.0240
  855MPD2    C212607   1.893   1.671  13.261  0.0144 -0.1216  0.1214
  855MPD2    C312608   1.907   1.669  13.123 -0.9179  0.6688  0.4153
  855MPD2    C412609   2.031   1.654  13.063  0.5019  0.1475  0.5740
  855MPD2    C512610   2.134   1.637  13.144  0.4754  0.6015 -0.3573
  855MPD2     H12611   1.800   1.690  13.313  0.1550  0.2618  0.2306
  855MPD2    H112612   2.051   1.645  12.957  0.1322 -3.0595  0.7547
  855MPD2    H212613   2.219   1.589  13.332 -1.0339 -0.9751  0.3690
  855MPD2    H312614   2.232   1.626  13.099  0.3853 -3.2138  0.3918
  855MPD2     N12615   1.786   1.685  13.044  0.5370 -0.0117 -0.3194
  855MPD2    H512616   1.793   1.651  12.949  0.4656 -0.6512 -0.0947
  855MPD2    N112617   1.966   1.615  13.479  0.3504 -0.3192 -0.0293
  855MPD2    H712618   1.871   1.622  13.513  1.7521  0.8004  3.6497
  856MPD2     C12619   3.904   2.784  14.238 -1.0595  0.0660  0.7249
  856MPD2    C112620   3.909   2.914  14.192  0.3616 -0.5002  0.0022
  856MPD2    C212621   3.813   2.966  14.111 -0.0393  0.2437  0.1375
  856MPD2    C312622   3.718   2.882  14.050  0.4379 -0.2720 -0.7944
  856MPD2    C412623   3.707   2.758  14.098  0.3453  0.2009  0.2551
  856MPD2    C512624   3.792   2.709  14.193  0.3025 -0.0949  0.5950
  856MPD2     H12625   3.837   3.066  14.079 -2.0099 -0.4806 -3.6341
  856MPD2    H112626   3.632   2.690  14.060  0.9598 -0.1243 -0.3638
  856MPD2    H212627   3.980   2.736  14.298 -0.0216  0.5772 -0.1707
  856MPD2    H312628   3.791   2.606  14.227  0.1255  0.0931  1.1559
  856MPD2     N12629   3.606   2.928  13.972 -0.2214  0.1194 -0.5559
  856MPD2    H512630   3.532   2.859  13.963 -0.2518  0.1629 -0.6438
  856MPD2    N112631   4.008   3.005  14.233  0.5621  0.3735 -0.1175
  856MPD2    H712632   4.001   3.100  14.198 -1.0107 -0.3352 -1.7309
  857MPD2     C12633   0.387   0.561  12.364  0.0356  0.2327 -0.2504
  857MPD2    C112634   0.496   0.502  12.420  0.0929 -0.6208 -0.3220
  857MPD2    C212635   0.568   0.576  12.514  0.1539  0.3510 -0.0316
  857MPD2    C312636   0.530   0.705  12.554  0.3685  1.1245 -0.2651
  857MPD2    C412637   0.412   0.760  12.506  0.1340 -0.0329  0.4519
  857MPD2    C512638   0.347   0.683  12.410 -1.1359 -0.2861 -0.6517
  857MPD2     H12639   0.667   0.548  12.549  0.8511  0.8238 -1.6190
  857MPD2    H112640   0.375   0.860  12.525 -0.3868 -0.1682  0.1586
  857MPD2    H212641   0.330   0.504  12.291  0.1793  0.2230 -0.3545
  857MPD2    H312642   0.254   0.721  12.368 -0.2849  1.1026 -1.2870
  857MPD2     N12643   0.610   0.758  12.662 -0.2901 -0.0053 -0.0997
  857MPD2    H512644   0.686   0.703  12.700  0.1009  0.5229 -0.1207
  857MPD2    N112645   0.536   0.370  12.381 -0.3585  0.7996  0.3878
  857MPD2    H712646   0.467   0.318  12.327 -1.1958  0.9770  1.2804
  858MPD2     C12647   1.626   4.289  16.659 -0.7634 -0.2192 -0.4970
  858MPD2    C112648   1.665   4.163  16.686  0.0814 -0.1967  0.2458
  858MPD2    C212649   1.676   4.120  16.810 -0.8183 -0.1113  0.3449
  858MPD2    C312650   1.635   4.201  16.912 -0.0105  0.5134 -0.5777
  858MPD2    C412651   1.619   4.332  16.888  0.0855 -0.4165  0.1657
  858MPD2    C512652   1.610   4.381  16.760 -0.8966  0.5817 -0.5634
  858MPD2     H12653   1.684   4.013  16.825  0.0951 -0.5342 -3.2894
  858MPD2    H112654   1.610   4.410  16.963 -0.0241 -2.0199  1.8076
  858MPD2    H212655   1.621   4.326  16.558 -0.9050  2.1193  0.3726
  858MPD2    H312656   1.589   4.487  16.754  1.3302  1.0209 -0.5871
  858MPD2     N12657   1.635   4.157  17.045 -0.2804  0.2271  0.2499
  858MPD2    H512658   1.610   4.215  17.124 -0.6014  0.2011  0.1661
  858MPD2    N112659   1.676   4.077  16.572  0.4757 -0.2056  0.7244
  858MPD2    H712660   1.657   4.125  16.485  0.8101 -0.0285  0.7485
  859MPD2     C12661   4.555   1.465  15.374 -0.2500  0.3111 -0.3903
  859MPD2    C112662   4.689   1.441  15.376  0.0097  0.1551  0.4258
  859MPD2    C212663   0.007   1.359  15.476  0.1389 -0.5339 -0.3156
  859MPD2    C312664   4.662   1.283  15.552 -0.4500 -0.0385 -0.7202
  859MPD2    C412665   4.523   1.294  15.544 -0.0494 -0.1331  0.3730
  859MPD2    C512666   4.468   1.393  15.461 -0.4440  0.7568 -0.5367
  859MPD2     H12667   0.115   1.351  15.480  0.1903  0.4192 -0.0003
  859MPD2    H112668   4.466   1.218  15.597  0.8753 -0.8821  0.2910
  859MPD2    H212669   4.513   1.530  15.297 -2.0939  2.4309  2.3776
  859MPD2    H312670   4.362   1.411  15.454 -0.8454 -1.8165 -0.9177
  859MPD2     N12671   4.710   1.194  15.647  0.6030 -0.3229 -0.0623
  859MPD2    H512672   4.643   1.151  15.709  1.3125 -1.8663 -0.3643
  859MPD2    N112673   0.030   1.516  15.285 -0.4762  0.4156 -0.2940
  859MPD2    H712674   4.716   1.587  15.231  0.9836  2.1133  0.6182
  860MPD2     C12675   2.479   1.759  11.419 -0.5114 -0.3547  0.2081
  860MPD2    C112676   2.515   1.808  11.542 -0.6023 -0.1137  0.9032
  860MPD2    C212677   2.417   1.825  11.641  0.0844 -0.2837  0.1863
  860MPD2    C312678   2.286   1.797  11.603 -0.2824  0.5000  0.4249
  860MPD2    C412679   2.252   1.756  11.478 -0.4059 -0.5810 -0.3442
  860MPD2    C512680   2.348   1.743  11.379  0.5221  0.1575  0.3987
  860MPD2     H12681   2.439   1.854  11.743  1.8513 -1.8743  0.2636
  860MPD2    H112682   2.149   1.741  11.445 -0.0869 -1.2051 -1.0717
  860MPD2    H212683   2.554   1.743  11.343 -2.3941  1.6818 -2.0611
  860MPD2    H312684   2.311   1.729  11.278 -0.5667 -2.7655  1.2090
  860MPD2     N12685   2.189   1.805  11.708  0.0908  0.7557 -0.7138
  860MPD2    H512686   2.229   1.830  11.798 -0.9552  0.9490 -0.3100
  860MPD2    N112687   2.652   1.804  11.583 -0.5606  0.2822 -0.9457
  860MPD2    H712688   2.677   1.805  11.681 -1.3767  3.1873 -0.7558
  861MPD2     C12689   1.771   0.208  10.518 -0.0272  0.0711 -0.5157
  861MPD2    C112690   1.764   0.325  10.591 -0.2376  0.2032 -0.4691
  861MPD2    C212691   1.696   0.437  10.532 -0.4773  0.4331 -0.2571
  861MPD2    C312692   1.626   0.426  10.413  0.8282  0.0837  0.4051
  861MPD2    C412693   1.623   0.298  10.366  0.4056  0.3877 -0.5372
  861MPD2    C512694   1.687   0.192  10.418  0.3232 -0.3381 -0.3869
  861MPD2     H12695   1.691   0.532  10.585 -0.0168  0.9140 -1.0783
  861MPD2    H112696   1.559   0.283  10.279  0.5287 -0.1306 -0.5399
  861MPD2    H212697   1.837   0.128  10.548  2.1981  1.7942 -0.7696
  861MPD2    H312698   1.670   0.095  10.371 -0.6334 -0.2712 -0.1768
  861MPD2     N12699   1.543   0.518  10.341  0.1136  0.8698 -0.5755
  861MPD2    H512700   1.484   0.486  10.265  1.4119 -1.6908 -0.5216
  861MPD2    N112701   1.828   0.336  10.721  0.1846 -0.4084  0.7715
  861MPD2    H712702   1.797   0.410  10.783 -2.8188  1.0755 -2.4426
  862MPD2     C12703   0.872   0.539  10.041  0.3650  0.2621  0.7565
  862MPD2    C112704   0.979   0.492  10.120  0.8362  0.2315 -0.2192
  862MPD2    C212705   0.979   0.360  10.153 -0.3040 -0.2257 -0.8466
  862MPD2    C312706   0.874   0.272  10.126  0.1152  0.0323 -0.2649
  862MPD2    C412707   0.773   0.319  10.045 -0.0530  0.0729 -0.2393
  862MPD2    C512708   0.773   0.450  10.005 -0.5101 -0.0707 -0.1809
  862MPD2     H12709   1.061   0.326  10.216 -0.6715  1.1537  0.3699
  862MPD2    H112710   0.688   0.261  10.010 -0.0527 -0.2619  0.3157
  862MPD2    H212711   0.849   0.637  10.000  1.8436  0.3366  0.1228
  862MPD2    H312712   0.685   0.484   9.951  0.2786 -0.2084 -1.5613
  862MPD2     N12713   0.870   0.137  10.166  0.3025  0.3020  0.0522
  862MPD2    H512714   0.782   0.092  10.147 -0.4094  2.3993 -1.7492
  862MPD2    N112715   1.082   0.575  10.164  0.7372  0.6995 -0.4424
  862MPD2    H712716   1.147   0.530  10.227  0.4846 -0.4988 -1.0356
  863MPD2     C12717   4.243   2.836  16.525  0.0786 -0.0389 -0.5011
  863MPD2    C112718   4.288   2.955  16.590 -0.1606  0.1856 -0.0263
  863MPD2    C212719   4.409   2.946  16.658  0.1274 -0.6197  0.4855
  863MPD2    C312720   4.484   2.830  16.655  0.0413  0.5856  0.2083
  863MPD2    C412721   4.438   2.717  16.590 -0.4983  0.3898 -0.0721
  863MPD2    C512722   4.317   2.719  16.535 -0.9657 -0.1410 -0.3991
  863MPD2     H12723   4.433   3.022  16.731  1.0677 -1.6687  1.2597
  863MPD2    H112724   4.494   2.624  16.597 -0.5306  0.4434  0.9237
  863MPD2    H212725   4.145   2.838  16.478  0.7708  1.9827 -1.8914
  863MPD2    H312726   4.293   2.621  16.495 -1.9160 -0.2411  0.4267
  863MPD2     N12727   4.609   2.824  16.724 -0.1829 -0.2911 -0.3458
  863MPD2    H512728   4.644   2.728  16.726  2.0668  0.5152 -0.4830
  863MPD2    N112729   4.211   3.072  16.590 -0.2605  0.4026 -0.4069
  863MPD2    H712730   4.135   3.076  16.523  1.1643 -0.7493 -2.0844
  864MPD2     C12731   0.252   3.912  17.480 -0.4225  0.5256  0.5052
  864MPD2    C112732   0.305   3.838  17.382  0.2641 -0.0048 -0.4599
  864MPD2    C212733   0.435   3.863  17.345  0.0733 -0.4009  0.2055
  864MPD2    C312734   0.504   3.975  17.393  0.2939 -0.3702  0.1819
  864MPD2    C412735   0.447   4.053  17.492  0.2390  0.2246 -0.3661
  864MPD2    C512736   0.327   4.012  17.538  0.2596 -0.1865 -0.0155
  864MPD2     H12737   0.484   3.796  17.276  0.9203  1.2734 -0.8177
  864MPD2    H112738   0.492   4.142  17.535 -1.2570  0.8344 -0.0814
  864MPD2    H212739   0.151   3.900  17.519 -0.8873  0.3147 -0.7601
  864MPD2    H312740   0.278   4.074  17.612 -0.3933  0.0388 -0.6367
  864MPD2     N12741   0.629   4.023  17.339 -0.5280  0.4391 -0.1835
  864MPD2    H512742   0.661   4.109  17.380  0.5063 -0.4022  0.7532
  864MPD2    N112743   0.230   3.738  17.313  0.3296 -0.1458  0.5062
  864MPD2    H712744   0.137   3.724  17.352  0.5140 -2.0221  0.3103
  865MPD2     C12745   0.860   4.450  16.628  0.1649 -0.1500  0.2749
  865MPD2    C112746   0.804   4.327  16.671  0.1479  0.3571 -0.2475
  865MPD2    C212747   0.766   4.303  16.803 -0.1465  0.2454  0.0162
  865MPD2    C312748   0.796   4.395  16.898  0.3108 -0.4013  0.4047
  865MPD2    C412749   0.846   4.516  16.864  0.2749  0.6137  0.5912
  865MPD2    C512750   0.877   4.548  16.728 -0.3793 -0.2144 -0.3166
  865MPD2     H12751   0.737   4.208  16.846 -0.3053 -1.2181 -3.3669
  865MPD2    H112752   0.872   4.594  16.934 -0.1285 -0.1058  1.5469
  865MPD2    H212753   0.890   4.467  16.525 -0.4066 -0.8085  0.0017
  865MPD2    H312754   0.901   4.651  16.707 -0.9852  0.1295  0.6365
  865MPD2     N12755   0.788   4.347  17.027 -0.5363 -0.0746  0.1436
  865MPD2    H512756   0.750   4.253  17.035 -0.7330  0.0766  1.0310
  865MPD2    N112757   0.795   4.231  16.572  0.3032  0.3307 -0.5887
  865MPD2    H712758   0.842   4.250  16.484 -0.7647 -0.4524 -1.3357
  866MPD2     C12759   2.293   0.589  10.868 -0.0197  0.2347 -0.0233
  866MPD2    C112760   2.250   0.574  10.736  0.8475 -0.5259  0.4212
  866MPD2    C212761   2.121   0.612  10.696 -0.4238  0.0046  0.2529
  866MPD2    C312762   2.026   0.648  10.793 -0.5884 -0.7180  0.4468
  866MPD2    C412763   2.061   0.621  10.926  0.2869 -0.7043 -0.1565
  866MPD2    C512764   2.190   0.599  10.958  0.1563 -0.7063 -0.2887
  866MPD2     H12765   2.101   0.616  10.589  1.1802 -2.1434 -0.1303
  866MPD2    H112766   1.992   0.644  11.006 -0.7327 -1.4098 -0.8461
  866MPD2    H212767   2.393   0.581  10.908 -0.0556 -1.9933 -0.3735
  866MPD2    H312768   2.213   0.600  11.064  0.9206  2.9643 -0.4908
  866MPD2     N12769   1.899   0.695  10.769  0.7191  0.2330  1.3058
  866MPD2    H512770   1.891   0.735  10.676  0.0578 -1.9156  0.4633
  866MPD2    N112771   2.348   0.550  10.640 -0.3671  0.8232  0.3364
  866MPD2    H712772   2.447   0.553  10.664  0.0592 -1.4630 -1.1143
  867MPD2     C12773   4.101   0.016  16.388  0.3002 -0.3679  0.8060
  867MPD2    C112774   4.109   4.653  16.483 -0.5713  0.1399 -0.4190
  867MPD2    C212775   4.133   4.680  16.615 -0.7209  0.3741  0.5331
  867MPD2    C312776   4.120   0.074  16.660 -0.5955  0.2739  0.4183
  867MPD2    C412777   4.098   0.171  16.566  0.1302  0.6169 -0.2872
  867MPD2    C512778   4.099   0.140  16.432  0.0548 -0.0455  0.6107
  867MPD2     H12779   4.148   4.599  16.685 -0.2868 -1.9579 -2.2493
  867MPD2    H112780   4.088   0.275  16.595 -0.5264 -0.0783  2.0068
  867MPD2    H212781   4.081   4.731  16.283 -0.5945  2.2972  0.4692
  867MPD2    H312782   4.072   0.213  16.356 -1.3601  0.4588  1.6162
  867MPD2     N12783   4.131   0.113  16.799 -0.1761  0.4621 -0.2653
  867MPD2    H512784   4.094   0.203  16.829  0.3046  0.8722 -0.8810
  867MPD2    N112785   4.106   4.516  16.431 -0.1128  0.1714  0.0824
  867MPD2    H712786   4.081   4.505  16.333 -2.4671  0.6920  0.6191
  868MPD2     C12787   0.966   3.459  12.855 -0.3967  0.3261  0.7097
  868MPD2    C112788   0.993   3.365  12.954 -0.2117 -0.5130 -0.0650
  868MPD2    C212789   0.880   3.312  13.017  0.0887 -0.2664 -0.3684
  868MPD2    C312790   0.751   3.348  12.985  0.0235  0.4476 -0.1856
  868MPD2    C412791   0.727   3.441  12.889 -0.1374 -0.0609 -0.3801
  868MPD2    C512792   0.838   3.498  12.827  0.1434  0.4051 -0.2580
  868MPD2     H12793   0.906   3.243  13.097 -0.6135  0.6713  0.6592
  868MPD2    H112794   0.628   3.455  12.848  0.2367 -2.2155 -2.0208
  868MPD2    H212795   1.046   3.499  12.793 -1.9732 -2.1468 -2.9169
  868MPD2    H312796   0.819   3.565  12.744 -1.0598  1.3707  0.8020
  868MPD2     N12797   0.660   3.292  13.070 -0.3580  0.3471  0.1668
  868MPD2    H512798   0.701   3.221  13.131  0.7308 -0.2166 -1.2406
  868MPD2    N112799   1.129   3.327  12.978 -0.0514 -0.1564 -0.2827
  868MPD2    H712800   1.201   3.387  12.938 -0.9649  1.8813  1.0936
  869MPD2     C12801   2.156   1.903   1.867 -0.0728 -0.4176 -0.0728
  869MPD2    C112802   2.224   1.944   1.980 -0.6047 -0.1163  0.1038
  869MPD2    C212803   2.344   2.022   1.971 -0.3269 -0.0513  0.2399
  869MPD2    C312804   2.376   2.070   1.846  0.4514 -0.3962 -0.1486
  869MPD2    C412805   2.308   2.017   1.733 -0.8153 -0.0049  0.2840
  869MPD2    C512806   2.198   1.933   1.740  0.0760  0.0038 -0.2570
  869MPD2     H12807   2.380   2.064   2.064  0.3992 -2.0437  0.8572
  869MPD2    H112808   2.341   2.061   1.639 -1.2294  0.1352  0.2010
  869MPD2    H212809   2.061   1.852   1.878 -0.4151  0.6450  1.7985
  869MPD2    H312810   2.136   1.905   1.656  0.4041  0.5029 -0.6665
  869MPD2     N12811   2.478   2.158   1.812  0.0088 -0.1266 -0.4117
  869MPD2    H512812   2.478   2.189   1.715  3.2817 -2.7740 -1.2710
  869MPD2    N112813   2.157   1.914   2.102 -0.6030 -0.6548 -0.4675
  869MPD2    H712814   2.065   1.872   2.098 -0.4219 -0.9704 -1.4271
  870MPD2     C12815   1.640   0.151   1.652  0.8100 -0.4484 -0.4772
  870MPD2    C112816   1.745   0.235   1.631 -0.8481 -0.0633 -0.1985
  870MPD2    C212817   1.728   0.372   1.611 -0.8240 -0.6971 -0.4544
  870MPD2    C312818   1.597   0.414   1.601 -0.6241  0.4375 -0.0041
  870MPD2    C412819   1.495   0.329   1.614  0.2439 -0.2635 -0.1252
  870MPD2    C512820   1.514   0.196   1.633  0.5878 -0.2397  0.1093
  870MPD2     H12821   1.805   0.449   1.607  0.1180 -1.6512 -0.6416
  870MPD2    H112822   1.397   0.367   1.587 -0.7363 -3.2470 -0.7493
  870MPD2    H212823   1.667   0.048   1.673 -2.6356 -0.8606  1.8548
  870MPD2    H312824   1.436   0.120   1.627  0.7244 -0.2816 -1.0003
  870MPD2     N12825   1.587   0.554   1.583 -0.6857  0.1378 -0.1712
  870MPD2    H512826   1.670   0.610   1.567 -0.4739 -0.1125  0.0604
  870MPD2    N112827   1.873   0.175   1.630  0.4465  0.4838  0.0253
  870MPD2    H712828   1.875   0.077   1.656  2.1317  1.1376  2.3643
  871MPD2     C12829   3.419   0.041  17.033 -0.6125  0.2896  1.0076
  871MPD2    C112830   3.380   0.051  17.165  0.4699 -0.2227 -0.2991
  871MPD2    C212831   3.399   4.672  17.247  0.1129 -0.1946  0.1477
  871MPD2    C312832   3.461   4.564  17.195 -0.0236  0.4831 -0.1655
  871MPD2    C412833   3.491   4.554  17.060 -0.0807 -0.4412 -0.2193
  871MPD2    C512834   3.463   4.662  16.976  0.1568 -0.0541 -0.7021
  871MPD2     H12835   3.376   4.673  17.353  0.2413 -1.9350  0.1782
  871MPD2    H112836   3.523   4.462  17.015 -0.2695 -0.0867 -1.0757
  871MPD2    H212837   3.412   0.128  16.969  0.5217  0.9103  1.7172
  871MPD2    H312838   3.497   4.664  16.873  2.4988  1.3900  0.1225
  871MPD2     N12839   3.495   4.470  17.291 -0.0520 -0.7589  0.2820
  871MPD2    H512840   3.452   4.473  17.383  0.8578 -1.4657  0.7195
  871MPD2    N112841   3.320   0.169  17.206 -0.2295  0.5423  0.5756
  871MPD2    H712842   3.321   0.243  17.137  3.2623 -2.5605 -2.7035
  872MPD2     C12843   3.655   1.963  14.150  0.1658 -0.3342 -0.2686
  872MPD2    C112844   3.612   2.053  14.058 -0.5747  0.4331 -0.2346
  872MPD2    C212845   3.487   2.110  14.079  0.0991  0.5451 -0.6829
  872MPD2    C312846   3.410   2.076  14.189  0.2881 -0.7332  0.2864
  872MPD2    C412847   3.453   1.968  14.270 -0.1932 -0.0715 -0.1085
  872MPD2    C512848   3.574   1.913  14.250  0.0532 -0.9848 -0.4141
  872MPD2     H12849   3.454   2.192  14.015 -3.0169  1.3402  1.9367
  872MPD2    H112850   3.393   1.933  14.353  0.3155  0.2830  0.3994
  872MPD2    H212851   3.753   1.918  14.134  0.8765  0.1737  2.6371
  872MPD2    H312852   3.618   1.844  14.320 -0.4151 -0.7237  0.1338
  872MPD2     N12853   3.293   2.139  14.225 -0.4518  0.4588 -0.3286
  872MPD2    H512854   3.248   2.109  14.310 -0.3334  0.1668 -0.3660
  872MPD2    N112855   3.688   2.102  13.951  0.3061  0.1326 -0.5521
  872MPD2    H712856   3.652   2.162  13.878  1.9207  1.7261 -0.0390
  873MPD2     C12857   1.302   2.208   0.707 -0.7005 -0.5243 -0.2244
  873MPD2    C112858   1.175   2.175   0.735 -0.6501  0.6052  0.1878
  873MPD2    C212859   1.128   2.052   0.707 -0.0843 -0.5094 -0.0935
  873MPD2    C312860   1.216   1.963   0.648  0.5822  0.3044  0.0654
  873MPD2    C412861   1.346   1.994   0.634  0.3954 -0.2328  0.2350
  873MPD2    C512862   1.389   2.122   0.651  0.4130  0.3640  0.9524
  873MPD2     H12863   1.030   2.024   0.743  0.3050 -2.0761 -0.2725
  873MPD2    H112864   1.424   1.933   0.590  0.9769  1.1253 -0.6096
  873MPD2    H212865   1.340   2.309   0.722  0.4774 -0.9250 -0.4983
  873MPD2    H312866   1.490   2.147   0.619  0.5631 -1.4624 -0.0506
  873MPD2     N12867   1.183   1.829   0.624  0.5089  0.0440 -0.1502
  873MPD2    H512868   1.258   1.767   0.598 -1.3033 -1.9777 -0.5701
  873MPD2    N112869   1.100   2.284   0.793  0.0276 -0.1030  0.3862
  873MPD2    H712870   1.157   2.364   0.817  0.3564  1.1534 -4.5017
  874MPD2     C12871   0.599   2.027  15.740 -0.1223 -0.5282  0.0308
  874MPD2    C112872   0.600   2.120  15.838 -0.2427  0.2165 -0.0027
  874MPD2    C212873   0.696   2.219  15.838  0.3258  0.5779 -0.1092
  874MPD2    C312874   0.794   2.213  15.740  1.1359 -0.0722  0.8997
  874MPD2    C412875   0.798   2.109  15.645 -0.2038  0.3338  0.4657
  874MPD2    C512876   0.697   2.024  15.640  0.2841  0.0495 -0.4613
  874MPD2     H12877   0.710   2.293  15.917 -0.5291  1.7040 -1.0124
  874MPD2    H112878   0.879   2.098  15.573  0.8604 -0.0522  1.7083
  874MPD2    H212879   0.524   1.949  15.734 -0.1128 -0.6230  1.0997
  874MPD2    H312880   0.708   1.944  15.567 -0.0897 -0.5798  0.1727
  874MPD2     N12881   0.900   2.304  15.756  0.1544 -0.0975 -0.0982
  874MPD2    H512882   0.887   2.380  15.822 -0.3373  2.2568 -2.9009
  874MPD2    N112883   0.499   2.113  15.935  0.0833  0.6206  0.2327
  874MPD2    H712884   0.431   2.038  15.935  1.1079 -0.3080 -0.1343
  875MPD2     C12885   1.506   0.358  14.430 -0.1245  0.0194 -0.5203
  875MPD2    C112886   1.377   0.401  14.457  0.5736  0.1073  0.2074
  875MPD2    C212887   1.356   0.455  14.578 -0.3035 -0.1158 -0.2871
  875MPD2    C312888   1.449   0.470  14.674  0.2418  0.3541  0.5440
  875MPD2    C412889   1.578   0.426  14.644 -0.9942 -0.4668 -0.6542
  875MPD2    C512890   1.603   0.371  14.518  0.0712 -0.0375 -0.4647
  875MPD2     H12891   1.253   0.484  14.596 -0.0291  0.8724 -0.3540
  875MPD2    H112892   1.645   0.426  14.730 -1.7798  1.0146 -0.0264
  875MPD2    H212893   1.538   0.311  14.338  1.7128  0.6857 -0.2144
  875MPD2    H312894   1.693   0.316  14.494 -1.2693 -1.6743 -1.6781
  875MPD2     N12895   1.419   0.530  14.799 -0.2703 -0.1019  0.2985
  875MPD2    H512896   1.497   0.549  14.860 -0.9168 -1.0860  1.4392
  875MPD2    N112897   1.272   0.382  14.370  0.4358 -0.2716 -0.0927
  875MPD2    H712898   1.178   0.402  14.403  1.0944  2.5426  0.0412
  876MPD2     C12899   0.124   1.743  15.581  0.7434 -0.2176 -0.0504
  876MPD2    C112900   0.262   1.734  15.559  0.5228  0.5258 -0.3266
  876MPD2    C212901   0.337   1.624  15.603  0.5810  0.4821  0.4288
  876MPD2    C312902   0.274   1.532  15.687  0.2902  0.3815 -0.2543
  876MPD2    C412903   0.140   1.550  15.717  0.3560 -0.2066  0.3444
  876MPD2    C512904   0.060   1.645  15.655  0.0410 -0.2054  1.2942
  876MPD2     H12905   0.436   1.602  15.565  0.6366  0.1506  0.7616
  876MPD2    H112906   0.078   1.484  15.776 -1.3694  2.4446  1.4654
  876MPD2    H212907   0.070   1.821  15.528  2.0151 -0.0801 -1.1570
  876MPD2    H312908   4.686   1.651  15.660 -0.1372 -1.5639 -0.9807
  876MPD2     N12909   0.356   1.431  15.743 -0.1440  0.1516  0.3450
  876MPD2    H512910   0.453   1.422  15.717 -0.6828 -0.0928 -1.5813
  876MPD2    N112911   0.314   1.838  15.473  0.3461  0.0813 -0.1272
  876MPD2    H712912   0.257   1.918  15.448  1.5875  0.2385 -2.4365
  877MPD2     C12913   0.156   2.132  14.779  0.2422  1.1154  0.1195
  877MPD2    C112914   0.288   2.141  14.807 -0.1869  0.5865  0.5194
  877MPD2    C212915   0.374   2.162  14.699 -0.1788  0.1560 -0.5835
  877MPD2    C312916   0.326   2.171  14.572  0.5830 -0.2669  0.0775
  877MPD2    C412917   0.194   2.148  14.545  0.0580 -0.2739 -1.1819
  877MPD2    C512918   0.106   2.135  14.649 -0.5602  0.1494  0.4920
  877MPD2     H12919   0.478   2.176  14.723  0.0594 -0.8481 -1.0407
  877MPD2    H112920   0.156   2.143  14.443  0.5993 -3.4078 -1.2134
  877MPD2    H212921   0.080   2.113  14.854 -0.4552 -2.0795 -1.4284
  877MPD2    H312922   0.005   2.106  14.622 -0.5595  0.5211  0.0890
  877MPD2     N12923   0.413   2.175  14.462 -0.3624  0.0539 -0.0528
  877MPD2    H512924   0.381   2.152  14.369 -0.6761 -2.3287  0.6294
  877MPD2    N112925   0.348   2.131  14.934 -1.2856 -0.1233  0.3282
  877MPD2    H712926   0.449   2.144  14.937 -1.2467 -0.6997  1.5972
  878MPD2     C12927   4.365   1.388  13.233 -0.1683 -0.4521  0.4974
  878MPD2    C112928   4.487   1.441  13.173  0.0102  0.7757 -0.2430
  878MPD2    C212929   4.592   1.464  13.263  0.0774 -0.1559 -0.0601
  878MPD2    C312930   4.586   1.424  13.396 -0.7964 -0.8533 -0.6995
  878MPD2    C412931   4.471   1.360  13.443 -0.2378  0.5925 -0.5990
  878MPD2    C512932   4.361   1.343  13.363 -0.1116 -0.3851  0.3749
  878MPD2     H12933   4.685   1.505  13.225 -1.1214  1.7276 -0.9536
  878MPD2    H112934   4.466   1.338  13.549  0.6950  1.7696 -0.3091
  878MPD2    H212935   4.287   1.368  13.160  0.0537  1.0252 -0.1531
  878MPD2    H312936   4.276   1.293  13.407 -1.0058 -1.5719 -2.6800
  878MPD2     N12937   4.695   1.445  13.474  0.0492 -0.0205 -0.9425
  878MPD2    H512938   0.046   1.468  13.426  0.7559  1.2654  0.9542
  878MPD2    N112939   4.499   1.458  13.036 -0.6404 -0.1741 -0.2794
  878MPD2    H712940   4.411   1.441  12.989 -0.9228 -0.8849  0.5217
  879MPD2     C12941   0.604   2.526  17.299 -0.1823  0.2861  0.6960
  879MPD2    C112942   0.595   2.635  17.217  0.2692  0.0431  0.4526
  879MPD2    C212943   0.542   2.627  17.088  0.4713  0.3940  0.3060
  879MPD2    C312944   0.494   2.505  17.047  0.4868 -0.5375 -0.0126
  879MPD2    C412945   0.496   2.402  17.137 -0.3152  0.0820 -0.2959
  879MPD2    C512946   0.548   2.414  17.260 -0.0356 -0.4949  0.0874
  879MPD2     H12947   0.550   2.718  17.029  1.1293 -0.4023 -0.8224
  879MPD2    H112948   0.457   2.305  17.109  1.5013 -1.0151  0.9707
  879MPD2    H212949   0.637   2.543  17.401  1.6084  0.3836  0.0971
  879MPD2    H312950   0.555   2.328  17.326  0.7925 -1.2281 -0.9382
  879MPD2     N12951   0.445   2.484  16.915 -0.3486  0.2252  0.9530
  879MPD2    H512952   0.414   2.392  16.889  0.0426  0.0841  0.9832
  879MPD2    N112953   0.637   2.760  17.281  0.3606  0.4184  0.1248
  879MPD2    H712954   0.683   2.753  17.371 -1.1543  0.6263  0.9204
  880MPD2     C12955   1.979   0.195   0.363  0.0608 -0.5012 -0.3593
  880MPD2    C112956   2.025   0.218   0.495 -0.0801  0.1383  0.3282
  880MPD2    C212957   2.047   0.110   0.578  0.1761 -0.9418 -0.3748
  880MPD2    C312958   2.000   4.718   0.548  0.6691  0.1997  0.4597
  880MPD2    C412959   1.958   4.698   0.415 -0.9615 -0.8054 -0.1719
  880MPD2    C512960   1.945   0.070   0.329 -0.9051 -0.1783 -0.0962
  880MPD2     H12961   2.069   0.132   0.682  0.3240 -0.6012 -0.4760
  880MPD2    H112962   1.923   4.607   0.369 -1.4930 -0.3142 -0.7457
  880MPD2    H212963   1.962   0.272   0.289  2.9443  0.9397  0.4661
  880MPD2    H312964   1.890   0.051   0.238 -1.0646 -0.2785  0.0216
  880MPD2     N12965   2.002   4.619   0.645 -0.4643  0.3391 -0.3246
  880MPD2    H512966   2.033   4.649   0.737 -2.5211 -1.1271  0.8282
  880MPD2    N112967   2.048   0.351   0.538 -0.4720 -0.6522 -0.1905
  880MPD2    H712968   2.019   0.419   0.469 -3.4774 -1.1652  0.5635
  881MPD2     C12969   2.279   1.157   0.052 -0.5691 -0.6483  0.1962
  881MPD2    C112970   2.250   1.023   0.037 -0.4733 -0.5173  0.3343
  881MPD2    C212971   2.247   0.941   0.149  0.0083  0.5069 -0.1415
  881MPD2    C312972   2.256   0.990   0.278 -0.1549 -0.0460 -0.2561
  881MPD2    C412973   2.290   1.122   0.294 -0.0049 -0.0756 -0.3578
  881MPD2    C512974   2.301   1.203   0.181 -0.1795 -0.0621  0.0337
  881MPD2     H12975   2.221   0.836   0.137 -0.6142  0.7013 -0.4800
  881MPD2    H112976   2.293   1.171   0.391 -0.8745 -3.5913  1.4170
  881MPD2    H212977   2.271   1.234  17.714  0.6596 -0.0394  0.6807
  881MPD2    H312978   2.306   1.309   0.204 -3.4282 -0.0270  0.5717
  881MPD2     N12979   2.223   0.913   0.388 -0.8041  0.0414  0.2084
  881MPD2    H512980   2.229   0.966   0.475 -0.8600  0.3663  0.0147
  881MPD2    N112981   2.257   0.958  17.647 -0.0707 -0.8162  0.7561
  881MPD2    H712982   2.245   0.858  17.645  3.7101 -1.1842 -2.0731
  882MPD2     C12983   0.350   1.921  13.735 -0.7598 -0.0373 -0.2522
  882MPD2    C112984   0.322   1.982  13.855  0.3608  0.0272 -0.7696
  882MPD2    C212985   0.191   2.002  13.895 -0.1864 -0.0897  0.0365
  882MPD2    C312986   0.087   1.960  13.810 -0.0929  0.2835 -1.2009
  882MPD2    C412987   0.118   1.902  13.685  0.6501 -0.6059 -0.2969
  882MPD2    C512988   0.248   1.882  13.648  0.7947  0.1467 -0.1569
  882MPD2     H12989   0.171   2.036  13.996 -0.7602 -1.8435  0.5192
  882MPD2    H112990   0.046   1.868  13.612  0.2026 -0.9122  0.2765
  882MPD2    H212991   0.450   1.923  13.693 -0.8954 -2.9782 -0.7631
  882MPD2    H312992   0.257   1.853  13.544 -2.4724  1.3114 -0.7640
  882MPD2     N12993   4.683   1.965  13.842 -0.4545 -0.1832 -0.7397
  882MPD2    H512994   4.617   1.914  13.784  0.5478 -1.9698 -0.3247
  882MPD2    N112995   0.432   2.021  13.931 -0.4984 -0.0807  0.0124
  882MPD2    H712996   0.521   1.981  13.901  0.8396  2.1057  1.0440
  883MPD2     C12997   2.413   1.888  15.820  0.5867 -0.6589 -0.1604
  883MPD2    C112998   2.392   2.002  15.756  0.4592 -0.8300  0.4585
  883MPD2    C212999   2.468   2.118  15.797 -0.7178 -0.0537 -0.5481
  883MPD2    C313000   2.539   2.118  15.910 -0.0748  0.1518  0.2711
  883MPD2    C413001   2.559   1.996  15.974 -0.8562  0.1585 -0.8035
  883MPD2    C513002   2.505   1.879  15.924  0.0884  0.1764  0.1561
  883MPD2     H13003   2.446   2.212  15.747 -1.1681 -1.3377 -2.7676
  883MPD2    H113004   2.630   1.994  16.056 -0.3142 -0.3543 -1.2885
  883MPD2    H213005   2.358   1.799  15.794 -0.6313 -1.1165  4.0014
  883MPD2    H313006   2.524   1.787  15.979 -3.2601 -1.0050 -0.6166
  883MPD2     N13007   2.601   2.244  15.953 -0.1897  0.3826  0.4142
  883MPD2    H513008   2.583   2.321  15.889  0.9874 -1.7952 -2.5118
  883MPD2    N113009   2.279   2.018  15.670  0.1421 -0.5240 -0.8414
  883MPD2    H713010   2.282   2.103  15.614 -1.0498 -0.7743 -1.2960
  884MPD2     C13011   4.359   2.774  15.304  0.1245 -0.4342  0.5480
  884MPD2    C113012   4.284   2.741  15.186 -0.1831 -0.3329  0.2707
  884MPD2    C213013   4.153   2.781  15.173  0.7436 -0.1963 -0.2934
  884MPD2    C313014   4.096   2.857  15.268  0.1613 -0.4392 -0.8893
  884MPD2    C413015   4.164   2.882  15.387  0.5825  0.2941  0.1097
  884MPD2    C513016   4.294   2.844  15.405  0.1412  1.3450  0.0318
  884MPD2     H13017   4.100   2.750  15.084  0.0497 -1.1472  0.4522
  884MPD2    H113018   4.126   2.927  15.478 -1.8315 -1.4807 -0.0120
  884MPD2    H213019   4.464   2.753  15.319  0.1269 -0.4868  0.4544
  884MPD2    H313020   4.338   2.850  15.503 -1.5514  2.2260  0.7338
  884MPD2     N13021   3.964   2.903  15.239 -0.3755  0.3367 -0.0567
  884MPD2    H513022   3.925   2.884  15.148 -0.7268 -1.9044  0.5687
  884MPD2    N113023   4.339   2.679  15.065 -0.7814  0.3127  0.1985
  884MPD2    H713024   4.286   2.682  14.979 -1.7722 -0.4941  0.7919
  885MPD2     C13025   2.803   3.006   0.285 -0.5390 -0.8931  0.0352
  885MPD2    C113026   2.791   3.130   0.344  0.5550  0.4897 -0.6117
  885MPD2    C213027   2.768   3.236   0.258 -0.3192 -0.3764  0.7039
  885MPD2    C313028   2.763   3.224   0.117  0.4337  0.8089 -0.1374
  885MPD2    C413029   2.776   3.093   0.065  0.4267  0.1428  0.5115
  885MPD2    C513030   2.804   2.988   0.153 -0.6695 -0.1713 -0.5700
  885MPD2     H13031   2.748   3.333   0.301  0.6235  0.6405 -1.1323
  885MPD2    H113032   2.766   3.069  17.697  1.1662  0.3710  0.3892
  885MPD2    H213033   2.827   2.914   0.337 -1.1679 -1.5346 -0.7869
  885MPD2    H313034   2.813   2.884   0.121  0.9709  0.2413 -1.4202
  885MPD2     N13035   2.738   3.337   0.037  0.0787  0.3515  0.1215
  885MPD2    H513036   2.723   3.427   0.081  0.4751  0.8198 -0.7053
  885MPD2    N113037   2.787   3.133   0.485 -0.1448 -0.1416 -0.4385
  885MPD2    H713038   2.790   3.040   0.524 -0.0294  0.4422  0.9198
  886MPD2     C13039   3.789   1.552  15.266  0.3863  0.2085  0.3177
  886MPD2    C113040   3.892   1.614  15.338  1.2227 -0.6783 -0.1851
  886MPD2    C213041   3.925   1.743  15.323 -0.0107 -0.2310 -0.1638
  886MPD2    C313042   3.865   1.822  15.225  0.1443 -0.0739  0.3793
  886MPD2    C413043   3.764   1.766  15.145 -0.1246 -0.8249  0.2954
  886MPD2    C513044   3.728   1.632  15.176 -0.0622 -0.5109 -0.1089
  886MPD2     H13045   4.010   1.784  15.376 -0.8521 -0.9953  1.7837
  886MPD2    H113046   3.708   1.828  15.077 -0.1518 -1.1890 -0.0178
  886MPD2    H213047   3.757   1.451  15.289  1.0266  0.1525  0.9501
  886MPD2    H313048   3.645   1.590  15.122  0.6991 -4.6065  1.9223
  886MPD2     N13049   3.892   1.957  15.189  0.0641  0.4285 -0.7246
  886MPD2    H513050   3.825   2.003  15.129 -0.8680 -1.5002 -1.1844
  886MPD2    N113051   3.972   1.547  15.431 -0.4452 -0.6069  0.0109
  886MPD2    H713052   4.017   1.600  15.504  1.0985 -0.7196 -0.8496
  887MPD2     C13053   4.465   1.621  15.942 -0.6536  0.6581  0.2786
  887MPD2    C113054   4.409   1.652  15.818  0.8858 -0.3303 -0.0504
  887MPD2    C213055   4.459   1.761  15.741 -0.2519  0.1592 -0.2655
  887MPD2    C313056   4.564   1.829  15.786  0.4840 -0.3405 -0.3221
  887MPD2    C413057   4.608   1.809  15.915  0.4841 -0.3481 -0.4231
  887MPD2    C513058   4.556   1.706  15.991 -0.1184  0.5286 -0.3279
  887MPD2     H13059   4.428   1.776  15.638  3.4912 -2.5291 -1.7983
  887MPD2    H113060   4.676   1.879  15.963 -0.5110 -0.5855  1.3204
  887MPD2    H213061   4.443   1.549  16.020  0.0707  1.3788  1.1525
  887MPD2    H313062   4.585   1.686  16.093  3.0662 -0.0930 -1.3602
  887MPD2     N13063   4.620   1.938  15.712  0.0203 -0.0310  0.6856
  887MPD2    H513064   4.580   1.954  15.620  2.2224  2.4567  0.1564
  887MPD2    N113065   4.316   1.567  15.760 -0.5235  0.2990 -0.1743
  887MPD2    H713066   4.280   1.595  15.670  1.0704 -1.8565 -1.4779
  888MPD2     C13067   1.390   1.582  14.676  0.4146 -0.5190 -0.5950
  888MPD2    C113068   1.377   1.613  14.807 -0.4173 -0.2170  0.6862
  888MPD2    C213069   1.433   1.737  14.848  0.1934  0.5341 -0.5493
  888MPD2    C313070   1.487   1.832  14.758 -0.2786 -0.0440 -0.3953
  888MPD2    C413071   1.483   1.792  14.623  0.3850  0.2515  0.5040
  888MPD2    C513072   1.446   1.665  14.585 -0.1206  0.4349 -0.0003
  888MPD2     H13073   1.429   1.758  14.954 -1.6728  2.0886 -0.9341
  888MPD2    H113074   1.509   1.851  14.536  0.3180 -1.9854 -1.0453
  888MPD2    H213075   1.372   1.483  14.637  1.4695 -0.8648 -0.2148
  888MPD2    H313076   1.449   1.639  14.480  1.1093  1.7378 -0.2822
  888MPD2     N13077   1.546   1.956  14.809  0.5674  0.3017 -0.8847
  888MPD2    H513078   1.547   1.972  14.910  3.0940 -0.5500 -0.7688
  888MPD2    N113079   1.333   1.520  14.908  0.6480 -0.4567 -0.4202
  888MPD2    H713080   1.345   1.550  15.004 -1.5136  1.1168 -0.6288
  889MPD2     C13081   0.516   1.471  12.850 -0.3245 -0.0499  0.2398
  889MPD2    C113082   0.639   1.446  12.911 -0.1000 -0.1026 -0.3476
  889MPD2    C213083   0.690   1.537  13.003  0.5451  0.7097 -0.4407
  889MPD2    C313084   0.642   1.664  13.010  0.0931  0.1470  0.5848
  889MPD2    C413085   0.525   1.692  12.933  0.4162  0.2722  0.0446
  889MPD2    C513086   0.462   1.595  12.868  0.4546 -0.7223 -0.0391
  889MPD2     H13087   0.789   1.516  13.042  1.4754  0.4489 -2.9153
  889MPD2    H113088   0.468   1.785  12.934  0.7033  0.4604 -1.3590
  889MPD2    H213089   0.463   1.405  12.783 -0.0574  1.3045 -1.2917
  889MPD2    H313090   0.374   1.615  12.809  1.2741  0.0162 -1.0131
  889MPD2     N13091   0.718   1.768  13.074  0.1265  0.0724 -0.0275
  889MPD2    H513092   0.802   1.747  13.126 -0.5998  2.6719  2.2273
  889MPD2    N113093   0.670   1.309  12.895  0.0944  0.1615 -0.6232
  889MPD2    H713094   0.617   1.256  12.827  1.3969 -2.7864  0.6240
  890MPD2     C13095   0.569   2.840  14.604 -0.3782 -0.4915 -0.0946
  890MPD2    C113096   0.631   2.939  14.665 -0.2239 -0.1017  0.3524
  890MPD2    C213097   0.699   2.911  14.781 -0.0595 -0.4017  0.3975
  890MPD2    C313098   0.689   2.789  14.840  0.2776  0.4473 -0.5153
  890MPD2    C413099   0.631   2.686  14.774  0.2575 -0.5366  0.0922
  890MPD2    C513100   0.564   2.714  14.655 -0.1278 -0.3015 -0.1611
  890MPD2     H13101   0.755   2.990  14.830  0.9997 -1.2185  0.4929
  890MPD2    H113102   0.632   2.584  14.809  2.9717 -0.9869 -1.2938
  890MPD2    H213103   0.511   2.857  14.514 -3.7890  0.9469  2.3770
  890MPD2    H313104   0.508   2.634  14.608 -0.2635 -0.7508  0.7709
  890MPD2     N13105   0.744   2.762  14.969 -1.0744 -0.3992  0.2204
  890MPD2    H513106   0.799   2.832  15.018 -0.2325 -1.5369  0.8888
  890MPD2    N113107   0.632   3.066  14.609 -0.0492  0.1428 -0.1224
  890MPD2    H713108   0.578   3.069  14.523 -1.8061  1.3566  1.0128
  891MPD2     C13109   3.464   1.883  16.365  0.1086  0.4802 -0.0754
  891MPD2    C113110   3.396   1.825  16.468 -0.0040  0.1624 -0.8727
  891MPD2    C213111   3.461   1.791  16.587 -0.5670 -0.7210 -0.2533
  891MPD2    C313112   3.602   1.805  16.598 -0.1346  0.0920 -0.7509
  891MPD2    C413113   3.668   1.860  16.490  0.1881  0.2262  0.1942
  891MPD2    C513114   3.599   1.899  16.377  0.1667  0.6629  0.1681
  891MPD2     H13115   3.403   1.738  16.661 -2.2800  2.2693  0.5503
  891MPD2    H113116   3.775   1.880  16.490  0.7201 -2.5788  0.5776
  891MPD2    H213117   3.412   1.929  16.281 -1.1098 -0.9774 -0.1223
  891MPD2    H313118   3.651   1.959  16.302 -1.0204 -1.5075 -2.3903
  891MPD2     N13119   3.658   1.756  16.717  0.2961 -0.2915 -0.2887
  891MPD2    H513120   3.592   1.719  16.784  0.0461  2.6901  1.1188
  891MPD2    N113121   3.268   1.778  16.435  0.7366  0.4191 -0.6782
  891MPD2    H713122   3.239   1.796  16.340 -0.3027 -0.7439 -0.5889
  892MPD2     C13123   4.372   2.374  14.691  0.7119 -0.2692  0.0207
  892MPD2    C113124   4.257   2.367  14.617 -0.8981  0.1890 -0.1988
  892MPD2    C213125   4.251   2.289  14.502  0.2264  0.2584  0.1338
  892MPD2    C313126   4.359   2.216  14.460  0.0353 -0.4052  0.5948
  892MPD2    C413127   4.470   2.218  14.540 -0.5682 -0.1397 -0.2151
  892MPD2    C513128   4.477   2.289  14.651 -0.0571  0.1432  0.2218
  892MPD2     H13129   4.162   2.286  14.440  1.2454 -0.7569 -1.3016
  892MPD2    H113130   4.559   2.163  14.512 -1.3096 -1.6764  0.4002
  892MPD2    H213131   4.390   2.435  14.779 -0.4579  0.9062 -0.5561
  892MPD2    H313132   4.566   2.276  14.711 -0.3427 -2.4435  0.1068
  892MPD2     N13133   4.371   2.139  14.337  0.0065  0.0188 -0.3836
  892MPD2    H513134   4.463   2.109  14.307 -0.0675 -0.1122 -0.4798
  892MPD2    N113135   4.139   2.441  14.644 -0.5998  0.3128  0.8381
  892MPD2    H713136   4.065   2.440  14.575  0.1818  1.3885 -0.0097
  893MPD2     C13137   0.926   1.120   1.487 -0.5049 -1.3650  0.0272
  893MPD2    C113138   0.941   1.222   1.574  0.5397 -0.3384  0.3847
  893MPD2    C213139   0.826   1.266   1.642  0.2432 -0.0236 -0.0319
  893MPD2    C313140   0.705   1.210   1.600 -1.0299 -0.3596 -0.9999
  893MPD2    C413141   0.693   1.117   1.502  0.1108 -1.0156  0.7038
  893MPD2    C513142   0.807   1.064   1.446 -0.0454 -0.7337  0.5304
  893MPD2     H13143   0.829   1.358   1.700 -0.4740 -0.6750  1.0538
  893MPD2    H113144   0.598   1.083   1.463 -0.0899  0.1270  0.2003
  893MPD2    H213145   1.011   1.074   1.437  0.3244  0.1778  0.0282
  893MPD2    H313146   0.804   0.991   1.367 -1.4070 -0.5918  0.4554
  893MPD2     N13147   0.582   1.259   1.643 -0.2655 -0.0994  1.2101
  893MPD2    H513148   0.495   1.216   1.613 -0.1845 -0.3214  1.2883
  893MPD2    N113149   1.069   1.281   1.585 -0.4791 -0.7720  0.3493
  893MPD2    H713150   1.138   1.250   1.518 -0.3724  2.0810 -0.8920
  894MPD2     C13151   4.011   3.249   1.708  0.6380 -0.0891 -0.4938
  894MPD2    C113152   3.998   3.389   1.700  0.2749  0.5798  0.6470
  894MPD2    C213153   4.076   3.450   1.605  0.0312  0.0366 -0.0497
  894MPD2    C313154   4.164   3.375   1.520  0.0846 -0.4834 -1.0114
  894MPD2    C413155   4.174   3.238   1.525  0.1927  0.0298 -0.4853
  894MPD2    C513156   4.093   3.180   1.617  0.0728  0.2598  0.4102
  894MPD2     H13157   4.070   3.557   1.589 -0.6961  0.5275  3.4334
  894MPD2    H113158   4.243   3.174   1.471  0.7469  0.0283  0.2364
  894MPD2    H213159   3.964   3.191   1.787  1.0120  1.9354  1.2117
  894MPD2    H313160   4.100   3.072   1.623 -0.9375  0.2870  1.9380
  894MPD2     N13161   4.233   3.443   1.422  0.0486  0.0608  0.9962
  894MPD2    H513162   4.223   3.544   1.416  4.2402  0.4761  1.1482
  894MPD2    N113163   3.897   3.465   1.766  0.0264  0.0345 -0.3302
  894MPD2    H713164   3.908   3.565   1.752 -2.9546  0.3094 -0.7024
  895MPD2     C13165   2.964   1.972  13.857  0.7490 -0.4439 -0.3356
  895MPD2    C113166   2.928   1.874  13.773 -0.5690  0.3841  0.3670
  895MPD2    C213167   3.002   1.749  13.766 -0.5248  0.4197 -0.1387
  895MPD2    C313168   3.128   1.744  13.822 -0.3345 -0.3256  0.2701
  895MPD2    C413169   3.159   1.834  13.918  0.3047  0.3015 -0.4229
  895MPD2    C513170   3.077   1.947  13.932  0.5062  0.0553 -0.0759
  895MPD2     H13171   2.969   1.678  13.692 -0.7080  0.9958 -0.6091
  895MPD2    H113172   3.245   1.818  13.982 -0.3706  0.8615  0.6320
  895MPD2    H213173   2.903   2.062  13.858  0.1733 -0.8028 -3.0138
  895MPD2    H313174   3.109   2.022  14.004  2.0108  0.7921 -1.5367
  895MPD2     N13175   3.212   1.640  13.777  0.3043 -0.0870  0.1670
  895MPD2    H513176   3.183   1.589  13.695 -0.5516 -1.7964  1.5264
  895MPD2    N113177   2.813   1.879  13.688 -0.3358 -0.5469 -0.2987
  895MPD2    H713178   2.796   1.792  13.639 -0.7416 -0.1030 -0.9513
  896MPD2     C13179   1.210   3.977   1.725 -0.3053 -0.2478  0.6521
  896MPD2    C113180   1.194   3.969   1.592 -0.0290  0.0506 -0.1914
  896MPD2    C213181   1.092   3.891   1.539  0.7614 -0.0651  0.0158
  896MPD2    C313182   0.998   3.831   1.627  1.0706  0.2639  0.6066
  896MPD2    C413183   1.013   3.850   1.763  0.3301  0.5044  0.4635
  896MPD2    C513184   1.121   3.912   1.810 -0.6695 -0.1371  0.4920
  896MPD2     H13185   1.085   3.885   1.431  2.3339 -0.3180 -0.0711
  896MPD2    H113186   0.946   3.804   1.834  0.8319  1.9754  1.9086
  896MPD2    H213187   1.292   4.030   1.772  0.1567 -0.0739 -0.3404
  896MPD2    H313188   1.136   3.925   1.917  1.0680  2.2489 -0.0452
  896MPD2     N13189   0.888   3.757   1.572  0.4852 -0.3117  0.3355
  896MPD2    H513190   0.879   3.760   1.471 -3.5929  0.3175  0.7149
  896MPD2    N113191   1.286   4.034   1.504  0.0068 -0.4662  0.1924
  896MPD2    H713192   1.365   4.082   1.546  0.0462 -0.7379  0.4316
  897MPD2     C13193   2.279   1.157  10.422 -0.0888  0.4278 -0.7530
  897MPD2    C113194   2.246   1.285  10.478 -0.3178 -0.5473  0.6600
  897MPD2    C213195   2.179   1.293  10.604  0.2196 -0.0802 -0.0280
  897MPD2    C313196   2.157   1.174  10.677  0.1542 -0.0654  0.4216
  897MPD2    C413197   2.200   1.055  10.621 -0.0477  0.1453 -0.3048
  897MPD2    C513198   2.259   1.048  10.500 -0.5938  0.2115  0.5622
  897MPD2     H13199   2.132   1.383  10.641  0.8087  0.1850  0.0884
  897MPD2    H113200   2.184   0.959  10.670 -0.2359  1.6263  2.5010
  897MPD2    H213201   2.326   1.156  10.324 -0.5639 -1.6607 -0.9686
  897MPD2    H313202   2.277   0.950  10.456  1.2357 -0.1965  2.2413
  897MPD2     N13203   2.071   1.183  10.787  0.1295 -0.6328  0.1525
  897MPD2    H513204   2.021   1.271  10.799  2.0879  0.4415  0.3363
  897MPD2    N113205   2.273   1.399  10.397 -0.5301  0.5425 -0.1249
  897MPD2    H713206   2.297   1.373  10.301 -0.5190  2.7175 -0.7028
  898MPD2     C13207   3.952   2.296   0.603 -0.6321  0.7778 -0.2207
  898MPD2    C113208   4.048   2.281   0.502 -0.3264 -0.5674 -0.3526
  898MPD2    C213209   4.024   2.351   0.387 -0.2040 -0.0621 -0.3612
  898MPD2    C313210   3.909   2.421   0.365  0.1857 -0.7010  1.2304
  898MPD2    C413211   3.819   2.438   0.465 -0.2321 -0.8571  0.6325
  898MPD2    C513212   3.846   2.377   0.587 -0.3514 -0.5169 -0.1456
  898MPD2     H13213   4.092   2.341   0.303 -0.1646  0.8301 -0.4344
  898MPD2    H113214   3.737   2.509   0.457 -1.2568 -2.0064  0.9148
  898MPD2    H213215   3.963   2.249   0.699 -0.9112  2.0052  0.4096
  898MPD2    H313216   3.788   2.406   0.674 -1.3397  0.6235 -1.1761
  898MPD2     N13217   3.908   2.503   0.249  0.3859  0.6330 -0.0150
  898MPD2    H513218   3.990   2.509   0.190  0.5161 -2.6980 -0.1746
  898MPD2    N113219   4.166   2.199   0.511 -0.1128  0.4692  0.1265
  898MPD2    H713220   4.213   2.179   0.424  0.6645 -0.1200  0.6855
  899MPD2     C13221   4.612   2.310  16.983  0.2512 -0.2297 -0.5986
  899MPD2    C113222   4.684   2.388  17.068 -0.6035  0.3911 -0.3428
  899MPD2    C213223   4.675   2.377  17.207 -0.1475  0.3103 -0.3189
  899MPD2    C313224   4.592   2.292  17.271  0.2359  0.5612  0.3359
  899MPD2    C413225   4.519   2.207  17.185  0.7791 -0.0763 -0.4682
  899MPD2    C513226   4.532   2.219  17.040  0.0480  0.6091  0.2598
  899MPD2     H13227   4.727   2.449  17.269 -1.9130 -0.8757  2.5615
  899MPD2    H113228   4.456   2.131  17.230  0.9849  0.0863  0.0882
  899MPD2    H213229   4.620   2.311  16.875  0.6332 -4.1185 -0.6230
  899MPD2    H313230   4.488   2.147  16.972 -2.2429  0.8145  1.5120
  899MPD2     N13231   4.572   2.282  17.408  0.1664  0.2261 -0.3066
  899MPD2    H513232   4.491   2.233  17.445  0.1027  1.0306  0.6373
  899MPD2    N113233   0.018   2.492  17.007  0.4641  0.4287  0.2701
  899MPD2    H713234   0.021   2.505  16.906 -1.7514 -2.2242 -0.1366
  900MPD2     C13235   3.963   4.220  12.607  0.2614 -0.5606  0.2620
  900MPD2    C113236   3.897   4.105  12.577  0.5548 -0.3744  0.1827
  900MPD2    C213237   3.773   4.120  12.521 -0.0003  0.2911  0.1471
  900MPD2    C313238   3.709   4.239  12.509  0.7372 -0.4819  0.4258
  900MPD2    C413239   3.772   4.351  12.560  0.1709 -0.5190  0.4355
  900MPD2    C513240   3.904   4.343  12.591 -0.0272 -0.5017  0.5611
  900MPD2     H13241   3.724   4.035  12.476  1.7243 -0.1646 -0.9017
  900MPD2    H113242   3.724   4.447  12.577  2.3702  0.8765 -1.2504
  900MPD2    H213243   4.060   4.218  12.654  1.6588 -2.8838 -2.7410
  900MPD2    H313244   3.958   4.427  12.632  0.6321 -0.1054 -1.1146
  900MPD2     N13245   3.580   4.248  12.460 -0.3146  0.4750 -0.4061
  900MPD2    H513246   3.548   4.161  12.417  1.4154 -0.3693  0.0098
  900MPD2    N113247   3.970   3.989  12.602  0.2339  0.0126  0.3564
  900MPD2    H713248   4.062   4.002  12.642  0.6742 -0.2195 -0.5724
  901MPD2     C13249   4.007   2.913  12.853 -0.3327  0.4442 -0.8566
  901MPD2    C113250   4.106   2.964  12.772  0.6055  0.0144 -0.0204
  901MPD2    C213251   4.116   3.098  12.741  0.4736  0.4289 -0.1834
  901MPD2    C313252   4.033   3.188  12.797 -0.1803  0.7200  0.0765
  901MPD2    C413253   3.923   3.140  12.864  0.3206  0.0462 -0.3539
  901MPD2    C513254   3.916   3.008  12.900  0.2431 -0.6746 -0.1576
  901MPD2     H13255   4.203   3.125  12.683 -0.7874  2.7403 -0.9560
  901MPD2    H113256   3.849   3.213  12.894 -0.3733 -0.8672  0.1760
  901MPD2    H213257   3.996   2.807  12.872 -0.0676  0.1478 -2.3712
  901MPD2    H313258   3.840   2.963  12.962  0.8920 -0.9315  0.4546
  901MPD2     N13259   4.058   3.319  12.777  0.1524  1.0233 -0.2193
  901MPD2    H513260   4.147   3.338  12.733  0.9818  1.8827  1.8718
  901MPD2    N113261   4.196   2.876  12.712  0.2224  0.3116  0.6070
  901MPD2    H713262   4.278   2.919  12.671  0.1716  0.7198  0.9365
  902MPD2     C13263   3.796   1.873  12.775  0.4237 -0.6882 -0.9857
  902MPD2    C113264   3.728   1.954  12.681  0.5518 -0.0729  0.2970
  902MPD2    C213265   3.769   1.952  12.551  0.1909 -0.5946 -0.1289
  902MPD2    C313266   3.875   1.866  12.514  0.7239  0.3918  0.1880
  902MPD2    C413267   3.942   1.792  12.606  0.3840 -1.1585 -0.0288
  902MPD2    C513268   3.896   1.786  12.739  0.3631  0.0026 -0.0417
  902MPD2     H13269   3.715   2.012  12.479  0.0880 -0.4747  0.0484
  902MPD2    H113270   4.024   1.726  12.581 -0.2470 -1.4396 -1.3425
  902MPD2    H213271   3.768   1.875  12.880 -2.6692 -0.7733 -1.8108
  902MPD2    H313272   3.945   1.724  12.813 -0.5351 -1.0186 -0.3041
  902MPD2     N13273   3.913   1.850  12.377 -0.0125 -0.0323 -0.2312
  902MPD2    H513274   3.988   1.782  12.367  0.8296  1.2538 -2.5774
  902MPD2    N113275   3.621   2.037  12.732 -0.1696 -0.0573 -0.5868
  902MPD2    H713276   3.608   2.049  12.831 -2.7247  1.0412 -1.0712
  903MPD2     C13277   3.713   2.062  11.599  0.4938 -0.0756  0.0319
  903MPD2    C113278   3.684   2.028  11.726 -0.3146 -0.2728 -0.0399
  903MPD2    C213279   3.556   1.985  11.749 -0.0198 -0.1542  0.1762
  903MPD2    C313280   3.454   1.979  11.653 -0.2848  0.0215 -0.4594
  903MPD2    C413281   3.495   2.014  11.527  0.3837 -0.0905 -0.1300
  903MPD2    C513282   3.622   2.056  11.498  0.3250 -0.0439  0.3906
  903MPD2     H13283   3.530   1.962  11.851  0.7455 -2.0168 -0.0612
  903MPD2    H113284   3.430   2.002  11.441  0.1489  0.9015 -0.0913
  903MPD2    H213285   3.814   2.079  11.562  0.8996  1.8360  1.9960
  903MPD2    H313286   3.653   2.086  11.398 -4.0552  3.1231 -0.0324
  903MPD2     N13287   3.317   1.939  11.693 -0.5347  0.2796 -0.3356
  903MPD2    H513288   3.301   1.901  11.786 -0.3534  0.7231 -0.1239
  903MPD2    N113289   3.780   2.016  11.824  0.2496 -0.2586  0.5042
  903MPD2    H713290   3.749   1.985  11.916  0.5674 -0.6010  0.4934
  904MPD2     C13291   2.832   1.245  13.782 -0.6847  0.1535  0.2696
  904MPD2    C113292   2.806   1.137  13.865 -0.5971 -0.4227 -0.1444
  904MPD2    C213293   2.901   1.102  13.950 -0.1181 -0.1296  0.6393
  904MPD2    C313294   3.018   1.171  13.967 -0.0837 -0.7270 -0.7635
  904MPD2    C413295   3.045   1.281  13.884 -0.2731 -0.0878 -0.2529
  904MPD2    C513296   2.948   1.314  13.793 -0.4726 -0.0079 -1.0323
  904MPD2     H13297   2.894   1.013  14.011 -4.2299 -0.9030 -0.9908
  904MPD2    H113298   3.140   1.332  13.873 -0.8908  0.6107 -2.3125
  904MPD2    H213299   2.776   1.270  13.693  2.0998  2.9740 -0.7049
  904MPD2    H313300   2.963   1.392  13.720  3.3036  0.5355  0.3248
  904MPD2     N13301   3.112   1.132  14.063  0.4525 -0.4619  0.1820
  904MPD2    H513302   3.103   1.035  14.089  1.9819 -0.7106 -0.2422
  904MPD2    N113303   2.679   1.071  13.877 -0.3110 -0.1424 -0.3375
  904MPD2    H713304   2.679   0.987  13.933  0.9874 -0.1330 -0.3181
  905MPD2     C13305   2.754   1.251  13.246  0.7505 -0.2790  0.3739
  905MPD2    C113306   2.766   1.327  13.357  0.7061 -0.7526 -0.4217
  905MPD2    C213307   2.894   1.357  13.396 -0.0344  0.1329  0.5751
  905MPD2    C313308   3.002   1.314  13.325 -0.4540  0.0096  0.5644
  905MPD2    C413309   2.982   1.237  13.218  0.3394  0.3045  0.0326
  905MPD2    C513310   2.858   1.210  13.173  0.2470  0.8726  0.3267
  905MPD2     H13311   2.909   1.406  13.491  1.8937 -2.6945  1.7330
  905MPD2    H113312   3.067   1.214  13.155  1.6473  1.5910  1.3153
  905MPD2    H213313   2.658   1.225  13.203  1.2106  0.6820 -1.2417
  905MPD2    H313314   2.850   1.150  13.083 -1.4227 -0.7107  1.5377
  905MPD2     N13315   3.143   1.338  13.370 -0.1011 -0.6995  0.6268
  905MPD2    H513316   3.220   1.294  13.320  0.8851  0.5387  1.0479
  905MPD2    N113317   2.648   1.363  13.430  0.8530  0.6401 -0.8341
  905MPD2    H713318   2.563   1.330  13.387 -0.6537  1.9094  1.2040
  906MPD2     C13319   0.658   1.381  11.383  0.4196 -0.2877 -0.1557
  906MPD2    C113320   0.733   1.336  11.270 -0.0555 -0.6246  0.3806
  906MPD2    C213321   0.755   1.202  11.251 -0.2295  0.5818  0.0613
  906MPD2    C313322   0.707   1.109  11.341 -0.1974 -0.0511 -0.1783
  906MPD2    C413323   0.630   1.152  11.451  0.1540 -0.3732  0.1499
  906MPD2    C513324   0.612   1.284  11.470 -0.0647  0.0600  0.1688
  906MPD2     H13325   0.815   1.169  11.168 -0.2697 -0.5536  0.4839
  906MPD2    H113326   0.584   1.087  11.525  1.0680 -2.2885 -0.9723
  906MPD2    H213327   0.650   1.485  11.410  1.0186 -0.6027  1.2254
  906MPD2    H313328   0.560   1.317  11.559 -0.3854 -2.0572  0.7674
  906MPD2     N13329   0.710   0.970  11.322 -0.6441  0.6523  0.1787
  906MPD2    H513330   0.644   0.921  11.382  2.5706 -1.9439  1.6455
  906MPD2    N113331   0.794   1.435  11.186  0.0637 -0.6462  0.2790
  906MPD2    H713332   0.871   1.404  11.127  0.3223  1.5244 -0.5587
  907MPD2     C13333   4.668   0.417  15.908  0.2162 -0.2816 -0.2826
  907MPD2    C113334   4.593   0.301  15.902  0.7315  0.9585 -0.6817
  907MPD2    C213335   4.615   0.212  16.008  0.2832 -0.0859 -0.2339
  907MPD2    C313336   4.713   0.224  16.096  0.1000 -0.2231  0.3426
  907MPD2    C413337   0.048   0.338  16.098 -0.3932 -0.2926  0.4418
  907MPD2    C513338   0.023   0.438  16.012  0.1386 -0.2575 -0.2047
  907MPD2     H13339   4.548   0.128  16.013 -0.7446  0.6661 -1.4433
  907MPD2    H113340   0.129   0.360  16.167 -2.4649  3.4126  1.7207
  907MPD2    H213341   4.649   0.500  15.840 -0.4109  0.4095  0.7430
  907MPD2    H313342   0.080   0.531  16.013 -0.5892  0.1830  0.1989
  907MPD2     N13343   0.000   0.114  16.183  0.1532  0.0450  0.2994
  907MPD2    H513344   4.683   0.028  16.167  0.0174  0.6794 -2.6889
  907MPD2    N113345   4.490   0.265  15.809 -0.0968 -0.3321  0.1439
  907MPD2    H713346   4.430   0.185  15.829 -0.4150  0.0492  0.7141
  908MPD2     C13347   1.939   1.273   9.680 -0.0054  0.1508  0.7701
  908MPD2    C113348   2.039   1.216   9.757 -0.2718 -0.5017 -0.4049
  908MPD2    C213349   2.103   1.295   9.854  0.7452 -0.3076 -0.0502
  908MPD2    C313350   2.064   1.426   9.877 -0.3419 -0.2130  0.0791
  908MPD2    C413351   1.968   1.484   9.783 -0.2024 -0.4116  0.1995
  908MPD2    C513352   1.902   1.399   9.697 -0.9802  0.1655 -0.3070
  908MPD2     H13353   2.159   1.247   9.933  2.5452  1.4534 -0.2416
  908MPD2    H113354   1.929   1.584   9.794 -0.1864 -0.3108 -0.6557
  908MPD2    H213355   1.888   1.213   9.606  1.3250 -3.1357  2.5427
  908MPD2    H313356   1.822   1.438   9.636 -0.6365 -1.6111 -1.8726
  908MPD2     N13357   2.120   1.498   9.975 -0.1473  0.2315 -0.2913
  908MPD2    H513358   2.195   1.452  10.027  0.6188  0.6312 -1.0577
  908MPD2    N113359   2.086   1.084   9.727 -0.0178  0.7999  0.1549
  908MPD2    H713360   2.038   1.030   9.655 -2.1059 -0.3673  2.4038
  909MPD2     C13361   2.227   4.018  10.810  0.1386 -0.0545  0.2600
  909MPD2    C113362   2.313   4.110  10.859 -0.1761 -0.7410 -0.2355
  909MPD2    C213363   2.308   4.146  10.993  0.2119 -0.3820  0.9804
  909MPD2    C313364   2.220   4.087  11.085  0.1851  0.9365  0.0463
  909MPD2    C413365   2.133   4.003  11.032 -0.7993 -0.3264 -0.3272
  909MPD2    C513366   2.142   3.967  10.897 -0.6278  0.1359  0.1885
  909MPD2     H13367   2.389   4.204  11.036  0.0513 -0.0755  0.8650
  909MPD2    H113368   2.059   3.950  11.092  1.7258 -1.7980  1.4896
  909MPD2    H213369   2.229   3.981  10.709  0.8297  0.2734  0.1497
  909MPD2    H313370   2.073   3.892  10.859  0.9567 -0.7797 -0.9301
  909MPD2     N13371   2.226   4.129  11.224 -0.3297 -0.0209  0.1556
  909MPD2    H513372   2.295   4.199  11.247 -1.0210  0.7189 -0.0028
  909MPD2    N113373   2.415   4.175  10.777 -0.3944  0.1674 -0.9722
  909MPD2    H713374   2.476   4.238  10.827 -0.4083 -0.9988  0.4929
  910MPD2     C13375   3.826   1.059  15.800 -0.6888 -0.3027 -0.0443
  910MPD2    C113376   3.793   0.928  15.771 -0.2057  1.0605  0.1014
  910MPD2    C213377   3.743   0.896  15.649 -0.0443  0.5281  1.0003
  910MPD2    C313378   3.708   0.999  15.558 -0.0446 -0.0221  0.9605
  910MPD2    C413379   3.755   1.126  15.581  0.0585 -0.1362  0.1659
  910MPD2    C513380   3.811   1.147  15.702 -0.1883 -0.2226 -0.4958
  910MPD2     H13381   3.720   0.792  15.626  0.6242  0.9207 -1.4501
  910MPD2    H113382   3.743   1.212  15.516  3.0905  0.1836  0.0346
  910MPD2    H213383   3.872   1.099  15.889  0.2782  3.5224 -2.2733
  910MPD2    H313384   3.845   1.247  15.727 -1.2773  1.0031 -4.0284
  910MPD2     N13385   3.633   0.965  15.445 -0.0172 -0.0709  0.3511
  910MPD2    H513386   3.623   1.040  15.376  0.3008 -1.7061 -1.4746
  910MPD2    N113387   3.834   0.825  15.857  0.5512  1.0917 -0.0268
  910MPD2    H713388   3.835   0.732  15.817 -1.5118  0.3324  1.6783
  911MPD2     C13389   1.504   1.375  16.074 -0.1055 -0.1462 -0.3878
  911MPD2    C113390   1.609   1.462  16.059 -0.5044 -0.3613 -0.2642
  911MPD2    C213391   1.579   1.594  16.009  0.2080 -0.0179  0.6648
  911MPD2    C313392   1.448   1.630  15.983 -0.3244 -0.2075  0.3032
  911MPD2    C413393   1.345   1.538  16.004 -0.3420 -0.0022  0.1061
  911MPD2    C513394   1.370   1.415  16.050 -0.0826  0.5328  0.5482
  911MPD2     H13395   1.658   1.661  15.978  0.1101 -0.5140 -0.6522
  911MPD2    H113396   1.245   1.566  15.972  0.6038  2.6476 -0.5621
  911MPD2    H213397   1.515   1.275  16.114 -0.9453  0.1462  0.5978
  911MPD2    H313398   1.285   1.348  16.053  0.2546  0.0222 -1.0622
  911MPD2     N13399   1.409   1.753  15.926  0.1881  0.3496  0.5201
  911MPD2    H513400   1.310   1.767  15.908  0.4934  0.7705 -0.8255
  911MPD2    N113401   1.731   1.425  16.104  0.1919  0.1196  0.5382
  911MPD2    H713402   1.745   1.325  16.116  1.2982 -0.0974 -2.4903
  912MPD2     C13403   1.038   1.435  15.595  0.2101  0.3493 -0.1446
  912MPD2    C113404   1.052   1.518  15.703  0.3112 -0.3185  0.4524
  912MPD2    C213405   1.043   1.461  15.825 -0.8364  0.2572 -1.0539
  912MPD2    C313406   1.054   1.325  15.851 -0.0775 -0.1602  0.2073
  912MPD2    C413407   1.061   1.245  15.736 -0.0898 -0.2389  0.6693
  912MPD2    C513408   1.053   1.303  15.613 -0.0460  0.3030  0.4377
  912MPD2     H13409   1.027   1.525  15.912  0.6922 -1.5350  0.5426
  912MPD2    H113410   1.074   1.137  15.738 -1.6189 -0.4354 -0.0030
  912MPD2    H213411   1.029   1.464  15.491 -0.9652  1.9127  0.4007
  912MPD2    H313412   1.066   1.239  15.526  1.5586  1.0130  0.1475
  912MPD2     N13413   1.067   1.264  15.978 -0.3628  0.7991 -0.3284
  912MPD2    H513414   1.068   1.325  16.060 -1.1938  0.5645 -0.1449
  912MPD2    N113415   1.074   1.657  15.685  0.4487 -0.2746  0.0625
  912MPD2    H713416   1.064   1.685  15.588 -0.8524  1.6248  0.7407
  913MPD2     C13417   2.270   2.977  11.318 -0.1739 -0.0957  0.4673
  913MPD2    C113418   2.239   2.842  11.332  0.9941  0.6285  0.2367
  913MPD2    C213419   2.104   2.808  11.365 -0.0008  0.8680  0.2185
  913MPD2    C313420   2.004   2.905  11.387 -0.1016  0.9506  0.0561
  913MPD2    C413421   2.043   3.037  11.372 -0.1769 -0.2730  0.2009
  913MPD2    C513422   2.169   3.073  11.337 -0.0178 -0.2976  0.8956
  913MPD2     H13423   2.062   2.708  11.371  0.1053  0.7410 -1.1837
  913MPD2    H113424   1.979   3.122  11.396 -1.0711 -0.4805 -1.4627
  913MPD2    H213425   2.365   3.019  11.287 -0.8156  0.9505 -0.0548
  913MPD2    H313426   2.180   3.179  11.317  0.2655 -0.7818 -1.5612
  913MPD2     N13427   1.867   2.872  11.427  0.6601  0.0338 -0.6251
  913MPD2    H513428   1.797   2.945  11.429  0.3544 -0.2926  0.1471
  913MPD2    N113429   2.344   2.747  11.308 -0.0765  0.2185 -0.0874
  913MPD2    H713430   2.434   2.790  11.290 -0.0175  0.1409  0.0206
  914MPD2     C13431   0.019   3.210  12.166 -0.0652  0.0164  0.5642
  914MPD2    C113432   4.697   3.219  12.287 -0.3590 -0.2451 -0.4881
  914MPD2    C213433   4.624   3.121  12.348  0.4841 -0.5250 -0.0777
  914MPD2    C313434   4.597   3.012  12.270 -0.2198 -0.6678 -0.5152
  914MPD2    C413435   4.649   2.997  12.144 -0.3736  0.6369  0.4067
  914MPD2    C513436   4.728   3.102  12.096  0.2378 -0.0254  1.0544
  914MPD2     H13437   4.607   3.133  12.454 -0.6779  0.9073 -0.4099
  914MPD2    H113438   4.628   2.914  12.078  0.3090  0.2708  0.6467
  914MPD2    H213439   0.066   3.296  12.119  1.1100 -0.7802  0.2716
  914MPD2    H313440   0.016   3.092  11.991 -0.4409 -0.0746  0.9136
  914MPD2     N13441   4.509   2.923  12.333  0.1836 -0.3721 -0.0397
  914MPD2    H513442   4.474   2.966  12.418 -0.5537 -0.5054 -0.2772
  914MPD2    N113443   4.713   3.337  12.359  0.4752 -0.2603  0.4286
  914MPD2    H713444   0.046   3.401  12.318 -0.8511  0.6264 -0.3429
  915MPD2     C13445   2.888   3.127  15.338  0.2514  0.5047  0.4991
  915MPD2    C113446   2.754   3.109  15.315  0.9077  0.2554  0.1013
  915MPD2    C213447   2.663   3.130  15.417  0.1104 -0.1632  0.3794
  915MPD2    C313448   2.708   3.160  15.545  0.0797 -0.1920  0.8011
  915MPD2    C413449   2.842   3.184  15.564 -0.2383 -0.0620  1.3443
  915MPD2    C513450   2.932   3.159  15.464  0.1794  0.1936 -0.0292
  915MPD2     H13451   2.556   3.136  15.400  0.1518  0.3060  0.2828
  915MPD2    H113452   2.883   3.211  15.661 -0.0085  0.0432  1.2152
  915MPD2    H213453   2.957   3.120  15.256  0.7213 -1.2360  1.0498
  915MPD2    H313454   3.036   3.166  15.493  0.1331 -0.4448  0.3117
  915MPD2     N13455   2.618   3.192  15.652  1.0649  0.0299 -0.1627
  915MPD2    H513456   2.647   3.249  15.731 -1.3368  0.2668  0.5686
  915MPD2    N113457   2.721   3.082  15.185  0.0451  0.0460 -1.1222
  915MPD2    H713458   2.793   3.086  15.114 -0.5434  3.2746 -1.5452
  916MPD2     C13459   0.624   1.046  15.371  0.2522  0.8494 -0.1500
  916MPD2    C113460   0.626   0.968  15.484  0.2413  0.5704 -0.0501
  916MPD2    C213461   0.647   0.830  15.478  0.3052 -0.1522  0.0068
  916MPD2    C313462   0.680   0.778  15.352  0.3563 -0.1180 -0.5526
  916MPD2    C413463   0.681   0.858  15.242 -0.2613  0.4019  0.3416
  916MPD2    C513464   0.651   0.992  15.247  0.2291 -0.6460  0.2782
  916MPD2     H13465   0.626   0.763  15.561  1.7242 -1.6086 -0.8154
  916MPD2    H113466   0.723   0.825  15.147  2.9308 -2.7501  2.8417
  916MPD2    H213467   0.603   1.151  15.383  1.4045  1.4432 -3.3190
  916MPD2    H313468   0.653   1.054  15.159  2.4690  1.0500  1.5100
  916MPD2     N13469   0.712   0.643  15.352 -0.9109 -0.2635 -0.1447
  916MPD2    H513470   0.747   0.605  15.440 -0.4845 -0.7976 -0.5479
  916MPD2    N113471   0.604   1.041  15.604 -0.1302  0.4675 -0.0857
  916MPD2    H713472   0.590   1.139  15.585  1.8469  0.5776 -1.0139
  917MPD2     C13473   0.846   4.046  11.325  1.0286  0.4787 -0.2009
  917MPD2    C113474   0.942   4.049  11.427 -0.4126 -0.6393  0.4315
  917MPD2    C213475   1.075   4.085  11.388 -0.1340  0.6475  0.4451
  917MPD2    C313476   1.108   4.107  11.256  0.5540 -0.4141  0.5527
  917MPD2    C413477   1.005   4.119  11.163  0.5702 -0.3697  0.6012
  917MPD2    C513478   0.878   4.088  11.201  0.0603 -0.4451 -0.4079
  917MPD2     H13479   1.152   4.110  11.460 -3.4900  0.0504  4.2114
  917MPD2    H113480   1.028   4.147  11.060  1.0387  1.2895  1.1572
  917MPD2    H213481   0.741   4.031  11.344  0.6928  1.1323 -1.5734
  917MPD2    H313482   0.804   4.107  11.124 -0.4873 -1.5656 -0.1553
  917MPD2     N13483   1.237   4.151  11.224  0.4351  0.0159  0.3443
  917MPD2    H513484   1.259   4.181  11.129 -1.2757  0.1314 -0.0244
  917MPD2    N113485   0.910   4.006  11.557  0.1874  0.4961  0.1241
  917MPD2    H713486   0.811   3.987  11.571  0.0749  0.2870 -1.0232
  918MPD2     C13487   1.375   4.066  12.474 -0.1335  0.2907 -0.1339
  918MPD2    C113488   1.409   3.992  12.358  0.2195  0.0763  0.1736
  918MPD2    C213489   1.321   3.999  12.252 -0.1973  0.0017  0.1936
  918MPD2    C313490   1.198   4.058  12.257 -0.1341  0.5716  0.0448
  918MPD2    C413491   1.170   4.130  12.372 -0.9110  0.3133  0.0830
  918MPD2    C513492   1.253   4.130  12.480 -0.3480  0.5349  0.6884
  918MPD2     H13493   1.350   3.949  12.160  0.8031 -0.7375  0.9072
  918MPD2    H113494   1.077   4.186  12.378 -1.8898 -1.3521  0.4809
  918MPD2    H213495   1.443   4.064  12.558 -1.5972  1.4930  1.0775
  918MPD2    H313496   1.223   4.186  12.568 -1.4737 -1.5499  1.6271
  918MPD2     N13497   1.122   4.048  12.139  0.1247 -0.2713 -0.3199
  918MPD2    H513498   1.162   3.996  12.062  1.2320 -2.1062  1.4878
  918MPD2    N113499   1.528   3.916  12.344 -0.0185 -0.2741  0.6267
  918MPD2    H713500   1.540   3.875  12.252 -3.4216 -0.5806  0.3408
  919MPD2     C13501   1.721   2.915  11.846  0.8304  0.0125 -0.2763
  919MPD2    C113502   1.622   2.822  11.882 -0.5377  0.4694 -0.1009
  919MPD2    C213503   1.496   2.846  11.836  0.3381  0.2064  0.4152
  919MPD2    C313504   1.462   2.960  11.774  0.4186  0.1931  0.2312
  919MPD2    C413505   1.553   3.060  11.762  0.4080  0.8206 -0.2258
  919MPD2    C513506   1.684   3.032  11.794  0.6138 -0.2291  0.0752
  919MPD2     H13507   1.418   2.778  11.866  1.5553 -1.9296 -1.3156
  919MPD2    H113508   1.527   3.158  11.724 -1.0176  0.2367 -0.7859
  919MPD2    H213509   1.828   2.899  11.858  0.8244 -0.2513 -0.5822
  919MPD2    H313510   1.766   3.099  11.771 -0.1808  0.9871  0.8319
  919MPD2     N13511   1.329   2.977  11.722 -0.2478  0.0946 -0.0961
  919MPD2    H513512   1.302   3.071  11.693 -2.1916 -0.0755  1.1873
  919MPD2    N113513   1.643   2.696  11.944 -0.1003  0.1144 -0.0571
  919MPD2    H713514   1.561   2.642  11.972 -0.3207 -0.7460 -2.3935
  920MPD2     C13515   0.646   3.362  11.109  0.6423 -1.0240  0.2106
  920MPD2    C113516   0.580   3.252  11.167 -0.1725  0.1525  0.2716
  920MPD2    C213517   0.647   3.181  11.265 -0.7725  0.1078  0.0145
  920MPD2    C313518   0.774   3.215  11.303  0.6988  0.0765  0.3802
  920MPD2    C413519   0.845   3.317  11.243  0.1903  0.2549  0.7318
  920MPD2    C513520   0.777   3.394  11.150  1.2845 -0.6101  0.2309
  920MPD2     H13521   0.598   3.094  11.307 -1.2533  1.1501  1.6161
  920MPD2    H113522   0.946   3.339  11.276  0.9480  0.8999 -2.0813
  920MPD2    H213523   0.591   3.423  11.038 -0.8352 -1.3034  1.1108
  920MPD2    H313524   0.821   3.480  11.100 -2.1554  0.4787 -0.9127
  920MPD2     N13525   0.839   3.142  11.403 -0.2547  0.6867  0.0740
  920MPD2    H513526   0.791   3.059  11.438  0.9112 -0.0606 -0.1216
  920MPD2    N113527   0.449   3.206  11.126  0.0652 -0.4920  0.1464
  920MPD2    H713528   0.415   3.124  11.177  2.4046 -0.7190  1.3317
  921MPD2     C13529   2.541   1.743  16.614 -1.1160  0.2697 -0.9672
  921MPD2    C113530   2.578   1.630  16.542  0.0506 -0.3585 -0.3518
  921MPD2    C213531   2.473   1.557  16.491  0.0601  0.2343 -0.7584
  921MPD2    C313532   2.336   1.590  16.499 -0.4225 -0.8296  0.0543
  921MPD2    C413533   2.311   1.701  16.576  0.4226  0.2227  0.1572
  921MPD2    C513534   2.411   1.771  16.637  0.2715  0.8922  0.0110
  921MPD2     H13535   2.509   1.466  16.446 -0.4626  1.4625 -3.6925
  921MPD2    H113536   2.212   1.739  16.600 -0.3111 -1.3038 -0.4569
  921MPD2    H213537   2.612   1.812  16.655  0.7513 -0.4433 -2.9771
  921MPD2    H313538   2.384   1.851  16.705  1.0929 -0.9975  2.5516
  921MPD2     N13539   2.233   1.516  16.431  0.1354  0.4829  0.9134
  921MPD2    H513540   2.138   1.548  16.444 -0.0901 -0.0155  0.4947
  921MPD2    N113541   2.713   1.600  16.533  0.2517 -0.1883 -0.0245
  921MPD2    H713542   2.781   1.671  16.558 -0.5362  1.1388 -1.6526
  922MPD2     C13543   3.541   0.365   1.052  0.7900  0.8991  0.3032
  922MPD2    C113544   3.561   0.402   0.924 -0.3360  0.1015 -0.5384
  922MPD2    C213545   3.486   0.345   0.825 -0.5902  0.1018 -0.7101
  922MPD2    C313546   3.404   0.238   0.853  0.2340 -0.2501 -0.1678
  922MPD2    C413547   3.379   0.202   0.988  0.5184  0.1824  0.1191
  922MPD2    C513548   3.450   0.267   1.083 -0.9212  0.5431  0.4671
  922MPD2     H13549   3.498   0.377   0.722  0.8981 -2.4205 -1.3338
  922MPD2    H113550   3.310   0.124   1.019 -0.6765  0.6266 -1.4255
  922MPD2    H213551   3.605   0.400   1.132  0.3495  0.8994  0.6532
  922MPD2    H313552   3.444   0.236   1.186 -2.1240 -2.0053 -0.3837
  922MPD2     N13553   3.345   0.171   0.746 -0.5004 -0.4235  0.1915
  922MPD2    H513554   3.355   0.211   0.654 -0.6069 -1.1313 -0.1319
  922MPD2    N113555   3.672   0.480   0.887 -0.3530  0.5864  0.0201
  922MPD2    H713556   3.693   0.493   0.789 -1.9519  2.6266 -0.0497
  923MPD2     C13557   0.456   1.905   8.510  0.1039  0.3601  0.1242
  923MPD2    C113558   0.372   1.953   8.605 -0.0743 -0.1809  0.1283
  923MPD2    C213559   0.424   1.974   8.735  0.8449  0.3391  0.1538
  923MPD2    C313560   0.553   1.950   8.775 -0.0004 -0.0374 -0.3698
  923MPD2    C413561   0.628   1.890   8.675  0.5289  0.0928  0.9508
  923MPD2    C513562   0.584   1.869   8.550  0.0758 -0.1746  0.7582
  923MPD2     H13563   0.357   2.012   8.812  0.5389  2.7397 -1.2962
  923MPD2    H113564   0.734   1.871   8.687  0.5882 -0.0547  0.1953
  923MPD2    H213565   0.414   1.889   8.411 -1.2703 -1.8000  1.0510
  923MPD2    H313566   0.650   1.830   8.474 -1.0970 -1.0456  0.1780
  923MPD2     N13567   0.601   1.962   8.906 -0.2453 -0.5011 -0.4292
  923MPD2    H513568   0.699   1.941   8.924 -0.1479 -0.3465 -0.7761
  923MPD2    N113569   0.233   1.976   8.567 -0.6150 -0.5056 -0.0395
  923MPD2    H713570   0.216   1.961   8.468  0.6755 -0.8319 -0.2129
  924MPD2     C13571   4.727   4.100  15.920  0.0141 -0.5095 -0.4580
  924MPD2    C113572   4.698   4.103  16.056 -0.6090 -0.6227  0.2124
  924MPD2    C213573   0.035   4.176  16.145  0.0202 -0.2369  0.0785
  924MPD2    C313574   0.127   4.267  16.100  0.1130 -0.4489 -0.3042
  924MPD2    C413575   0.161   4.268  15.965 -0.0203 -0.0316  0.1392
  924MPD2    C513576   0.101   4.176  15.884 -0.4198  0.1538  0.2988
  924MPD2     H13577   0.011   4.170  16.251  2.9234 -1.9943  0.6352
  924MPD2    H113578   0.227   4.347  15.931  0.8058 -0.7334  0.1128
  924MPD2    H213579   4.669   4.039  15.851  0.8325 -1.9761  0.1472
  924MPD2    H313580   0.116   4.179  15.776  3.8607  0.4495  0.9102
  924MPD2     N13581   0.173   4.370  16.181 -0.0341 -0.3821  0.1259
  924MPD2    H513582   0.238   4.433  16.135  1.6894 -2.1830  0.1102
  924MPD2    N113583   4.590   4.021  16.084 -0.3386  0.0598 -0.2468
  924MPD2    H713584   4.574   3.941  16.023  0.7087 -0.0647 -0.3722
  925MPD2     C13585   3.181   2.345  14.889  0.5157  0.4020 -0.0132
  925MPD2    C113586   3.087   2.432  14.835  0.2775 -0.0159 -0.2542
  925MPD2    C213587   3.019   2.527  14.915 -0.1306 -0.4502  0.2860
  925MPD2    C313588   3.044   2.525  15.050 -1.0140 -0.1039  0.1608
  925MPD2    C413589   3.137   2.427  15.100 -0.0572 -0.6429 -0.2564
  925MPD2    C513590   3.202   2.338  15.021  0.5855 -0.4734 -0.1817
  925MPD2     H13591   2.946   2.601  14.883 -2.4955 -2.2121  1.5555
  925MPD2    H113592   3.148   2.420  15.207 -1.6081  1.4090  0.0416
  925MPD2    H213593   3.215   2.260  14.830  0.3176  0.3590 -0.0675
  925MPD2    H313594   3.257   2.257  15.068  1.9096  0.1634 -0.6467
  925MPD2     N13595   2.990   2.607  15.148 -0.3104  0.0262  0.6686
  925MPD2    H513596   3.019   2.589  15.243 -0.7753  0.4746  0.8922
  925MPD2    N113597   3.054   2.418  14.698 -0.0836 -0.0603  0.4348
  925MPD2    H713598   2.977   2.472  14.662 -1.2486 -0.8840  1.7066
  926MPD2     C13599   1.910   0.520  13.637  0.2735  0.7663 -0.3309
  926MPD2    C113600   1.792   0.553  13.579 -0.0300 -0.1364  0.1254
  926MPD2    C213601   1.785   0.565  13.445  0.7243  0.1417 -0.1893
  926MPD2    C313602   1.901   0.559  13.368  0.3409  0.0590 -0.1400
  926MPD2    C413603   2.017   0.534  13.425 -0.3011 -0.3650  0.3802
  926MPD2    C513604   2.024   0.516  13.564  0.1543  0.7181 -0.5318
  926MPD2     H13605   1.687   0.592  13.407 -0.3259 -2.9204  0.3538
  926MPD2    H113606   2.111   0.548  13.373  1.4627 -4.5509  2.4022
  926MPD2    H213607   1.924   0.495  13.741  0.1038  1.3595 -0.1640
  926MPD2    H313608   2.123   0.490  13.600 -0.6874 -2.0882 -0.2724
  926MPD2     N13609   1.901   0.600  13.230 -0.3027 -0.2703  0.1755
  926MPD2    H513610   1.988   0.631  13.189  0.2011 -2.1805 -0.2258
  926MPD2    N113611   1.681   0.599  13.647 -0.0848 -0.1426 -0.0414
  926MPD2    H713612   1.600   0.636  13.598 -0.5931 -0.8007  0.3111
  927MPD2     C13613   2.371   2.411  17.733  0.2406  0.9326  0.6200
  927MPD2    C113614   2.262   2.480  17.683  0.6370  0.2608 -0.3336
  927MPD2    C213615   2.282   2.548  17.563 -0.2641  0.1554 -0.2441
  927MPD2    C313616   2.404   2.536  17.497 -0.5210  0.2885  0.3330
  927MPD2    C413617   2.516   2.483  17.562  0.2188 -0.5606  0.2666
  927MPD2    C513618   2.492   2.425  17.684 -0.6315 -0.2178 -0.0060
  927MPD2     H13619   2.199   2.590  17.507  1.1766  1.9243 -1.0144
  927MPD2    H113620   2.614   2.480  17.515  0.4785 -2.3553  0.9288
  927MPD2    H213621   2.346   2.361   0.089  1.0981 -0.1514  0.2798
  927MPD2    H313622   2.573   2.380   0.002 -0.7598  0.4382  0.7184
  927MPD2     N13623   2.405   2.592  17.374 -0.3690 -0.6881  0.3931
  927MPD2    H513624   2.317   2.632  17.343  0.4644  1.4660  0.7867
  927MPD2    N113625   2.140   2.474   0.018  0.1684  0.1525 -1.1927
  927MPD2    H713626   2.159   2.440   0.112 -0.9849 -2.0552 -1.7541
  928MPD2     C13627   4.366   1.523   0.716 -0.6630  0.4403 -0.2503
  928MPD2    C113628   4.497   1.519   0.762 -0.3677 -0.9071  0.0956
  928MPD2    C213629   4.594   1.457   0.688  0.0863 -0.0843  0.5144
  928MPD2    C313630   4.559   1.384   0.574  0.2181 -0.9574  1.0206
  928MPD2    C413631   4.427   1.377   0.545  0.1968  0.3567 -0.2607
  928MPD2    C513632   4.329   1.455   0.599 -0.0205  0.3377 -0.3145
  928MPD2     H13633   4.700   1.463   0.709  0.0146 -0.9444  1.1340
  928MPD2    H113634   4.392   1.316   0.462  1.2147 -2.1446  1.1442
  928MPD2    H213635   4.287   1.577   0.767 -0.0727 -0.0053  1.1505
  928MPD2    H313636   4.224   1.443   0.576 -0.5347  0.9349  1.7342
  928MPD2     N13637   4.656   1.313   0.496  0.0757 -0.1152  0.4763
  928MPD2    H513638   4.615   1.255   0.424  3.1943 -1.6565 -0.0882
  928MPD2    N113639   4.524   1.591   0.881  0.2269  0.1760  0.7293
  928MPD2    H713640   4.445   1.628   0.933 -1.0879  2.1562 -2.6615
  929MPD2     C13641   0.559   1.759  10.384 -0.2231 -0.1216 -0.2367
  929MPD2    C113642   0.451   1.683  10.349 -0.8811 -0.2668 -0.5617
  929MPD2    C213643   0.387   1.701  10.227 -0.0395  0.0457 -0.4496
  929MPD2    C313644   0.412   1.814  10.151  0.5643  0.2045 -0.0971
  929MPD2    C413645   0.519   1.894  10.182 -0.0498 -0.6115  0.4749
  929MPD2    C513646   0.592   1.860  10.297 -0.0898  0.7227  0.5126
  929MPD2     H13647   0.298   1.644  10.201 -0.8762  0.1063  2.2667
  929MPD2    H113648   0.540   1.986  10.130  0.4919  0.2225  2.1647
  929MPD2    H213649   0.618   1.730  10.470  0.1335 -2.5139 -1.2882
  929MPD2    H313650   0.677   1.922  10.323  0.0295  0.1093  1.5935
  929MPD2     N13651   0.333   1.854  10.044 -0.3820 -0.2828 -0.1532
  929MPD2    H513652   0.347   1.945  10.000  0.4406 -0.2272  0.2371
  929MPD2    N113653   0.419   1.574  10.440 -0.0331  0.7138 -0.2912
  929MPD2    H713654   0.452   1.590  10.534  2.6365  1.5987 -1.3805
  930MPD2     C13655   1.241   3.391  14.292  0.0281  0.4654  0.2716
  930MPD2    C113656   1.367   3.425  14.250 -0.9928 -0.5119 -0.6280
  930MPD2    C213657   1.404   3.370  14.128 -0.0177 -0.8984  0.4193
  930MPD2    C313658   1.317   3.293  14.050  0.2142 -0.6442  0.4877
  930MPD2    C413659   1.206   3.244  14.097  0.3979 -0.7122  0.8073
  930MPD2    C513660   1.173   3.294  14.223 -0.6919  0.6531  0.3123
  930MPD2     H13661   1.494   3.410  14.083 -0.8147  0.6470  0.1769
  930MPD2    H113662   1.141   3.181  14.037  1.0884 -1.7840  1.1756
  930MPD2    H213663   1.195   3.424  14.385 -1.0368  2.3018 -0.9126
  930MPD2    H313664   1.083   3.262  14.274 -0.7643  1.0011  0.3986
  930MPD2     N13665   1.335   3.260  13.912 -0.0368  0.1402  0.0713
  930MPD2    H513666   1.253   3.236  13.858 -0.5622  0.1689  0.8489
  930MPD2    N113667   1.443   3.522  14.316 -0.7538  0.0064  0.2434
  930MPD2    H713668   1.389   3.573  14.385  0.9339  1.4269  0.4878
  931MPD2     C13669   2.276   2.623   0.584  0.0092 -0.2918 -0.5494
  931MPD2    C113670   2.140   2.588   0.600  0.1805  0.2425  0.1209
  931MPD2    C213671   2.083   2.601   0.725  0.3444 -0.2275 -0.0145
  931MPD2    C313672   2.161   2.629   0.835 -1.4596 -0.3645 -0.1472
  931MPD2    C413673   2.291   2.659   0.817  0.0381 -0.9161 -0.0143
  931MPD2    C513674   2.339   2.665   0.692  0.3796  0.4597 -0.0478
  931MPD2     H13675   1.981   2.566   0.734  0.6460 -1.3382 -0.9555
  931MPD2    H113676   2.348   2.691   0.904  0.0333 -2.2427  0.4822
  931MPD2    H213677   2.325   2.619   0.488 -0.4129 -0.2072 -0.7668
  931MPD2    H313678   2.444   2.688   0.678  1.0967 -1.2862  2.4073
  931MPD2     N13679   2.106   2.634   0.966 -0.0550  0.0377 -0.3982
  931MPD2    H513680   2.173   2.679   1.026 -0.2684 -1.0558  0.6597
  931MPD2    N113681   2.072   2.548   0.488 -0.1039 -0.2415  0.0873
  931MPD2    H713682   2.127   2.533   0.404 -1.4879 -0.8292 -0.7152
  932MPD2     C13683   3.375   1.843  11.207 -0.1361 -0.0853  0.0996
  932MPD2    C113684   3.483   1.863  11.125  0.0267  0.4435 -0.5668
  932MPD2    C213685   3.565   1.753  11.105  0.4059 -0.7889  0.2417
  932MPD2    C313686   3.535   1.630  11.157  0.4597  0.2333  0.0151
  932MPD2    C413687   3.426   1.615  11.236  1.2454  0.6202 -1.2820
  932MPD2    C513688   3.350   1.724  11.266  0.1632 -0.1365  0.8903
  932MPD2     H13689   3.655   1.770  11.047 -0.7477  0.9002 -1.0858
  932MPD2    H113690   3.402   1.519  11.281  0.3139  1.6121  0.3388
  932MPD2    H213691   3.303   1.922  11.223 -0.6778  0.0253 -3.0518
  932MPD2    H313692   3.265   1.715  11.333 -0.7624  2.2720  0.0221
  932MPD2     N13693   3.623   1.517  11.150 -0.2321 -0.3532  0.3129
  932MPD2    H513694   3.599   1.446  11.218 -1.5520 -0.6028 -0.4078
  932MPD2    N113695   3.519   1.987  11.073 -0.5480 -0.0768 -0.2519
  932MPD2    H713696   3.591   1.980  11.002  0.7868  0.4242  1.0486
  933MPD2     C13697   4.286   2.208   1.052 -0.7587  0.4916 -0.1735
  933MPD2    C113698   4.336   2.141   1.161 -0.4175 -0.1572 -0.3184
  933MPD2    C213699   4.308   2.193   1.287 -0.0080 -0.3458  0.6607
  933MPD2    C313700   4.232   2.312   1.304  0.3058  0.4077 -0.2179
  933MPD2    C413701   4.186   2.375   1.191  0.1818 -0.2776 -0.1239
  933MPD2    C513702   4.205   2.312   1.071  0.0708 -0.6426 -0.4586
  933MPD2     H13703   4.327   2.138   1.378 -0.3881  1.1594  1.6377
  933MPD2    H113704   4.133   2.470   1.185 -0.0449 -0.6027 -3.0025
  933MPD2    H213705   4.314   2.182   0.951  0.8730 -1.1274  0.7018
  933MPD2    H313706   4.148   2.353   0.989 -1.1048 -0.2601  0.5471
  933MPD2     N13707   4.225   2.369   1.433 -0.1870  0.2793  0.3670
  933MPD2    H513708   4.270   2.317   1.508  0.0122  3.6991  2.5969
  933MPD2    N113709   4.412   2.021   1.139  0.9944 -0.5369 -0.4371
  933MPD2    H713710   4.431   2.004   1.041 -0.3248  1.3101 -0.9938
  934MPD2     C13711   0.891   3.346   1.709 -0.0726  0.6883  0.2711
  934MPD2    C113712   0.977   3.367   1.603 -0.2535 -0.3269  0.1150
  934MPD2    C213713   0.950   3.305   1.486 -0.5177 -0.6467  0.0947
  934MPD2    C313714   0.833   3.241   1.459 -0.4732  0.5829  0.5174
  934MPD2    C413715   0.752   3.222   1.566 -0.2143 -0.5619 -0.4737
  934MPD2    C513716   0.776   3.273   1.688 -0.4585  0.0446 -1.0468
  934MPD2     H13717   1.018   3.323   1.403 -0.5971 -0.5180  0.0570
  934MPD2    H113718   0.663   3.160   1.569 -1.4306  1.2525  0.8813
  934MPD2    H213719   0.915   3.392   1.805  1.3442  0.7117 -0.0905
  934MPD2    H313720   0.703   3.251   1.766 -0.4597  2.3551 -0.3999
  934MPD2     N13721   0.787   3.204   1.332  0.4284 -0.0317 -0.0574
  934MPD2    H513722   0.695   3.160   1.338 -0.4884  2.0051  0.6239
  934MPD2    N113723   1.092   3.447   1.609  1.0783 -0.4064  0.3298
  934MPD2    H713724   1.136   3.459   1.518 -0.7147  0.2711 -0.4414
  935MPD2     C13725   1.111   2.619   0.634  0.0762  0.9429 -0.4071
  935MPD2    C113726   0.974   2.626   0.615  0.6328 -0.4958 -0.1840
  935MPD2    C213727   0.910   2.730   0.680  0.2533 -0.2681 -0.1676
  935MPD2    C313728   0.973   2.826   0.754 -0.5376 -0.1479 -0.5098
  935MPD2    C413729   1.110   2.824   0.756 -0.3572  0.9227  0.3895
  935MPD2    C513730   1.176   2.715   0.700  0.8569 -0.1210 -0.3488
  935MPD2     H13731   0.803   2.714   0.684  0.3591 -0.3697  2.1733
  935MPD2    H113732   1.159   2.904   0.810  0.6251  0.1357  0.6571
  935MPD2    H213733   1.170   2.537   0.596  0.3327  1.3749 -0.9563
  935MPD2    H313734   1.283   2.701   0.714  0.9635  0.3982 -0.6697
  935MPD2     N13735   0.897   2.924   0.825 -0.1559 -0.0067  0.3526
  935MPD2    H513736   0.944   2.984   0.892  1.7806 -1.7032  0.5141
  935MPD2    N113737   0.905   2.521   0.551  0.0845  0.0350  0.6398
  935MPD2    H713738   0.804   2.529   0.561 -0.0237  3.7086 -3.4339
  936MPD2     C13739   3.653   0.310  12.284 -0.4803 -0.1117 -0.2412
  936MPD2    C113740   3.779   0.283  12.341 -0.2772 -0.4839 -0.6873
  936MPD2    C213741   3.897   0.346  12.303  0.1884  0.1013 -0.6414
  936MPD2    C313742   3.879   0.444  12.205 -0.4140  0.2617 -0.1835
  936MPD2    C413743   3.755   0.480  12.160  0.3339 -0.1325  0.2583
  936MPD2    C513744   3.645   0.410  12.195 -0.1080  0.1235 -0.3006
  936MPD2     H13745   3.992   0.311  12.340  0.4908 -1.6211 -3.0351
  936MPD2    H113746   3.745   0.567  12.095  0.8697 -0.0751  0.2582
  936MPD2    H213747   3.568   0.251  12.318 -0.3755 -0.3360 -0.3667
  936MPD2    H313748   3.551   0.442  12.150  0.2191  0.7368 -0.5434
  936MPD2     N13749   3.982   0.536  12.173  0.6058  0.5748  0.7732
  936MPD2    H513750   3.959   0.624  12.128  0.4429 -0.6181 -1.4814
  936MPD2    N113751   3.798   0.186  12.447  0.4935  0.1693  0.3800
  936MPD2    H713752   3.894   0.177  12.478  0.3463 -0.8386  0.5550
  937MPD2     C13753   1.739   2.005  11.653 -1.0282  0.0850  0.4027
  937MPD2    C113754   1.841   2.077  11.708 -0.5780  0.2941 -0.5478
  937MPD2    C213755   1.954   2.097  11.628  0.2974 -0.3506  0.7401
  937MPD2    C313756   1.968   2.030  11.506 -0.3419  0.2325 -0.9100
  937MPD2    C413757   1.863   1.964  11.447 -0.1863 -0.5761  0.8745
  937MPD2    C513758   1.751   1.949  11.527 -0.0048 -0.0557  0.6169
  937MPD2     H13759   2.033   2.160  11.668  0.9086 -0.9730  0.5078
  937MPD2    H113760   1.868   1.914  11.351 -0.1988  3.3684 -1.1625
  937MPD2    H213761   1.649   1.982  11.709 -0.4593 -1.3738  0.7175
  937MPD2    H313762   1.667   1.887  11.496  0.6166 -0.4029 -0.3726
  937MPD2     N13763   2.087   2.052  11.430 -0.5412 -0.1523 -0.6532
  937MPD2    H513764   2.164   2.102  11.473 -0.8256  1.3564 -1.9331
  937MPD2    N113765   1.816   2.166  11.812  0.4115  0.2594 -0.4203
  937MPD2    H713766   1.884   2.236  11.839  0.5545 -0.4062  0.9732
  938MPD2     C13767   4.526   3.628   0.236 -0.5670 -0.1529 -0.0228
  938MPD2    C113768   4.586   3.569   0.348  0.1431  0.1484  0.6770
  938MPD2    C213769   4.583   3.434   0.365  0.2156 -0.1057 -0.1942
  938MPD2    C313770   4.530   3.354   0.260 -0.0723 -0.0196  0.0090
  938MPD2    C413771   4.467   3.414   0.154 -0.4863  0.0548  0.1166
  938MPD2    C513772   4.465   3.548   0.139 -0.8098 -0.0714 -0.3783
  938MPD2     H13773   4.625   3.388   0.454  1.8735 -0.0387 -0.9414
  938MPD2    H113774   4.418   3.362   0.072 -2.0446  0.5553  0.7177
  938MPD2    H213775   4.509   3.735   0.225  1.1591  0.1036 -0.1034
  938MPD2    H313776   4.395   3.582   0.064  0.3001 -0.3259 -1.5252
  938MPD2     N13777   4.533   3.215   0.281  0.3889 -0.0364  0.2439
  938MPD2    H513778   4.568   3.185   0.371 -0.0524  0.3294  0.5341
  938MPD2    N113779   4.654   3.646   0.452 -0.1789  0.3310 -0.3965
  938MPD2    H713780   4.723   3.604   0.513 -0.3135  0.7940  0.0712
  939MPD2     C13781   1.151   4.278   0.971  0.5410 -0.1668  0.5930
  939MPD2    C113782   1.032   4.211   0.992 -0.5591 -0.4879 -0.0427
  939MPD2    C213783   0.968   4.148   0.886 -0.2872  0.2846  0.0181
  939MPD2    C313784   1.021   4.141   0.763  0.6165 -0.3390  0.0034
  939MPD2    C413785   1.142   4.195   0.748 -0.2881  0.2859 -0.0894
  939MPD2    C513786   1.206   4.269   0.844  0.3448 -0.1039  0.3147
  939MPD2     H13787   0.872   4.101   0.906  0.1651 -0.2693  0.8841
  939MPD2    H113788   1.189   4.204   0.650 -2.2535  0.6260 -1.0087
  939MPD2    H213789   1.202   4.332   1.050  0.5839 -2.7607  2.3463
  939MPD2    H313790   1.294   4.322   0.811  0.5735 -2.1377 -2.3174
  939MPD2     N13791   0.943   4.074   0.663  0.0168 -0.1830  0.2131
  939MPD2    H513792   0.854   4.036   0.696 -0.4903  1.3796  0.6570
  939MPD2    N113793   0.981   4.221   1.132  0.5525 -0.2911  0.6787
  939MPD2    H713794   1.052   4.248   1.199  0.9024  0.2685  0.0854
  940MPD2     C13795   4.691   0.491  13.596 -0.6978  0.7374 -0.3672
  940MPD2    C113796   4.618   0.387  13.543  0.1951 -0.0665  0.5852
  940MPD2    C213797   4.581   0.393  13.410 -0.0148 -0.5524 -0.3343
  940MPD2    C313798   4.616   0.500  13.331 -0.0569  0.1839  0.0263
  940MPD2    C413799   4.687   0.607  13.382  0.4148  0.4144 -0.6147
  940MPD2    C513800   4.716   0.604  13.517  0.2036 -0.0908 -0.1623
  940MPD2     H13801   4.525   0.309  13.370  0.0277 -0.5703 -0.3558
  940MPD2    H113802   4.733   0.685  13.323  0.0287  1.3336  0.3042
  940MPD2    H213803   4.719   0.495  13.701  1.4150 -2.5268 -0.8278
  940MPD2    H313804   0.058   0.672  13.553 -0.7936  0.6342  0.5970
  940MPD2     N13805   4.593   0.507  13.187  0.2523 -0.1395 -0.1326
  940MPD2    H513806   4.641   0.584  13.143 -1.4397 -1.4095 -4.2693
  940MPD2    N113807   4.584   0.274  13.616  0.4290 -0.0362  0.3476
  940MPD2    H713808   4.519   0.210  13.570 -1.1644  0.9194  1.2586
  941MPD2     C13809   4.326   0.081   9.217  0.0749  0.6093  0.2024
  941MPD2    C113810   4.313   0.108   9.351  0.3247  0.9295 -0.0629
  941MPD2    C213811   4.192   0.073   9.418 -0.3519 -0.3754 -0.5637
  941MPD2    C313812   4.082   0.039   9.336  0.0438  0.1262  1.1412
  941MPD2    C413813   4.100   0.030   9.201 -0.0486 -0.1560  0.2593
  941MPD2    C513814   4.224   0.052   9.140 -0.6137 -0.3581  0.3590
  941MPD2     H13815   4.167   0.097   9.520  1.3496 -1.0512  0.0241
  941MPD2    H113816   4.023   4.727   9.134  0.7480  1.1127 -1.3340
  941MPD2    H213817   4.415   0.094   9.157  1.0285 -1.6983  1.1267
  941MPD2    H313818   4.236   0.036   9.034  0.4044 -1.3386  0.6223
  941MPD2     N13819   3.955   0.015   9.392 -0.2975 -0.3837  0.0630
  941MPD2    H513820   3.883   0.014   9.321  0.2017 -0.2127 -0.4512
  941MPD2    N113821   4.413   0.161   9.431 -0.1101  0.6907  0.3584
  941MPD2    H713822   4.393   0.167   9.531 -1.8078  0.6243  0.0227
  942MPD2     C13823   4.149   2.075   9.465  0.0646  0.2103 -0.3498
  942MPD2    C113824   4.151   1.992   9.357 -0.5523 -0.4019  0.1858
  942MPD2    C213825   4.264   1.973   9.278  0.3139  0.6611  0.4200
  942MPD2    C313826   4.377   2.041   9.311 -0.1018 -0.0322  0.1957
  942MPD2    C413827   4.378   2.126   9.424  0.6194 -0.1927  1.3549
  942MPD2    C513828   4.268   2.146   9.495 -0.2687 -0.0829 -0.4221
  942MPD2     H13829   4.255   1.920   9.184  1.6354 -0.0174  0.6758
  942MPD2    H113830   4.467   2.181   9.453  0.7152  0.4612 -0.2198
  942MPD2    H213831   4.061   2.096   9.525 -0.4008 -2.5400 -0.0685
  942MPD2    H313832   4.274   2.195   9.592 -3.2192  1.6995 -1.1128
  942MPD2     N13833   4.495   2.030   9.232  0.2485  0.3415  0.2484
  942MPD2    H513834   4.576   2.086   9.255  0.8148  0.7448 -2.7741
  942MPD2    N113835   4.032   1.947   9.294 -0.6528 -0.0523  0.1116
  942MPD2    H713836   4.040   1.892   9.209  1.0957  0.8139 -0.2760
  943MPD2     C13837   1.227   3.557  10.614 -0.6436 -0.1844  0.2675
  943MPD2    C113838   1.107   3.514  10.560  0.8991  0.0685  0.2431
  943MPD2    C213839   1.085   3.513  10.420  0.5544  0.3169  0.9177
  943MPD2    C313840   1.184   3.560  10.333 -0.1918 -0.1479 -0.0026
  943MPD2    C413841   1.288   3.620  10.398  0.4014  0.6172  0.3782
  943MPD2    C513842   1.315   3.615  10.528 -0.2435 -0.3364  0.5175
  943MPD2     H13843   0.994   3.467  10.382  0.0613 -0.6509  3.2464
  943MPD2    H113844   1.355   3.687  10.345  1.5142  0.3285  1.4258
  943MPD2    H213845   1.240   3.572  10.720  3.5967  1.7901 -0.5363
  943MPD2    H313846   1.409   3.664  10.550 -1.0874  3.4473 -4.3188
  943MPD2     N13847   1.177   3.569  10.189  0.3598  0.3482 -0.3998
  943MPD2    H513848   1.259   3.610  10.147 -0.0632 -0.3771 -1.9129
  943MPD2    N113849   1.018   3.462  10.658  0.2431  0.6907 -0.6499
  943MPD2    H713850   1.052   3.471  10.753  2.6123  2.1453 -1.6098
  944MPD2     C13851   2.028   3.087  10.809 -0.2266 -0.6263  0.7903
  944MPD2    C113852   2.007   3.212  10.757 -0.6367 -0.5713 -0.3034
  944MPD2    C213853   1.944   3.305  10.845  0.1655  0.4238  0.4834
  944MPD2    C313854   1.908   3.274  10.969  0.8876 -0.4778  0.2544
  944MPD2    C413855   1.930   3.145  11.020  0.5949 -0.4227  0.3317
  944MPD2    C513856   2.003   3.057  10.942  0.1346  0.0019  0.8434
  944MPD2     H13857   1.915   3.401  10.803  0.0997  0.9178  1.6532
  944MPD2    H113858   1.905   3.105  11.118 -1.2247 -2.4511 -0.9576
  944MPD2    H213859   2.071   3.008  10.749 -0.1318 -0.7055  0.9615
  944MPD2    H313860   2.018   2.956  10.979  0.6450  0.9881  3.3306
  944MPD2     N13861   1.840   3.376  11.045 -0.4854 -0.7830  0.1486
  944MPD2    H513862   1.831   3.473  11.017  1.2705 -0.9777 -1.0467
  944MPD2    N113863   2.056   3.240  10.627 -0.7628  0.3358  0.1133
  944MPD2    H713864   2.112   3.169  10.581 -0.2918  1.1096 -0.5063
    1TMC1    C113865   0.727   4.217  14.538 -0.2395 -0.3496  0.0418
    1TMC1    C213866   0.596   4.204  14.503  0.0366  0.1306  0.2417
    1TMC1    C313867   0.556   4.076  14.468  0.0198 -0.5949 -0.6000
    1TMC1    C413868   0.815   4.109  14.547  0.5739 -0.5041 -0.2919
    1TMC1    C513869   0.774   3.987  14.496  1.0560  0.7865  0.5054
    1TMC1    C613870   0.643   3.969  14.457  0.4071 -0.2409  0.0862
    1TMC1     C13871   0.764   4.347  14.596 -0.0414  0.0651  0.0334
    1TMC1     O13872   0.843   4.354  14.689  0.2434  0.1979  0.7435
    1TMC1     H13873   0.526   4.286  14.513 -0.1275  0.0680 -0.4230
    1TMC1    H113874   0.919   4.123  14.573  0.9745 -0.4794 -1.8926
    1TMC1    H213875   0.612   3.868  14.434 -0.8436 -0.0754  1.0777
    1TMC1    C713876   0.869   3.892  14.453 -0.7111 -0.4278 -0.0058
    1TMC1    C813877   0.425   4.068  14.403 -0.4515  1.0541  0.4037
    1TMC1    O113878   0.840   3.797  14.381 -0.0985 -0.6428  0.3112
    1TMC1    O213879   0.354   3.966  14.405 -0.5887  0.4326 -0.1408
    1TMC1    O313880   0.953   3.877  14.558  0.0808 -0.5648 -0.3798
    1TMC1    H313881   0.920   3.933  14.632  1.3455  0.2730 -0.4633
    1TMC1    O513882   0.424   4.142  14.290  0.2680  0.6530  0.2041
    1TMC1    H513883   0.477   4.224  14.286  0.2262  0.6601 -0.1852
    2MPD2     C13884   0.751   0.130  14.618 -0.0891  0.4029  0.9706
    2MPD2    C113885   0.685   0.084  14.508 -0.2321 -0.6836  0.9017
    2MPD2    C213886   0.668   4.685  14.481 -0.1639  0.0590  0.3994
    2MPD2    C313887   0.732   4.593  14.565 -0.5889  0.1754 -0.0098
    2MPD2    C413888   0.806   4.642  14.670 -0.1925  0.1697 -0.1564
    2MPD2    C513889   0.807   0.037  14.695  0.7027 -0.7191  0.6057
    2MPD2     H13890   0.618   4.651  14.391  2.0940 -2.1040 -0.0593
    2MPD2    H113891   0.841   4.574  14.746  0.1384 -0.9543 -1.3088
    2MPD2    H213892   0.765   0.232  14.652 -2.3738  1.3688 -0.9446
    2MPD2    H313893   0.856   0.073  14.785  1.3871 -0.0919 -0.0195
    2MPD2     N13894   0.706   4.454  14.532  0.2284 -0.3046  0.8274
    2MPD2    H513895   0.644   4.432  14.454  0.1591  1.8692  0.2657
    2MPD2    N113896   0.641   0.174  14.407  1.0788 -0.1802 -0.6402
    2MPD2    H713897   0.649   0.274  14.423 -2.3232 -0.1764  0.9373
    3TMC2    C113898   0.563   0.268  14.205 -0.3522 -0.1282  0.0178
    3TMC2    C213899   0.490   0.369  14.262 -0.2724  0.0199  0.1494
    3TMC2    C313900   0.448   0.466  14.180 -0.3069 -0.1684 -0.0463
    3TMC2    C413901   0.573   0.256  14.070 -0.7459  1.0891 -0.6563
    3TMC2    C513902   0.521   0.351  13.991  0.3206 -0.0038  0.2787
    3TMC2    C613903   0.472   0.468  14.048 -0.8718 -0.4373 -0.3290
    3TMC2     C13904   0.590   0.150  14.286 -0.2056 -0.1853  0.1979
    3TMC2     O13905   0.586   0.046  14.216  0.4230 -0.5432 -0.1813
    3TMC2     H13906   0.486   0.389  14.369  0.6330  1.5934 -0.1178
    3TMC2    H113907   0.624   0.172  14.025 -1.0596 -0.1194  1.2183
    3TMC2    H213908   0.455   0.558  13.990 -0.4719  0.3284  0.7466
    3TMC2    C713909   0.565   0.348  13.859  0.3359 -0.0974 -0.0963
    3TMC2    C813910   0.379   0.578  14.240  1.2542  0.3601  0.3153
    3TMC2    O113911   0.570   0.240  13.803 -0.0010 -0.0309  0.2949
    3TMC2    O213912   0.389   0.604  14.362  0.5364 -0.2560 -0.4714
    3TMC2    O513913   0.311   0.644  14.147 -0.1182 -0.2486  0.3328
    3TMC2    H513914   0.293   0.593  14.066  0.5057  0.2310 -0.1047
    4TMC2    C113915   0.773   1.244  13.380 -0.2728 -0.6938 -0.5279
    4TMC2    C213916   0.893   1.293  13.350  0.8655 -0.1047 -0.1312
    4TMC2    C313917   0.999   1.209  13.376 -0.7304 -0.6353 -0.2711
    4TMC2    C413918   0.753   1.116  13.428  0.8404 -0.3677  0.2275
    4TMC2    C513919   0.863   1.033  13.448 -0.1379  0.0743  0.2029
    4TMC2    C613920   0.987   1.084  13.418  0.7288 -0.3288  0.2212
    4TMC2     C13921   0.662   1.319  13.326 -0.0952  0.1401 -0.6339
    4TMC2     O13922   0.688   1.440  13.331  0.2786 -0.1557  0.3595
    4TMC2     H13923   0.910   1.399  13.331 -1.4434  0.3676  0.3857
    4TMC2    H113924   0.655   1.079  13.459 -0.4911  2.1217 -1.0263
    4TMC2    H213925   1.069   1.013  13.419 -0.3192 -1.5501 -0.6137
    4TMC2    C713926   0.850   0.889  13.444  0.4201  0.2048 -0.3445
    4TMC2    C813927   1.128   1.232  13.311  0.0082  0.0734 -0.0547
    4TMC2    O113928   0.905   0.828  13.350 -0.4053 -0.4178 -0.3410
    4TMC2    O213929   1.230   1.171  13.341 -0.6334 -0.0926  0.9909
    4TMC2    O513930   1.083   1.256  13.190  0.4313  0.3264  0.0646
    4TMC2    H513931   0.994   1.294  13.205  0.8312  0.7196  1.4684
    5MPD2     C13932   0.190   1.421  13.156 -0.1281  0.2355  0.4740
    5MPD2    C113933   0.184   1.296  13.217  0.0701 -0.5220  0.2524
    5MPD2    C213934   0.308   1.245  13.271  0.1953 -0.2936  0.1046
    5MPD2    C313935   0.421   1.321  13.269 -0.1851  0.3812  0.5812
    5MPD2    C413936   0.415   1.446  13.217 -0.5989  0.0677  0.0792
    5MPD2    C513937   0.301   1.491  13.169  0.2915 -0.1251  0.0175
    5MPD2     H13938   0.315   1.145  13.311  2.2048 -0.0105  0.4357
    5MPD2    H113939   0.499   1.514  13.212  0.3972 -1.0883  1.2483
    5MPD2    H213940   0.103   1.453  13.100  0.5549  2.1585  0.5082
    5MPD2    H313941   0.314   1.589  13.123  0.2794  0.7187  1.8019
    5MPD2     N13942   0.541   1.256  13.315 -0.0911 -0.0462 -0.6424
    5MPD2    H513943   0.530   1.160  13.344 -1.5175  0.3871  0.2388
    5MPD2    N113944   0.059   1.230  13.216 -0.4869  0.3208  0.6467
    5MPD2    H713945   4.716   1.270  13.163  1.2458 -0.8117 -2.7337
    6MPD1     C13946   3.216   1.519  12.510 -0.6030 -1.2822  0.1456
    6MPD1    C113947   3.153   1.437  12.602 -0.2797 -0.6158 -0.2153
    6MPD1    C213948   3.240   1.336  12.657 -1.1351 -0.2722  0.0664
    6MPD1    C313949   3.358   1.295  12.608 -0.5285 -0.1106  0.1070
    6MPD1    C413950   3.399   1.366  12.499  0.5999  0.2364 -0.2588
    6MPD1    C513951   3.334   1.480  12.455 -0.0983 -0.5517  0.6164
    6MPD1     H13952   3.209   1.278  12.743  0.9041 -0.5193  0.6423
    6MPD1    H113953   3.498   1.355  12.455  0.0432  0.6144 -1.6189
    6MPD1    H213954   3.168   1.612  12.482 -0.3790 -1.4027 -0.6508
    6MPD1    H313955   3.386   1.546  12.387  0.0261  0.0905  1.3296
    6MPD1     N13956   3.448   1.196  12.656  0.2207 -0.6731  0.2600
    6MPD1    H513957   3.531   1.173  12.601  0.6608 -0.5594  0.8840
    6MPD1    N113958   3.037   1.478  12.665  0.1763  0.1017 -0.2368
    6MPD1    H613959   2.981   1.532  12.599 -0.2365 -0.3142 -0.2220
    6MPD1    H713960   2.983   1.395  12.687  2.0381 -1.6934 -2.5332
    7MPD2     C13961   3.867   0.995  13.381 -0.0752 -0.7157 -0.3711
    7MPD2    C113962   3.924   0.994  13.259 -0.6130  0.0191  0.2805
    7MPD2    C213963   4.057   0.962  13.246  0.3555  0.2336 -0.0428
    7MPD2    C313964   4.140   0.939  13.351  0.3947 -0.2707  0.8809
    7MPD2    C413965   4.088   0.944  13.476  0.1553  0.0511 -0.5685
    7MPD2    C513966   3.949   0.968  13.492 -0.3642  0.1840  0.2577
    7MPD2     H13967   4.100   0.960  13.147  0.9395  0.9801  0.1990
    7MPD2    H113968   4.142   0.917  13.566 -1.4737 -1.5771 -0.1059
    7MPD2    H213969   3.761   1.014  13.392 -0.2511 -1.5835 -0.5697
    7MPD2    H313970   3.908   0.972  13.592 -0.0900 -1.0003  0.4229
    7MPD2     N13971   4.270   0.916  13.317 -1.1716  0.3722 -0.4354
    7MPD2    H513972   4.295   0.933  13.220 -1.7949  1.7342 -0.3535
    7MPD2    N113973   3.857   1.029  13.134  0.1569 -0.0285  0.2309
    7MPD2    H713974   3.910   1.021  13.048  1.3303 -0.8167  1.0336
    8TMC3    C113975   4.496   0.895  13.317  0.2007 -0.3354 -0.5275
    8TMC3    C213976   4.587   0.991  13.356  0.1697 -0.1438  0.5264
    8TMC3    C313977   4.645   1.069  13.260  0.7451 -0.7778 -0.0831
    8TMC3    C413978   4.465   0.877  13.186 -0.1665 -0.3593 -0.7040
    8TMC3    C513979   4.519   0.962  13.085  0.0001  0.2205 -0.0493
    8TMC3    C613980   4.605   1.059  13.128 -0.1083  0.4417 -0.7402
    8TMC3     C13981   4.378   0.902  13.398  0.6228 -1.0672 -0.2357
    8TMC3     O13982   4.385   0.910  13.521 -0.0666  0.8360  0.1300
    8TMC3     H13983   4.621   0.998  13.459  1.1841  0.4138  0.1570
    8TMC3    H113984   4.396   0.798  13.161 -0.8403 -0.1195  0.4039
    8TMC3    H213985   4.648   1.127  13.055  0.3166  1.0068  0.0407
    8TMC3    C713986   4.412   1.015  13.008  0.5070  0.5006  0.3016
    8TMC3    C813987   0.040   1.114  13.286 -0.1019  0.2617 -0.1399
    8TMC3    O113988   4.301   1.010  13.060 -0.3628  0.1860  0.1474
    8TMC3    O213989   0.098   1.057  13.380 -0.2001  0.2361 -0.2578
    9TMC3    C113990   3.544   1.051  12.808  0.6052  0.0053 -0.3139
    9TMC3    C213991   3.644   1.046  12.712  0.4078  0.5576 -0.7162
    9TMC3    C313992   3.777   1.064  12.754  0.4816  0.1651 -0.4137
    9TMC3    C413993   3.567   1.057  12.945 -0.1232 -0.6609  0.1528
    9TMC3    C513994   3.698   1.080  12.977 -0.9200 -0.0130  1.1394
    9TMC3    C613995   3.802   1.093  12.886 -0.4370  1.0837 -0.1950
    9TMC3     C13996   3.421   1.127  12.776 -0.8360  0.2850  1.0862
    9TMC3     O13997   3.335   1.138  12.861 -0.3542 -0.1757 -0.1727
    9TMC3     H13998   3.626   1.024  12.608  0.4350  0.4597 -0.7010
    9TMC3    H113999   3.486   1.043  13.016  0.6380 -0.9742  0.9420
    9TMC3    H214000   3.903   1.123  12.908 -0.9755  1.8948  1.1431
    9TMC3    C714001   3.729   1.066  13.119 -0.3973  0.6798  0.4380
    9TMC3    C814002   3.885   1.076  12.659 -0.3666  0.1593  0.1632
    9TMC3    O114003   3.644   1.074  13.201  0.2970 -0.1728  0.0946
    9TMC3    O214004   3.864   1.099  12.544 -0.0436 -0.2128 -0.3915
   10MPD2     C14005   4.391   1.099  12.655  0.4563  0.3747 -0.1432
   10MPD2    C114006   4.351   1.048  12.777 -0.3917 -0.0629 -0.0092
   10MPD2    C214007   4.218   1.008  12.788 -0.3037  0.6579  0.3865
   10MPD2    C314008   4.131   1.039  12.685  0.7553 -0.3725 -0.5403
   10MPD2    C414009   4.171   1.106  12.576  0.1977 -0.2572 -0.1836
   10MPD2    C514010   4.306   1.132  12.557  0.0728  0.2541 -0.1540
   10MPD2     H14011   4.173   0.973  12.880  0.3534 -1.0601  0.0589
   10MPD2    H114012   4.105   1.146  12.500 -0.4852 -0.1558  0.4731
   10MPD2    H214013   4.496   1.116  12.634  1.0199  0.6138  2.8733
   10MPD2    H314014   4.347   1.165  12.462 -0.3538  2.2355  0.3664
   10MPD2     N14015   4.000   1.010  12.717  0.3971  0.2138 -0.1807
   10MPD2    H514016   3.979   0.949  12.795  0.3743 -1.6011 -1.6209
   10MPD2    N114017   4.442   1.048  12.880 -0.3948  0.3730 -0.6728
   10MPD2    H714018   4.539   1.059  12.854 -0.8986  1.9460 -1.8993
   11MPD2     C14019   0.641   0.444  13.580  0.2490 -0.3967 -0.7184
   11MPD2    C114020   0.651   0.521  13.695  0.2004  0.1803  0.5592
   11MPD2    C214021   0.688   0.656  13.686 -0.0330  0.0872 -0.2984
   11MPD2    C314022   0.740   0.705  13.563  0.1240 -0.4503 -0.0700
   11MPD2    C414023   0.729   0.622  13.451  0.8947 -0.0166 -0.0883
   11MPD2    C514024   0.672   0.499  13.460 -0.1003 -0.3201  0.2359
   11MPD2     H14025   0.684   0.718  13.775  0.5465 -0.3737  0.0463
   11MPD2    H114026   0.759   0.644  13.349 -2.8358 -3.4748 -1.9027
   11MPD2    H214027   0.608   0.341  13.581  0.4864 -0.4595  0.4248
   11MPD2    H314028   0.670   0.443  13.368 -0.7281 -0.2874  0.2295
   11MPD2     N14029   0.773   0.839  13.548 -0.1464 -0.6016 -0.0439
   11MPD2    H514030   0.730   0.906  13.612  1.2446 -0.2698  0.5558
   11MPD2    N114031   0.614   0.472  13.828 -0.6156  0.1324 -0.1258
   11MPD2    H714032   0.600   0.545  13.897 -1.7549 -0.9819  0.7996
    1MPD1     C14033   2.308   2.306  17.121  0.0887  1.0288 -0.5820
    1MPD1    C114034   2.405   2.267  17.212 -0.0283 -0.5483  0.3054
    1MPD1    C214035   2.534   2.242  17.173  0.0829 -0.3839  0.5089
    1MPD1    C314036   2.563   2.245  17.041 -0.0285 -0.1189 -1.5166
    1MPD1    C414037   2.468   2.285  16.946  0.8066 -0.2338  0.0633
    1MPD1    C514038   2.341   2.312  16.991  0.7332  0.0381 -0.1985
    1MPD1     H14039   2.601   2.191  17.242 -0.1543  0.3445  1.2680
    1MPD1    H114040   2.490   2.284  16.840 -0.9993 -1.0985 -0.3087
    1MPD1    H214041   2.203   2.297  17.144 -0.0907 -0.5753 -2.0298
    1MPD1    H314042   2.262   2.345  16.924  0.9890  3.0267  0.9862
    1MPD1     N14043   2.683   2.194  16.982 -0.9486 -0.2140  0.1423
    1MPD1    H514044   2.697   2.206  16.882 -0.8623  0.6605  0.2532
    1MPD1    N114045   2.370   2.237  17.344 -0.0138 -0.5308  0.1225
    1MPD1    H614046   2.301   2.304  17.376 -1.4237 -2.0549  0.2477
    1MPD1    H714047   2.460   2.249  17.391  0.9101 -1.0005 -1.5381
    2MPD1     C14048   3.758   2.122  17.011 -0.5570  0.8413 -0.2572
    2MPD1    C114049   3.720   2.096  16.879 -0.4480 -0.6092  0.0974
    2MPD1    C214050   3.580   2.083  16.859  0.5491  0.5707 -0.5756
    2MPD1    C314051   3.487   2.082  16.960  0.3377  0.1936 -0.1518
    2MPD1    C414052   3.531   2.098  17.091 -0.2205 -0.1726 -0.1848
    2MPD1    C514053   3.666   2.124  17.115  0.2485 -0.7861 -0.5304
    2MPD1     H14054   3.565   2.064  16.754 -0.1418  1.0699 -0.5695
    2MPD1    H114055   3.462   2.107  17.174 -1.0488 -0.7811 -0.8114
    2MPD1    H214056   3.858   2.151  17.040 -0.7353  1.1100  0.0905
    2MPD1    H314057   3.705   2.150  17.213  1.3427  2.0220 -1.7013
    2MPD1     N14058   3.356   2.070  16.925  0.2152  0.8386  1.0216
    2MPD1    H514059   3.331   2.062  16.827 -2.0272  1.8120  1.5079
    2MPD1    N114060   3.817   2.090  16.775 -0.3440  0.8163 -0.5517
    2MPD1    H614061   3.905   2.050  16.806 -0.6320 -0.8433 -1.9056
    2MPD1    H714062   3.781   2.034  16.698 -0.5610  2.7237 -1.8583
    3TMC3    C114063   3.123   2.045  16.948 -0.4568 -0.4220  0.2541
    3TMC3    C214064   3.113   2.030  16.810 -0.0440 -0.0083 -0.3714
    3TMC3    C314065   2.985   2.040  16.760 -0.2634  0.5139 -0.1725
    3TMC3    C414066   3.015   2.074  17.025  0.3281  0.1008  0.5607
    3TMC3    C514067   2.892   2.091  16.967 -0.2410 -0.2063  0.1119
    3TMC3    C614068   2.873   2.067  16.836 -0.1547  0.4392 -0.9946
    3TMC3     C14069   3.248   2.067  17.013  0.9239 -1.2132  0.5331
    3TMC3     O14070   3.243   2.100  17.128  0.4338 -0.0529 -0.0340
    3TMC3     H14071   3.195   2.005  16.744 -0.1681  2.3751 -1.4206
    3TMC3    H114072   3.030   2.084  17.132  2.6076  0.3294  0.2153
    3TMC3    H214073   2.774   2.061  16.794 -0.5519 -3.9200  0.5531
    3TMC3    C714074   2.778   2.123  17.052  0.4953  0.5502 -0.0220
    3TMC3    C814075   2.953   1.975  16.635 -0.2614 -0.3852 -0.5385
    3TMC3    O114076   2.784   2.086  17.166 -0.0567 -0.0022  0.4608
    3TMC3    O214077   2.840   1.933  16.618 -0.0219  0.4742 -0.2975
    4MPD1     C14078   3.013   1.945  16.135  0.3878  0.5573  0.2273
    4MPD1    C114079   3.123   2.008  16.182  0.4801 -0.1830  0.3290
    4MPD1    C214080   3.125   2.035  16.315 -0.0283 -0.5805  0.6614
    4MPD1    C314081   3.020   1.998  16.397  0.5864  0.3605 -0.6172
    4MPD1    C414082   2.899   1.940  16.344 -0.6655 -0.1756 -0.6469
    4MPD1    C514083   2.901   1.918  16.209  0.5376  0.2671  0.3735
    4MPD1     H14084   3.211   2.084  16.360  1.0296 -0.8008 -1.0987
    4MPD1    H114085   2.814   1.898  16.397  0.0298  0.1077  0.6731
    4MPD1    H214086   2.995   1.920  16.031  0.3957  0.4923  0.2414
    4MPD1    H314087   2.807   1.887  16.164  1.5587 -0.2710 -1.3907
    4MPD1     N14088   3.040   2.017  16.535 -0.3899  0.5320 -0.6285
    4MPD1    H514089   3.122   2.066  16.568  0.3428 -0.2506 -1.3121
    4MPD1    N114090   3.230   2.035  16.101  0.2323 -0.0613 -0.1067
    4MPD1    H614091   3.198   2.059  16.008 -2.0309 -0.6181  0.5336
    4MPD1    H714092   3.284   2.113  16.138  1.1893 -1.2838  1.0976
    1TCq1    O114093   4.110   1.492  10.924 -0.7384  0.0418 -0.2519
    1TCq1    C114094   4.136   1.627  10.903 -0.2700 -0.1785 -0.6845
    1TCq1    O214095   4.120   1.688  10.796  0.5870 -0.2512  0.0753
    1TCq1    C214096   4.130   1.689  11.033 -0.4395  0.1353  1.1733
    1TCq1    C314097   4.082   1.618  11.142  0.7104  0.1845 -0.0459
    1TCq1    C414098   4.111   1.667  11.268  0.7837  0.4885  0.6838
    1TCq1    C514099   4.191   1.775  11.282 -0.2799 -0.7158 -0.1282
    1TCq1    C614100   4.245   1.833  11.170 -0.4488 -0.1578  0.2434
    1TCq1    C714101   4.218   1.794  11.044  0.2013 -0.0772 -0.6120
    1TCq1    C814102   4.314   1.964  11.191 -0.6977  0.3243  0.2651
    1TCq1    O414103   4.396   1.977  11.279  0.3492  0.2646 -0.6936
    1TCq1    C914104   4.014   1.649  11.376 -0.5673 -0.8814 -0.5972
    1TCq1    O514105   3.896   1.603  11.348  0.1211 -0.8903 -0.7032
    1TCq1    O614106   4.052   1.698  11.486 -0.1086 -0.2168 -0.1915
    1TCq1    H114107   4.120   1.460  11.016  1.4117  0.9317 -0.1682
    1TCq1    H214108   3.987   1.565  11.140  2.7404 -3.4879 -0.1695
    1TCq1    H314109   4.198   1.834  11.373  0.0896 -1.0511  0.0586
    1TCq1    H414110   4.254   1.839  10.952  0.1075 -1.0428 -1.1276
    2MPD1     C14111   4.417   2.444  11.059  0.1515  0.0663 -0.3603
    2MPD1    C114112   4.332   2.393  10.969  0.6222  0.9713 -0.1422
    2MPD1    C214113   4.292   2.257  10.979  0.6913  0.1828 -0.3276
    2MPD1    C314114   4.347   2.175  11.069  0.3756 -0.7905  0.2254
    2MPD1    C414115   4.446   2.227  11.155  0.1763  0.1266 -0.1025
    2MPD1    C514116   4.483   2.362  11.144  0.2961  0.7330  0.2841
    2MPD1     H14117   4.213   2.222  10.914 -0.8655 -0.4457  1.8858
    2MPD1    H114118   4.510   2.165  11.217 -1.3186 -0.2826  1.0279
    2MPD1    H214119   4.465   2.541  11.056 -1.8216  1.0194 -0.8963
    2MPD1    H314120   4.576   2.392  11.191 -0.3028 -0.4511  2.2326
    2MPD1     N14121   4.291   2.051  11.085  0.2843 -0.4108 -0.6208
    2MPD1    H514122   4.213   2.030  11.024  0.4153  1.4680 -1.4182
    2MPD1    N114123   4.247   2.478  10.899 -0.2678  0.2248  0.2557
    2MPD1    H614124   4.302   2.554  10.858  1.6704 -1.5631 -0.4552
    2MPD1    H714125   4.216   2.427  10.816  0.7561  0.0367 -0.0165
    1TMC1    C114126   0.814   2.520  16.856 -0.5581  0.9041 -0.0295
    1TMC1    C214127   0.781   2.536  16.721  0.5528  0.0576 -0.5540
    1TMC1    C314128   0.811   2.660  16.678 -0.0088  0.2985  0.3359
    1TMC1    C414129   0.855   2.624  16.933  0.3059  0.2180  0.1621
    1TMC1    C514130   0.863   2.746  16.889  0.4580  0.1374  0.4727
    1TMC1    C614131   0.846   2.767  16.754  0.3128  0.5177  0.3852
    1TMC1     C14132   0.778   2.386  16.916 -0.4853 -0.1145 -0.3706
    1TMC1     O14133   0.700   2.315  16.848  0.5504  0.2292  0.3956
    1TMC1     H14134   0.744   2.456  16.659  0.0461  0.5003 -0.8260
    1TMC1    H114135   0.875   2.602  17.038 -0.9456 -0.7987  0.1872
    1TMC1    H214136   0.871   2.866  16.716  0.6316  0.9776  1.7947
    1TMC1    C714137   0.903   2.854  16.981 -0.6120 -0.2170 -0.1077
    1TMC1    C814138   0.802   2.681  16.542  0.4458  0.2546  0.8666
    1TMC1    O114139   0.943   2.826  17.093 -0.1546  0.4737 -0.6907
    1TMC1    O214140   0.741   2.605  16.469  0.4707 -0.1446 -0.2826
    1TMC1    O314141   0.905   2.974  16.927  0.1448 -0.2202 -0.2371
    1TMC1    H314142   0.859   2.993  16.843  1.4797  2.0759 -0.4372
    1TMC1    O514143   0.891   2.779  16.502  0.1470 -0.4033  0.5173
    1TMC1    H514144   0.944   2.819  16.574  2.8920  2.0308 -2.8499
    2MPD1     C14145   0.771   2.046  17.308 -0.2428  0.5684 -0.1424
    2MPD1    C114146   0.872   2.142  17.335  0.2024 -0.4051 -0.5577
    2MPD1    C214147   0.884   2.252  17.251  0.2625  0.4248  0.9578
    2MPD1    C314148   0.810   2.258  17.131 -1.2871  0.3075  1.0895
    2MPD1    C414149   0.728   2.153  17.098  0.1724  0.4676 -0.5041
    2MPD1    C514150   0.705   2.052  17.189  0.3027  0.6651  0.7449
    2MPD1     H14151   0.941   2.340  17.276 -0.5571  1.3786 -0.5139
    2MPD1    H114152   0.662   2.150  17.012  0.0563 -1.9624 -0.3353
    2MPD1    H214153   0.746   1.973  17.383 -0.7967  0.3677 -0.5313
    2MPD1    H314154   0.622   1.983  17.176  2.2786 -1.3523 -1.0651
    2MPD1     N14155   0.832   2.368  17.042  0.0478  0.1957  0.1718
    2MPD1    H514156   0.883   2.450  17.072 -1.6706  1.2558  0.2488
    2MPD1    N114157   0.936   2.131  17.459  0.2719 -0.2722  0.0924
    2MPD1    H614158   1.021   2.187  17.459  0.6169 -0.7923 -0.8126
    2MPD1    H714159   0.953   2.032  17.478  1.2917  0.0029  0.5990
    1MPD1     C14160   0.594   0.206  11.806 -0.7117 -0.4883  0.2588
    1MPD1    C114161   0.706   0.181  11.885 -0.1212  0.1796 -0.0370
    1MPD1    C214162   0.754   0.287  11.964  0.0668 -0.1441 -0.5782
    1MPD1    C314163   0.681   0.404  11.976 -0.1268  0.4980  0.5903
    1MPD1    C414164   0.562   0.413  11.906  0.7746  0.6823  0.2422
    1MPD1    C514165   0.532   0.325  11.806 -0.5483  0.0140  0.0668
    1MPD1     H14166   0.852   0.284  12.011 -0.3763 -1.0699  0.2572
    1MPD1    H114167   0.502   0.502  11.895  1.9844  1.1335 -2.7233
    1MPD1    H214168   0.544   0.134  11.742 -0.7790 -0.3284  0.1340
    1MPD1    H314169   0.449   0.339  11.737  0.5788 -0.6293 -1.4147
    1MPD1     N14170   0.729   0.512  12.055  0.4148 -0.6670  0.5369
    1MPD1    H514171   0.825   0.504  12.087 -0.4036  0.2028  3.2529
    1MPD1    N114172   0.786   0.071  11.854  0.1236 -1.1317 -0.7602
    1MPD1    H614173   0.720   4.729  11.837 -1.6041  0.4133 -0.9948
    1MPD1    H714174   0.839   0.044  11.936  0.0023 -2.5569 -1.1508
    2MPD1     C14175   0.742   2.588  10.856  0.3693 -0.2604  0.4642
    2MPD1    C114176   0.739   2.454  10.819 -0.3080  0.5169  0.7066
    2MPD1    C214177   0.847   2.369  10.834 -0.3845  0.5758  0.1467
    2MPD1    C314178   0.969   2.419  10.879 -0.1838  0.2875  0.2190
    2MPD1    C414179   0.971   2.552  10.916  0.7218 -0.5556 -0.2374
    2MPD1    C514180   0.861   2.642  10.907  0.4310 -0.3637 -0.0309
    2MPD1     H14181   0.845   2.271  10.788 -0.5878  0.2050  0.9404
    2MPD1    H114182   1.062   2.596  10.955  1.0262 -0.6081 -0.8919
    2MPD1    H214183   0.663   2.660  10.841  0.9183  0.2783  0.1426
    2MPD1    H314184   0.873   2.743  10.943 -1.2678 -0.4535  0.7992
    2MPD1     N14185   1.085   2.339  10.899  0.6015  0.1544 -0.4123
    2MPD1    H514186   1.165   2.394  10.927 -0.1118  0.4432  1.0869
    2MPD1    N114187   0.622   2.409  10.755 -0.1298  0.0398  0.8250
    2MPD1    H614188   0.596   2.313  10.775  0.5020  0.2412  2.5947
    2MPD1    H714189   0.546   2.476  10.766  0.9611  1.2272  1.1452
    3MPD1     C14190   2.025   2.464  11.092  0.1687  0.5834 -0.4737
    3MPD1    C114191   1.966   2.394  11.194  0.4141  0.4306  0.1773
    3MPD1    C214192   1.851   2.325  11.164  0.1098  0.0549 -0.8811
    3MPD1    C314193   1.785   2.340  11.042  0.2081 -0.7083 -0.8648
    3MPD1    C414194   1.844   2.413  10.942 -0.4959 -0.1539  1.3270
    3MPD1    C514195   1.974   2.464  10.966  0.6365 -0.3507 -0.0306
    3MPD1     H14196   1.796   2.266  11.237  0.0350  2.5300  1.1053
    3MPD1    H114197   1.810   2.439  10.843 -0.6216 -0.8088  1.1967
    3MPD1    H214198   2.118   2.516  11.110 -1.0173  2.1773  1.0808
    3MPD1    H314199   2.025   2.529  10.896 -1.0482  1.8591  0.7861
    3MPD1     N14200   1.655   2.283  11.042  0.1547 -0.1551 -0.1034
    3MPD1    H514201   1.624   2.253  11.133 -1.1349  1.1807 -0.0971
    3MPD1    N114202   2.035   2.372  11.317  0.3232 -0.1927 -0.2003
    3MPD1    H614203   1.979   2.346  11.398  0.1938 -1.4037 -0.6765
    3MPD1    H714204   2.106   2.444  11.326  0.5014 -0.6412  1.9241
    4MPD2     C14205   0.644   1.308  12.244  0.0166  0.7762 -0.6963
    4MPD2    C114206   0.763   1.244  12.248 -0.8542  0.6577  0.1387
    4MPD2    C214207   0.878   1.310  12.205 -0.2029  0.2747 -0.0757
    4MPD2    C314208   0.873   1.444  12.162 -0.3531  0.1072  0.1732
    4MPD2    C414209   0.756   1.508  12.160 -0.4072 -0.4400 -0.0068
    4MPD2    C514210   0.647   1.440  12.197  0.9852  0.7731 -0.2787
    4MPD2     H14211   0.976   1.263  12.203 -0.5609 -0.4580 -0.3255
    4MPD2    H114212   0.737   1.608  12.124 -0.5892 -0.3754  0.2717
    4MPD2    H214213   0.552   1.269  12.285  1.1464  0.1290  1.1877
    4MPD2    H314214   0.551   1.491  12.198  0.4437 -0.2750  0.9821
    4MPD2     N14215   0.991   1.498  12.119 -0.5889  0.2121  0.4057
    4MPD2    H514216   1.072   1.443  12.144  0.8646  3.0877  2.0237
    4MPD2    N114217   0.781   1.114  12.306 -0.4070  0.5996  0.1922
    4MPD2    H714218   0.879   1.091  12.319 -0.3725  1.8188  2.0357
    5TMC3    C114219   0.741   0.884  12.332 -0.1796  0.4599 -0.5625
    5TMC3    C214220   0.676   0.804  12.247  0.1220 -0.1239  0.6900
    5TMC3    C314221   0.741   0.707  12.179 -0.0469  0.4681 -0.8919
    5TMC3    C414222   0.875   0.882  12.339 -0.3445  0.4385 -0.4513
    5TMC3    C514223   0.948   0.794  12.257 -0.4845 -0.7027  0.6490
    5TMC3    C614224   0.881   0.704  12.182 -0.2649  0.4662  0.1026
    5TMC3     C14225   0.687   1.022  12.328 -0.2388  0.0446 -0.3429
    5TMC3     O14226   0.567   1.023  12.311 -0.4464  0.9554  0.0215
    5TMC3     H14227   0.568   0.805  12.249  0.0909 -1.3923 -0.4476
    5TMC3    H114228   0.936   0.941  12.406 -0.5000  1.2949 -1.0651
    5TMC3    H214229   0.923   0.652  12.097  0.9943 -0.0162  1.0323
    5TMC3    C714230   1.060   0.860  12.185  0.2684  0.4964 -0.5703
    5TMC3    C814231   0.662   0.626  12.087 -0.1301  0.0169  0.4409
    5TMC3    O114232   1.072   0.980  12.224 -0.0231  0.2641  0.4011
    5TMC3    O214233   0.546   0.659  12.060 -0.5815 -0.2978 -0.3504
    6TMC3    C114234   1.232   2.165  10.919 -0.2095  0.0561 -0.0913
    6TMC3    C214235   1.341   2.242  10.897 -0.2419  0.5938 -0.3546
    6TMC3    C314236   1.455   2.193  10.953 -0.2364 -0.5864  0.0945
    6TMC3    C414237   1.234   2.055  11.004  0.6300  0.5446  0.7209
    6TMC3    C514238   1.337   2.025  11.079  0.9189  0.4460 -0.2845
    6TMC3    C614239   1.449   2.104  11.052 -0.2573 -0.1941 -0.7006
    6TMC3     C14240   1.101   2.208  10.883 -0.4880 -0.4716 -0.2723
    6TMC3     O14241   1.010   2.123  10.872  0.2329  0.0376 -0.6238
    6TMC3     H14242   1.345   2.321  10.822 -1.4028  2.1612  1.2604
    6TMC3    H114243   1.147   1.996  11.030 -0.1768  1.7229  0.6997
    6TMC3    H214244   1.534   2.080  11.114 -0.8793  0.0519  0.2410
    6TMC3    C714245   1.348   1.919  11.166  0.8383 -0.7466  0.3348
    6TMC3    C814246   1.574   2.278  10.938 -0.5465 -0.7362 -0.0526
    6TMC3    O114247   1.242   1.874  11.204 -0.0283  0.0927 -0.0236
    6TMC3    O214248   1.592   2.339  10.834  0.1603  0.0442 -0.7633
    7MPD2     C14249   1.291   0.977  11.744 -0.4893  0.2399  0.1591
    7MPD2    C114250   1.266   1.055  11.860 -0.0083 -0.1031  0.0595
    7MPD2    C214251   1.206   0.990  11.966 -0.4988  0.0063  0.1427
    7MPD2    C314252   1.182   0.857  11.963  0.3424 -0.2140  0.6093
    7MPD2    C414253   1.232   0.779  11.860  0.0789 -0.3982 -1.0141
    7MPD2    C514254   1.265   0.842  11.738  0.7223  0.1787 -0.6556
    7MPD2     H14255   1.174   1.057  12.045 -1.6306  1.3217 -1.4221
    7MPD2    H114256   1.207   0.673  11.857  4.2488 -1.4102 -0.8113
    7MPD2    H214257   1.335   1.035  11.663 -0.5997 -0.1568 -0.1886
    7MPD2    H314258   1.290   0.795  11.644 -1.0222 -2.5715  0.2577
    7MPD2     N14259   1.113   0.793  12.073  0.8667 -0.1682  0.6420
    7MPD2    H514260   1.088   0.695  12.060 -1.9787  0.2814  2.6443
    7MPD2    N114261   1.304   1.194  11.851  1.1820 -0.7740 -0.1410
    7MPD2    H714262   1.336   1.217  11.758 -1.6583  1.4954 -0.5400
    8TMC3    C114263   1.286   1.428  11.922 -0.1043  0.1229  0.3601
    8TMC3    C214264   1.291   1.467  11.795 -0.7267 -0.4222  0.5586
    8TMC3    C314265   1.235   1.592  11.764  0.9935  0.2499  0.5460
    8TMC3    C414266   1.228   1.509  12.021  0.3210  0.1430  0.6979
    8TMC3    C514267   1.146   1.612  11.984 -0.0217 -0.4951 -0.0512
    8TMC3    C614268   1.158   1.662  11.856  0.6629  0.0271  0.5158
    8TMC3     C14269   1.287   1.284  11.953  0.2762  0.5681 -0.9010
    8TMC3     O14270   1.286   1.262  12.075  0.1061  0.2856  0.1392
    8TMC3     H14271   1.338   1.406  11.719 -1.1293  0.8892 -0.7516
    8TMC3    H114272   1.216   1.466  12.120  1.3802 -0.6577  0.4813
    8TMC3    H214273   1.092   1.740  11.820  0.4763 -1.3762 -2.1818
    8TMC3    C714274   1.015   1.611  12.047  0.2876  0.6521 -0.2945
    8TMC3    C814275   1.288   1.657  11.657 -0.6237 -0.2325  0.5033
    8TMC3    O114276   0.931   1.695  12.010 -0.0864 -0.2863  0.0438
    8TMC3    O214277   1.221   1.747  11.609  0.3380 -0.5481  0.0730
    9MPD2     C14278   1.599   1.606  11.482 -0.6019  0.0310  0.0547
    9MPD2    C114279   1.471   1.647  11.498  0.0026 -0.3798  0.0345
    9MPD2    C214280   1.425   1.744  11.403  0.1781  0.6046  0.0522
    9MPD2    C314281   1.499   1.762  11.281  0.2182 -0.7236  1.3436
    9MPD2    C414282   1.625   1.701  11.272 -0.1774 -0.0487 -0.4041
    9MPD2    C514283   1.677   1.628  11.369  0.2807 -0.3529 -0.1967
    9MPD2     H14284   1.336   1.803  11.423  1.1744  2.4493 -0.9450
    9MPD2    H114285   1.677   1.701  11.177 -1.7797  0.8142 -1.2908
    9MPD2    H214286   1.645   1.538  11.552 -0.6780 -0.9114 -0.8048
    9MPD2    H314287   1.767   1.569  11.356 -0.2461 -1.6124  1.9679
    9MPD2     N14288   1.467   1.863  11.183 -0.1171  0.1058  0.2076
    9MPD2    H514289   1.535   1.882  11.111  0.5140 -1.6718  0.3334
    9MPD2    N114290   1.406   1.613  11.616  0.0078 -0.7643 -0.6617
    9MPD2    H714291   1.461   1.552  11.676 -1.4024  0.1969  1.5836
    1MPD1     C14292   1.039   0.553  17.300  1.0049 -0.9368 -0.2546
    1MPD1    C114293   1.071   0.456  17.388  0.0422  0.2810  0.6510
    1MPD1    C214294   1.100   0.333  17.340 -0.2908 -1.2769 -0.0955
    1MPD1    C314295   1.146   0.316  17.211 -0.0157 -0.2683 -0.1550
    1MPD1    C414296   1.128   0.420  17.121 -0.1365 -0.1811 -0.5746
    1MPD1    C514297   1.071   0.536  17.170 -0.7509 -0.5187 -0.3002
    1MPD1     H14298   1.104   0.249  17.408  0.5287 -2.0673 -1.1076
    1MPD1    H114299   1.136   0.412  17.013  0.3465  0.3338 -0.5729
    1MPD1    H214300   0.992   0.644  17.333  3.1750  0.4127 -0.9195
    1MPD1    H314301   1.037   0.604  17.092  1.5056 -1.1088 -1.8089
    1MPD1     N14302   1.181   0.190  17.163  0.5912  0.0415 -0.1011
    1MPD1    H514303   1.173   0.170  17.064  0.9153  1.0788 -0.3334
    1MPD1    N114304   1.020   0.467  17.521 -0.3675 -0.2632 -0.2272
    1MPD1    H614305   0.996   0.565  17.536  0.6906 -0.1881  1.0244
    1MPD1    H714306   1.089   0.437  17.589 -1.4910 -0.4812  0.8132
    2TMC2    C114307   1.223   4.541  17.011  0.1088 -0.1432  1.6987
    2TMC2    C214308   1.300   4.451  17.076  0.6711 -0.6376  0.2372
    2TMC2    C314309   1.352   4.482  17.197  0.2581  0.2933  0.2672
    2TMC2    C414310   1.199   4.672  17.066 -0.6473 -0.4351 -0.2283
    2TMC2    C514311   1.270   4.702  17.182  0.1768 -0.1129 -0.2186
    2TMC2    C614312   1.345   4.614  17.246 -0.0431  0.0413  0.0989
    2TMC2     C14313   1.226   4.537  16.868 -0.2661 -0.5102 -0.0694
    2TMC2     O14314   1.248   4.645  16.814  0.2188  0.2694 -0.2501
    2TMC2     H14315   1.336   4.356  17.039 -1.0804 -1.5595  0.9007
    2TMC2    H114316   1.135   0.007  17.011  1.6261  1.2824 -0.6976
    2TMC2    H214317   1.395   4.631  17.341 -0.2368  1.7123 -0.1138
    2TMC2    C714318   1.246   0.092  17.248 -0.0553 -0.1887 -0.5715
    2TMC2    C814319   1.420   4.384  17.268 -0.2094 -0.4209 -0.3378
    2TMC2    O114320   1.299   0.102  17.356 -0.0363  0.4510 -0.3089
    2TMC2    O214321   1.532   4.354  17.231  0.7805 -0.0906  0.2531
    2TMC2    O514322   1.317   4.305  17.296  0.3798 -0.2005 -0.5514
    2TMC2    H514323   1.251   4.359  17.345  1.0348 -0.4764  0.6308
    3MPD1     C14324   1.172   4.299  16.419 -0.8418 -0.2964  0.0383
    3MPD1    C114325   1.198   4.207  16.515  0.5257  0.0869 -0.6750
    3MPD1    C214326   1.213   4.252  16.644 -0.1487  0.8386  0.7732
    3MPD1    C314327   1.205   4.385  16.676  0.2478  0.2734 -0.2161
    3MPD1    C414328   1.186   4.481  16.575  0.0930 -0.2282  0.1739
    3MPD1    C514329   1.165   4.435  16.448 -0.1949 -0.7160  0.2134
    3MPD1     H14330   1.265   4.192  16.718  1.0708  2.4628  1.2377
    3MPD1    H114331   1.174   4.587  16.593 -0.3310  0.0071 -1.4138
    3MPD1    H214332   1.155   4.267  16.317  1.3544  0.0786 -0.4355
    3MPD1    H314333   1.131   4.496  16.365  0.4356  0.0519  0.5148
    3MPD1     N14334   1.211   4.411  16.814 -0.6459  0.0491 -0.9088
    3MPD1    H514335   1.199   4.329  16.872 -0.9109  1.1422  0.5559
    3MPD1    N114336   1.253   4.085  16.471 -0.2100  0.0221  0.1470
    3MPD1    H614337   1.278   4.015  16.540 -2.0757  1.5260  2.3260
    3MPD1    H714338   1.221   4.035  16.388  1.2010  1.1752 -1.0974
    1TMC1    C114339   2.956   3.811  13.854 -1.1722  0.0590  0.3009
    1TMC1    C214340   2.978   3.895  13.964  0.3265 -0.2235  0.1527
    1TMC1    C314341   2.906   3.863  14.075 -0.0345  0.2118  0.3117
    1TMC1    C414342   2.910   3.681  13.862  0.5811  0.2694  0.1609
    1TMC1    C514343   2.860   3.648  13.990 -0.8623  0.2861 -0.2309
    1TMC1    C614344   2.845   3.739  14.094 -0.2894  0.2750  0.3680
    1TMC1     C14345   3.035   3.853  13.738 -0.0946  0.1277  0.7886
    1TMC1     O14346   3.066   3.969  13.717 -0.7928 -0.1435  0.0047
    1TMC1     H14347   3.019   3.994  13.951  0.7769 -0.6924 -1.9979
    1TMC1    H114348   2.891   3.615  13.779 -3.0280  0.6119  0.6873
    1TMC1    H214349   2.805   3.721  14.193  0.7420  0.5236  0.8243
    1TMC1    C714350   2.839   3.513  14.018 -0.5449 -0.0422  0.0572
    1TMC1    C814351   2.902   3.945  14.193 -1.0774 -0.1089 -0.3733
    1TMC1    O114352   2.882   3.421  13.949 -0.4720  0.5435  0.1162
    1TMC1    O214353   2.883   3.907  14.304 -0.0400  0.0556 -0.1953
    1TMC1    O314354   2.720   3.501  14.081 -0.0350 -0.6492  0.6656
    1TMC1    H314355   2.679   3.589  14.095  2.0534  0.2563  1.1234
    1TMC1    O514356   2.890   4.073  14.157  0.0725 -0.0096  0.0409
    1TMC1    H514357   2.885   4.102  14.064 -0.0405  0.3317  0.1545
    2MPD2     C14358   3.175   3.608  13.485 -0.3293  0.0187  0.1523
    2MPD2    C114359   3.169   3.728  13.560  0.4045  0.1545 -0.0779
    2MPD2    C214360   3.254   3.831  13.522 -0.3113  0.3766  0.2569
    2MPD2    C314361   3.359   3.811  13.422 -0.3443  0.3666  0.3323
    2MPD2    C414362   3.362   3.685  13.359  0.7449  0.1677 -0.3692
    2MPD2    C514363   3.266   3.593  13.382  0.1927  0.1429 -0.0088
    2MPD2     H14364   3.246   3.925  13.576 -2.0616  0.2345  0.2244
    2MPD2    H114365   3.434   3.661  13.282  1.5018  2.2462 -0.3166
    2MPD2    H214366   3.123   3.516  13.512  0.4437 -0.9895 -1.7642
    2MPD2    H314367   3.278   3.501  13.325 -1.3977  0.5055 -0.9391
    2MPD2     N14368   3.453   3.900  13.379 -0.0510 -0.3565 -0.0742
    2MPD2    H514369   3.520   3.861  13.312  0.2443  0.5055 -0.2872
    2MPD2    N114370   3.067   3.741  13.658  0.9861  0.2490 -0.9815
    2MPD2    H714371   3.021   3.654  13.683  0.4151  1.0960  0.9771
    3TCq1    O114372   3.603   4.492  13.296 -0.2336 -0.9263  0.6033
    3TCq1    C114373   3.719   4.429  13.340  0.2802 -0.2474  0.0539
    3TCq1    O214374   3.834   4.468  13.326 -0.0681 -0.2467  0.3454
    3TCq1    C214375   3.694   4.290  13.324  0.1950 -0.1939  0.4086
    3TCq1    C314376   3.780   4.222  13.248 -0.0785  0.4349 -0.0618
    3TCq1    C414377   3.766   4.091  13.231 -0.3883 -0.3016 -0.4416
    3TCq1    C514378   3.665   4.022  13.287  1.1673 -0.5579  0.2297
    3TCq1    C614379   3.578   4.095  13.368 -0.9394  0.0404 -0.0240
    3TCq1    C714380   3.588   4.230  13.390  0.6617 -0.3836 -0.1147
    3TCq1    C814381   3.458   4.034  13.413 -0.5195  0.5591 -0.3908
    3TCq1    O414382   3.383   4.098  13.491 -0.5941  0.2606 -0.0120
    3TCq1    C914383   3.859   4.028  13.140 -0.6741 -0.1034 -0.0346
    3TCq1    O514384   3.967   4.081  13.107  0.5418  0.1545  0.8212
    3TCq1    O614385   3.814   3.926  13.082 -0.2483  0.2498 -0.0584
    3TCq1    H114386   3.547   4.415  13.273  0.4996 -0.9357 -1.1373
    3TCq1    H214387   3.872   4.258  13.203  0.3524 -0.9470 -0.3052
    3TCq1    H314388   3.651   3.921  13.248 -0.1349 -0.5426  0.6688
    3TCq1    H414389   3.518   4.286  13.452  0.2531 -0.9985 -0.0263
    1MPD2     C14390   3.317   0.638  14.733 -1.2459  0.6416  0.0411
    1MPD2    C114391   3.224   0.540  14.734 -0.1429 -0.0478  0.0646
    1MPD2    C214392   3.208   0.460  14.848  0.3493  0.3838  0.3892
    1MPD2    C314393   3.289   0.481  14.963  0.4403  0.1584 -0.5959
    1MPD2    C414394   3.392   0.571  14.947 -0.5393  0.3407 -0.1400
    1MPD2    C514395   3.405   0.649  14.839  0.1606  0.1397 -0.0455
    1MPD2     H14396   3.128   0.388  14.861 -1.3389  2.0623 -0.6873
    1MPD2    H114397   3.462   0.579  15.030  0.4906 -0.1841 -0.9694
    1MPD2    H214398   3.339   0.699  14.646  1.2566  2.3841  1.8841
    1MPD2    H314399   3.483   0.724  14.835  0.2925  0.0414  0.7078
    1MPD2     N14400   3.250   0.419  15.083  0.9439  0.5284  0.0055
    1MPD2    H514401   3.166   0.361  15.081  0.7907  0.6819  1.5784
    1MPD2    N114402   3.137   0.522  14.621  0.1334  0.6913  0.4187
    1MPD2    H714403   3.153   0.581  14.540 -0.6096  0.1298 -0.1353
    2TMC3    C114404   2.944   0.471  14.485  0.7253 -0.9579 -0.5093
    2TMC3    C214405   2.836   0.391  14.497  0.6137  0.1409  0.2205
    2TMC3    C314406   2.710   0.455  14.489 -0.5604  0.0685  0.0569
    2TMC3    C414407   2.935   0.602  14.449 -0.0664 -0.0344  0.5436
    2TMC3    C514408   2.806   0.654  14.428 -0.0570 -0.5378  0.4265
    2TMC3    C614409   2.691   0.582  14.446  0.1011  0.1330  0.2507
    2TMC3     C14410   3.028   0.444  14.608 -0.2466  0.8191 -0.4095
    2TMC3     O14411   2.986   0.367  14.689  0.3469 -0.2238  0.0592
    2TMC3     H14412   2.843   0.288  14.530 -0.8807 -0.0705 -0.0929
    2TMC3    H114413   3.022   0.664  14.426  0.0839 -0.5767 -0.3821
    2TMC3    H214414   2.589   0.621  14.446  0.1199  0.1149 -2.8690
    2TMC3    C714415   2.790   0.789  14.389  0.2308  0.1567 -0.7410
    2TMC3    C814416   2.622   0.416  14.603 -0.7346  0.1650 -0.5624
    2TMC3    O114417   2.695   0.820  14.320 -0.2705 -0.1718  0.0570
    2TMC3    O214418   2.506   0.455  14.584 -0.3903 -0.1894  0.6413
    3TCq1    O114419   3.351   1.731  15.021 -0.2905 -0.2144  0.2346
    3TCq1    C114420   3.228   1.716  14.957 -0.9071  0.2457  0.2062
    3TCq1    O214421   3.141   1.806  14.938 -0.1431 -0.3696 -0.1672
    3TCq1    C214422   3.218   1.583  14.910 -0.4162  0.5892 -0.2538
    3TCq1    C314423   3.268   1.477  14.983 -0.1336 -0.6446  0.0008
    3TCq1    C414424   3.254   1.350  14.938  0.6713  0.4263 -0.0688
    3TCq1    C514425   3.187   1.327  14.820 -0.0427 -0.5740  0.3446
    3TCq1    C614426   3.151   1.433  14.744 -0.3690 -0.0991  0.2338
    3TCq1    C714427   3.159   1.567  14.791 -0.1652 -0.0748 -0.2464
    3TCq1    C814428   3.072   1.403  14.626 -0.5978  0.0407 -0.1359
    3TCq1    O414429   3.017   1.505  14.579 -0.4301 -0.1519 -0.9254
    3TCq1    C914430   3.282   1.238  15.021  0.0044  0.1132  0.5610
    3TCq1    O514431   3.347   1.261  15.129  0.8774 -0.2401  0.5571
    3TCq1    O614432   3.216   1.134  15.001 -0.1154 -0.3985 -0.3993
    3TCq1    H114433   3.423   1.685  14.971 -1.7647 -0.2319 -1.8908
    3TCq1    H214434   3.299   1.489  15.086  1.4972 -0.8804 -0.4710
    3TCq1    H314435   3.156   1.225  14.799 -0.3718 -0.5821  0.8795
    3TCq1    H414436   3.129   1.649  14.727  1.2911  0.9212  0.3280
    4MPD2     C14437   2.907   1.279  14.402  0.0584  0.3321  0.4380
    4MPD2    C114438   2.989   1.212  14.489  0.1885  1.0425 -0.2467
    4MPD2    C214439   2.988   1.073  14.488  0.3398  0.5523  0.5883
    4MPD2    C314440   2.907   1.002  14.413 -0.1857  0.4002 -0.0505
    4MPD2    C414441   2.830   1.067  14.315  0.3685 -0.5808 -0.1968
    4MPD2    C514442   2.828   1.206  14.310 -0.2229  0.5843  0.1123
    4MPD2     H14443   3.050   1.020  14.560 -0.4850  0.3120  1.1319
    4MPD2    H114444   2.772   1.017  14.238 -0.4649  0.5853 -0.3192
    4MPD2    H214445   2.891   1.386  14.396  1.3248  0.4062 -1.4645
    4MPD2    H314446   2.752   1.255  14.249 -1.8918  1.1323  2.6323
    4MPD2     N14447   2.889   0.862  14.439  0.5731  0.6688  0.3921
    4MPD2    H514448   2.952   0.822  14.508  2.4365  0.8543 -1.1842
    4MPD2    N114449   3.070   1.274  14.586 -0.0630 -0.5448 -0.4517
    4MPD2    H714450   3.131   1.206  14.631  0.9206 -1.3106 -2.9450
    5TMC2    C114451   2.988   0.334  15.292 -1.0912 -0.1559 -0.1814
    5TMC2    C214452   2.945   0.429  15.384  0.1191 -0.1935  0.2534
    5TMC2    C314453   3.039   0.510  15.432  0.1859 -0.1923  0.0739
    5TMC2    C414454   3.118   0.308  15.256 -0.5781  0.2932  0.0428
    5TMC2    C514455   3.203   0.397  15.302 -0.3087 -0.7416 -0.3600
    5TMC2    C614456   3.165   0.499  15.386 -0.2118 -0.1773  0.1285
    5TMC2     C14457   2.911   0.308  15.173 -0.1188  0.1126  0.6003
    5TMC2     O14458   2.978   0.277  15.074  0.1571 -0.3493 -0.6300
    5TMC2     H14459   2.840   0.432  15.412 -0.6462 -0.3403 -2.6375
    5TMC2    H114460   3.139   0.225  15.190  1.4000  0.4225  0.5130
    5TMC2    H214461   3.246   0.568  15.410  0.8222 -1.2653 -0.2462
    5TMC2    C714462   3.308   0.439  15.206 -0.4524  1.2274  0.0993
    5TMC2    C814463   3.002   0.582  15.556 -0.0943  0.2073  0.1718
    5TMC2    O114464   3.412   0.494  15.238 -0.5317 -0.1939  0.2458
    5TMC2    O214465   2.940   0.530  15.647 -0.2277 -0.0300 -0.3046
    5TMC2    O514466   2.974   0.703  15.503  0.4441  0.3446  0.6069
    5TMC2    H514467   3.018   0.715  15.416  0.4830 -0.0418  0.5731
    6MPD2     C14468   2.510   0.406  14.870 -0.9021  0.3771 -0.5113
    6MPD2    C114469   2.641   0.383  14.844  0.9254  0.7076  0.0847
    6MPD2    C214470   2.729   0.348  14.940 -0.5100 -0.5949 -0.3316
    6MPD2    C314471   2.688   0.349  15.073 -0.1062 -0.1829 -0.2206
    6MPD2    C414472   2.556   0.370  15.102  0.4772 -0.1269  0.2981
    6MPD2    C514473   2.467   0.393  15.002  0.2681 -0.6459  0.0488
    6MPD2     H14474   2.829   0.324  14.907 -0.1530  0.1349  0.2185
    6MPD2    H114475   2.516   0.366  15.202 -0.2093  1.6463  0.0822
    6MPD2    H214476   2.439   0.437  14.794 -2.0525 -2.2083 -0.5119
    6MPD2    H314477   2.365   0.407  15.037  1.0231  1.0525  1.5519
    6MPD2     N14478   2.779   0.337  15.184 -0.6610  0.2990 -0.6149
    6MPD2    H514479   2.735   0.334  15.275  1.8633  0.6104  0.6194
    6MPD2    N114480   2.695   0.389  14.717  0.6528  0.1203 -0.5068
    6MPD2    H714481   2.794   0.371  14.709  1.3127  3.8227 -0.8247
  945NH3     N114482   1.730   0.630   7.413  0.7478 -0.4128 -0.6575
  945NH3     H214483   1.664   0.637   7.490  1.5305 -2.3064  0.1896
  945NH3     H314484   1.677   0.671   7.337 -0.9450 -2.4092 -0.5523
  945NH3     H414485   1.733   0.534   7.381  1.3049  0.1461 -2.2998
  946SOD     NA14486   0.860   3.202  13.568 -0.0804 -0.5795  0.1800
  947SOD     NA14487   2.661   0.010  11.795  0.3100 -0.6793  0.1812
  948SOD     NA14488   2.774   4.553  13.927 -0.1057  0.2139  0.1554
  949SOD     NA14489   3.278   4.114   9.613 -0.2460 -0.1697 -0.0234
  950SOD     NA14490   3.506   0.810   2.884  0.7039 -0.3698 -0.0739
  951SOD     NA14491   2.049   3.974   0.373  0.5829 -0.0134  0.1332
  952SOD     NA14492   3.815   2.520  16.852 -0.4742 -0.5556 -0.0101
  953SOD     NA14493   1.816   4.577  15.902 -0.1437  0.2172  0.0712
  954SOL     OW14494   2.629   4.236  16.630  0.3429 -0.3105  0.0648
  954SOL    HW114495   2.678   4.167  16.584  1.2181  0.3605  0.0008
  954SOL    HW214496   2.598   4.279  16.550  1.8525  1.3665  0.4009
  955SOL     OW14497   2.705   1.932  11.156 -0.0928 -0.0143  0.3788
  955SOL    HW114498   2.740   2.015  11.187 -0.9028  0.2375  0.6289
  955SOL    HW214499   2.746   1.868  11.215 -2.4697 -1.2073  0.7337
  956SOL     OW14500   3.948   1.279   1.691 -0.2276 -0.0719 -0.0143
  956SOL    HW114501   3.940   1.288   1.596  0.3285  0.9575  0.0407
  956SOL    HW214502   3.955   1.371   1.715  1.1221 -0.2642  0.3723
  957SOL     OW14503   4.371   0.252   3.972 -0.3648  0.0416  0.2223
  957SOL    HW114504   4.329   0.224   3.891  2.4383 -1.5576 -0.6748
  957SOL    HW214505   4.345   0.344   3.975  1.9181  0.6328  1.8555
  958SOL     OW14506   3.958   3.264   6.956  0.8454  0.1308 -0.0544
  958SOL    HW114507   3.981   3.260   6.863 -0.3358 -1.1615 -0.3031
  958SOL    HW214508   4.018   3.199   6.992  0.1790  0.5374  1.7847
  959SOL     OW14509   1.700   3.407   6.626 -0.1065 -0.3290 -0.1734
  959SOL    HW114510   1.695   3.423   6.532 -0.3897 -1.0134 -0.2792
  959SOL    HW214511   1.793   3.400   6.645 -0.5178 -1.6865  1.3548
  960SOL     OW14512   4.686   4.510  17.508  0.1581  0.0968  0.6236
  960SOL    HW114513   4.598   4.472  17.512 -0.0027  0.3386 -0.5098
  960SOL    HW214514   4.718   4.475  17.425 -1.2985  0.0483  0.0906
  961SOL     OW14515   3.416   0.874   5.191 -0.2741  0.2762 -0.3931
  961SOL    HW114516   3.491   0.933   5.199 -0.4036  0.3946 -0.0271
  961SOL    HW214517   3.356   0.937   5.151  0.8026  1.6344  0.1320
  962SOL     OW14518   2.932   1.687  13.421 -0.2162 -0.0181  0.1459
  962SOL    HW114519   3.001   1.636  13.463  1.2637  1.3115 -0.6907
  962SOL    HW214520   2.945   1.687  13.326  1.4966  1.7900  0.3822
  963SOL     OW14521   0.645   2.941   3.381  0.0321 -0.2897  0.1231
  963SOL    HW114522   0.622   2.950   3.289 -1.5839 -0.6566  0.4888
  963SOL    HW214523   0.558   2.954   3.418 -0.6468  1.6122 -2.1658
  964SOL     OW14524   1.647   1.115  10.309  0.2645  0.3214  0.0377
  964SOL    HW114525   1.738   1.107  10.337  1.2967  2.7855 -2.5674
  964SOL    HW214526   1.617   1.149  10.394  0.4924 -0.7702  0.5482
  965SOL     OW14527   1.024   4.620   1.165 -0.8143  0.2050  0.0362
  965SOL    HW114528   1.048   4.705   1.203  2.1630  0.0398 -1.4843
  965SOL    HW214529   1.090   4.560   1.201 -0.9032  0.1102  0.0413
  966SOL     OW14530   1.461   2.523   8.755  0.3162  0.3389  0.2033
  966SOL    HW114531   1.365   2.522   8.764  0.3285 -3.2869  0.2459
  966SOL    HW214532   1.484   2.577   8.830 -1.6983 -1.0941  1.8858
  967SOL     OW14533   1.350   2.330   8.101 -0.9369  0.2847  0.3255
  967SOL    HW114534   1.418   2.392   8.127 -0.2308 -0.2218 -0.3114
  967SOL    HW214535   1.339   2.273   8.177  2.1020 -1.1010 -0.2734
  968SOL     OW14536   2.397   3.767  16.461  0.2920 -0.4561  0.5840
  968SOL    HW114537   2.480   3.770  16.507 -0.0111 -1.7787  1.2239
  968SOL    HW214538   2.357   3.850  16.485 -0.0275 -0.6376  0.6846
  969SOL     OW14539   3.496   2.341   4.364 -0.0151 -0.0804  0.3518
  969SOL    HW114540   3.455   2.342   4.278  2.0999 -2.3083 -0.6762
  969SOL    HW214541   3.432   2.387   4.418  2.3924  3.1250  0.4468
  970SOL     OW14542   3.948   0.460   4.184  0.1115  0.1839  0.4785
  970SOL    HW114543   3.875   0.506   4.143 -0.0141  0.1762  0.6939
  970SOL    HW214544   3.900   0.388   4.225 -0.9899  0.6539  0.0145
  971SOL     OW14545   3.677   3.841   2.107  0.3578 -0.1640 -0.0393
  971SOL    HW114546   3.771   3.852   2.098  0.2605 -0.0713 -0.9525
  971SOL    HW214547   3.653   3.933   2.095 -0.1895  0.0761  2.8560
  972SOL     OW14548   0.237   1.222  11.814  0.4658  0.0486  0.5093
  972SOL    HW114549   0.174   1.277  11.769 -1.2894 -2.2804  0.1372
  972SOL    HW214550   0.183   1.145  11.828  0.3639  0.0321  0.0079
  973SOL     OW14551   0.931   3.460   5.493  0.1314  0.1766 -0.1574
  973SOL    HW114552   0.948   3.548   5.460 -0.0279  0.0068 -0.6967
  973SOL    HW214553   0.838   3.474   5.509  0.7184 -1.1764  4.4269
  974SOL     OW14554   2.870   4.668   8.950  0.3333 -0.0463 -0.1972
  974SOL    HW114555   2.855   4.667   8.856  0.8099  0.2122 -0.2769
  974SOL    HW214556   2.865   4.576   8.974 -1.5701 -0.1348 -0.9155
  975SOL     OW14557   1.812   4.541  11.210 -0.0535  0.5736  0.5210
  975SOL    HW114558   1.788   4.633  11.198  0.9204  0.7742  0.1276
  975SOL    HW214559   1.803   4.512  11.119 -2.3010 -0.7813  1.1622
  976SOL     OW14560   0.546   1.642   8.983 -0.2321  0.0611  0.5055
  976SOL    HW114561   0.503   1.556   8.979 -0.8028  0.3986 -0.8367
  976SOL    HW214562   0.574   1.655   8.892 -1.7418 -0.4965 -0.0553
  977SOL     OW14563   4.447   2.551  14.449  0.1600 -0.1109 -0.1110
  977SOL    HW114564   4.388   2.476  14.463  2.2172 -1.7317 -0.0845
  977SOL    HW214565   4.401   2.620  14.496 -1.9741 -0.0733 -2.2633
  978SOL     OW14566   2.287   4.023  16.582  0.2606 -0.7252 -0.6283
  978SOL    HW114567   2.266   4.083  16.510  2.5137  2.6417  1.4777
  978SOL    HW214568   2.215   4.026  16.645  0.4729  1.8668 -0.4980
  979SOL     OW14569   4.568   1.121  14.663 -0.1655  0.2728 -0.2514
  979SOL    HW114570   4.542   1.037  14.624  1.0077 -0.4552  0.5269
  979SOL    HW214571   4.554   1.174  14.585  1.8508  1.4026  0.1610
  980SOL     OW14572   2.050   1.808  13.912 -0.0582  0.0853 -0.0583
  980SOL    HW114573   2.064   1.800  14.006  1.4719 -0.7311 -0.3445
  980SOL    HW214574   2.141   1.810  13.881  0.1083 -0.1948  0.4073
  981SOL     OW14575   0.982   0.241   7.385 -0.3405  0.4586 -0.3884
  981SOL    HW114576   0.912   0.177   7.398  0.1501 -0.3140 -1.6387
  981SOL    HW214577   1.058   0.184   7.396 -0.2989  0.6415  0.3189
  982SOL     OW14578   4.089   2.436   2.483 -0.1936 -0.1313  0.2212
  982SOL    HW114579   4.047   2.493   2.547  1.3857  2.6818 -1.2745
  982SOL    HW214580   4.173   2.433   2.529  1.0316  1.0390 -1.9081
  983SOL     OW14581   3.382   0.822   7.045 -0.1935 -0.3746 -0.8913
  983SOL    HW114582   3.299   0.863   7.022  0.5576  1.5473 -0.1929
  983SOL    HW214583   3.366   0.816   7.139 -0.4158 -1.5986 -1.0056
  984SOL     OW14584   3.493   1.456   6.027 -0.0604 -0.1110 -0.3781
  984SOL    HW114585   3.468   1.520   5.961  0.5057 -0.7987 -1.2560
  984SOL    HW214586   3.583   1.482   6.046  0.1193 -0.9503 -0.0458
  985SOL     OW14587   2.676   3.649   4.454  0.5803  1.4282 -0.0928
  985SOL    HW114588   2.650   3.716   4.517 -0.5179  0.4554  0.4842
  985SOL    HW214589   2.613   3.579   4.468  0.5574  1.2426 -1.2000
  986SOL     OW14590   4.728   4.422  10.970  0.3486 -0.4765  0.1204
  986SOL    HW114591   4.715   4.338  11.015  0.6446 -0.5492  0.0650
  986SOL    HW214592   0.088   4.431  10.959  0.4339  1.5111  2.4997
  987SOL     OW14593   0.686   2.556  10.322  1.0553 -0.5042  0.3268
  987SOL    HW114594   0.627   2.482  10.334  0.6272  0.1825  2.4950
  987SOL    HW214595   0.731   2.521  10.246 -1.2885 -0.7006 -0.9546
  988SOL     OW14596   3.635   4.196   3.261 -0.2096  0.4397 -0.3208
  988SOL    HW114597   3.583   4.150   3.195 -0.2624  2.4083 -1.6590
  988SOL    HW214598   3.690   4.266   3.225 -1.1462  0.6099 -1.4528
  989SOL     OW14599   4.612   1.800   2.263  0.1096 -0.5667  0.3114
  989SOL    HW114600   4.542   1.833   2.320 -0.0381  1.1108 -0.8348
  989SOL    HW214601   4.671   1.873   2.278  0.5246 -1.5122  3.1547
  990SOL     OW14602   4.314   3.505   8.965 -0.4067  0.4603 -0.0845
  990SOL    HW114603   4.256   3.519   8.890 -1.1824 -0.2152  0.3985
  990SOL    HW214604   4.378   3.440   8.937 -0.2995 -0.7027  2.8743
  991SOL     OW14605   4.470   2.403   5.231 -0.1149 -0.5143  0.6166
  991SOL    HW114606   4.543   2.445   5.187 -0.7209 -0.5087 -0.4089
  991SOL    HW214607   4.454   2.318   5.189  3.2262 -0.9410  0.2374
  992SOL     OW14608   2.854   2.112  12.811 -0.3019  0.6930 -0.4671
  992SOL    HW114609   2.844   2.205  12.832 -1.4570  0.4641  0.0059
  992SOL    HW214610   2.886   2.126  12.721  2.6507 -0.4459  0.3944
  993SOL     OW14611   1.072   3.083   4.391  1.0216 -0.0235 -0.0238
  993SOL    HW114612   0.987   3.077   4.347  0.4354 -1.5781  1.3623
  993SOL    HW214613   1.128   3.094   4.314  1.5674  0.2973  0.4184
  994SOL     OW14614   4.212   1.949   3.197 -0.1645 -0.2421  0.5717
  994SOL    HW114615   4.200   1.854   3.202 -1.0633 -0.3943 -4.1938
  994SOL    HW214616   4.121   1.978   3.206 -0.3405 -0.1380 -1.5901
  995SOL     OW14617   1.497   1.911   6.570  0.1683 -0.1950  0.0077
  995SOL    HW114618   1.493   1.821   6.601  0.9005  0.1476  1.1009
  995SOL    HW214619   1.586   1.932   6.599  0.2685  0.3353 -0.6910
  996SOL     OW14620   0.574   3.991   6.470 -0.0607 -0.7574 -0.3566
  996SOL    HW114621   0.548   4.062   6.413 -0.4373 -0.3302  0.3443
  996SOL    HW214622   0.646   4.031   6.518  0.4517 -0.6150 -1.2680
  997SOL     OW14623   4.193   4.366   8.297  0.4328  0.6236 -0.4082
  997SOL    HW114624   4.240   4.289   8.327 -1.3873 -0.0795  0.6862
  997SOL    HW214625   4.264   4.400   8.243  0.1290  0.2460 -1.0480
  998SOL     OW14626   3.655   3.644  16.012  0.0230 -1.3115 -0.2687
  998SOL    HW114627   3.675   3.729  15.973  0.4638 -0.8007  1.0631
  998SOL    HW214628   3.675   3.662  16.103 -0.8256  0.2840 -0.3914
  999SOL     OW14629   2.877   4.234   2.084  0.1465  0.1228  0.1098
  999SOL    HW114630   2.937   4.305   2.105 -0.0601  1.0624 -2.4262
  999SOL    HW214631   2.851   4.193   2.166 -1.1399  2.3702  0.8065
 1000SOL     OW14632   0.193   0.680  12.683 -0.2761  0.2277  0.2945
 1000SOL    HW114633   0.164   0.707  12.770  2.1402 -0.6151  1.3390
 1000SOL    HW214634   0.254   0.752  12.666 -2.3345  1.9333  0.0399
 1001SOL     OW14635   0.350   2.303   3.070  0.5221  0.0086 -0.6322
 1001SOL    HW114636   0.273   2.346   3.108  1.3384 -0.0451  1.0757
 1001SOL    HW214637   0.361   2.232   3.133  2.6466  0.2680 -0.7239
 1002SOL     OW14638   1.825   3.270   0.096  0.1621 -0.3532  0.0021
 1002SOL    HW114639   1.806   3.335   0.164  0.4346  1.5873 -1.8043
 1002SOL    HW214640   1.798   3.196   0.152  2.5267 -0.6094  0.7949
 1003SOL     OW14641   0.768   2.880  10.370 -0.2285  0.0175  0.1879
 1003SOL    HW114642   0.688   2.908  10.415 -1.4977 -2.0106 -0.7768
 1003SOL    HW214643   0.781   2.797  10.414 -1.0378 -0.8769 -1.2438
 1004SOL     OW14644   1.484   0.733  16.336 -0.2582 -0.0595 -0.3121
 1004SOL    HW114645   1.424   0.759  16.407  0.0777 -0.1084 -0.0128
 1004SOL    HW214646   1.555   0.693  16.386  0.8850 -0.6255 -2.4237
 1005SOL     OW14647   3.508   0.829   0.668  0.1561  0.4369  0.2434
 1005SOL    HW114648   3.509   0.924   0.678 -0.6596  0.4146  0.5138
 1005SOL    HW214649   3.494   0.800   0.758 -1.1007  2.2602  0.6308
 1006SOL     OW14650   0.243   3.120   3.604 -0.4701  0.4483 -0.1552
 1006SOL    HW114651   0.311   3.063   3.638 -1.0208 -0.4033 -0.4959
 1006SOL    HW214652   0.231   3.182   3.676 -2.8223 -2.3752  1.8899
 1007SOL     OW14653   3.256   0.964   2.584 -0.1615 -0.2418 -0.1810
 1007SOL    HW114654   3.206   1.038   2.615 -0.2869 -0.4658  0.1446
 1007SOL    HW214655   3.318   0.956   2.657 -1.2956  0.6405  0.8634
 1008SOL     OW14656   1.856   2.540  12.946 -0.5959  0.1327 -0.2440
 1008SOL    HW114657   1.802   2.500  12.878  1.7812 -0.1324 -1.9856
 1008SOL    HW214658   1.865   2.462  13.000 -0.8599  0.2487 -0.0331
 1009SOL     OW14659   0.880   0.946  16.333 -0.0156  0.3315 -0.1842
 1009SOL    HW114660   0.836   0.863  16.351  0.4735 -0.0440 -0.7231
 1009SOL    HW214661   0.811   1.007  16.306  1.1247  2.1190  0.9532
 1010SOL     OW14662   2.910   4.468  15.732 -0.9054  0.1242 -0.5263
 1010SOL    HW114663   2.980   4.491  15.793 -0.7819 -2.2260  0.2127
 1010SOL    HW214664   2.872   4.390  15.772  1.0378 -2.1061 -3.0202
 1011SOL     OW14665   1.220   0.762   5.268  0.6402 -0.0960  0.4637
 1011SOL    HW114666   1.225   0.806   5.353 -0.1035 -0.2996  0.6090
 1011SOL    HW214667   1.129   0.733   5.272  1.4235 -2.4831  1.1771
 1012SOL     OW14668   3.133   0.223  12.359 -0.1944 -0.1058  0.2389
 1012SOL    HW114669   3.168   0.279  12.289 -0.0749 -0.3404  0.1144
 1012SOL    HW214670   3.102   0.284  12.427  0.5523 -0.8647  1.2575
 1013SOL     OW14671   2.416   1.778   0.164  0.3084 -0.3479 -0.8215
 1013SOL    HW114672   2.340   1.745   0.213  1.9723  1.0078  2.6744
 1013SOL    HW214673   2.370   1.843   0.110 -1.0227  1.3223  2.2667
 1014SOL     OW14674   3.123   0.359   3.891 -0.0669 -0.4123 -0.5043
 1014SOL    HW114675   3.140   0.276   3.935  1.9755 -0.6377 -1.7105
 1014SOL    HW214676   3.210   0.396   3.895 -0.5223  0.6977 -0.8857
 1015SOL     OW14677   2.831   1.022   2.275 -0.1204 -0.0030  0.4217
 1015SOL    HW114678   2.786   1.020   2.360  1.0801 -1.1060  1.0178
 1015SOL    HW214679   2.884   1.102   2.285 -1.2155  0.4569  2.6617
 1016SOL     OW14680   2.832   3.851   3.896  0.3268 -0.2835  0.2526
 1016SOL    HW114681   2.794   3.901   3.968 -0.8308  0.2897 -0.7567
 1016SOL    HW214682   2.759   3.790   3.885 -2.0650  2.6759 -0.1273
 1017SOL     OW14683   1.911   1.437   7.322  0.1552  0.0876 -0.4000
 1017SOL    HW114684   1.893   1.516   7.374 -0.3201  0.7492 -1.5685
 1017SOL    HW214685   1.853   1.441   7.246  0.3802  0.4693 -0.5546
 1018SOL     OW14686   2.645   3.250   7.305  0.3611 -0.7578  0.2846
 1018SOL    HW114687   2.605   3.235   7.391 -2.2843 -0.5746 -0.9069
 1018SOL    HW214688   2.600   3.331   7.282  1.5694  0.3607  1.8765
 1019SOL     OW14689   1.074   3.240   3.420 -0.2093 -0.0199 -0.8548
 1019SOL    HW114690   1.166   3.212   3.431  0.3799  2.4110  0.3090
 1019SOL    HW214691   1.026   3.158   3.412 -0.9908  0.1213  2.2879
 1020SOL     OW14692   3.668   2.819   7.823  0.1067  0.0984 -0.1122
 1020SOL    HW114693   3.631   2.737   7.790 -1.0853  0.5682  0.0635
 1020SOL    HW214694   3.644   2.812   7.916  1.3883  0.2590  0.2256
 1021SOL     OW14695   3.028   4.412  12.330 -0.3526  0.0550 -0.0125
 1021SOL    HW114696   3.027   4.508  12.326  0.6174 -0.0685 -3.2882
 1021SOL    HW214697   3.095   4.409  12.398 -0.6450  3.0877  0.3852
 1022SOL     OW14698   0.967   1.960   4.612  0.5327 -0.4458  0.0117
 1022SOL    HW114699   1.049   1.928   4.651  1.8312 -0.0014 -2.3088
 1022SOL    HW214700   0.916   1.990   4.687  0.5041 -2.1869  0.6908
 1023SOL     OW14701   4.405   1.576   3.477 -0.1807 -0.5773 -0.2624
 1023SOL    HW114702   4.494   1.603   3.502 -0.2687  1.3988 -2.1187
 1023SOL    HW214703   4.359   1.584   3.560  2.3506  1.0671  0.9626
 1024SOL     OW14704   3.340   3.295   4.327  0.8290 -0.2880 -0.3881
 1024SOL    HW114705   3.272   3.228   4.337 -1.6477  2.3133  0.2007
 1024SOL    HW214706   3.298   3.370   4.285 -2.1760 -1.6115  0.2485
 1025SOL     OW14707   2.205   1.970  17.330  0.0658  0.2959  0.0314
 1025SOL    HW114708   2.236   2.060  17.332  0.0114  0.2616  1.7783
 1025SOL    HW214709   2.280   1.916  17.354 -0.0926 -0.2416 -0.6686
 1026SOL     OW14710   4.006   3.446   4.783  0.0898  0.0176 -0.0756
 1026SOL    HW114711   4.051   3.505   4.843  2.4759 -0.8883 -0.9967
 1026SOL    HW214712   3.921   3.439   4.826  0.9812  1.6770  1.9246
 1027SOL     OW14713   2.742   4.431   0.821 -0.2605 -0.0976 -0.0184
 1027SOL    HW114714   2.808   4.453   0.887 -1.5873 -2.1611  2.0161
 1027SOL    HW214715   2.757   4.337   0.806 -2.2267 -0.0762 -2.1396
 1028SOL     OW14716   4.685   0.964   4.037 -0.8093  0.0848  0.4264
 1028SOL    HW114717   4.641   0.925   4.113 -1.2330  0.3500  0.3153
 1028SOL    HW214718   4.624   0.939   3.968 -1.1521 -1.0816  1.1514
 1029SOL     OW14719   3.631   3.162   8.342  0.0035 -0.5432  0.7329
 1029SOL    HW114720   3.634   3.255   8.366 -1.5168 -0.1167 -0.7913
 1029SOL    HW214721   3.564   3.129   8.402 -1.4360  1.5908  0.2929
 1030SOL     OW14722   3.086   0.336  12.858 -0.4139  0.0655  0.4414
 1030SOL    HW114723   3.105   0.319  12.950  0.3132  0.0830  0.2908
 1030SOL    HW214724   3.035   0.257  12.837 -0.5551  0.3684 -0.3592
 1031SOL     OW14725   4.298   0.102   8.423  0.3220 -0.3331  0.1928
 1031SOL    HW114726   4.219   0.117   8.475  0.4058 -3.0480  1.1306
 1031SOL    HW214727   4.275   0.112   8.330 -1.4094  0.5018  0.7221
 1032SOL     OW14728   0.789   0.082  17.527  0.0320  0.1960  0.4771
 1032SOL    HW114729   0.773   0.171  17.494  1.4561  0.0428 -0.6448
 1032SOL    HW214730   0.833   0.041  17.452 -2.4018 -1.9642  0.2601
 1033SOL     OW14731   0.595   4.588   9.046  0.0417 -0.0975 -0.4435
 1033SOL    HW114732   0.505   4.565   9.025 -1.3431  0.7856  4.4301
 1033SOL    HW214733   0.597   4.563   9.139  0.2729 -0.6080 -0.5863
 1034SOL     OW14734   0.740   1.786   5.080 -0.0721 -0.0494  0.0201
 1034SOL    HW114735   0.818   1.743   5.045 -0.5702 -1.9795  1.2906
 1034SOL    HW214736   0.678   1.751   5.016 -1.8088 -1.3627  2.4714
 1035SOL     OW14737   1.406   3.830   7.350  0.0760  0.0062  0.3782
 1035SOL    HW114738   1.472   3.790   7.406 -0.4557 -1.0488  0.2411
 1035SOL    HW214739   1.368   3.883   7.419  0.4620 -2.3932  2.4066
 1036SOL     OW14740   4.732   2.708  10.469 -0.5657  0.5715  0.8309
 1036SOL    HW114741   4.704   2.711  10.561 -3.4280  0.9366 -0.0389
 1036SOL    HW214742   0.069   2.771  10.474  1.4208 -1.6538 -0.0465
 1037SOL     OW14743   4.264   0.980   5.529  0.3228  0.0628  0.1121
 1037SOL    HW114744   4.218   1.047   5.580  2.7163  1.0856  0.9351
 1037SOL    HW214745   4.236   1.008   5.442 -0.7721 -1.7147 -0.1094
 1038SOL     OW14746   4.467   2.115  10.397 -0.1506 -0.4186 -0.0663
 1038SOL    HW114747   4.481   2.171  10.320  1.1378 -1.5206 -0.6302
 1038SOL    HW214748   4.495   2.028  10.367  0.5930 -0.3244  0.3677
 1039SOL     OW14749   3.524   1.498   4.567  0.3827  0.4594  0.4608
 1039SOL    HW114750   3.561   1.463   4.486 -0.3162  1.3055 -0.2333
 1039SOL    HW214751   3.568   1.584   4.564 -0.3732  0.8466  0.4639
 1040SOL     OW14752   1.391   3.770   6.128 -0.2192  0.2508  0.5861
 1040SOL    HW114753   1.360   3.681   6.112  0.3691  0.6389 -2.7985
 1040SOL    HW214754   1.320   3.811   6.178 -2.3023 -1.7460 -0.7023
 1041SOL     OW14755   4.561   0.084   0.677 -0.0193  0.0786  0.2568
 1041SOL    HW114756   4.466   0.095   0.688 -0.0659 -1.0239  0.9497
 1041SOL    HW214757   4.565   4.723   0.685  1.8923  0.1561  0.1043
 1042SOL     OW14758   2.590   0.708   6.659 -0.4130 -0.2427 -0.6016
 1042SOL    HW114759   2.518   0.769   6.639 -0.1181  0.1353 -0.5126
 1042SOL    HW214760   2.617   0.730   6.748 -1.2843 -0.5176 -0.2733
 1043SOL     OW14761   2.386   1.602   4.687 -0.1086 -0.3994  0.2595
 1043SOL    HW114762   2.404   1.529   4.628  1.2867  0.2199 -0.0722
 1043SOL    HW214763   2.400   1.671   4.622 -1.0673 -1.1448 -0.7504
 1044SOL     OW14764   2.089   2.698  16.443 -0.4211  0.5959 -0.3753
 1044SOL    HW114765   2.105   2.633  16.375  0.3878 -0.7592  1.1027
 1044SOL    HW214766   1.993   2.698  16.440 -0.4038  0.5387 -0.8536
 1045SOL     OW14767   3.388   0.335   6.154  0.6464 -1.3752  0.6277
 1045SOL    HW114768   3.311   0.294   6.115 -0.0913  0.6112 -0.0244
 1045SOL    HW214769   3.460   0.288   6.113 -0.4689 -2.4119 -0.1380
 1046SOL     OW14770   4.367   0.811   9.045 -0.0234 -0.3790  0.4046
 1046SOL    HW114771   4.282   0.851   9.024  0.6004  0.7490 -0.0018
 1046SOL    HW214772   4.407   0.875   9.103  1.4139 -0.2691 -0.7133
 1047SOL     OW14773   3.312   4.108   4.414  0.6511 -0.0644 -0.1579
 1047SOL    HW114774   3.279   4.125   4.326 -1.0666 -1.7812  0.1597
 1047SOL    HW214775   3.230   4.087   4.459  1.5554 -1.0400  1.0619
 1048SOL     OW14776   0.506   0.269   2.529  0.1742 -0.3286 -0.1081
 1048SOL    HW114777   0.576   0.205   2.542  0.6723  0.3756  0.6922
 1048SOL    HW214778   0.480   0.249   2.439  0.1801  0.1059 -0.2035
 1049SOL     OW14779   3.487   1.665  12.780 -0.1832 -0.5027 -0.2158
 1049SOL    HW114780   3.519   1.617  12.704 -1.1245 -2.6649  0.7453
 1049SOL    HW214781   3.410   1.711  12.745 -0.1197 -0.8355 -0.7885
 1050SOL     OW14782   4.244   1.757   1.449  0.0299  0.7343 -0.3435
 1050SOL    HW114783   4.303   1.685   1.471 -2.1442 -0.8628  0.2640
 1050SOL    HW214784   4.305   1.822   1.414  2.1658 -0.1910  1.6842
 1051SOL     OW14785   0.891   2.805   3.235  0.5314  0.0704  0.4441
 1051SOL    HW114786   0.853   2.733   3.285  0.2659 -0.7085 -0.8657
 1051SOL    HW214787   0.889   2.869   3.306  1.5908  1.9954 -1.2463
 1052SOL     OW14788   0.372   2.152   3.328 -0.0853  0.2205  0.3911
 1052SOL    HW114789   0.306   2.089   3.356 -0.3951 -0.1093 -1.0860
 1052SOL    HW214790   0.395   2.189   3.413  1.8388 -0.8950  0.3670
 1053SOL     OW14791   0.424   0.171   0.815  0.4813 -0.2247 -0.3546
 1053SOL    HW114792   0.517   0.158   0.832  0.0909 -2.3380  0.1433
 1053SOL    HW214793   0.395   0.169   0.906  0.8933 -0.5215 -0.2353
 1054SOL     OW14794   4.571   0.991   4.823 -0.4547 -0.0438  0.4752
 1054SOL    HW114795   4.602   0.909   4.862  0.0880 -1.3063 -2.5713
 1054SOL    HW214796   4.483   0.980   4.860 -0.5014 -0.3223  0.2862
 1055SOL     OW14797   0.501   2.546   6.680 -0.3875  0.3448  0.3710
 1055SOL    HW114798   0.557   2.569   6.606 -0.3526 -0.9780 -0.0067
 1055SOL    HW214799   0.417   2.509   6.653 -0.0760  0.9596 -1.4752
 1056SOL     OW14800   3.408   2.414   8.372 -0.3928  0.1185  0.2651
 1056SOL    HW114801   3.463   2.429   8.449 -0.4658 -0.1661  0.3713
 1056SOL    HW214802   3.477   2.416   8.305 -0.6060 -1.6467 -0.0143
 1057SOL     OW14803   1.048   3.032   9.134  0.0277 -0.2318  0.1362
 1057SOL    HW114804   1.027   2.994   9.049 -1.3907 -1.9544  1.2500
 1057SOL    HW214805   0.971   3.082   9.162  0.0458 -1.0272  1.5857
 1058SOL     OW14806   0.727   0.346   4.545 -0.3780 -0.0908  0.5977
 1058SOL    HW114807   0.817   0.335   4.515  0.0692  0.6302  1.6848
 1058SOL    HW214808   0.720   0.262   4.591 -1.5013 -2.1221 -3.3243
 1059SOL     OW14809   3.900   0.631   4.772  1.1299  0.4842  0.2949
 1059SOL    HW114810   3.807   0.642   4.749  1.3780  0.5084 -0.7137
 1059SOL    HW214811   3.887   0.637   4.867 -3.7168 -2.4756 -0.1663
 1060SOL     OW14812   4.048   0.110   4.035  0.5309  0.4998  0.6042
 1060SOL    HW114813   4.085   0.171   4.099  1.6189  0.3673  0.1029
 1060SOL    HW214814   3.970   0.164   4.018 -2.5414 -3.3011  2.6176
 1061SOL     OW14815   0.924   3.398   7.643 -0.1803 -0.1675 -0.0133
 1061SOL    HW114816   0.923   3.322   7.583 -0.8729 -0.8374  0.8553
 1061SOL    HW214817   0.985   3.359   7.707 -0.0098 -0.9805 -0.6589
 1062SOL     OW14818   2.218   1.166  13.715 -0.0877 -0.7884 -0.0336
 1062SOL    HW114819   2.267   1.200  13.790  1.7567 -2.2928 -0.5560
 1062SOL    HW214820   2.237   1.227  13.644  0.2054 -0.0463  0.6835
 1063SOL     OW14821   0.063   3.081   3.316 -0.2103 -0.2549  0.1537
 1063SOL    HW114822   0.012   3.036   3.382  2.2924 -2.0496  0.8841
 1063SOL    HW214823   0.023   3.046   3.236 -1.9562  0.4704  0.7197
 1064SOL     OW14824   4.614   3.150   1.984  0.1726 -0.2723  0.0920
 1064SOL    HW114825   4.591   3.115   1.898  1.3536 -0.9735  0.0729
 1064SOL    HW214826   4.662   3.226   1.952  1.5713 -1.1089  0.1932
 1065SOL     OW14827   3.237   3.627   3.343  0.3502 -0.5969  0.0520
 1065SOL    HW114828   3.268   3.537   3.327  0.9103 -0.8867  2.7825
 1065SOL    HW214829   3.263   3.684   3.270 -2.0055  2.0985  1.3732
 1066SOL     OW14830   1.248   0.904   5.037 -0.1583 -0.3195  0.1185
 1066SOL    HW114831   1.235   0.857   5.120  1.4516 -2.6175 -0.9421
 1066SOL    HW214832   1.297   0.843   4.981  1.2244  1.7696 -0.9245
 1067SOL     OW14833   2.676   1.166  16.115 -0.0416  0.3775 -0.0625
 1067SOL    HW114834   2.637   1.246  16.149  0.6810  1.0653 -0.8345
 1067SOL    HW214835   2.679   1.200  16.026  0.5061 -0.8238 -0.5046
 1068SOL     OW14836   0.184   3.012   4.802  0.4617  0.2848  0.1468
 1068SOL    HW114837   0.167   3.074   4.731 -1.5086 -0.0695  0.2955
 1068SOL    HW214838   0.108   2.953   4.797 -0.3282  1.5611 -2.7370
 1069SOL     OW14839   3.933   2.053  13.320  0.4075  0.0885  0.1622
 1069SOL    HW114840   3.877   1.981  13.289 -0.4050  0.2556  1.2632
 1069SOL    HW214841   4.012   2.010  13.353  1.5846  2.0754 -0.0776
 1070SOL     OW14842   0.367   0.968  10.793 -0.3266 -0.6526  0.0382
 1070SOL    HW114843   0.415   1.002  10.869 -1.3680  1.3714 -0.2078
 1070SOL    HW214844   0.438   0.948  10.733 -1.1752 -1.9987 -0.4924
 1071SOL     OW14845   3.990   0.229   2.283  0.0845 -0.4019 -0.1410
 1071SOL    HW114846   4.066   0.248   2.337  0.6196 -0.0798 -1.0167
 1071SOL    HW214847   4.030   0.174   2.215 -0.5739  0.7421 -1.4464
 1072SOL     OW14848   2.969   2.081  14.751  0.0336 -0.0468  0.0639
 1072SOL    HW114849   2.885   2.100  14.711 -0.5769  0.4847  1.5723
 1072SOL    HW214850   2.989   2.154  14.810 -0.5194  0.6046 -0.5595
 1073SOL     OW14851   4.275   1.409   9.475 -0.3038 -0.0001 -0.7023
 1073SOL    HW114852   4.246   1.317   9.479 -1.3432  0.3515  0.0587
 1073SOL    HW214853   4.261   1.442   9.564 -2.7750 -0.0046 -1.0667
 1074SOL     OW14854   2.902   2.411   4.000  0.2340  0.1521 -0.3720
 1074SOL    HW114855   2.970   2.465   4.039  1.0098 -0.8492 -0.3269
 1074SOL    HW214856   2.944   2.325   4.001  1.0036  0.5344  0.7400
 1075SOL     OW14857   0.029   4.708   9.342 -0.0011  0.2201  0.4148
 1075SOL    HW114858   0.073   4.727   9.425 -1.1684  0.6847  0.9169
 1075SOL    HW214859   0.094   0.003   9.278  2.0110 -0.9473  1.8771
 1076SOL     OW14860   2.734   1.188   8.988 -0.3193 -0.1048  0.2821
 1076SOL    HW114861   2.711   1.102   9.025 -0.1213 -1.0709 -1.8336
 1076SOL    HW214862   2.829   1.178   8.976 -0.7851  0.5303 -4.0508
 1077SOL     OW14863   1.643   3.404   1.842 -0.1215  0.3347 -0.7194
 1077SOL    HW114864   1.605   3.439   1.922 -0.3628  0.8537 -1.0564
 1077SOL    HW214865   1.703   3.474   1.815  1.3897 -0.2026  1.2592
 1078SOL     OW14866   2.913   1.849   6.848  0.3129 -0.7004 -0.3130
 1078SOL    HW114867   2.926   1.843   6.943  2.1486  1.6270 -0.4140
 1078SOL    HW214868   2.820   1.871   6.842  0.5964  0.9322  1.2067
 1079SOL     OW14869   0.806   0.791   8.552 -0.0583 -0.8223 -0.1236
 1079SOL    HW114870   0.741   0.795   8.481  1.1313  0.7383 -1.1265
 1079SOL    HW214871   0.784   0.705   8.586  0.5828 -0.0124  2.3144
 1080SOL     OW14872   0.794   4.575  14.200 -0.1419 -0.2289 -0.3925
 1080SOL    HW114873   0.711   4.619  14.180  0.1734  1.2280  1.4986
 1080SOL    HW214874   0.860   4.644  14.198 -1.2126  0.8245  0.2780
 1081SOL     OW14875   4.443   1.986  17.728  0.0921 -0.3777 -0.1113
 1081SOL    HW114876   4.365   1.953   0.035  0.0085 -1.5605 -1.1368
 1081SOL    HW214877   4.402   2.054  17.673 -1.2419 -1.4408 -0.4239
 1082SOL     OW14878   1.237   3.335   8.628  0.2194 -0.3009  0.4226
 1082SOL    HW114879   1.246   3.314   8.535 -0.7440  0.0102  0.2608
 1082SOL    HW214880   1.304   3.395   8.659 -0.3514  0.5910 -0.0596
 1083SOL     OW14881   4.546   0.256   6.961  0.0054 -0.3954 -0.5160
 1083SOL    HW114882   4.580   0.342   6.987  1.3690 -1.4211  1.1659
 1083SOL    HW214883   4.501   0.284   6.882  0.6431  4.1162  0.7357
 1084SOL     OW14884   2.897   3.820   6.032  0.1272 -0.4114 -0.2795
 1084SOL    HW114885   2.903   3.729   6.003  2.1761  0.6498 -3.1752
 1084SOL    HW214886   2.843   3.847   5.957  0.3456  3.2926  0.8748
 1085SOL     OW14887   1.450   1.669   2.517  0.4407  0.3096  0.0466
 1085SOL    HW114888   1.411   1.638   2.435  0.2978 -0.2384  0.3214
 1085SOL    HW214889   1.541   1.646   2.502  0.7756  2.9348 -1.8393
 1086SOL     OW14890   3.666   2.706   8.664  0.2640  0.6321 -0.5175
 1086SOL    HW114891   3.700   2.790   8.635 -0.8930  0.6439 -1.8224
 1086SOL    HW214892   3.640   2.734   8.752  2.2203  3.9797 -1.0211
 1087SOL     OW14893   0.125   0.310   7.479  0.2616 -0.2080 -0.2053
 1087SOL    HW114894   0.081   0.255   7.414 -1.4729  0.4968  0.3765
 1087SOL    HW214895   0.095   0.395   7.448  1.4922 -0.2420 -1.5014
 1088SOL     OW14896   1.522   3.498   6.147  0.0564  0.0683 -0.0882
 1088SOL    HW114897   1.595   3.445   6.179  1.4129  1.4689 -0.9246
 1088SOL    HW214898   1.542   3.489   6.054  0.3882  0.6394 -0.0701
 1089SOL     OW14899   3.744   2.861   4.223 -0.9911  0.4769 -0.4879
 1089SOL    HW114900   3.653   2.890   4.232 -1.4608 -0.0836 -3.6683
 1089SOL    HW214901   3.753   2.788   4.285  1.3007  0.7956 -0.4281
 1090SOL     OW14902   3.490   2.848  12.696  0.4062  0.7717 -0.1095
 1090SOL    HW114903   3.479   2.919  12.759 -1.0419 -0.8298  1.4608
 1090SOL    HW214904   3.473   2.761  12.733  0.8404 -0.4656 -2.7779
 1091SOL     OW14905   0.244   1.399   5.737 -0.9362  0.2210  0.5378
 1091SOL    HW114906   0.220   1.327   5.794 -1.0599 -0.6986 -0.6763
 1091SOL    HW214907   0.249   1.354   5.652  0.6505  0.9402  0.2507
 1092SOL     OW14908   1.808   2.671   4.390  0.2828  0.1832  0.1067
 1092SOL    HW114909   1.791   2.754   4.434  0.4067  0.2749 -0.0216
 1092SOL    HW214910   1.777   2.714   4.311 -0.4631  0.7642  0.7224
 1093SOL     OW14911   3.536   3.684   3.263  0.0659  0.1932  0.2220
 1093SOL    HW114912   3.508   3.593   3.264  0.0508  0.1935 -0.2008
 1093SOL    HW214913   3.623   3.661   3.295  0.1977  0.7783  0.2916
 1094SOL     OW14914   1.214   3.155   8.858 -0.0204  0.1675  0.0765
 1094SOL    HW114915   1.222   3.185   8.767  0.5340 -0.8153 -0.2015
 1094SOL    HW214916   1.193   3.233   8.910 -0.4950  0.3363 -0.3681
 1095SOL     OW14917   3.947   4.033   9.414  0.4380  0.4477 -0.2877
 1095SOL    HW114918   4.021   4.091   9.392  0.9115 -0.2417 -0.5417
 1095SOL    HW214919   3.941   3.969   9.343  1.3584  0.2217 -0.1621
 1096SOL     OW14920   4.088   1.317  16.334  0.8128  0.4005 -0.2785
 1096SOL    HW114921   3.992   1.317  16.332  0.7862 -1.9369  1.3751
 1096SOL    HW214922   4.091   1.222  16.328 -1.7961  0.3341 -0.6637
 1097SOL     OW14923   2.444   0.362   4.293  0.7696  0.0110 -0.1028
 1097SOL    HW114924   2.493   0.442   4.314 -1.7474  1.6937 -0.7335
 1097SOL    HW214925   2.380   0.400   4.233  1.1842  3.8386  1.8579
 1098SOL     OW14926   3.325   2.866   3.850  0.6117 -0.2923 -0.0449
 1098SOL    HW114927   3.233   2.874   3.874  1.0364 -0.3847  1.5971
 1098SOL    HW214928   3.355   2.803   3.915  0.6873 -0.9478 -0.7159
 1099SOL     OW14929   3.302   3.191   4.883 -0.3187 -0.3163  0.2454
 1099SOL    HW114930   3.326   3.240   4.963 -3.7447  1.5113  0.1623
 1099SOL    HW214931   3.209   3.209   4.873 -0.3689  0.0151  1.2191
 1100SOL     OW14932   1.700   2.357   6.478  1.2407 -0.2980  0.6738
 1100SOL    HW114933   1.624   2.389   6.429  0.8696 -1.0763  0.7419
 1100SOL    HW214934   1.752   2.332   6.402  1.0231 -1.9609  1.0767
 1101SOL     OW14935   1.044   4.412  11.615  0.3508 -0.1187  0.4656
 1101SOL    HW114936   1.110   4.349  11.645  0.0680 -0.9200 -0.5556
 1101SOL    HW214937   0.984   4.399  11.688 -0.0739 -0.2611  0.0947
 1102SOL     OW14938   0.061   2.195  11.241  0.4529 -0.2728 -0.4809
 1102SOL    HW114939   0.013   2.188  11.324 -1.0128 -3.3319 -1.5808
 1102SOL    HW214940   0.123   2.122  11.250  2.2119  1.2662 -0.1545
 1103SOL     OW14941   0.577   0.618   5.153  0.1635 -0.3919 -0.5489
 1103SOL    HW114942   0.643   0.616   5.223 -1.2312 -2.5227  0.6837
 1103SOL    HW214943   0.633   0.614   5.076  1.3837 -0.4268  0.3390
 1104SOL     OW14944   3.045   4.309   2.494 -0.4318 -0.4610  0.5984
 1104SOL    HW114945   2.955   4.288   2.469 -1.0470  0.6162  1.9748
 1104SOL    HW214946   3.103   4.279   2.423 -2.8406  1.1901 -2.0812
 1105SOL     OW14947   2.238   4.212  16.415 -0.9410 -0.4687 -0.0066
 1105SOL    HW114948   2.220   4.292  16.465 -1.7765 -1.1046  0.6848
 1105SOL    HW214949   2.307   4.254  16.362  1.8441  0.2788  4.2490
 1106SOL     OW14950   1.906   2.523   8.553 -0.6407  0.7796  0.1627
 1106SOL    HW114951   1.860   2.501   8.634 -1.0498  0.3821 -0.1700
 1106SOL    HW214952   1.990   2.555   8.586 -0.9800  1.2706  0.5555
 1107SOL     OW14953   1.026   3.743   6.502  0.1191 -0.5196  0.2259
 1107SOL    HW114954   1.084   3.696   6.561  1.1979  2.5430  1.6059
 1107SOL    HW214955   0.970   3.782   6.569 -2.6946  0.0160 -2.4260
 1108SOL     OW14956   3.903   2.262   2.402 -0.2222  0.5777  0.5264
 1108SOL    HW114957   3.965   2.323   2.441 -1.8014  2.1652  0.5755
 1108SOL    HW214958   3.973   2.204   2.373 -0.4717  1.8023 -2.5187
 1109SOL     OW14959   2.961   3.146   7.935 -0.2516  0.2570  0.2173
 1109SOL    HW114960   3.024   3.194   7.990  0.8103 -0.2375 -0.5614
 1109SOL    HW214961   2.912   3.101   8.004  0.5946 -1.2405 -0.1382
 1110SOL     OW14962   4.151   2.008  16.462 -0.2482  0.2674 -0.3683
 1110SOL    HW114963   4.176   1.928  16.509  2.8164  0.2863 -1.9841
 1110SOL    HW214964   4.217   2.071  16.492 -0.6707 -0.0762  1.2875
 1111SOL     OW14965   0.707   0.966   7.192 -0.0632  0.0119 -0.3951
 1111SOL    HW114966   0.614   0.948   7.202 -0.6824  2.6415 -1.5352
 1111SOL    HW214967   0.699   1.042   7.135 -2.1850  0.4364  0.4595
 1112SOL     OW14968   0.156   3.952   5.482 -0.2988  0.5094  0.4810
 1112SOL    HW114969   0.130   4.044   5.493  1.4103  0.8636  1.5644
 1112SOL    HW214970   0.217   3.952   5.409 -0.2534  1.5955  0.5159
 1113SOL     OW14971   1.094   1.598   3.143  0.6853  0.3262 -0.1866
 1113SOL    HW114972   1.016   1.614   3.196  0.3588 -3.5778  0.4642
 1113SOL    HW214973   1.105   1.505   3.160  1.3483  0.7322  1.6869
 1114SOL     OW14974   3.282   3.863   3.005 -0.3235  0.1361 -0.2393
 1114SOL    HW114975   3.272   3.772   3.032 -0.2726 -0.3327 -1.7978
 1114SOL    HW214976   3.193   3.888   2.978  0.1786  3.4135  1.0761
 1115SOL     OW14977   3.628   0.868   0.060  0.4353 -0.4340 -0.2121
 1115SOL    HW114978   3.698   0.821   0.016 -1.8234 -3.5616 -0.4832
 1115SOL    HW214979   3.634   0.953   0.017  2.7695  1.2244  3.4082
 1116SOL     OW14980   4.560   3.235  15.509 -0.5205 -0.3506  0.1806
 1116SOL    HW114981   4.631   3.264  15.452 -1.6110 -0.8232 -1.4311
 1116SOL    HW214982   4.517   3.171  15.452 -0.6303 -2.3139  2.4680
 1117SOL     OW14983   2.135   0.873   2.007  0.5959  0.3355  0.1079
 1117SOL    HW114984   2.153   0.826   2.088 -0.0601 -2.3327 -1.3109
 1117SOL    HW214985   2.057   0.926   2.027  1.0592  0.5795  1.2557
 1118SOL     OW14986   2.826   0.463   6.345  0.4265 -0.5947  0.4875
 1118SOL    HW114987   2.769   0.533   6.314  1.3412 -0.2058 -0.3293
 1118SOL    HW214988   2.800   0.407   6.272  1.4496  0.3162 -0.5876
 1119SOL     OW14989   0.060   0.452  17.254 -0.1800  0.2137  0.0761
 1119SOL    HW114990   0.003   0.491  17.187  1.2380  0.9624 -0.6961
 1119SOL    HW214991   0.007   0.373  17.268 -0.3530  0.4318  0.6389
 1120SOL     OW14992   2.252   4.642   9.178 -0.2380  0.4910  0.1817
 1120SOL    HW114993   2.277   4.631   9.086 -2.0776 -0.0119 -0.2531
 1120SOL    HW214994   2.286   4.731   9.191 -1.5970  1.0422 -0.0550
 1121SOL     OW14995   3.239   0.357  11.156  0.1730 -0.6152 -0.0669
 1121SOL    HW114996   3.313   0.356  11.095 -1.0603 -1.4543 -1.5419
 1121SOL    HW214997   3.253   0.446  11.189 -0.3891 -0.8169  0.7058
 1122SOL     OW14998   3.823   1.256   4.655  0.2862 -0.2287  0.1123
 1122SOL    HW114999   3.792   1.217   4.737 -0.8459  1.2529  0.3778
 1122SOL    HW215000   3.879   1.185   4.623  1.2412  0.4286  0.3039
 1123SOL     OW15001   2.149   0.202   8.177  0.1472 -0.4534 -0.6115
 1123SOL    HW115002   2.054   0.206   8.173  0.3682  4.7854 -0.4689
 1123SOL    HW215003   2.168   0.138   8.246  0.4309  0.8460  0.5185
 1124SOL     OW15004   0.400   3.198   5.277 -0.0467  0.4947  0.3610
 1124SOL    HW115005   0.403   3.183   5.182 -0.5509 -1.9163  0.7332
 1124SOL    HW215006   0.311   3.182   5.306  0.3903 -1.5922  0.5690
 1125SOL     OW15007   2.004   1.330   3.058  0.2656 -0.3302  0.6097
 1125SOL    HW115008   2.083   1.342   3.005  1.6295  1.8054  3.1322
 1125SOL    HW215009   1.943   1.383   3.007 -0.5172 -0.5580  1.3134
 1126SOL     OW15010   4.616   2.315   5.779 -0.4914  1.0397 -0.2770
 1126SOL    HW115011   4.609   2.292   5.686  0.7988 -3.3289  0.7128
 1126SOL    HW215012   4.524   2.304   5.803  0.3737  0.4545  2.7696
 1127SOL     OW15013   4.510   1.084   5.305 -0.3948 -0.3930 -0.9985
 1127SOL    HW115014   4.509   0.992   5.332 -2.4289  0.2398  1.1231
 1127SOL    HW215015   4.596   1.077   5.264  0.7969  2.6796  1.1050
 1128SOL     OW15016   1.354   3.835   2.128 -0.3082 -0.4275 -0.1318
 1128SOL    HW115017   1.404   3.910   2.097 -2.1139  0.4425 -0.9095
 1128SOL    HW215018   1.267   3.875   2.118 -0.3936 -0.6343 -0.2119
 1129SOL     OW15019   0.638   0.918   1.803 -0.0908 -0.3511  0.7456
 1129SOL    HW115020   0.722   0.964   1.799  0.2316 -0.9266  0.8690
 1129SOL    HW215021   0.577   0.963   1.745 -1.9172 -3.1166  0.5173
 1130SOL     OW15022   2.965   0.902  13.148 -0.2921  0.1243 -0.2737
 1130SOL    HW115023   3.060   0.916  13.154 -0.7559  2.1728  2.2384
 1130SOL    HW215024   2.949   0.954  13.070  0.7187  2.9348  1.3718
 1131SOL     OW15025   1.240   1.881   0.999 -0.5015 -0.4986  0.1783
 1131SOL    HW115026   1.163   1.919   0.958  0.7921  1.4283 -0.4505
 1131SOL    HW215027   1.206   1.799   1.035 -1.2497 -1.4786 -2.7284
 1132SOL     OW15028   0.750   0.075  13.415  0.5018 -0.2581 -0.4625
 1132SOL    HW115029   0.658   0.060  13.437  0.2714  1.8644  0.0144
 1132SOL    HW215030   0.788   0.120  13.491 -1.7399 -0.6644  0.8809
 1133SOL     OW15031   1.988   3.561   2.303 -0.0463  0.4714  0.3692
 1133SOL    HW115032   1.893   3.576   2.294  0.1353  0.4035 -1.6980
 1133SOL    HW215033   2.015   3.498   2.236 -1.1499 -1.7946  2.0433
 1134SOL     OW15034   2.228   1.192  11.229  0.1026 -0.3707 -0.2118
 1134SOL    HW115035   2.279   1.186  11.149 -0.7796  2.9088 -1.0361
 1134SOL    HW215036   2.205   1.285  11.235  0.0328 -0.4858  1.3322
 1135SOL     OW15037   2.416   3.664   8.914 -0.2290  0.2584  0.5427
 1135SOL    HW115038   2.429   3.740   8.969 -1.8469 -0.5264  2.0173
 1135SOL    HW215039   2.320   3.670   8.914 -0.2834 -0.3662 -0.6917
 1136SOL     OW15040   0.364   3.071   2.920  0.1789  0.1784 -0.3232
 1136SOL    HW115041   0.331   3.159   2.935 -2.6736 -1.0513  0.6310
 1136SOL    HW215042   0.377   3.071   2.825 -0.9459  0.8332 -0.4632
 1137SOL     OW15043   0.457   2.702  10.470 -0.1083 -0.1566 -0.0706
 1137SOL    HW115044   0.546   2.676  10.445  1.1641  1.6155  2.5767
 1137SOL    HW215045   0.425   2.641  10.535 -1.1666 -0.6684 -1.0689
 1138SOL     OW15046   1.359   1.095  14.754  0.6203 -0.9301 -0.0202
 1138SOL    HW115047   1.417   1.164  14.788  2.6019 -1.5645 -2.1865
 1138SOL    HW215048   1.411   1.021  14.785  0.4747 -0.3731  1.5949
 1139SOL     OW15049   2.864   1.546   3.053  0.1743 -0.1743 -0.1690
 1139SOL    HW115050   2.873   1.451   3.047 -3.7919 -0.4988 -0.5263
 1139SOL    HW215051   2.801   1.545   3.125  0.5417  1.2309  0.1681
 1140SOL     OW15052   0.355   4.590   4.553  0.0761  0.0884 -0.3566
 1140SOL    HW115053   0.292   4.525   4.523  0.2931 -0.1390 -0.3224
 1140SOL    HW215054   0.301   4.646   4.609  2.7000  0.8584  1.4195
 1141SOL     OW15055   1.859   4.305  16.344  0.4298 -0.2995  0.2247
 1141SOL    HW115056   1.778   4.343  16.309  1.2453  1.1340 -0.1175
 1141SOL    HW215057   1.854   4.356  16.425 -1.0374  1.0361 -0.7005
 1142SOL     OW15058   1.786   3.321   9.435  0.0356  0.1262  0.3223
 1142SOL    HW115059   1.829   3.270   9.505 -0.2994 -1.3824 -0.5685
 1142SOL    HW215060   1.698   3.324   9.472  0.4312 -1.3568  1.4300
 1143SOL     OW15061   2.346   3.146   7.202  0.0174  0.2986  0.1819
 1143SOL    HW115062   2.322   3.054   7.212 -0.2343  0.0742 -2.4106
 1143SOL    HW215063   2.402   3.158   7.279  0.2787  0.4008 -0.0242
 1144SOL     OW15064   0.670   4.245  15.255  0.6434  0.0019 -0.5541
 1144SOL    HW115065   0.620   4.309  15.205 -0.5772  1.2537  2.2802
 1144SOL    HW215066   0.705   4.294  15.329  0.8803  0.2643 -0.8429
 1145SOL     OW15067   1.802   2.152   4.836  0.0274 -0.0197 -0.0895
 1145SOL    HW115068   1.737   2.081   4.836 -0.5316  0.4888  0.0549
 1145SOL    HW215069   1.759   2.218   4.781 -0.6250 -0.4709 -0.1255
 1146SOL     OW15070   0.730   2.633   7.767 -0.6626  0.3656 -0.2984
 1146SOL    HW115071   0.674   2.706   7.795 -0.4257  1.1975 -1.9761
 1146SOL    HW215072   0.704   2.628   7.675  0.3057 -1.4959 -0.4626
 1147SOL     OW15073   2.515   4.129  16.851 -0.1207  0.0549 -0.2071
 1147SOL    HW115074   2.541   4.165  16.766  3.2851 -4.8506 -1.2106
 1147SOL    HW215075   2.491   4.043  16.819 -1.5833  0.4435 -0.1477
 1148SOL     OW15076   3.746   1.600   5.987  0.0257 -0.0407  0.3067
 1148SOL    HW115077   3.793   1.683   5.982 -0.4039  0.2030  0.3353
 1148SOL    HW215078   3.773   1.555   5.906 -0.3041 -0.6235  0.5156
 1149SOL     OW15079   4.567   0.418   6.361 -0.1667 -0.2916 -0.4791
 1149SOL    HW115080   4.532   0.371   6.437  1.6298  0.7695  1.0256
 1149SOL    HW215081   4.539   0.360   6.291  1.5231 -2.6893  0.8233
 1150SOL     OW15082   1.403   0.094   4.453  0.4103  0.5280 -0.2322
 1150SOL    HW115083   1.379   0.082   4.361  1.5234 -2.0793 -0.1797
 1150SOL    HW215084   1.339   0.038   4.498  0.3300  0.9718  0.2080
 1151SOL     OW15085   2.743   2.938   7.998  0.6565  0.3372 -0.1402
 1151SOL    HW115086   2.697   2.957   8.080 -0.4961  0.4693 -0.8170
 1151SOL    HW215087   2.751   2.843   8.008  0.0198  0.1816 -1.1095
 1152SOL     OW15088   3.957   0.452  11.108 -0.2805 -0.8404  0.1921
 1152SOL    HW115089   4.010   0.430  11.031  0.3316  1.5710 -0.0613
 1152SOL    HW215090   3.909   0.370  11.120 -2.4722  0.3747 -0.2161
 1153SOL     OW15091   1.843   2.409   2.152 -0.4772 -0.3468  0.6544
 1153SOL    HW115092   1.933   2.382   2.169 -0.5754  0.2628  2.1490
 1153SOL    HW215093   1.836   2.406   2.057  2.3789 -0.6249  0.4350
 1154SOL     OW15094   4.270   3.535   5.840  0.1482  0.2147  0.0672
 1154SOL    HW115095   4.202   3.511   5.778  1.6426  0.6955 -1.7882
 1154SOL    HW215096   4.238   3.481   5.912  1.9820  1.2955  1.6869
 1155SOL     OW15097   2.630   4.349   2.371 -0.2414  0.4129 -0.4352
 1155SOL    HW115098   2.651   4.427   2.320  2.5814  0.1597  0.3096
 1155SOL    HW215099   2.536   4.331   2.369  0.2184 -1.7548 -2.5635
 1156SOL     OW15100   1.472   3.801  11.814 -0.2389  0.6274 -0.2852
 1156SOL    HW115101   1.434   3.852  11.743 -0.0360  0.7063 -0.3394
 1156SOL    HW215102   1.561   3.823  11.785 -0.9366  1.7242 -1.5871
 1157SOL     OW15103   2.078   0.850   8.327 -0.5565  0.6390  0.5426
 1157SOL    HW115104   2.075   0.896   8.412 -2.4155  0.3432  0.6315
 1157SOL    HW215105   2.171   0.834   8.310 -0.4504  3.2344 -1.2169
 1158SOL     OW15106   2.692   2.527   4.912 -0.8846 -0.2515 -0.2030
 1158SOL    HW115107   2.653   2.499   4.829 -2.2980  1.2922 -0.0437
 1158SOL    HW215108   2.682   2.620   4.892 -0.2514 -0.6065 -2.1233
 1159SOL     OW15109   2.676   1.570   9.178 -0.3456 -0.3339  0.2478
 1159SOL    HW115110   2.653   1.630   9.249  0.6824  1.0333 -0.5731
 1159SOL    HW215111   2.768   1.550   9.194 -0.2277 -0.4233 -0.5338
 1160SOL     OW15112   3.208   3.543   9.313  0.3122  0.1997 -0.1614
 1160SOL    HW115113   3.299   3.570   9.304  1.5803 -3.4012  2.0937
 1160SOL    HW215114   3.194   3.549   9.408 -0.5526 -1.2880 -0.1886
 1161SOL     OW15115   4.405   1.558   5.734  0.5021  0.0813 -0.0513
 1161SOL    HW115116   4.471   1.545   5.667  1.8090  1.9370  0.8790
 1161SOL    HW215117   4.418   1.475   5.781  1.2740 -1.3392 -2.8027
 1162SOL     OW15118   3.497   2.200  16.245 -0.3535 -0.1288 -0.0721
 1162SOL    HW115119   3.544   2.276  16.212  0.1056 -0.3120  0.1579
 1162SOL    HW215120   3.542   2.192  16.329 -2.2563 -1.6292  0.8099
 1163SOL     OW15121   0.184   4.585  15.846 -0.0549 -0.1264 -0.0602
 1163SOL    HW115122   0.106   4.597  15.901  0.0905 -2.3638  0.6757
 1163SOL    HW215123   0.250   4.609  15.911  1.8158 -1.0683 -1.6064
 1164SOL     OW15124   0.506   4.416   1.654  0.3732 -0.2485  0.5016
 1164SOL    HW115125   0.471   4.396   1.567  0.6338 -3.0438  1.0358
 1164SOL    HW215126   0.428   4.446   1.701  0.2656  0.6260 -0.2450
 1165SOL     OW15127   0.284   2.805   7.397  0.3115  0.3553 -0.2860
 1165SOL    HW115128   0.372   2.774   7.374  0.6186  0.1398  1.1413
 1165SOL    HW215129   0.243   2.725   7.430 -0.6820  1.7367  1.8766
 1166SOL     OW15130   0.882   4.334   5.130  0.2832 -0.2816  0.1798
 1166SOL    HW115131   0.894   4.382   5.048 -0.6390  1.8911  1.3318
 1166SOL    HW215132   0.915   4.400   5.190 -0.9120  0.0690  0.4400
 1167SOL     OW15133   3.340   2.271  10.551  0.1798  0.0340 -0.0524
 1167SOL    HW115134   3.340   2.210  10.478  0.1270  1.9937 -1.6790
 1167SOL    HW215135   3.422   2.252  10.597  0.2743 -2.2008 -1.1879
 1168SOL     OW15136   3.479   3.152   5.738  0.2758 -0.0355 -0.1098
 1168SOL    HW115137   3.418   3.126   5.669  0.9080 -1.9062  0.0272
 1168SOL    HW215138   3.549   3.190   5.685 -0.5618  1.9021  0.1622
 1169SOL     OW15139   1.532   4.669   6.802  0.2982 -0.0653  0.2180
 1169SOL    HW115140   1.510   4.695   6.892  2.0360  1.5688  0.1667
 1169SOL    HW215141   1.475   4.726   6.750 -0.6612  0.1082  1.4415
 1170SOL     OW15142   3.516   0.914   3.088  0.0557 -0.5434  0.1122
 1170SOL    HW115143   3.453   0.886   3.155  0.1141  0.7855  0.7131
 1170SOL    HW215144   3.596   0.937   3.135 -0.2926  2.1208 -0.5801
 1171SOL     OW15145   3.690   3.296  10.726  0.7732  0.2652 -0.1193
 1171SOL    HW115146   3.646   3.333  10.803  1.9490  0.2026  0.5862
 1171SOL    HW215147   3.740   3.220  10.756 -0.2779 -0.5280 -0.4213
 1172SOL     OW15148   4.437   2.171  12.809  0.0029  0.1690 -0.3037
 1172SOL    HW115149   4.398   2.196  12.725 -0.1007  1.6795  0.1898
 1172SOL    HW215150   4.417   2.255  12.850  1.0432  0.9851 -1.4778
 1173SOL     OW15151   4.158   3.536   1.926  0.5980  0.2774 -0.0764
 1173SOL    HW115152   4.229   3.519   1.864  0.4477  0.7873 -0.3851
 1173SOL    HW215153   4.155   3.453   1.974  0.3982  0.3040 -0.0450
 1174SOL     OW15154   0.798   1.403   3.212 -0.4683 -0.3043  0.4240
 1174SOL    HW115155   0.789   1.384   3.119 -0.3574  0.9329  0.1541
 1174SOL    HW215156   0.765   1.322   3.251  2.1980 -0.1485  3.0305
 1175SOL     OW15157   0.769   4.233  17.557  0.0265  0.4682 -0.1953
 1175SOL    HW115158   0.821   4.153  17.543 -0.3820 -0.2110  2.2042
 1175SOL    HW215159   0.809   4.263  17.639 -1.6648 -0.1183  0.8320
 1176SOL     OW15160   1.468   2.542   2.235  0.4581 -0.1388  0.0774
 1176SOL    HW115161   1.400   2.608   2.223  0.7671 -0.0095 -0.8917
 1176SOL    HW215162   1.442   2.481   2.166  1.9241  1.0574 -1.5360
 1177SOL     OW15163   4.544   0.013   2.889  0.4868 -0.1185 -0.1529
 1177SOL    HW115164   4.565   0.101   2.921  1.1604 -0.2209 -0.3085
 1177SOL    HW215165   4.455   0.033   2.860  0.6065  0.0198 -0.4198
 1178SOL     OW15166   2.115   2.967   4.840 -0.0747 -0.2519 -0.0784
 1178SOL    HW115167   2.134   2.907   4.767 -0.2841  2.0266 -1.9929
 1178SOL    HW215168   2.019   2.969   4.844 -0.0670  0.6386 -0.4857
 1179SOL     OW15169   0.566   0.531   6.527 -0.1191 -0.1923  0.1819
 1179SOL    HW115170   0.523   0.528   6.612  0.0735  0.4187  0.2967
 1179SOL    HW215171   0.520   0.603   6.485  1.1290  0.9623  0.8170
 1180SOL     OW15172   0.882   2.014   7.876  0.4611  0.3915 -0.8803
 1180SOL    HW115173   0.967   2.055   7.894  1.2801 -1.5678 -0.2587
 1180SOL    HW215174   0.897   1.984   7.786 -3.6044 -1.7478 -0.8313
 1181SOL     OW15175   4.689   4.513   2.322 -0.2420 -0.4736 -0.5252
 1181SOL    HW115176   4.733   4.492   2.404 -1.0449 -3.5335 -0.8526
 1181SOL    HW215177   0.029   4.549   2.275 -0.4163  1.3345  0.6038
 1182SOL     OW15178   3.694   0.478   0.585 -0.1728  0.2575  0.9169
 1182SOL    HW115179   3.700   0.395   0.538 -0.3586 -0.3289  1.9319
 1182SOL    HW215180   3.751   0.534   0.532  0.9199  0.7899  2.6651
 1183SOL     OW15181   0.543   4.295  12.322  0.3600  0.6326 -0.1178
 1183SOL    HW115182   0.631   4.332  12.308 -0.1339  2.4907  1.7113
 1183SOL    HW215183   0.505   4.334  12.244 -0.5324  1.1429  0.5728
 1184SOL     OW15184   3.738   4.438   3.992  0.0417 -0.9000  0.1941
 1184SOL    HW115185   3.665   4.489   4.027 -0.0771  1.3009 -3.2864
 1184SOL    HW215186   3.725   4.443   3.898  0.9924  0.5808  0.1285
 1185SOL     OW15187   0.207   3.694  14.030  0.7308 -0.0234 -0.1848
 1185SOL    HW115188   0.270   3.723  14.096  1.1390 -2.0597  0.2901
 1185SOL    HW215189   0.125   3.714  14.075  0.4753  1.9198 -1.5103
 1186SOL     OW15190   0.703   4.264   2.919  0.3197 -0.1520  0.4354
 1186SOL    HW115191   0.645   4.285   2.992 -1.0571 -3.2376  0.2416
 1186SOL    HW215192   0.636   4.219   2.867 -1.5395  1.8860  1.0825
 1187SOL     OW15193   2.941   1.466   8.287  0.3401  0.5210  0.5184
 1187SOL    HW115194   2.967   1.422   8.368  0.4576  0.8367  0.6547
 1187SOL    HW215195   2.846   1.455   8.283  0.4152 -0.2314  0.7230
 1188SOL     OW15196   1.496   1.597   3.528 -0.4471 -0.4847 -0.4026
 1188SOL    HW115197   1.583   1.610   3.491 -0.5949 -0.4848 -0.7547
 1188SOL    HW215198   1.453   1.577   3.445  2.2018 -1.1689 -1.5792
 1189SOL     OW15199   2.613   2.882   7.264  1.1632 -0.2648  0.2390
 1189SOL    HW115200   2.562   2.812   7.306  1.0378 -0.1328  0.3074
 1189SOL    HW215201   2.621   2.947   7.334 -0.1477  0.9810 -0.7752
 1190SOL     OW15202   2.864   1.670   1.592  0.4626 -0.1976  0.1541
 1190SOL    HW115203   2.950   1.678   1.551  1.1045 -0.4245  1.4602
 1190SOL    HW215204   2.811   1.739   1.551  0.0574 -0.2857  0.5244
 1191SOL     OW15205   3.949   2.110   5.908 -0.1916 -0.3067 -0.1454
 1191SOL    HW115206   4.042   2.089   5.918  0.1601  1.0557 -0.4992
 1191SOL    HW215207   3.946   2.181   5.972  0.8947 -0.0022 -0.4259
 1192SOL     OW15208   1.785   2.221   9.238  0.9591 -0.4418 -0.1739
 1192SOL    HW115209   1.798   2.262   9.324 -3.7547  1.7184 -0.5083
 1192SOL    HW215210   1.728   2.282   9.192  0.7812 -1.2895 -1.0709
 1193SOL     OW15211   2.258   2.898   7.127 -0.0050  0.1394  0.3852
 1193SOL    HW115212   2.216   2.814   7.108 -1.6239  0.4195  2.7671
 1193SOL    HW215213   2.182   2.955   7.116 -0.4973 -0.4566  0.6564
 1194SOL     OW15214   1.805   2.175   7.027  0.5135  0.0736 -0.5580
 1194SOL    HW115215   1.777   2.104   7.085 -1.3084  1.6319  0.4603
 1194SOL    HW215216   1.869   2.217   7.086  0.9408 -0.7271 -0.4458
 1195SOL     OW15217   0.264   3.644  14.570 -0.5031  0.2786 -0.3226
 1195SOL    HW115218   0.224   3.611  14.490 -0.1930 -0.7574 -0.0401
 1195SOL    HW215219   0.189   3.692  14.605 -1.2805 -0.7792 -0.5369
 1196SOL     OW15220   0.590   1.997   5.723  0.2938 -0.5781 -0.4489
 1196SOL    HW115221   0.623   1.918   5.680  0.7207  0.1252 -1.4146
 1196SOL    HW215222   0.539   1.963   5.797 -0.1955 -0.8328 -0.9010
 1197SOL     OW15223   3.997   1.580   2.779  0.1922  0.2138 -0.8176
 1197SOL    HW115224   4.004   1.491   2.815 -0.4048  1.0446  1.3011
 1197SOL    HW215225   3.928   1.573   2.714  0.2700  1.9653 -1.0712
 1198SOL     OW15226   4.032   1.826   1.637 -0.3063  0.2364 -0.5902
 1198SOL    HW115227   4.105   1.813   1.576 -0.2050  0.0746 -0.4349
 1198SOL    HW215228   4.029   1.921   1.631  0.6338  0.2079 -1.5805
 1199SOL     OW15229   0.323   4.579   9.603  0.0606  0.0182  0.0055
 1199SOL    HW115230   0.304   4.508   9.541 -1.3155  0.5200 -0.1581
 1199SOL    HW215231   0.313   4.654   9.544  1.6782 -0.2625 -0.6391
 1200SOL     OW15232   0.264   1.346   7.880 -0.0728  0.1732  0.3957
 1200SOL    HW115233   0.330   1.285   7.849  1.5394  1.9553  0.3193
 1200SOL    HW215234   0.250   1.413   7.813  0.3607  1.2426  1.3668
 1201SOL     OW15235   4.106   0.968   4.125 -0.5084 -0.5661  0.2791
 1201SOL    HW115236   4.012   0.958   4.141 -0.5339 -0.2889  0.2933
 1201SOL    HW215237   4.111   1.061   4.107  0.6389 -0.6314  0.2545
 1202SOL     OW15238   0.748   0.613   0.329  0.4859  0.0673  0.5135
 1202SOL    HW115239   0.755   0.518   0.334 -1.4341 -0.0984 -0.0561
 1202SOL    HW215240   0.685   0.617   0.256  1.0977 -1.5677 -0.1105
 1203SOL     OW15241   0.960   4.619   3.141 -0.1536  0.5317  0.4840
 1203SOL    HW115242   1.053   4.641   3.144 -0.7564  3.0205  0.9061
 1203SOL    HW215243   0.959   4.532   3.181  3.7643 -0.0668 -0.7016
 1204SOL     OW15244   2.469   0.520  16.081  0.1406 -0.1499  0.6159
 1204SOL    HW115245   2.382   0.479  16.082 -0.6545  1.5071 -0.1040
 1204SOL    HW215246   2.473   0.579  16.156 -0.0627  0.2879  0.2840
 1205SOL     OW15247   3.368   0.407   9.833 -0.2282  0.0375 -0.3727
 1205SOL    HW115248   3.404   0.348   9.767 -1.1179 -0.5329 -0.3538
 1205SOL    HW215249   3.301   0.342   9.855 -0.8077 -0.3200 -3.2879
 1206SOL     OW15250   3.172   3.065   9.301  0.3347 -0.8212  0.0951
 1206SOL    HW115251   3.249   3.022   9.336 -1.0377 -2.2239  1.4046
 1206SOL    HW215252   3.106   3.001   9.329  0.3896 -0.5074  0.9198
 1207SOL     OW15253   1.462   1.558   8.009 -0.5250 -0.1959 -0.1076
 1207SOL    HW115254   1.519   1.570   8.085  0.0834 -1.1581 -0.4073
 1207SOL    HW215255   1.379   1.534   8.049 -1.6063 -2.1991 -3.5742
 1208SOL     OW15256   0.735   0.086   2.244  0.6112 -0.2636  0.1199
 1208SOL    HW115257   0.783   0.090   2.327 -0.1844  2.9660  0.4523
 1208SOL    HW215258   0.795   0.127   2.182 -1.0847  1.9815 -0.0551
 1209SOL     OW15259   0.609   4.177   2.050  0.1705  0.2667  0.3152
 1209SOL    HW115260   0.669   4.110   2.019 -0.9114 -2.0951  3.3838
 1209SOL    HW215261   0.624   4.199   2.142  0.4990 -0.2399  0.3822
 1210SOL     OW15262   3.549   2.392  13.898 -0.0558 -0.2621  0.6596
 1210SOL    HW115263   3.533   2.400  13.992 -0.2716 -0.3929  0.6350
 1210SOL    HW215264   3.643   2.411  13.901  0.2411 -1.5626 -0.1830
 1211SOL     OW15265   4.545   4.188   8.475  0.7366  0.2971  0.6176
 1211SOL    HW115266   4.460   4.173   8.433  2.0421  0.1137 -1.9847
 1211SOL    HW215267   4.538   4.281   8.497 -0.4653  0.3101  0.1992
 1212SOL     OW15268   0.190   4.534   8.209 -0.6334  0.1642 -0.0250
 1212SOL    HW115269   0.216   4.449   8.242  1.4965  0.4497 -0.9786
 1212SOL    HW215270   0.253   4.548   8.138  1.1619  1.8936  1.9071
 1213SOL     OW15271   1.625   4.022  15.133 -0.5970 -0.3778  0.3944
 1213SOL    HW115272   1.604   3.928  15.130  1.6178 -0.9287  1.9742
 1213SOL    HW215273   1.551   4.058  15.085  0.0681 -1.4338 -1.4386
 1214SOL     OW15274   1.991   0.134   4.679  0.1965 -0.0269  0.3296
 1214SOL    HW115275   1.966   0.085   4.758  0.6511  2.0216  1.7350
 1214SOL    HW215276   1.946   0.085   4.610  1.1390  2.1929 -1.8434
 1215SOL     OW15277   3.019   4.249  10.129 -0.2337 -0.4193  0.2396
 1215SOL    HW115278   2.935   4.281  10.162  1.1882  1.0336  2.5072
 1215SOL    HW215279   3.035   4.175  10.188  3.6211 -0.8761 -1.3650
 1216SOL     OW15280   2.723   0.935   8.678 -0.1843  0.3405  0.1284
 1216SOL    HW115281   2.701   0.913   8.768 -0.3297 -0.5009 -0.1123
 1216SOL    HW215282   2.817   0.920   8.678 -0.2023  0.1457 -1.9946
 1217SOL     OW15283   0.059   1.886   5.704  0.0301 -0.0710  0.8112
 1217SOL    HW115284   4.700   1.894   5.721  0.2676  1.0848  1.5490
 1217SOL    HW215285   0.061   1.791   5.696  1.4134 -0.2759  3.4071
 1218SOL     OW15286   4.016   0.888   9.155  0.0504  0.3221 -0.1164
 1218SOL    HW115287   4.050   0.917   9.071 -0.6759  2.4299  0.3237
 1218SOL    HW215288   4.078   0.816   9.168  0.5124  0.8997  0.9609
 1219SOL     OW15289   2.112   0.084  16.342 -0.8559  0.4937 -0.2332
 1219SOL    HW115290   2.180   0.129  16.293  0.5282 -1.2795  0.0611
 1219SOL    HW215291   2.130   4.728  16.315 -2.1286 -0.3214  1.6498
 1220SOL     OW15292   2.700   3.011   5.097 -0.7365  0.1173 -0.5120
 1220SOL    HW115293   2.718   3.070   5.171  0.4720  0.5336 -1.1498
 1220SOL    HW215294   2.719   3.081   5.035  0.5966 -0.8897 -1.2227
 1221SOL     OW15295   2.817   0.823  15.156  0.1340 -0.7306 -0.4543
 1221SOL    HW115296   2.841   0.740  15.114  0.4164  0.0157 -1.7641
 1221SOL    HW215297   2.901   0.867  15.144 -1.5079  1.8757 -2.3526
 1222SOL     OW15298   0.564   0.421  16.420 -0.0432 -0.3222  0.3436
 1222SOL    HW115299   0.499   0.360  16.455 -1.5128  1.4666  0.8148
 1222SOL    HW215300   0.591   0.474  16.496 -0.0643  0.3448 -0.1118
 1223SOL     OW15301   4.312   1.635   1.124  0.1509  0.2118  0.6394
 1223SOL    HW115302   4.255   1.704   1.090 -0.0117  0.5147  1.5119
 1223SOL    HW215303   4.250   1.563   1.126  0.1266  0.1971 -0.5760
 1224SOL     OW15304   4.574   4.526   9.240 -0.6857 -0.1854  0.3876
 1224SOL    HW115305   4.558   4.477   9.321  1.1954  2.2146  2.2322
 1224SOL    HW215306   4.646   4.585   9.263  0.8882 -0.3137 -4.3997
 1225SOL     OW15307   3.962   0.665  14.630  0.0399  0.6486 -0.3951
 1225SOL    HW115308   3.907   0.742  14.614 -1.5117 -0.1937  0.9654
 1225SOL    HW215309   3.965   0.619  14.546 -1.7522  0.8742 -0.5850
 1226SOL     OW15310   4.496   2.954   4.220 -0.3001  0.1760 -0.0304
 1226SOL    HW115311   4.468   3.035   4.261 -0.4969 -0.2208  0.6136
 1226SOL    HW215312   4.443   2.892   4.270  1.5932 -1.4279 -0.0044
 1227SOL     OW15313   2.026   0.426   7.613 -0.4168 -0.5097 -0.3228
 1227SOL    HW115314   1.978   0.508   7.622 -2.0113 -1.3390 -1.3374
 1227SOL    HW215315   2.044   0.431   7.519  1.7272  1.8121  0.2188
 1228SOL     OW15316   0.627   2.811   2.687  0.1727  0.4459  0.2575
 1228SOL    HW115317   0.716   2.791   2.718  0.1120 -1.6785 -0.9813
 1228SOL    HW215318   0.591   2.732   2.648  0.6240 -0.3691  1.4691
 1229SOL     OW15319   3.293   2.658   9.501 -0.3906 -0.2631 -0.2034
 1229SOL    HW115320   3.358   2.641   9.570 -1.1311 -1.7281  0.1475
 1229SOL    HW215321   3.276   2.750   9.517 -0.3759 -0.2037 -0.5251
 1230SOL     OW15322   3.458   3.897  16.253 -0.9915  0.3472  0.4539
 1230SOL    HW115323   3.533   3.955  16.237 -2.4311  1.6491 -1.5069
 1230SOL    HW215324   3.441   3.873  16.162  0.3570  1.9172 -0.1935
 1231SOL     OW15325   1.961   2.644  13.344  0.9447 -0.1386 -0.5935
 1231SOL    HW115326   1.890   2.682  13.396  1.1090  1.4934 -1.5666
 1231SOL    HW215327   1.931   2.553  13.346 -0.3895  0.3214  0.4145
 1232SOL     OW15328   4.317   3.274   3.771 -0.0707  0.1823 -0.2204
 1232SOL    HW115329   4.330   3.366   3.791  1.2961  0.1995 -1.2543
 1232SOL    HW215330   4.223   3.264   3.785  0.0190  0.1806  0.3859
 1233SOL     OW15331   2.183   3.727   7.054  0.1865  0.2204  0.3632
 1233SOL    HW115332   2.256   3.736   6.993  0.5692  0.2167  0.8244
 1233SOL    HW215333   2.200   3.638   7.085  1.2153  0.2485 -0.1604
 1234SOL     OW15334   0.996   0.129   0.624  0.2060  0.7402 -0.4705
 1234SOL    HW115335   1.071   0.127   0.564  0.0922  1.9546 -0.6510
 1234SOL    HW215336   0.941   0.063   0.580  1.1557 -0.2858 -0.1196
 1235SOL     OW15337   4.679   3.200   5.235  0.3679 -0.3767  0.1234
 1235SOL    HW115338   4.616   3.271   5.243  0.6368 -0.0167 -0.9390
 1235SOL    HW215339   0.019   3.248   5.197 -0.2427 -0.5236 -1.2569
 1236SOL     OW15340   1.673   1.145   6.985  0.4100  0.2892  0.4775
 1236SOL    HW115341   1.664   1.211   7.054  0.8321  1.3690 -0.4942
 1236SOL    HW215342   1.582   1.115   6.982  0.6398 -0.2958 -0.5136
 1237SOL     OW15343   2.109   2.926   0.118 -0.2189 -0.1735 -0.6735
 1237SOL    HW115344   2.081   2.893   0.203  2.7121  1.5599  0.9544
 1237SOL    HW215345   2.204   2.935   0.129 -0.3963  1.9340 -0.7546
 1238SOL     OW15346   1.261   4.460  11.342  0.3515  0.0639  0.5199
 1238SOL    HW115347   1.279   4.425  11.430  0.9002 -0.9944 -0.0124
 1238SOL    HW215348   1.168   4.471  11.359  0.4738  1.5387  0.2490
 1239SOL     OW15349   2.574   2.766   0.459 -0.0912  0.0013  0.1284
 1239SOL    HW115350   2.589   2.805   0.373 -0.7536 -1.2239 -0.5365
 1239SOL    HW215351   2.532   2.842   0.499  0.1348  0.3545 -0.3124
 1240SOL     OW15352   0.184   0.493  13.950 -0.0962 -0.3400  0.0578
 1240SOL    HW115353   0.196   0.409  13.906 -0.1043  1.1250 -2.6968
 1240SOL    HW215354   0.088   0.500  13.953 -0.2295 -1.8349 -0.9142
 1241SOL     OW15355   0.736   1.600   6.701  0.2470  0.2619 -0.0972
 1241SOL    HW115356   0.773   1.537   6.763  0.0647  2.3604  2.1222
 1241SOL    HW215357   0.710   1.674   6.756 -0.9422 -1.1037  1.1939
 1242SOL     OW15358   4.661   3.579   6.940 -0.1492 -0.2165  0.1402
 1242SOL    HW115359   4.691   3.669   6.951 -0.0588 -0.4252  1.6780
 1242SOL    HW215360   0.004   3.533   6.974 -0.7097 -1.4976 -0.3391
 1243SOL     OW15361   2.311   2.689  16.601  0.3268  0.4629 -0.0525
 1243SOL    HW115362   2.292   2.696  16.695  0.9346  4.0784 -0.1771
 1243SOL    HW215363   2.227   2.693  16.556 -0.4632 -0.1831  1.3767
 1244SOL     OW15364   2.349   0.093  14.546  0.2084 -0.7351 -0.3425
 1244SOL    HW115365   2.278   0.040  14.582  0.6008 -0.8743  0.2292
 1244SOL    HW215366   2.393   0.107  14.629 -0.3518  1.4961 -0.4194
 1245SOL     OW15367   3.061   1.020   5.577 -0.0203 -0.3162  0.1212
 1245SOL    HW115368   2.978   0.972   5.572 -1.4711  1.8694  3.3685
 1245SOL    HW215369   3.068   1.031   5.671  0.3962  0.9882 -0.0733
 1246SOL     OW15370   3.689   2.448   7.171 -0.5129  0.3904  0.2080
 1246SOL    HW115371   3.659   2.408   7.089 -0.2151 -3.0027  1.7422
 1246SOL    HW215372   3.754   2.510   7.137 -0.0784 -0.2292 -0.1042
 1247SOL     OW15373   3.076   4.493   3.824  0.4364  0.0679  0.0566
 1247SOL    HW115374   3.135   4.422   3.848 -0.6927 -1.3676 -1.4172
 1247SOL    HW215375   3.052   4.534   3.907  1.6088 -0.0252  0.4455
 1248SOL     OW15376   2.631   3.369   3.581  0.4092  0.1442 -0.0532
 1248SOL    HW115377   2.574   3.313   3.528 -1.4095  2.5803 -0.6775
 1248SOL    HW215378   2.592   3.455   3.571  1.9016  1.0073  1.7179
 1249SOL     OW15379   1.147   2.990   7.458  0.3054  0.1536 -0.0737
 1249SOL    HW115380   1.202   2.921   7.496 -1.2024 -0.5869  0.7563
 1249SOL    HW215381   1.204   3.062   7.484 -0.0748  1.6373 -3.3702
 1250SOL     OW15382   1.103   2.274   4.434  0.3591  0.2571  0.3173
 1250SOL    HW115383   1.016   2.285   4.471 -0.1789  0.2418 -0.9315
 1250SOL    HW215384   1.133   2.364   4.422 -1.9241  1.2518  2.1654
 1251SOL     OW15385   4.625   3.854   5.275 -0.1752  0.1675 -0.3387
 1251SOL    HW115386   4.551   3.794   5.266 -1.0857  1.2213  0.1608
 1251SOL    HW215387   4.638   3.861   5.369 -0.9634 -0.4878 -0.1774
 1252SOL     OW15388   3.015   2.659   3.711 -0.4068  0.0178  0.4216
 1252SOL    HW115389   3.099   2.653   3.664 -0.1636  1.7968  0.6306
 1252SOL    HW215390   2.973   2.736   3.673  0.6251  0.7340  0.7158
 1253SOL     OW15391   1.843   0.562   1.895  0.4667  0.4869 -0.7929
 1253SOL    HW115392   1.861   0.615   1.817  0.8775  0.0615 -0.9888
 1253SOL    HW215393   1.819   0.622   1.966 -2.4093 -0.8378 -0.6432
 1254SOL     OW15394   2.046   1.996   9.888 -0.7321  0.1797 -0.2301
 1254SOL    HW115395   2.006   1.976   9.803  0.3022  2.7441 -1.3370
 1254SOL    HW215396   2.073   1.909   9.920  1.0996  1.9817  3.1295
 1255SOL     OW15397   1.120   3.319   9.297 -0.0856  0.1961 -0.2384
 1255SOL    HW115398   1.043   3.372   9.316 -1.1767 -1.9155  1.2463
 1255SOL    HW215399   1.121   3.312   9.202 -0.8438 -2.1860 -0.0762
 1256SOL     OW15400   2.375   3.835   7.894 -0.3191  0.0248 -0.4385
 1256SOL    HW115401   2.457   3.884   7.905 -1.4030  1.4548  1.2457
 1256SOL    HW215402   2.310   3.899   7.921  1.1002  1.1699  0.2749
 1257SOL     OW15403   3.997   3.757   8.309 -0.2262 -0.4051  0.2243
 1257SOL    HW115404   3.949   3.814   8.369  1.1213  1.1051 -0.1482
 1257SOL    HW215405   3.927   3.718   8.257  0.8758 -2.3954  0.2194
 1258SOL     OW15406   2.518   3.274   3.122 -0.0383  0.0665  0.1173
 1258SOL    HW115407   2.563   3.192   3.103  2.6788  0.7081  3.7798
 1258SOL    HW215408   2.510   3.258   3.216  1.3110 -0.9288  0.0628
 1259SOL     OW15409   2.447   0.373   9.141 -0.5404 -0.2019 -0.1054
 1259SOL    HW115410   2.427   0.337   9.055  0.3341 -0.3951 -0.2240
 1259SOL    HW215411   2.542   0.363   9.140 -0.5540 -0.3021 -0.2690
 1260SOL     OW15412   4.072   0.754  14.164  0.5348 -0.5417 -0.2533
 1260SOL    HW115413   4.126   0.778  14.089  0.6658  1.3950  0.4587
 1260SOL    HW215414   4.103   0.824  14.222 -0.9628  0.3031 -0.4588
 1261SOL     OW15415   2.738   3.927   4.143 -0.0782 -0.0116  0.0784
 1261SOL    HW115416   2.659   3.925   4.197  0.9235  0.6951  1.5756
 1261SOL    HW215417   2.796   3.966   4.209  1.0873 -0.0900 -0.8853
 1262SOL     OW15418   0.991   1.583   8.340  0.1020  0.0621 -0.0578
 1262SOL    HW115419   0.965   1.675   8.328 -1.1858 -0.2514  0.3084
 1262SOL    HW215420   0.908   1.545   8.367  0.8174 -1.5067 -0.0982
 1263SOL     OW15421   2.425   4.009   5.259  0.3885 -0.3805  0.1959
 1263SOL    HW115422   2.453   3.923   5.290  0.0186  0.2721  2.3825
 1263SOL    HW215423   2.443   4.062   5.337  1.6115 -0.3595 -0.0995
 1264SOL     OW15424   4.030   2.897   4.453 -0.1674 -0.4179  0.1863
 1264SOL    HW115425   4.068   2.965   4.509  1.4855 -0.5050 -0.8287
 1264SOL    HW215426   4.046   2.822   4.510 -0.0992 -0.2612  0.3743
 1265SOL     OW15427   2.300   3.847   2.928 -0.4984 -0.1033  0.5600
 1265SOL    HW115428   2.393   3.834   2.911  0.1894  3.3107  1.8189
 1265SOL    HW215429   2.261   3.764   2.900  0.3893  0.5019 -2.5167
 1266SOL     OW15430   2.915   2.985   5.529 -1.1385  0.2095 -0.0594
 1266SOL    HW115431   2.952   2.897   5.526 -0.7338  0.3916 -0.4134
 1266SOL    HW215432   2.976   3.021   5.593  0.5846  0.3424 -1.7744
 1267SOL     OW15433   4.181   2.175   2.439  0.1194 -0.4296  0.1622
 1267SOL    HW115434   4.244   2.153   2.507  2.0812  1.7251 -0.9822
 1267SOL    HW215435   4.157   2.266   2.454 -0.5222 -0.3100 -1.5278
 1268SOL     OW15436   4.672   3.872  15.521 -0.0662 -0.0505  0.1210
 1268SOL    HW115437   4.683   3.960  15.485 -0.5681 -0.4045 -0.8946
 1268SOL    HW215438   4.606   3.833  15.463 -1.0550 -1.5885  2.2792
 1269SOL     OW15439   0.555   0.008   9.832 -0.1593 -0.2899 -0.1724
 1269SOL    HW115440   0.494   0.042   9.766 -0.1691  0.6607  0.3292
 1269SOL    HW215441   0.568   4.648   9.821  1.2322 -0.0191 -0.9057
 1270SOL     OW15442   3.543   4.171   6.625 -0.4415  0.6509  0.8129
 1270SOL    HW115443   3.546   4.162   6.529  0.4580 -0.1368  0.9207
 1270SOL    HW215444   3.531   4.084   6.661 -0.9567  0.7777  0.9520
 1271SOL     OW15445   0.812   0.868   7.432 -0.5097  0.3701 -0.0051
 1271SOL    HW115446   0.756   0.915   7.371 -2.9562  0.3617  2.2271
 1271SOL    HW215447   0.749   0.804   7.464 -1.7332  1.2991 -0.5917
 1272SOL     OW15448   0.903   1.793   3.465 -0.0230 -0.0657 -0.1180
 1272SOL    HW115449   0.953   1.859   3.416  0.5350 -0.3146  0.1225
 1272SOL    HW215450   0.891   1.843   3.546  1.0396 -0.5875  0.3499
 1273SOL     OW15451   0.456   2.907   2.093  0.5260  0.1730  0.1006
 1273SOL    HW115452   0.409   2.972   2.040  1.3589  2.3620  2.0634
 1273SOL    HW215453   0.479   2.835   2.034 -0.6746 -0.1364  0.0049
 1274SOL     OW15454   0.036   0.635   2.877  0.0542 -0.2127 -0.5842
 1274SOL    HW115455   0.024   0.705   2.813 -3.2993 -1.0982 -0.9375
 1274SOL    HW215456   4.680   0.610   2.897  0.3284 -0.0565  0.8982
 1275SOL     OW15457   4.153   4.618   6.744  0.3686 -0.2877  0.3875
 1275SOL    HW115458   4.074   4.564   6.752  1.2916 -1.7235 -0.1777
 1275SOL    HW215459   4.130   4.707   6.769  1.5758 -0.3620  1.7608
 1276SOL     OW15460   3.051   3.138   9.639  0.6346  0.6553 -0.4199
 1276SOL    HW115461   3.045   3.186   9.557  0.3269  0.4435 -0.5226
 1276SOL    HW215462   2.963   3.102   9.648  1.7329 -2.0659 -0.6466
 1277SOL     OW15463   2.947   1.810   5.010 -0.1498  0.0892 -0.2269
 1277SOL    HW115464   3.010   1.765   4.954 -0.1275 -0.8491  0.5530
 1277SOL    HW215465   2.872   1.824   4.951 -2.3200  0.6533  2.6506
 1278SOL     OW15466   0.320   3.645  11.063  0.5981  0.3504  0.0437
 1278SOL    HW115467   0.396   3.702  11.052  2.4907 -2.0377  0.9204
 1278SOL    HW215468   0.335   3.590  11.139  2.4549  2.3002  1.0961
 1279SOL     OW15469   2.850   2.383  12.883  0.0534  0.2184 -0.4593
 1279SOL    HW115470   2.900   2.463  12.872  0.3475  0.2216  0.9980
 1279SOL    HW215471   2.761   2.411  12.904 -0.0158  0.4720 -1.0914
 1280SOL     OW15472   0.530   4.524   2.603  0.6172 -0.3424  0.5367
 1280SOL    HW115473   0.498   4.478   2.525  0.1838 -0.2078  0.6324
 1280SOL    HW215474   0.488   4.609   2.589  0.1637 -0.9399 -1.7104
 1281SOL     OW15475   4.176   3.466   6.712 -0.5809 -0.0920 -0.1763
 1281SOL    HW115476   4.155   3.385   6.665 -0.1247  0.2386 -0.9436
 1281SOL    HW215477   4.195   3.444   6.804 -0.6535  0.0424 -0.1287
 1282SOL     OW15478   2.017   1.172   7.540  0.6575 -0.6990 -0.3649
 1282SOL    HW115479   1.925   1.188   7.519  0.5219 -0.8348  0.1127
 1282SOL    HW215480   2.065   1.199   7.462 -2.8775  0.6496 -2.0239
 1283SOL     OW15481   3.710   2.770   4.982  0.4579 -0.0421 -0.1920
 1283SOL    HW115482   3.746   2.754   4.895 -3.7057  2.8518 -2.4414
 1283SOL    HW215483   3.751   2.692   5.021 -3.0693 -1.4787  0.6477
 1284SOL     OW15484   4.677   0.121   8.704 -0.3030 -0.2592 -0.3643
 1284SOL    HW115485   4.603   0.125   8.764  0.6556  0.4086  0.7619
 1284SOL    HW215486   4.638   0.137   8.618  0.0269  0.2652 -0.4175
 1285SOL     OW15487   4.366   4.472   6.702  0.5403 -0.1730  0.0497
 1285SOL    HW115488   4.342   4.383   6.675 -0.7022  0.0731  0.3373
 1285SOL    HW215489   4.281   4.511   6.723  0.3384 -1.0009  0.7931
 1286SOL     OW15490   2.596   1.948  15.191  0.3463 -0.3344 -0.4937
 1286SOL    HW115491   2.594   1.874  15.131  1.7087 -2.4080  2.0116
 1286SOL    HW215492   2.668   1.921  15.249  0.6467 -0.6225 -1.0058
 1287SOL     OW15493   3.460   3.012   7.510  0.6820 -0.1718  0.3832
 1287SOL    HW115494   3.525   2.947   7.481  1.4801  1.0524 -0.5487
 1287SOL    HW215495   3.391   2.950   7.532  0.8370  0.2265  1.9801
 1288SOL     OW15496   4.599   4.298   4.965 -0.1261  0.4851 -0.0133
 1288SOL    HW115497   4.652   4.234   5.012 -1.1266 -0.4608 -0.1702
 1288SOL    HW215498   4.528   4.288   5.028 -0.9570  0.0854 -1.0094
 1289SOL     OW15499   1.568   1.740   4.590 -0.3476  0.4096 -0.2417
 1289SOL    HW115500   1.649   1.691   4.599 -0.9904 -0.8820 -1.5957
 1289SOL    HW215501   1.505   1.668   4.585  2.9391 -2.3729 -0.6581
 1290SOL     OW15502   1.580   4.250  15.876  1.2458 -0.1246  0.9905
 1290SOL    HW115503   1.529   4.273  15.953  1.4111  2.4067  0.3263
 1290SOL    HW215504   1.553   4.163  15.846 -2.0053  1.0541  0.4548
 1291SOL     OW15505   0.160   3.896   6.990  0.5913  0.0732 -0.0554
 1291SOL    HW115506   0.148   3.890   7.085 -1.8972 -0.6650 -0.4323
 1291SOL    HW215507   0.177   3.989   6.979 -1.2772  0.4660  0.3924
 1292SOL     OW15508   4.610   4.405   9.577 -0.4378 -0.1391  0.3365
 1292SOL    HW115509   4.632   4.316   9.551  0.9487  0.3196 -0.0901
 1292SOL    HW215510   4.619   4.395   9.671 -3.2886 -0.5728  0.5490
 1293SOL     OW15511   3.060   4.578   4.105  1.3486  0.5674  0.3963
 1293SOL    HW115512   3.156   4.577   4.115  1.3034  0.6997  0.8487
 1293SOL    HW215513   3.031   4.615   4.188  0.7009  0.6612  0.1285
 1294SOL     OW15514   2.868   3.642   3.659  0.0151  0.1181  0.1338
 1294SOL    HW115515   2.893   3.732   3.680  0.4408  0.0560 -0.1209
 1294SOL    HW215516   2.867   3.603   3.746  0.3756 -0.1333  0.0225
 1295SOL     OW15517   2.994   3.049   2.885 -0.0755 -0.2996  0.3928
 1295SOL    HW115518   3.055   3.053   2.959 -0.2042  2.5481  0.3309
 1295SOL    HW215519   2.973   2.955   2.892 -1.5647 -0.0223 -0.3536
 1296SOL     OW15520   3.619   3.381  12.715  0.0387 -0.3833 -0.7780
 1296SOL    HW115521   3.618   3.470  12.750  2.8621 -0.4867 -0.4974
 1296SOL    HW215522   3.710   3.368  12.741 -0.5633 -1.8002  0.6433
 1297SOL     OW15523   2.673   4.040  14.413 -0.0511  0.1517 -0.3209
 1297SOL    HW115524   2.641   3.951  14.428 -0.5811 -0.0874 -2.8557
 1297SOL    HW215525   2.761   4.024  14.378 -0.6833 -2.4842 -0.7441
 1298SOL     OW15526   3.675   4.062  15.197  0.5404  0.5762 -0.0297
 1298SOL    HW115527   3.718   4.114  15.129  1.1447  0.5960  0.3769
 1298SOL    HW215528   3.596   4.029  15.154 -0.1372  2.1986 -0.0575
 1299SOL     OW15529   0.219   1.602  16.159 -1.1317  0.1234 -0.7076
 1299SOL    HW115530   0.173   1.673  16.204 -0.1990 -1.0298  2.0936
 1299SOL    HW215531   0.149   1.547  16.125  0.2756 -1.8860 -0.3991
 1300SOL     OW15532   1.504   3.310   7.263 -0.6406 -0.5125 -0.4165
 1300SOL    HW115533   1.421   3.325   7.219 -0.3207  0.8425 -0.5471
 1300SOL    HW215534   1.569   3.298   7.193  0.2079  1.8269 -0.0161
 1301SOL     OW15535   0.174   0.433  12.807 -0.4289  0.3539 -0.0899
 1301SOL    HW115536   0.197   0.516  12.766  0.2802  0.3390  0.2848
 1301SOL    HW215537   0.193   0.354  12.756 -2.3221 -0.0603 -0.1773
 1302SOL     OW15538   1.460   0.210   5.353 -0.3757  0.3941 -0.7135
 1302SOL    HW115539   1.375   0.183   5.321 -1.2090  1.6293  0.4214
 1302SOL    HW215540   1.430   0.275   5.416 -1.5167  0.3515 -1.2227
 1303SOL     OW15541   4.687   3.347   3.283  0.5140 -0.2497  0.1425
 1303SOL    HW115542   4.720   3.369   3.195 -1.0581  0.9105 -0.1492
 1303SOL    HW215543   0.010   3.276   3.311 -0.9706 -1.3907  0.3132
 1304SOL     OW15544   2.646   2.098   2.477  0.4837  0.3980  0.4581
 1304SOL    HW115545   2.600   2.068   2.555  0.1835 -0.6696 -0.1263
 1304SOL    HW215546   2.695   2.020   2.449 -1.3836 -0.4972 -0.2650
 1305SOL     OW15547   2.310   3.545  15.014 -0.0720 -0.1673  0.4655
 1305SOL    HW115548   2.308   3.484  15.088  0.3267  0.5979  1.1028
 1305SOL    HW215549   2.371   3.612  15.045 -0.7171  1.2840 -1.4180
 1306SOL     OW15550   4.130   0.626  11.216  0.4549 -0.1152 -0.1052
 1306SOL    HW115551   4.061   0.576  11.172  0.8574 -1.6073  0.9837
 1306SOL    HW215552   4.156   0.565  11.285 -1.0523 -0.0786  0.5003
 1307SOL     OW15553   4.284   0.756  17.359 -0.4599  0.5615 -0.0668
 1307SOL    HW115554   4.294   0.782  17.451 -2.0597  0.2032  0.2134
 1307SOL    HW215555   4.371   0.719  17.342 -0.1482  1.2413  0.0396
 1308SOL     OW15556   3.514   2.329   1.885 -0.2087  0.3615  0.1636
 1308SOL    HW115557   3.600   2.295   1.910 -2.1306 -2.1532  3.2950
 1308SOL    HW215558   3.525   2.376   1.802  0.4882 -1.6314 -0.8629
 1309SOL     OW15559   0.260   0.202   4.444  0.2179  0.2452  0.1061
 1309SOL    HW115560   0.222   0.122   4.407  2.4780 -2.5981  3.9367
 1309SOL    HW215561   0.273   0.174   4.535 -1.8039  0.4544  0.4438
 1310SOL     OW15562   1.965   2.384  14.332  0.4196 -0.3328 -0.0604
 1310SOL    HW115563   1.938   2.292  14.335 -1.8084  0.2925 -1.1907
 1310SOL    HW215564   1.950   2.409  14.423  1.2473 -2.0923  0.5530
 1311SOL     OW15565   2.220   1.891   3.784 -0.3187 -0.0928  0.1445
 1311SOL    HW115566   2.281   1.821   3.805 -2.3832 -1.0909  2.9095
 1311SOL    HW215567   2.280   1.955   3.746 -0.5008 -0.5402 -0.8966
 1312SOL     OW15568   3.749   0.697   8.046  0.1463  0.0236 -0.1625
 1312SOL    HW115569   3.785   0.697   8.135  2.8472 -2.3005 -1.2415
 1312SOL    HW215570   3.791   0.618   8.011  0.2086  0.1120 -0.2843
 1313SOL     OW15571   1.914   3.967   2.426 -0.4296 -0.7091  0.3532
 1313SOL    HW115572   1.864   3.887   2.409 -0.3409 -0.9665  1.2461
 1313SOL    HW215573   1.884   4.022   2.355 -0.0052  2.3750  2.5545
 1314SOL     OW15574   0.621   4.510  15.155 -0.6266  0.5026  0.4379
 1314SOL    HW115575   0.560   4.570  15.112 -1.2321  1.4562  2.6056
 1314SOL    HW215576   0.654   4.473  15.073  0.4348 -2.5620  2.2660
 1315SOL     OW15577   3.124   0.504   5.964  0.2826  0.6290  0.4429
 1315SOL    HW115578   3.219   0.513   5.962  0.4462 -1.4450 -0.3722
 1315SOL    HW215579   3.100   0.579   6.019 -1.5902  0.8285 -0.6180
 1316SOL     OW15580   1.526   4.558  11.296  0.0415  0.7692  0.0166
 1316SOL    HW115581   1.567   4.488  11.347 -0.3781  0.7810  0.3762
 1316SOL    HW215582   1.432   4.541  11.300 -0.1629  1.9602  0.1659
 1317SOL     OW15583   3.588   2.278   5.559  0.2645  0.3762 -0.0717
 1317SOL    HW115584   3.654   2.217   5.593  1.6885  3.3732  2.5479
 1317SOL    HW215585   3.634   2.342   5.505 -0.5654  1.6918  0.8024
 1318SOL     OW15586   0.504   4.172   2.753  0.3982  0.2115  0.1684
 1318SOL    HW115587   0.462   4.086   2.762  0.7659  0.4507  4.1734
 1318SOL    HW215588   0.454   4.218   2.685 -3.4174 -2.3471  1.2374
 1319SOL     OW15589   2.937   3.480  13.167 -0.0156 -0.0462  0.0867
 1319SOL    HW115590   3.012   3.445  13.120  1.3460  0.4541  1.9074
 1319SOL    HW215591   2.875   3.432  13.112 -0.7344  0.8431  0.1106
 1320SOL     OW15592   1.911   0.047   6.971 -0.1188  0.3006  0.7692
 1320SOL    HW115593   1.908   4.701   6.919 -1.9879  1.8580 -1.5470
 1320SOL    HW215594   2.001   0.048   7.005  0.2563  0.1338 -0.2111
 1321SOL     OW15595   3.810   1.819   2.907  0.4559 -0.1477  0.0403
 1321SOL    HW115596   3.774   1.901   2.875  1.0726 -0.5318 -1.6416
 1321SOL    HW215597   3.812   1.774   2.823  0.2914  1.4821 -0.8221
 1322SOL     OW15598   1.268   0.836   0.764 -0.8927 -0.1345  0.6317
 1322SOL    HW115599   1.325   0.834   0.841 -0.2450  0.4247  0.1640
 1322SOL    HW215600   1.228   0.752   0.785  1.4815 -0.8823  2.2422
 1323SOL     OW15601   0.729   2.467  14.207  0.1110 -0.0250  0.1781
 1323SOL    HW115602   0.669   2.512  14.147  1.6520  1.6954 -0.0637
 1323SOL    HW215603   0.665   2.459  14.278  0.8191  0.9317  0.9184
 1324SOL     OW15604   0.882   2.489   3.634 -0.4139 -0.1859 -0.1864
 1324SOL    HW115605   0.975   2.471   3.620 -0.2526 -0.4093  1.2105
 1324SOL    HW215606   0.892   2.515   3.726  2.4351  1.7550 -1.0326
 1325SOL     OW15607   2.250   0.342  15.754 -0.2566 -0.2395 -0.0824
 1325SOL    HW115608   2.212   0.261  15.786  0.3159 -0.0883  1.0189
 1325SOL    HW215609   2.189   0.409  15.786  0.1286 -0.5273  1.2808
 1326SOL     OW15610   0.097   1.112  16.929  0.1135 -0.3594  0.0751
 1326SOL    HW115611   0.099   1.172  17.004  0.3882 -0.5799  0.2459
 1326SOL    HW215612   0.126   1.172  16.860 -0.1719 -0.2826  0.0226
 1327SOL     OW15613   2.736   3.436   7.526  0.4569 -0.0738 -0.1080
 1327SOL    HW115614   2.675   3.506   7.501 -1.4323 -1.4567  0.6091
 1327SOL    HW215615   2.713   3.423   7.618  0.9974  1.5416  0.2651
 1328SOL     OW15616   1.382   3.944   7.610  0.6216  0.6507  0.2584
 1328SOL    HW115617   1.457   3.956   7.668  0.4224  1.2577  0.4018
 1328SOL    HW215618   1.336   4.016   7.653 -1.5379  0.5573 -1.8497
 1329SOL     OW15619   2.177   1.384   8.385 -0.1205 -0.0407 -0.1681
 1329SOL    HW115620   2.231   1.305   8.375 -1.3486 -0.5728 -2.4123
 1329SOL    HW215621   2.101   1.361   8.332 -0.1936  1.3202 -0.6401
 1330SOL     OW15622   0.928   4.306  16.017 -0.6493 -0.2394 -0.2171
 1330SOL    HW115623   1.021   4.289  16.029 -0.7211 -2.0281 -2.2766
 1330SOL    HW215624   0.893   4.297  16.106  1.2290 -2.5112  0.2562
 1331SOL     OW15625   2.243   1.063   3.045 -0.2510 -0.2172 -0.1601
 1331SOL    HW115626   2.276   1.123   3.112  0.5495 -0.4598 -0.3375
 1331SOL    HW215627   2.197   1.005   3.105 -0.4921  0.0290 -0.1107
 1332SOL     OW15628   2.005   2.809  10.354  0.6896  0.0598 -0.2809
 1332SOL    HW115629   1.982   2.716  10.356 -0.5451  0.4012  1.0841
 1332SOL    HW215630   2.013   2.822  10.260  1.1842 -1.0995 -0.4054
 1333SOL     OW15631   0.726   3.444   8.815 -0.1232  0.0625 -0.1895
 1333SOL    HW115632   0.782   3.377   8.776  0.5713  0.9215 -0.6777
 1333SOL    HW215633   0.750   3.440   8.907  0.9200 -0.8466 -0.4998
 1334SOL     OW15634   0.483   0.780   6.440 -0.0156 -0.0988  0.8301
 1334SOL    HW115635   0.461   0.835   6.515 -1.5776  0.8146 -0.3131
 1334SOL    HW215636   0.543   0.839   6.394 -0.9605  0.2031 -0.0137
 1335SOL     OW15637   2.034   0.145   2.908  0.4131  0.5030  0.1072
 1335SOL    HW115638   2.124   0.178   2.917  0.0368  0.9994  2.0092
 1335SOL    HW215639   2.054   0.053   2.923 -0.0584  0.5129  0.8149
 1336SOL     OW15640   1.906   2.468   4.897  0.2191 -0.5835 -0.1379
 1336SOL    HW115641   1.867   2.457   4.984  0.7284  2.0522  0.4372
 1336SOL    HW215642   1.902   2.375   4.874 -0.2757 -0.8895  1.2118
 1337SOL     OW15643   3.357   3.713   7.846  0.1656  0.0092  0.5928
 1337SOL    HW115644   3.381   3.621   7.852  2.0298  0.3992 -0.8864
 1337SOL    HW215645   3.316   3.727   7.931 -0.0736 -2.0274  0.8062
 1338SOL     OW15646   1.054   4.422   4.854  0.4449 -0.2588 -0.0405
 1338SOL    HW115647   1.114   4.444   4.783  0.9862  1.2574  0.8756
 1338SOL    HW215648   0.974   4.415   4.803 -1.6014  3.4359  2.6434
 1339SOL     OW15649   4.168   1.773   2.927 -0.2761 -0.7481  0.3052
 1339SOL    HW115650   4.170   1.678   2.941 -2.5843 -0.4628  2.5217
 1339SOL    HW215651   4.081   1.769   2.888 -0.0286 -1.8046 -0.1467
 1340SOL     OW15652   2.478   3.032   2.303 -0.6131  0.4786  0.0667
 1340SOL    HW115653   2.484   3.053   2.396 -1.2561 -1.8235  0.6151
 1340SOL    HW215654   2.459   3.122   2.273 -0.0022 -0.3171 -2.6843
 1341SOL     OW15655   4.247   1.541   4.688  0.2847  0.8358  0.3012
 1341SOL    HW115656   4.211   1.580   4.768  1.0490  1.9109  0.1173
 1341SOL    HW215657   4.269   1.617   4.635  2.7259  0.3019  0.5707
 1342SOL     OW15658   0.226   4.330   9.491 -0.8519 -0.1894 -0.1343
 1342SOL    HW115659   0.216   4.326   9.395  1.2913 -1.4775 -0.2910
 1342SOL    HW215660   0.317   4.301   9.490 -0.8657 -0.2805  1.4880
 1343SOL     OW15661   2.814   3.577   5.343  0.0530  0.3341  0.2143
 1343SOL    HW115662   2.728   3.602   5.309 -0.1652  0.0766  0.5743
 1343SOL    HW215663   2.852   3.662   5.364  0.5723 -0.3730  2.1433
 1344SOL     OW15664   0.969   3.339   8.663  0.0029 -0.5534 -0.4490
 1344SOL    HW115665   0.956   3.395   8.586  0.3920 -1.2786 -1.0434
 1344SOL    HW215666   1.065   3.342   8.664  0.0230 -1.2529 -0.8727
 1345SOL     OW15667   0.247   4.396   7.108  0.1974 -0.0241  0.5465
 1345SOL    HW115668   0.229   4.487   7.132 -1.0253  0.1221 -0.9328
 1345SOL    HW215669   0.340   4.376   7.106  0.1293 -0.2843 -0.1231
 1346SOL     OW15670   0.021   1.163  10.242  0.0103  0.5093 -0.2771
 1346SOL    HW115671   4.661   1.143  10.241  0.8610 -3.3477 -3.0496
 1346SOL    HW215672   0.028   1.197  10.153  2.0816  1.1985  0.1606
 1347SOL     OW15673   1.625   4.500   9.099  0.7090 -0.3038 -0.3525
 1347SOL    HW115674   1.687   4.437   9.064  1.2756  0.2984 -0.4350
 1347SOL    HW215675   1.550   4.446   9.124  1.1793 -0.9572 -0.3752
 1348SOL     OW15676   2.029   0.349  13.943  0.1196  0.4867  0.4437
 1348SOL    HW115677   2.086   0.328  13.870 -1.5081  1.2080 -1.0152
 1348SOL    HW215678   2.006   0.439  13.919 -0.4555  0.1547 -0.2353
 1349SOL     OW15679   4.710   1.712  11.334  0.3015 -0.3963  0.0435
 1349SOL    HW115680   4.695   1.689  11.425  0.9669  0.3788  0.3413
 1349SOL    HW215681   0.030   1.789  11.345 -0.8415  0.2328  1.3013
 1350SOL     OW15682   4.072   3.197   7.780 -0.5499 -0.2482 -0.4801
 1350SOL    HW115683   4.063   3.209   7.874  0.2075  0.5872 -0.5115
 1350SOL    HW215684   4.046   3.278   7.735  0.0528 -0.2392 -0.8173
 1351SOL     OW15685   3.244   4.437   1.295  0.3935 -0.0974 -0.2052
 1351SOL    HW115686   3.318   4.486   1.332  1.4516 -1.7299 -0.1885
 1351SOL    HW215687   3.267   4.445   1.202  3.0016 -0.5165  0.4131
 1352SOL     OW15688   0.944   1.519   7.554  0.4409  0.1311 -0.3640
 1352SOL    HW115689   1.029   1.557   7.534  0.9180 -0.6762  0.1470
 1352SOL    HW215690   0.947   1.531   7.649 -0.6989 -0.1729 -0.2910
 1353SOL     OW15691   4.142   4.600   2.860 -0.0250 -0.0278  0.3872
 1353SOL    HW115692   4.219   4.585   2.805 -0.6884  0.3332 -0.6198
 1353SOL    HW215693   4.080   4.577   2.792  1.3577  1.3594 -1.3253
 1354SOL     OW15694   4.340   1.557   1.619 -0.3713 -0.3617  0.2354
 1354SOL    HW115695   4.309   1.614   1.689 -0.6376  0.1794 -0.3254
 1354SOL    HW215696   4.359   1.483   1.676  1.4182  1.3806  1.8859
 1355SOL     OW15697   0.453   1.295   3.186 -0.7317  0.7423 -0.5958
 1355SOL    HW115698   0.358   1.297   3.194 -0.8817 -0.5957 -2.0159
 1355SOL    HW215699   0.470   1.228   3.120 -1.3724  2.2219 -2.2857
 1356SOL     OW15700   3.471   1.031  12.402  0.2623  0.1219 -0.5505
 1356SOL    HW115701   3.547   0.986  12.365  1.6641  2.0408 -0.0175
 1356SOL    HW215702   3.485   1.123  12.378  0.4559  0.5170  1.1320
 1357SOL     OW15703   2.993   2.847  10.100  0.3986 -0.0309 -0.5969
 1357SOL    HW115704   3.038   2.885  10.025 -0.8045  1.3742 -0.6029
 1357SOL    HW215705   2.998   2.753  10.087 -0.4335  0.0526 -1.5047
 1358SOL     OW15706   1.286   3.890   9.392 -0.0274  0.0278 -0.1094
 1358SOL    HW115707   1.277   3.838   9.472 -1.9728  0.9099  0.2284
 1358SOL    HW215708   1.279   3.981   9.420 -0.3504  0.9734 -3.3037
 1359SOL     OW15709   2.926   3.204   6.930 -0.2478 -0.4914  0.5446
 1359SOL    HW115710   2.844   3.203   6.980 -1.5153 -0.3249 -1.5343
 1359SOL    HW215711   2.897   3.181   6.842 -2.2496  2.1264  0.5055
 1360SOL     OW15712   2.599   0.813   7.769  0.3760 -0.3085 -0.1236
 1360SOL    HW115713   2.558   0.735   7.732  0.9961 -0.0895 -1.2530
 1360SOL    HW215714   2.522   0.869   7.776  0.1452 -0.5792 -0.5532
 1361SOL     OW15715   0.250   0.809   5.119  0.2633 -0.3654  0.4380
 1361SOL    HW115716   0.265   0.902   5.137 -1.5509 -0.2462  1.3246
 1361SOL    HW215717   0.213   0.779   5.202 -1.2413  2.5014  0.8205
 1362SOL     OW15718   0.561   0.594  15.829 -0.1065  0.0033 -0.2347
 1362SOL    HW115719   0.467   0.588  15.815 -0.1426 -0.5978  0.2679
 1362SOL    HW215720   0.580   0.687  15.819 -2.2581  0.3434 -1.0349
 1363SOL     OW15721   2.248   2.886   3.210 -0.3177  0.2101 -0.3122
 1363SOL    HW115722   2.207   2.963   3.249  3.5258  1.4104  1.3163
 1363SOL    HW215723   2.268   2.915   3.121  1.3645  0.4269  0.1467
 1364SOL     OW15724   0.974   3.600   5.885  0.2913  0.3436 -0.1219
 1364SOL    HW115725   1.003   3.669   5.825  2.7106  1.7558  2.6733
 1364SOL    HW215726   1.045   3.538   5.866  0.8885  1.3524 -1.2053
 1365SOL     OW15727   2.287   4.259   2.571  0.2403  0.1942  0.2779
 1365SOL    HW115728   2.208   4.255   2.518 -0.5359  1.5200  1.3195
 1365SOL    HW215729   2.323   4.173   2.551  0.7887  1.0439 -2.3140
 1366SOL     OW15730   4.685   0.772  10.163  0.3435  0.7042 -0.4621
 1366SOL    HW115731   0.026   0.776  10.222  0.6741  0.5404 -0.8738
 1366SOL    HW215732   4.719   0.774  10.074  0.6226  0.4448 -0.3614
 1367SOL     OW15733   3.053   1.710   8.394 -0.0889  0.2628 -0.1167
 1367SOL    HW115734   3.041   1.619   8.369  0.9256  0.2706 -0.6473
 1367SOL    HW215735   3.146   1.709   8.417 -0.1008 -0.4692 -0.0996
 1368SOL     OW15736   4.270   3.884   8.159  0.0642  0.3110  0.3945
 1368SOL    HW115737   4.213   3.941   8.110 -1.4275 -1.9388 -0.4832
 1368SOL    HW215738   4.217   3.806   8.176  0.1525  0.1973  0.1447
 1369SOL     OW15739   2.995   2.013  15.074 -0.2418 -0.0297 -0.5696
 1369SOL    HW115740   3.032   1.943  15.019  3.4710  2.0274 -0.6924
 1369SOL    HW215741   2.941   1.955  15.128  1.7574 -0.2504  1.2318
 1370SOL     OW15742   4.164   0.920   2.739  0.4120 -0.0197  0.7463
 1370SOL    HW115743   4.221   0.992   2.766 -1.3573  2.2086 -1.4542
 1370SOL    HW215744   4.219   0.845   2.761 -0.9135 -0.4759  2.5640
 1371SOL     OW15745   3.987   2.436  17.535  0.2300  0.0929  0.3813
 1371SOL    HW115746   4.055   2.504  17.538 -1.1339  1.5127 -0.7036
 1371SOL    HW215747   3.970   2.436  17.441 -1.2070 -0.4569  0.6493
 1372SOL     OW15748   2.810   0.821  16.084 -0.1271  0.0315 -0.4199
 1372SOL    HW115749   2.865   0.746  16.062 -0.8293 -0.4795 -0.4546
 1372SOL    HW215750   2.751   0.818  16.008 -0.2024  0.3871 -0.3744
 1373SOL     OW15751   3.240   1.506   9.074 -0.0139 -0.3788  0.8293
 1373SOL    HW115752   3.219   1.414   9.086 -0.4747 -0.4100 -0.1790
 1373SOL    HW215753   3.298   1.531   9.146 -0.9019 -1.5790  1.9576
 1374SOL     OW15754   1.177   2.087   7.833 -0.0920  0.1140 -0.4338
 1374SOL    HW115755   1.233   2.145   7.783  0.6261  0.3062  0.5998
 1374SOL    HW215756   1.241   2.026   7.870 -0.9303 -0.1924  0.5443
 1375SOL     OW15757   0.957   0.580   7.692  0.6700  0.3379 -0.8398
 1375SOL    HW115758   0.906   0.656   7.720 -0.7963 -0.6430 -0.8596
 1375SOL    HW215759   0.928   0.517   7.758 -1.5869 -0.2756 -2.4343
 1376SOL     OW15760   3.119   2.723   6.462 -0.0054 -0.3161 -0.5514
 1376SOL    HW115761   3.160   2.677   6.536 -0.7806 -0.1672 -0.0255
 1376SOL    HW215762   3.108   2.653   6.397 -2.0982  0.2344 -0.8013
 1377SOL     OW15763   4.452   0.621   5.426 -0.2814  0.4757  0.0557
 1377SOL    HW115764   4.491   0.707   5.442  1.0071 -0.1021  0.0489
 1377SOL    HW215765   4.528   0.562   5.427 -1.3813 -0.9684 -0.7544
 1378SOL     OW15766   4.435   4.685   6.975  0.7211  1.2611 -0.3236
 1378SOL    HW115767   4.365   4.701   7.038  0.4194  0.3714 -0.4266
 1378SOL    HW215768   4.495   4.631   7.026  0.6610  0.2101 -1.3590
 1379SOL     OW15769   0.837   1.964   7.302 -0.1766  1.0468 -0.3657
 1379SOL    HW115770   0.838   1.980   7.207 -1.6374  2.4550 -0.1535
 1379SOL    HW215771   0.743   1.960   7.317  0.2685  1.1729  2.4303
 1380SOL     OW15772   1.477   0.406   6.871  0.6069  0.3688 -0.1103
 1380SOL    HW115773   1.544   0.341   6.850 -0.5997 -0.7799 -0.3999
 1380SOL    HW215774   1.493   0.473   6.805  0.4867  1.1966  0.7013
 1381SOL     OW15775   3.753   4.058   1.164 -0.0138  0.1998  0.1538
 1381SOL    HW115776   3.710   3.973   1.178 -0.1580  0.1472 -0.6318
 1381SOL    HW215777   3.825   4.037   1.105  0.6143 -1.7090  1.5928
 1382SOL     OW15778   3.374   2.896   3.229 -0.0122 -0.4496 -0.4808
 1382SOL    HW115779   3.348   2.807   3.254 -0.7542  0.4892  2.0459
 1382SOL    HW215780   3.406   2.932   3.311  0.5865  2.3132 -1.9294
 1383SOL     OW15781   0.448   3.784   7.202  0.1438  0.2402  0.7502
 1383SOL    HW115782   0.478   3.863   7.156  1.7141  0.3222  1.8988
 1383SOL    HW215783   0.376   3.759   7.145  0.7645 -0.6147  0.3345
 1384SOL     OW15784   3.663   2.944  11.388 -0.0378  0.4456  0.3823
 1384SOL    HW115785   3.724   2.958  11.315  0.2656 -2.2982  0.1393
 1384SOL    HW215786   3.578   2.929  11.346 -1.3505  4.0852  1.7167
 1385SOL     OW15787   3.782   4.203  16.832 -0.6823  0.7526 -0.1663
 1385SOL    HW115788   3.686   4.194  16.836 -0.4748 -1.2707 -0.0401
 1385SOL    HW215789   3.800   4.225  16.741 -1.8559 -0.2178 -0.6390
 1386SOL     OW15790   3.934   1.782   6.568 -0.0963 -0.0687 -0.3515
 1386SOL    HW115791   3.859   1.796   6.510  0.0525 -0.2170 -0.5803
 1386SOL    HW215792   3.900   1.804   6.655  0.2898 -0.8940 -0.0003
 1387SOL     OW15793   2.751   1.465   4.393 -0.3496  0.1253 -0.9776
 1387SOL    HW115794   2.837   1.425   4.380 -0.7541 -0.8261 -0.7452
 1387SOL    HW215795   2.769   1.483   4.485 -2.7730  2.2864 -0.9269
 1388SOL     OW15796   0.775   2.513  16.035 -0.7093  0.6282 -0.0302
 1388SOL    HW115797   0.703   2.455  16.061  0.0521 -0.7731 -1.0658
 1388SOL    HW215798   0.741   2.603  16.034  0.3210  1.0236  0.4541
 1389SOL     OW15799   2.112   3.304   7.297  0.0058 -0.3714  0.0944
 1389SOL    HW115800   2.186   3.244   7.287  0.0534  0.3208 -3.7140
 1389SOL    HW215801   2.115   3.335   7.387  0.8850 -2.3673  0.7433
 1390SOL     OW15802   2.005   2.432   6.382 -0.5956 -0.0017  0.3007
 1390SOL    HW115803   2.011   2.356   6.325  0.9615 -1.1467  1.9783
 1390SOL    HW215804   1.932   2.476   6.339  0.2022  1.7936  0.7597
 1391SOL     OW15805   1.733   1.503   4.535  0.3416 -0.4157  0.4412
 1391SOL    HW115806   1.676   1.508   4.458 -0.2751 -1.7039  0.8057
 1391SOL    HW215807   1.795   1.436   4.506  3.1694  1.6973  1.5892
 1392SOL     OW15808   2.715   1.663  16.086  0.2938 -0.0252  0.9239
 1392SOL    HW115809   2.807   1.643  16.105  0.5439  0.6058  0.3965
 1392SOL    HW215810   2.733   1.687  15.995  1.5094 -2.0608  0.6273
 1393SOL     OW15811   2.634   3.523   2.421  0.3107 -0.2690  0.3601
 1393SOL    HW115812   2.697   3.502   2.490  0.3848  0.6757  0.5808
 1393SOL    HW215813   2.673   3.601   2.383  3.0793 -1.5320  0.6118
 1394SOL     OW15814   1.217   2.494   4.688 -0.2290 -0.1963  0.0303
 1394SOL    HW115815   1.158   2.439   4.739 -0.6374  1.0054  0.8443
 1394SOL    HW215816   1.230   2.565   4.750 -2.2188  0.7515 -0.6643
 1395SOL     OW15817   3.606   1.670  12.490  0.2691  0.5017 -0.8220
 1395SOL    HW115818   3.630   1.730  12.420  0.5446  0.8263 -0.4526
 1395SOL    HW215819   3.514   1.681  12.514  0.0089 -3.2469 -0.0963
 1396SOL     OW15820   1.263   2.119   4.622 -0.0663  0.2517 -0.0595
 1396SOL    HW115821   1.179   2.156   4.595  0.7220  0.1846 -2.5607
 1396SOL    HW215822   1.301   2.102   4.536  0.6037 -2.9620  0.8898
 1397SOL     OW15823   2.043   1.912   6.473 -0.0134 -0.7865 -0.4329
 1397SOL    HW115824   1.976   1.947   6.415  1.6590  2.1342 -0.6026
 1397SOL    HW215825   2.070   1.825   6.442  0.1081 -0.1925 -1.9989
 1398SOL     OW15826   1.218   4.043   5.853 -0.2856 -0.0676 -0.4278
 1398SOL    HW115827   1.288   3.983   5.878  0.2197  0.3562 -0.8247
 1398SOL    HW215828   1.142   4.009   5.900 -0.4988  0.0734 -0.6729
 1399SOL     OW15829   1.471   3.302   9.573  0.1505  0.7189 -0.2836
 1399SOL    HW115830   1.540   3.268   9.630 -1.0350  0.2911  0.9001
 1399SOL    HW215831   1.469   3.394   9.599 -2.0433  0.9994 -1.3925
 1400SOL     OW15832   2.512   0.793   5.531 -0.0539 -0.6195 -0.2539
 1400SOL    HW115833   2.499   0.873   5.582  0.0685 -0.6001 -0.2549
 1400SOL    HW215834   2.589   0.749   5.566  0.2412  0.5473  0.5475
 1401SOL     OW15835   2.042   1.851  10.867  0.3693 -0.5013 -0.0529
 1401SOL    HW115836   2.134   1.865  10.890  0.4591 -1.6950  0.2980
 1401SOL    HW215837   2.051   1.793  10.792  1.1675 -0.1746 -0.2048
 1402SOL     OW15838   4.610   2.431  16.476 -0.4834  0.1779  0.0483
 1402SOL    HW115839   4.559   2.469  16.404 -2.0723 -1.3766  0.3455
 1402SOL    HW215840   4.602   2.339  16.451 -3.2068 -0.0993  1.9497
 1403SOL     OW15841   1.461   1.236  17.081  0.2940 -0.1985  0.1688
 1403SOL    HW115842   1.458   1.161  17.021 -0.5707  0.3277 -0.4362
 1403SOL    HW215843   1.554   1.251  17.099 -0.2791  1.1475  1.9974
 1404SOL     OW15844   2.799   4.665   8.363  0.1448  0.2084  0.4567
 1404SOL    HW115845   2.798   4.573   8.387 -1.8251  0.7397  2.3985
 1404SOL    HW215846   2.890   4.685   8.383  0.3764 -1.4451  1.0547
 1405SOL     OW15847   1.290   0.635   2.862 -0.3505 -0.2515  0.3667
 1405SOL    HW115848   1.216   0.601   2.913  0.1604  0.1912  1.4197
 1405SOL    HW215849   1.290   0.591   2.777  0.3721 -1.1061  0.8099
 1406SOL     OW15850   2.178   1.920  14.973  0.1864 -0.2783 -0.0700
 1406SOL    HW115851   2.112   1.926  14.904  0.7018  1.1718 -0.4563
 1406SOL    HW215852   2.252   1.883  14.924  1.7130 -1.1109  2.8954
 1407SOL     OW15853   3.215   3.363   1.088  0.2930 -0.2794 -0.0728
 1407SOL    HW115854   3.153   3.420   1.134  2.1499  0.2718  1.7443
 1407SOL    HW215855   3.289   3.382   1.145  0.3865  0.2894 -0.3854
 1408SOL     OW15856   4.565   1.993   7.567  0.0073  0.4221 -0.1903
 1408SOL    HW115857   4.530   2.038   7.643 -0.0176  4.0563 -2.3678
 1408SOL    HW215858   4.610   2.062   7.519 -0.3756  0.8447  0.0603
 1409SOL     OW15859   4.519   1.755   9.876 -0.4739  0.2143  0.2104
 1409SOL    HW115860   4.471   1.798   9.947  1.3454 -1.7839  2.6427
 1409SOL    HW215861   4.565   1.687   9.925 -1.0144  0.0498  0.4919
 1410SOL     OW15862   0.659   2.610  13.197  0.0823 -0.2842 -0.0926
 1410SOL    HW115863   0.627   2.690  13.241 -0.1521 -1.0545  1.1547
 1410SOL    HW215864   0.753   2.625  13.204  0.1811 -0.1790 -1.6861
 1411SOL     OW15865   4.272   4.369   8.704  0.2877 -0.0934  0.2391
 1411SOL    HW115866   4.201   4.426   8.733  0.8942 -0.0804  1.6890
 1411SOL    HW215867   4.347   4.428   8.703 -1.0621  1.5849 -1.7333
 1412SOL     OW15868   4.440   4.505  15.629 -0.4946 -0.0672 -0.1941
 1412SOL    HW115869   4.380   4.487  15.701  0.3761  0.6990  0.7244
 1412SOL    HW215870   4.390   4.573  15.585 -1.8198  0.3504  1.9883
 1413SOL     OW15871   1.275   2.294  16.440 -0.5735  0.6118 -0.0044
 1413SOL    HW115872   1.295   2.205  16.469 -0.5057  0.6345  0.0196
 1413SOL    HW215873   1.228   2.274  16.359 -1.0263  4.2368 -0.6167
 1414SOL     OW15874   4.437   3.818  14.069 -0.4306 -0.6750 -0.1450
 1414SOL    HW115875   4.532   3.803  14.076 -0.0932  2.5857  1.8179
 1414SOL    HW215876   4.415   3.735  14.112 -2.5997 -0.2645 -0.4645
 1415SOL     OW15877   0.727   0.895   1.126 -0.5738 -0.2546  0.1894
 1415SOL    HW115878   0.722   0.903   1.031  0.4253 -3.2161 -0.1003
 1415SOL    HW215879   0.745   0.802   1.134 -0.2967 -0.1920  0.2670
 1416SOL     OW15880   1.887   2.073  14.282  0.1342  0.1740  0.4043
 1416SOL    HW115881   1.926   2.021  14.212  1.4729  1.4764  0.1661
 1416SOL    HW215882   1.904   2.013  14.355  0.6333  0.3411  0.4245
 1417SOL     OW15883   2.111   0.412   4.900 -0.5717 -0.8011  0.0662
 1417SOL    HW115884   2.051   0.379   4.833  0.3397 -1.7949 -0.2799
 1417SOL    HW215885   2.184   0.350   4.896 -0.6934 -0.9892  0.8451
 1418SOL     OW15886   3.093   1.614   4.563 -0.4661  0.4953  0.3761
 1418SOL    HW115887   3.176   1.571   4.544 -0.5211  0.5946 -0.0926
 1418SOL    HW215888   3.038   1.536   4.562  0.5743 -0.2124 -0.7617
 1419SOL     OW15889   1.988   3.832   6.696  0.9924 -0.0940  0.5452
 1419SOL    HW115890   1.991   3.852   6.603  2.0096  2.3034  1.0976
 1419SOL    HW215891   2.056   3.765   6.705  0.5148 -0.5679  0.6192
 1420SOL     OW15892   3.754   4.410   5.566  0.1785  0.0643 -0.1903
 1420SOL    HW115893   3.681   4.394   5.626 -0.5185 -0.2287 -1.1060
 1420SOL    HW215894   3.805   4.332   5.587 -0.2318 -0.0732  0.2925
 1421SOL     OW15895   2.146   3.254   5.513 -0.3325 -0.1483  0.3818
 1421SOL    HW115896   2.105   3.169   5.526  0.9926 -0.9388 -0.6541
 1421SOL    HW215897   2.118   3.277   5.425  1.1114  1.5688  0.3571
 1422SOL     OW15898   0.827   1.850   7.548 -0.0377 -0.2707  0.1999
 1422SOL    HW115899   0.850   1.886   7.463  0.0127 -3.2161 -1.0115
 1422SOL    HW215900   0.911   1.862   7.591 -1.5263  1.9066  2.5122
 1423SOL     OW15901   2.540   0.291  16.792 -0.7682 -0.2765  0.0622
 1423SOL    HW115902   2.455   0.255  16.817 -0.8875  1.8460  2.7390
 1423SOL    HW215903   2.531   0.370  16.844  1.0661  0.5920 -0.9207
 1424SOL     OW15904   2.779   2.226  16.421  0.1506 -0.3876 -0.4095
 1424SOL    HW115905   2.850   2.168  16.393  1.1105 -0.2328  1.6795
 1424SOL    HW215906   2.700   2.173  16.415  0.1466 -0.6878  2.1685
 1425SOL     OW15907   1.317   0.080   9.166 -0.4451 -0.0196  0.0602
 1425SOL    HW115908   1.284   0.087   9.076  0.9330 -0.2898 -0.4633
 1425SOL    HW215909   1.310   0.168   9.201 -0.4661 -0.5111  1.2837
 1426SOL     OW15910   3.110   4.439  17.515 -0.0410  0.3320  0.0443
 1426SOL    HW115911   3.095   4.520  17.468  2.2336 -0.1631 -1.5629
 1426SOL    HW215912   3.058   4.458  17.594 -1.5837  0.1292 -0.9204
 1427SOL     OW15913   3.525   1.299   4.192 -0.2237  0.3888 -0.4707
 1427SOL    HW115914   3.531   1.335   4.104 -0.2198 -2.3428 -1.5917
 1427SOL    HW215915   3.437   1.315   4.227 -0.4266  0.1047 -0.8563
 1428SOL     OW15916   0.059   0.355   2.431 -0.4550 -0.4545 -0.2872
 1428SOL    HW115917   0.033   0.265   2.414 -1.1036 -0.3183 -0.0081
 1428SOL    HW215918   0.133   0.357   2.370 -1.3610 -0.5076 -1.3849
 1429SOL     OW15919   3.958   2.548   2.695 -0.6845 -0.5362  0.1734
 1429SOL    HW115920   3.905   2.626   2.711  0.1841  0.4747 -1.8825
 1429SOL    HW215921   3.921   2.490   2.761  0.0474 -2.1343 -0.8175
 1430SOL     OW15922   2.925   4.372  17.187 -0.2773  0.1120 -0.6010
 1430SOL    HW115923   2.974   4.290  17.191 -2.4350 -1.1228  0.3259
 1430SOL    HW215924   2.992   4.426  17.144  0.9135  0.6279  1.9084
 1431SOL     OW15925   0.238   0.917   3.956 -0.7325  0.1089 -0.0384
 1431SOL    HW115926   0.151   0.912   3.995 -0.1668  2.0390  1.5073
 1431SOL    HW215927   0.241   0.837   3.905 -1.0659  1.3993 -2.0540
 1432SOL     OW15928   1.116   3.157  10.146  0.1313 -0.2891  0.2217
 1432SOL    HW115929   1.078   3.238  10.179  2.5495  1.0718 -0.2977
 1432SOL    HW215930   1.208   3.182  10.158  0.2729 -0.8108  0.2152
 1433SOL     OW15931   0.134   2.220   9.463  0.1687  0.1964  0.5856
 1433SOL    HW115932   0.193   2.158   9.421  0.0118 -1.1873  2.4210
 1433SOL    HW215933   0.082   2.234   9.384 -2.4987  1.7575  2.6105
 1434SOL     OW15934   0.888   0.463  16.537  0.2731 -0.3378 -0.1882
 1434SOL    HW115935   0.868   0.370  16.524  0.1096 -0.2071 -0.8437
 1434SOL    HW215936   0.810   0.493  16.583 -0.1457 -0.0580 -1.0840
 1435SOL     OW15937   2.975   4.240  13.098 -0.4099 -0.0450  0.1342
 1435SOL    HW115938   2.918   4.287  13.159 -0.9979  0.3372 -0.7022
 1435SOL    HW215939   3.030   4.188  13.156  1.3348 -0.6266 -2.0514
 1436SOL     OW15940   1.435   2.465  16.013  0.1381  0.0542 -0.3535
 1436SOL    HW115941   1.465   2.481  15.923  0.2345  1.7757 -0.0043
 1436SOL    HW215942   1.425   2.369  16.011  0.5887 -0.0338  1.7331
 1437SOL     OW15943   0.559   4.613   5.969  0.0548  0.9107 -0.0764
 1437SOL    HW115944   0.476   4.580   6.005  0.3946 -0.2465 -0.3424
 1437SOL    HW215945   0.617   4.584   6.039 -0.6843 -0.8888 -0.1922
 1438SOL     OW15946   4.283   3.918   0.093 -0.0399 -0.8764  0.1889
 1438SOL    HW115947   4.288   4.013   0.086  1.3571 -0.8863  1.1241
 1438SOL    HW215948   4.329   3.894   0.013  1.2820  1.1590  0.3583
 1439SOL     OW15949   3.577   3.459   2.283  0.4685 -0.3457 -0.5431
 1439SOL    HW115950   3.647   3.393   2.289 -0.1172 -0.9723 -0.6974
 1439SOL    HW215951   3.622   3.540   2.308  0.4097  0.3615 -2.7114
 1440SOL     OW15952   4.095   3.804   3.904  0.3998  0.1036  0.4452
 1440SOL    HW115953   4.022   3.858   3.935  2.0527  2.9768 -0.6567
 1440SOL    HW215954   4.117   3.860   3.830  2.3549 -2.6563 -1.0280
 1441SOL     OW15955   3.738   2.443   3.665  0.1604  0.4466 -0.5062
 1441SOL    HW115956   3.750   2.477   3.577  1.0007 -0.0516 -0.5835
 1441SOL    HW215957   3.713   2.354   3.641 -0.7153  0.1611  1.4352
 1442SOL     OW15958   4.005   2.452  12.241 -0.6482  0.1825  0.4300
 1442SOL    HW115959   4.019   2.477  12.149 -0.4691 -0.0270  0.4009
 1442SOL    HW215960   4.022   2.358  12.246  0.8010  0.4829  0.9270
 1443SOL     OW15961   3.306   3.076   5.970 -0.4841  0.4985  0.0875
 1443SOL    HW115962   3.362   3.012   6.014 -2.1200 -1.9361 -1.4126
 1443SOL    HW215963   3.369   3.137   5.931 -1.6295 -0.2348 -2.9229
 1444SOL     OW15964   3.877   2.124  16.142 -0.1797 -0.0618 -0.4278
 1444SOL    HW115965   3.805   2.087  16.091 -0.3477 -1.3323  0.7415
 1444SOL    HW215966   3.916   2.180  16.075  1.2969 -1.0267 -0.3592
 1445SOL     OW15967   4.340   2.171   7.724  0.2422 -0.4843  0.5765
 1445SOL    HW115968   4.273   2.102   7.718 -0.2722  0.2067 -1.4684
 1445SOL    HW215969   4.284   2.228   7.777 -0.7922 -0.5688 -0.4110
 1446SOL     OW15970   4.698   1.370   4.720  0.0348  0.5041  0.8631
 1446SOL    HW115971   4.734   1.370   4.631  1.0265  0.1641  1.2672
 1446SOL    HW215972   4.611   1.338   4.697  0.4211  0.8870 -1.1135
 1447SOL     OW15973   0.103   3.610   4.949  0.2574 -0.6065 -0.1466
 1447SOL    HW115974   0.147   3.679   4.999 -1.4765  1.1756 -1.0664
 1447SOL    HW215975   0.011   3.625   4.971 -0.0864 -0.7381 -1.5016
 1448SOL     OW15976   3.355   4.340   3.823 -0.7388 -0.3206 -0.0832
 1448SOL    HW115977   3.437   4.293   3.808  0.0567  0.8215  0.6655
 1448SOL    HW215978   3.379   4.414   3.879 -0.7237  0.3480 -0.9619
 1449SOL     OW15979   3.329   1.993  12.254  0.8264  0.2523  0.0102
 1449SOL    HW115980   3.316   2.087  12.263 -0.6267  0.1405 -0.8574
 1449SOL    HW215981   3.398   1.972  12.317 -0.7947  1.6923  2.2690
 1450SOL     OW15982   1.839   3.454   2.939 -0.3396 -0.3324 -0.0005
 1450SOL    HW115983   1.885   3.379   2.901  0.4289  0.1536 -0.0221
 1450SOL    HW215984   1.764   3.475   2.883 -1.3757 -0.7614  1.2406
 1451SOL     OW15985   2.937   1.981   2.986  0.6613  0.0232  0.1564
 1451SOL    HW115986   2.868   2.046   2.998 -0.0533 -0.3061 -2.0352
 1451SOL    HW215987   2.925   1.928   3.064 -1.5371  1.4239  0.7678
 1452SOL     OW15988   4.239   4.201  14.548 -0.4038 -0.0224  0.6485
 1452SOL    HW115989   4.278   4.258  14.614 -0.0662 -0.6264  0.9689
 1452SOL    HW215990   4.324   4.171  14.516 -0.3091  0.7805  0.1610
 1453SOL     OW15991   3.791   4.622   5.858 -0.4951  0.4516  0.0402
 1453SOL    HW115992   3.809   4.703   5.811 -1.0881  1.2603  1.1921
 1453SOL    HW215993   3.855   4.560   5.824 -0.2352  2.3433 -2.8625
 1454SOL     OW15994   1.492   2.463  10.447  0.4097 -0.0305 -0.1542
 1454SOL    HW115995   1.467   2.446  10.538  3.1946  0.8985  0.7968
 1454SOL    HW215996   1.407   2.469  10.405  1.5762  1.6719 -2.2624
 1455SOL     OW15997   0.668   2.686   6.976 -0.3236 -0.5156  0.3117
 1455SOL    HW115998   0.717   2.687   6.894  0.6797  1.0974  0.9419
 1455SOL    HW215999   0.740   2.693   7.038 -0.6772  1.8118  0.4280
 1456SOL     OW16000   0.937   3.038   7.999  0.0299  0.4072 -0.2517
 1456SOL    HW116001   0.973   2.982   7.930  0.2004  1.3727 -0.9463
 1456SOL    HW216002   0.896   2.973   8.055  1.2116 -0.9077 -0.9224
 1457SOL     OW16003   4.143   2.755   5.212 -0.3942 -0.2347  0.2740
 1457SOL    HW116004   4.224   2.807   5.214 -0.3422 -0.2066 -3.0938
 1457SOL    HW216005   4.177   2.671   5.243  2.5517  1.6252  2.1094
 1458SOL     OW16006   1.633   0.182   1.034  0.1647 -0.2265  0.0620
 1458SOL    HW116007   1.720   0.178   0.993  0.5455  0.8508  0.7725
 1458SOL    HW216008   1.639   0.124   1.111 -0.5279 -1.8814 -1.1301
 1459SOL     OW16009   3.991   1.774  15.659 -0.0740 -0.4891  0.0829
 1459SOL    HW116010   4.059   1.836  15.687 -0.2833 -0.1009 -0.2653
 1459SOL    HW216011   3.918   1.825  15.626 -0.7748 -1.6503 -0.1348
 1460SOL     OW16012   3.927   4.234   0.474 -0.0716 -0.4424 -0.2783
 1460SOL    HW116013   3.996   4.209   0.413 -0.0004 -2.0222  0.4707
 1460SOL    HW216014   3.895   4.322   0.455  0.7489 -0.4155 -1.5810
 1461SOL     OW16015   1.337   4.054  16.114  0.5594 -0.4025 -0.1822
 1461SOL    HW116016   1.278   4.126  16.095  1.6709  0.0773 -1.8069
 1461SOL    HW216017   1.365   4.027  16.026  2.5078 -0.3132  0.4086
 1462SOL     OW16018   1.153   0.133   3.900  0.2736 -0.4172  0.2223
 1462SOL    HW116019   1.222   0.135   3.833  0.3311 -2.1614  0.2413
 1462SOL    HW216020   1.181   0.190   3.972  2.1264 -0.2056 -0.6646
 1463SOL     OW16021   4.019   1.669   1.304 -0.6448 -0.2008 -0.3692
 1463SOL    HW116022   4.084   1.714   1.359 -0.7165 -1.5902  0.8488
 1463SOL    HW216023   4.032   1.711   1.219  1.0845  0.6071  0.2928
 1464SOL     OW16024   3.766   0.722  13.628 -0.0908  0.0489  0.2823
 1464SOL    HW116025   3.726   0.809  13.625  2.3889  1.2106  0.8215
 1464SOL    HW216026   3.744   0.691  13.716  0.0950  1.6870  0.9044
 1465SOL     OW16027   0.478   2.379   4.811 -0.0844 -0.2684  0.1129
 1465SOL    HW116028   0.403   2.332   4.775  1.4226 -1.5182 -1.3752
 1465SOL    HW216029   0.491   2.306   4.871  1.5294  1.5358  1.9689
 1466SOL     OW16030   2.955   0.123  12.786  0.5175 -0.1746 -0.2329
 1466SOL    HW116031   2.861   0.103  12.786  0.9796 -2.2593  3.9542
 1466SOL    HW216032   2.992   0.043  12.750  0.4924  0.7358 -2.3379
 1467SOL     OW16033   0.363   0.707  13.761 -0.2476  0.0683  0.5200
 1467SOL    HW116034   0.420   0.723  13.686  2.2950 -1.5715  2.0982
 1467SOL    HW216035   0.340   0.615  13.748 -0.2636  0.4218 -1.9470
 1468SOL     OW16036   1.392   3.457   7.796 -0.1077  0.3873  0.3110
 1468SOL    HW116037   1.328   3.523   7.770  0.7871  1.1424 -0.0143
 1468SOL    HW216038   1.337   3.404   7.853 -0.3022  0.1607 -0.0890
 1469SOL     OW16039   4.524   0.725  11.345 -0.1621 -0.3187  0.3953
 1469SOL    HW116040   4.585   0.795  11.324 -2.1955  0.8810 -1.5249
 1469SOL    HW216041   4.453   0.761  11.398 -1.5907 -3.2023  0.4633
 1470SOL     OW16042   0.446   3.619   4.512  0.3298 -0.3193 -0.2065
 1470SOL    HW116043   0.446   3.614   4.607  0.2949 -0.5094 -0.2159
 1470SOL    HW216044   0.533   3.590   4.485  0.4109 -0.8418  0.6205
 1471SOL     OW16045   0.904   0.536   9.593 -0.0777  0.0315 -0.2143
 1471SOL    HW116046   0.987   0.552   9.548  0.0243 -0.6130 -0.2650
 1471SOL    HW216047   0.840   0.552   9.525 -0.1635 -0.5414 -0.2742
 1472SOL     OW16048   3.313   1.511   4.171  0.3375  0.2625  0.6284
 1472SOL    HW116049   3.248   1.572   4.206  2.5611  2.9853 -0.0078
 1472SOL    HW216050   3.383   1.575   4.160 -0.0582  0.8972  1.7383
 1473SOL     OW16051   0.864   0.376   7.864  0.5219 -0.3360  0.0461
 1473SOL    HW116052   0.792   0.406   7.919  0.3073  3.1531 -2.1545
 1473SOL    HW216053   0.812   0.321   7.806  0.1597 -2.0606  2.0079
 1474SOL     OW16054   1.784   4.375  16.015 -0.3310  0.3444 -0.2164
 1474SOL    HW116055   1.718   4.378  16.084  0.8164 -1.8128  0.9566
 1474SOL    HW216056   1.742   4.341  15.936 -0.1715 -0.2450 -0.0445
 1475SOL     OW16057   0.900   3.071  13.772 -0.4314 -0.3668 -0.6480
 1475SOL    HW116058   0.887   2.976  13.766  1.6711 -0.8791  2.8042
 1475SOL    HW216059   0.881   3.081  13.865  3.3632  1.3512 -0.0575
 1476SOL     OW16060   4.262   2.250   5.454 -0.0075  0.2690  0.0260
 1476SOL    HW116061   4.203   2.236   5.528  1.3665  3.1902  1.6571
 1476SOL    HW216062   4.280   2.157   5.439  1.5030  0.5023  0.4437
 1477SOL     OW16063   2.377   4.534   2.169 -0.1317 -0.3690  0.0194
 1477SOL    HW116064   2.467   4.567   2.171 -0.3060  0.0390  1.6158
 1477SOL    HW216065   2.391   4.440   2.156 -2.0564 -0.5129 -0.9466
 1478SOL     OW16066   0.260   4.043  10.250 -0.0731  0.3398 -0.0849
 1478SOL    HW116067   0.354   4.028  10.241 -0.3275 -0.4286 -1.4166
 1478SOL    HW216068   0.234   3.966  10.300 -1.2175  0.9372  0.2472
 1479SOL     OW16069   3.102   3.047   4.618 -0.7792 -0.2459 -0.0285
 1479SOL    HW116070   3.099   3.057   4.713 -3.0984  4.9030 -0.6408
 1479SOL    HW216071   3.011   3.041   4.589 -1.6996  1.5027  2.5006
 1480SOL     OW16072   4.675   4.470   7.584  0.6013  0.6536  0.2246
 1480SOL    HW116073   4.730   4.471   7.662  0.0164 -0.3438  0.6495
 1480SOL    HW216074   4.601   4.417   7.614  0.3677  1.2274  0.6541
 1481SOL     OW16075   1.721   2.274   8.679 -0.1812  0.1899  0.8311
 1481SOL    HW116076   1.813   2.247   8.682 -0.1591  0.0721 -0.8837
 1481SOL    HW216077   1.673   2.191   8.679 -0.9780  0.6489 -0.3256
 1482SOL     OW16078   0.323   0.601   8.530  0.1716  0.0373 -0.3336
 1482SOL    HW116079   0.314   0.693   8.506 -0.9412 -0.1182 -0.5095
 1482SOL    HW216080   0.320   0.614   8.624  0.3050  0.7702 -0.4301
 1483SOL     OW16081   1.824   0.072  16.372 -0.0691 -0.1341 -0.8647
 1483SOL    HW116082   1.787   0.161  16.370  0.3644  0.0137 -2.0371
 1483SOL    HW216083   1.918   0.082  16.360  0.3324  1.1287  3.1152
 1484SOL     OW16084   2.320   3.635   8.401  0.4086  0.5726  0.1338
 1484SOL    HW116085   2.228   3.663   8.403  0.6817  1.7136 -2.7987
 1484SOL    HW216086   2.364   3.707   8.356  0.2182  0.0634 -0.8814
 1485SOL     OW16087   1.006   0.029  16.443 -0.4010  0.0349  0.3605
 1485SOL    HW116088   1.101   0.033  16.431 -0.3868 -3.8876 -0.8035
 1485SOL    HW216089   0.967   0.077  16.370 -0.2916 -1.8151 -0.9421
 1486SOL     OW16090   3.491   2.615   5.940  0.0048 -0.0502 -0.2036
 1486SOL    HW116091   3.448   2.686   5.892 -0.2122 -0.1174 -0.1120
 1486SOL    HW216092   3.443   2.627   6.022  0.2789 -3.7140  0.5087
 1487SOL     OW16093   0.181   3.001   5.764 -0.6307  0.0002 -0.3522
 1487SOL    HW116094   0.257   3.041   5.722  0.2879 -1.2926  0.1149
 1487SOL    HW216095   0.213   2.964   5.846 -0.9992  0.9204  0.2174
 1488SOL     OW16096   4.393   2.816   2.714  0.0271  0.3801 -0.0255
 1488SOL    HW116097   4.358   2.878   2.778 -0.2633  0.4089 -0.2090
 1488SOL    HW216098   4.475   2.786   2.754 -1.8920 -3.5341  0.9531
 1489SOL     OW16099   1.833   2.925   6.811 -0.4533  0.2653 -1.3627
 1489SOL    HW116100   1.867   2.910   6.723  0.8260  0.9572 -0.9764
 1489SOL    HW216101   1.789   3.009   6.799 -0.8085  0.0797 -1.3814
 1490SOL     OW16102   1.015   3.709   7.658 -0.6040 -0.0354  0.0575
 1490SOL    HW116103   0.933   3.673   7.692 -0.7215  0.3605  0.1923
 1490SOL    HW216104   1.007   3.687   7.565 -0.2086 -2.0647  0.5024
 1491SOL     OW16105   4.233   0.744   5.740 -0.2555  0.3561  0.2599
 1491SOL    HW116106   4.271   0.827   5.713 -0.6564  0.4089 -0.1256
 1491SOL    HW216107   4.237   0.750   5.835 -0.9653  0.1346  0.3020
 1492SOL     OW16108   0.147   3.545   6.768 -0.3781 -0.0562 -0.2007
 1492SOL    HW116109   0.114   3.596   6.693 -1.0074 -0.6495 -0.3248
 1492SOL    HW216110   0.219   3.605   6.789 -1.9336  1.7955 -0.1484
 1493SOL     OW16111   1.115   3.639  12.081 -0.4522 -0.8913  0.6179
 1493SOL    HW116112   1.103   3.666  12.172 -0.7029 -3.0345  1.2192
 1493SOL    HW216113   1.184   3.575  12.100  0.6094  0.3830  1.0888
 1494SOL     OW16114   1.729   1.961   3.391  0.2058  0.3870  0.1380
 1494SOL    HW116115   1.762   1.896   3.453  2.2057  3.7717  2.5931
 1494SOL    HW216116   1.707   1.906   3.316  0.7525 -0.9424  0.9630
 1495SOL     OW16117   3.261   4.450  11.425 -0.0456 -0.3694  0.2595
 1495SOL    HW116118   3.226   4.379  11.372  0.5343  0.7521 -1.6301
 1495SOL    HW216119   3.324   4.400  11.478 -2.4073 -1.4283  2.0591
 1496SOL     OW16120   4.703   2.631   7.952 -0.1295 -0.4144  0.2918
 1496SOL    HW116121   4.652   2.711   7.961 -1.2469 -1.1665  0.5887
 1496SOL    HW216122   0.039   2.659   7.893  0.9757 -0.0033  1.7913
 1497SOL     OW16123   1.638   1.652   4.912  0.0927 -0.2297  0.2869
 1497SOL    HW116124   1.713   1.640   4.853  0.7722  3.1122  0.4848
 1497SOL    HW216125   1.612   1.562   4.929 -0.1327 -0.6967 -2.4914
 1498SOL     OW16126   4.216   2.789   6.074 -0.0036  0.2499 -0.4599
 1498SOL    HW116127   4.304   2.756   6.057  0.2425  0.2242  0.8323
 1498SOL    HW216128   4.235   2.879   6.101  1.2662 -0.5232  1.2721
 1499SOL     OW16129   4.343   0.063  12.131 -0.1185  0.1180  0.3981
 1499SOL    HW116130   4.419   0.100  12.178  0.4279 -1.5165  0.8054
 1499SOL    HW216131   4.383   0.041  12.047  0.3292 -0.5056  0.7700
 1500SOL     OW16132   4.669   2.077   3.959  0.0739 -0.0435  0.2918
 1500SOL    HW116133   4.689   2.106   4.048  1.7882 -1.1542  0.2661
 1500SOL    HW216134   0.018   2.068   3.914 -0.6460 -1.3829 -0.7816
 1501SOL     OW16135   0.805   4.292   3.274 -0.2989 -0.2989  0.0962
 1501SOL    HW116136   0.862   4.224   3.241 -1.3608 -0.7544 -0.8083
 1501SOL    HW216137   0.873   4.342   3.320 -0.9099 -1.1674  1.9824
 1502SOL     OW16138   0.701   0.766  16.425  0.7852 -0.0600 -0.4846
 1502SOL    HW116139   0.606   0.758  16.435  0.8477 -1.2407 -0.8264
 1502SOL    HW216140   0.726   0.799  16.511  0.1194  1.9846 -1.0940
 1503SOL     OW16141   2.392   4.324  15.979 -0.0936 -0.0751  0.2139
 1503SOL    HW116142   2.426   4.336  15.890 -0.4072 -2.8945 -0.2741
 1503SOL    HW216143   2.313   4.273  15.959 -1.3872  1.2514  1.9766
 1504SOL     OW16144   0.567   4.363   3.132  0.0863 -0.1353 -0.7718
 1504SOL    HW116145   0.578   4.458   3.125  0.2824 -0.1359 -0.4240
 1504SOL    HW216146   0.652   4.339   3.170 -0.5321  0.1369  0.7482
 1505SOL     OW16147   2.743   1.956   6.224  0.0321  0.5072  0.4958
 1505SOL    HW116148   2.688   1.978   6.148  1.3054 -2.0533 -1.1605
 1505SOL    HW216149   2.685   1.952   6.300 -0.8309 -1.5984 -0.2640
 1506SOL     OW16150   0.994   4.702   6.833 -1.1235 -0.2258  0.2617
 1506SOL    HW116151   1.060   0.037   6.828 -1.4066 -0.0753 -1.3577
 1506SOL    HW216152   1.038   4.620   6.811  0.2685  0.9307 -1.2237
 1507SOL     OW16153   3.204   1.956  14.691  0.2068 -0.0151  0.1183
 1507SOL    HW116154   3.131   2.002  14.731  1.4312  0.1494  2.1859
 1507SOL    HW216155   3.200   1.987  14.600 -1.7436  0.8611  0.5042
 1508SOL     OW16156   2.232   0.158   7.589 -0.3415 -0.4056 -0.1956
 1508SOL    HW116157   2.164   0.170   7.656  1.1799  1.4683  1.0391
 1508SOL    HW216158   2.291   0.101   7.638  0.1682 -0.8095 -1.2972
 1509SOL     OW16159   3.251   0.080   7.362  0.2410 -0.1723  0.1541
 1509SOL    HW116160   3.270   0.010   7.300 -0.8843  1.0378 -1.5873
 1509SOL    HW216161   3.155   0.079   7.358  0.3633 -1.6609 -2.3365
 1510SOL     OW16162   3.338   0.129   5.610  0.1285  0.0185  0.3467
 1510SOL    HW116163   3.430   0.105   5.609 -0.1632 -1.2367  4.1332
 1510SOL    HW216164   3.334   0.217   5.649 -0.8484 -0.0792  0.4679
 1511SOL     OW16165   3.031   4.075   9.235  0.3513 -0.3120  0.3349
 1511SOL    HW116166   2.937   4.072   9.220  0.1582 -0.8182  1.6540
 1511SOL    HW216167   3.057   4.076   9.143  0.8410  0.5059  0.4882
 1512SOL     OW16168   2.475   3.325  15.177 -0.0402 -0.5299  0.8027
 1512SOL    HW116169   2.567   3.303  15.190 -0.0342 -1.0399 -0.0528
 1512SOL    HW216170   2.477   3.327  15.081 -1.1947  1.0206  0.8101
 1513SOL     OW16171   3.949   4.518   2.658  0.0723  0.3527  0.8677
 1513SOL    HW116172   3.863   4.486   2.684 -1.2596  3.0811 -0.2566
 1513SOL    HW216173   3.957   4.485   2.568 -1.2860  1.0664  0.4995
 1514SOL     OW16174   0.490   0.530   3.354  0.4524  0.6434 -0.0364
 1514SOL    HW116175   0.410   0.582   3.358 -0.5859 -1.1405  2.2564
 1514SOL    HW216176   0.473   0.437   3.366  0.4139  0.7030  0.3696
 1515SOL     OW16177   0.418   4.635  12.650  0.2129  0.1699  0.4826
 1515SOL    HW116178   0.451   4.705  12.706 -1.9593  0.4829  1.3488
 1515SOL    HW216179   0.414   4.558  12.707 -1.0515 -0.7359 -0.8225
 1516SOL     OW16180   4.420   0.329  12.289  0.3333  0.0912  0.1032
 1516SOL    HW116181   4.332   0.335  12.252 -0.3042  2.0802  1.9569
 1516SOL    HW216182   4.401   0.337  12.382 -1.1258  0.5258 -0.2287
 1517SOL     OW16183   3.229   4.335   8.206  0.2441 -0.1480 -0.0259
 1517SOL    HW116184   3.290   4.270   8.242  0.2555 -1.2840 -2.0522
 1517SOL    HW216185   3.158   4.331   8.270  0.8952  1.3943  0.7978
 1518SOL     OW16186   3.197   0.538   2.814  0.0030  0.4027 -0.0499
 1518SOL    HW116187   3.277   0.485   2.817 -0.3441 -0.0601  1.2298
 1518SOL    HW216188   3.189   0.531   2.719 -1.5381  0.9306  0.0388
 1519SOL     OW16189   4.020   2.387  16.505  0.1812 -0.5429  0.2427
 1519SOL    HW116190   4.067   2.369  16.424 -1.6705 -1.0868 -0.6974
 1519SOL    HW216191   3.971   2.305  16.513 -1.8009  0.6302  0.0811
 1520SOL     OW16192   0.768   2.280  11.530  0.3587  0.6335  0.6581
 1520SOL    HW116193   0.780   2.373  11.515  0.9463  0.5111  0.3713
 1520SOL    HW216194   0.730   2.245  11.449  0.3685  1.9114  0.1083
 1521SOL     OW16195   1.188   3.328   2.016  0.2221 -0.0975 -0.4476
 1521SOL    HW116196   1.113   3.273   1.991  0.5609  0.4355 -2.6406
 1521SOL    HW216197   1.179   3.397   1.950 -4.1579 -0.8637 -0.6828
 1522SOL     OW16198   1.550   3.997   7.834  0.1144  0.6683 -0.0628
 1522SOL    HW116199   1.535   4.010   7.928 -0.5548  0.4096 -0.1318
 1522SOL    HW216200   1.643   4.020   7.830  0.3554 -0.0046  1.7680
 1523SOL     OW16201   2.839   4.683   8.665  0.2833  0.0103  0.6606
 1523SOL    HW116202   2.763   4.721   8.620  1.4536 -2.1879 -3.1688
 1523SOL    HW216203   2.833   4.593   8.634 -2.1275  0.5019 -0.3935
 1524SOL     OW16204   3.231   1.966   1.199 -0.0009 -0.5165 -1.0575
 1524SOL    HW116205   3.235   2.034   1.266  0.9489 -0.9982 -0.6281
 1524SOL    HW216206   3.291   2.004   1.135  0.9093 -0.5686 -0.2246
 1525SOL     OW16207   4.060   0.491  10.342  0.3876  0.5590  0.2337
 1525SOL    HW116208   4.099   0.570  10.377  2.6772 -0.5645  0.1999
 1525SOL    HW216209   3.993   0.479  10.409 -0.0575 -0.8907 -0.4504
 1526SOL     OW16210   2.748   1.597   4.650 -0.0145 -0.2163 -0.0293
 1526SOL    HW116211   2.796   1.578   4.731  1.7742  0.8104 -0.8293
 1526SOL    HW216212   2.717   1.684   4.678  0.4786  0.2817 -1.0304
 1527SOL     OW16213   2.713   4.378  16.999  0.2795 -0.7858 -0.0467
 1527SOL    HW116214   2.760   4.460  17.017 -1.7035  0.0256  1.4058
 1527SOL    HW216215   2.745   4.314  17.063 -0.2035 -2.0740 -1.0956
 1528SOL     OW16216   2.672   0.097   9.119 -0.2091 -0.1364  0.3766
 1528SOL    HW116217   2.730   0.062   9.051  2.0184 -1.5563  3.0297
 1528SOL    HW216218   2.680   0.192   9.119 -0.2854 -0.1353  1.1351
 1529SOL     OW16219   3.850   3.911   7.915 -0.1330  0.7775  0.3112
 1529SOL    HW116220   3.881   3.851   7.983  3.3761 -0.1253 -2.0954
 1529SOL    HW216221   3.795   3.857   7.859  0.9484  1.2930 -1.2311
 1530SOL     OW16222   2.929   0.721   2.874 -0.2385  0.4012  0.8142
 1530SOL    HW116223   3.007   0.685   2.831  0.2400 -1.3712  3.1558
 1530SOL    HW216224   2.891   0.638   2.900  2.3622 -0.9875  0.1673
 1531SOL     OW16225   4.705   0.569   4.124 -0.2503 -0.6838  0.0387
 1531SOL    HW116226   0.036   0.624   4.167 -2.5675  1.8122  0.3966
 1531SOL    HW216227   4.717   0.584   4.030  0.2016  0.6694  0.3049
 1532SOL     OW16228   0.610   2.825  10.112 -0.1006 -0.8312 -0.0019
 1532SOL    HW116229   0.582   2.886  10.180  0.6318 -0.7594  0.2372
 1532SOL    HW216230   0.582   2.744  10.154 -4.0633  0.2275 -0.6043
 1533SOL     OW16231   2.590   1.998   2.186 -0.0335 -0.2473 -0.2253
 1533SOL    HW116232   2.560   2.058   2.117 -0.9356 -2.4758 -1.7576
 1533SOL    HW216233   2.506   1.992   2.232  0.1817 -1.3839  0.0268
 1534SOL     OW16234   4.357   3.716   6.302  0.0702  0.3986  0.6001
 1534SOL    HW116235   4.434   3.661   6.296 -1.3913 -1.2364 -3.0335
 1534SOL    HW216236   4.294   3.652   6.268  0.6852  0.0904  0.0561
 1535SOL     OW16237   3.631   1.096   2.565 -0.1417  0.0957  0.3552
 1535SOL    HW116238   3.597   1.185   2.566 -0.0245  0.1330  1.2323
 1535SOL    HW216239   3.607   1.055   2.482 -5.0998  2.4327  0.6744
 1536SOL     OW16240   4.396   0.573   6.050 -0.7059 -0.2107 -0.4453
 1536SOL    HW116241   4.340   0.563   6.127 -0.4224  0.2634 -0.1782
 1536SOL    HW216242   4.379   0.663   6.023 -1.8347 -0.3479 -0.1944
 1537SOL     OW16243   1.862   2.166   6.272 -0.2689 -0.0389  0.0484
 1537SOL    HW116244   1.803   2.195   6.202  2.5820  0.2040 -2.2859
 1537SOL    HW216245   1.944   2.184   6.225 -0.8153 -0.3892 -1.0531
 1538SOL     OW16246   3.980   3.334   6.365  0.2853 -0.4600  0.2578
 1538SOL    HW116247   4.010   3.315   6.454 -1.2181 -2.3195  0.3657
 1538SOL    HW216248   3.946   3.250   6.337  2.4501 -0.7801 -1.3929
 1539SOL     OW16249   2.025   4.673   3.722  0.1009 -0.2182 -0.2078
 1539SOL    HW116250   1.950   4.698   3.776 -0.7787  1.4276 -2.1895
 1539SOL    HW216251   1.990   4.604   3.666  1.0473 -1.6826  1.0153
 1540SOL     OW16252   2.092   0.049   6.462  0.1190  0.2246  0.1105
 1540SOL    HW116253   2.139   4.705   6.491 -1.0746 -0.9624 -1.1583
 1540SOL    HW216254   2.077   0.096   6.544 -2.9014  0.0535 -0.3469
 1541SOL     OW16255   2.259   3.040   1.762 -0.3776  0.0529  0.1884
 1541SOL    HW116256   2.334   3.049   1.821  0.9723 -0.8277 -1.4119
 1541SOL    HW216257   2.286   2.991   1.685 -4.0667 -0.7023 -0.6214
 1542SOL     OW16258   1.930   1.411   7.860  0.1751  0.2972 -0.1688
 1542SOL    HW116259   1.887   1.405   7.775  1.3469 -2.3413 -0.5731
 1542SOL    HW216260   2.002   1.348   7.853  1.2601  1.5347 -0.2407
 1543SOL     OW16261   1.980   1.481  14.791  0.0497 -0.0197  0.1526
 1543SOL    HW116262   1.912   1.548  14.787 -2.2097 -2.3290 -0.2363
 1543SOL    HW216263   1.944   1.418  14.853  1.1233  0.1898  0.9913
 1544SOL     OW16264   3.202   1.151   4.532  0.1865 -0.1100  0.4766
 1544SOL    HW116265   3.164   1.095   4.599  0.6599 -2.0340 -0.8259
 1544SOL    HW216266   3.179   1.094   4.458  0.6751  1.1818 -0.6652
 1545SOL     OW16267   1.849   3.788   4.975  0.8736  0.5100 -0.9319
 1545SOL    HW116268   1.766   3.823   5.005  1.1009  1.0362 -0.9254
 1545SOL    HW216269   1.814   3.775   4.887  2.1325 -0.1149 -1.3521
 1546SOL     OW16270   4.554   0.608  14.358  0.2812  0.0457  0.0306
 1546SOL    HW116271   4.564   0.666  14.282  2.3875 -0.1011  0.1698
 1546SOL    HW216272   4.475   0.640  14.401 -0.7433  0.2612 -2.0183
 1547SOL     OW16273   3.656   1.736   9.669  0.2285 -0.4271  0.2314
 1547SOL    HW116274   3.706   1.707   9.593 -0.1228 -1.6286  0.4591
 1547SOL    HW216275   3.566   1.751   9.642  0.0462 -2.6721 -0.4158
 1548SOL     OW16276   0.419   3.652   2.981 -0.0264 -0.2507 -0.1971
 1548SOL    HW116277   0.493   3.601   3.012 -0.2054  0.9579  2.2222
 1548SOL    HW216278   0.373   3.680   3.060 -0.6636 -1.8039 -0.0163
 1549SOL     OW16279   4.161   3.625   4.441  0.0441  0.0469  0.4378
 1549SOL    HW116280   4.111   3.646   4.362 -0.0432 -0.4511  0.3653
 1549SOL    HW216281   4.250   3.644   4.411 -0.2652 -1.4051 -1.3555
 1550SOL     OW16282   1.078   1.205   2.747 -0.0082  0.2940 -0.4583
 1550SOL    HW116283   1.010   1.269   2.725  0.4350  1.0645  0.4117
 1550SOL    HW216284   1.034   1.148   2.809  1.2392  0.6983  0.8010
 1551SOL     OW16285   2.814   0.157  16.593 -0.2451 -0.3992  0.2456
 1551SOL    HW116286   2.773   0.138  16.677 -1.0972  0.4423  0.0101
 1551SOL    HW216287   2.895   0.201  16.621  0.6628  0.5485 -3.8336
 1552SOL     OW16288   2.085   1.592   7.990 -0.6614 -0.2401  0.0416
 1552SOL    HW116289   2.023   1.525   7.963 -0.2591  0.1252 -1.7538
 1552SOL    HW216290   2.092   1.581   8.085 -0.3808  2.3672  0.3118
 1553SOL     OW16291   3.917   2.847  16.623 -0.1375 -0.1029 -0.4531
 1553SOL    HW116292   3.954   2.917  16.569  2.8802 -1.4007 -0.0437
 1553SOL    HW216293   3.879   2.896  16.696  0.3938  0.3819 -0.5069
 1554SOL     OW16294   0.837   3.294  14.225 -0.1937  0.8193  0.0666
 1554SOL    HW116295   0.839   3.367  14.163  1.1132  0.1093 -0.7188
 1554SOL    HW216296   0.868   3.350  14.296 -0.1674  0.2597  0.4941
 1555SOL     OW16297   4.072   1.161   5.604  0.3594  0.2524  0.5523
 1555SOL    HW116298   4.003   1.111   5.561  1.6252 -0.2031 -0.9559
 1555SOL    HW216299   4.062   1.249   5.566  0.6774  0.7997  1.7442
 1556SOL     OW16300   2.616   4.347   7.162  0.0752 -0.4697  0.0519
 1556SOL    HW116301   2.704   4.333   7.195 -0.3365  0.2388  1.4483
 1556SOL    HW216302   2.598   4.440   7.181 -0.0119 -0.6542  0.8572
 1557SOL     OW16303   1.511   4.262   3.600 -0.3205 -0.2953 -0.1859
 1557SOL    HW116304   1.446   4.193   3.586 -0.8840  0.2443 -0.2222
 1557SOL    HW216305   1.565   4.228   3.671  1.7535  0.3090 -1.4851
 1558SOL     OW16306   1.105   3.470   7.126  0.4027 -0.0731 -0.0052
 1558SOL    HW116307   1.109   3.421   7.208 -2.4073  1.6420  1.1314
 1558SOL    HW216308   1.106   3.558   7.164  2.5380 -0.0819 -0.0355
 1559SOL     OW16309   4.027   1.719   6.186 -0.2566  0.3983  0.3165
 1559SOL    HW116310   4.025   1.705   6.092  0.1217 -0.6311  0.4667
 1559SOL    HW216311   3.964   1.650   6.207 -1.9947  1.3734 -1.7546
 1560SOL     OW16312   1.486   4.618   2.986  0.1403 -0.2438  0.2679
 1560SOL    HW116313   1.513   4.565   2.911 -1.5585  1.0962 -1.2736
 1560SOL    HW216314   1.497   4.552   3.056  1.3227  1.6343  1.8578
 1561SOL     OW16315   3.757   3.425   2.549  0.0842  0.0477  0.3146
 1561SOL    HW116316   3.750   3.369   2.472  2.3841 -1.5596  1.2708
 1561SOL    HW216317   3.846   3.403   2.575  0.4972  1.8299  0.4042
 1562SOL     OW16318   0.554   4.124   4.316 -0.5313  0.1199 -0.1011
 1562SOL    HW116319   0.556   4.115   4.411  1.9568  2.8813  0.0931
 1562SOL    HW216320   0.556   4.029   4.303  0.3372  0.2808 -1.2078
 1563SOL     OW16321   0.911   0.382  12.234 -0.5133  0.1290 -0.1526
 1563SOL    HW116322   0.884   0.382  12.326 -1.8931 -0.5501 -0.5509
 1563SOL    HW216323   1.001   0.413  12.240 -0.3176 -0.4141 -0.2205
 1564SOL     OW16324   2.756   0.449   6.892 -0.2662  0.0940 -0.1250
 1564SOL    HW116325   2.713   0.380   6.941 -0.3191  0.8280  0.8581
 1564SOL    HW216326   2.745   0.423   6.800  1.3128  0.8198 -0.5206
 1565SOL     OW16327   0.138   3.150   9.329  0.5498 -0.1146 -0.0553
 1565SOL    HW116328   0.070   3.198   9.282 -0.3736 -2.5834 -1.2678
 1565SOL    HW216329   0.167   3.091   9.259  0.6597  1.1945 -1.1048
 1566SOL     OW16330   4.639   0.150  10.487  0.1088 -0.1196 -0.7463
 1566SOL    HW116331   4.588   0.196  10.553  0.2634 -0.6951 -0.2310
 1566SOL    HW216332   4.729   0.183  10.489 -0.2311  0.8963 -2.0536
 1567SOL     OW16333   1.453   2.617   3.287  0.0399 -0.5122 -0.0885
 1567SOL    HW116334   1.548   2.610   3.274  0.2981  1.3035  0.7559
 1567SOL    HW216335   1.448   2.623   3.382  1.5502  1.7399 -0.1221
 1568SOL     OW16336   4.572   0.063  16.618 -0.7034  0.1302  0.2897
 1568SOL    HW116337   4.576   0.055  16.714 -0.5651 -0.7731  0.2114
 1568SOL    HW216338   4.559   4.710  16.584 -0.6088  0.2690 -0.1029
 1569SOL     OW16339   3.170   4.449   3.564 -0.2961 -0.5141 -0.2120
 1569SOL    HW116340   3.173   4.420   3.655  2.6156 -0.0594 -0.1834
 1569SOL    HW216341   3.185   4.543   3.574  0.5134 -0.5654 -0.9881
 1570SOL     OW16342   2.113   2.186   0.702 -0.1809 -0.2949  0.2825
 1570SOL    HW116343   2.027   2.219   0.728 -0.0911 -0.3493  0.6509
 1570SOL    HW216344   2.174   2.229   0.761  1.1535 -0.0389 -1.2901
 1571SOL     OW16345   0.522   3.042   8.456 -0.3321 -0.5568  0.5685
 1571SOL    HW116346   0.442   3.091   8.436  0.6922  0.7726 -0.2803
 1571SOL    HW216347   0.487   2.958   8.486 -0.9838  0.1744  1.8670
 1572SOL     OW16348   2.882   2.750   7.780  0.0148  0.5925  0.2391
 1572SOL    HW116349   2.888   2.839   7.744 -0.2545  0.3719 -0.3467
 1572SOL    HW216350   2.952   2.744   7.845  1.0064 -1.7588 -1.0590
 1573SOL     OW16351   4.527   1.888   2.930 -0.1522  0.2899 -0.0027
 1573SOL    HW116352   4.504   1.838   3.008 -0.9685 -0.0118 -0.4375
 1573SOL    HW216353   4.456   1.952   2.920 -0.5172 -0.2469 -0.9454
 1574SOL     OW16354   3.968   3.668   2.715 -0.7149  0.4182  0.3500
 1574SOL    HW116355   3.915   3.743   2.688  1.2878  1.1028 -1.6275
 1574SOL    HW216356   4.003   3.644   2.629 -2.8111 -0.0170 -0.3826
 1575SOL     OW16357   3.230   2.564   8.529 -0.2174  0.0422 -0.1553
 1575SOL    HW116358   3.292   2.532   8.463 -1.0071 -2.4772  0.3121
 1575SOL    HW216359   3.253   2.516   8.609 -3.4179 -0.8357  0.2367
 1576SOL     OW16360   3.453   1.113   7.899  0.0018 -0.0026  0.3939
 1576SOL    HW116361   3.443   1.082   7.989 -1.6436  3.1746  1.2918
 1576SOL    HW216362   3.519   1.052   7.867  0.1777 -0.7286  2.1221
 1577SOL     OW16363   0.758   2.233   6.635  0.5082  0.6069 -0.0394
 1577SOL    HW116364   0.665   2.216   6.629  0.6430  0.0195 -0.4439
 1577SOL    HW216365   0.762   2.149   6.680 -1.5506  1.1867  1.2068
 1578SOL     OW16366   4.551   4.021  16.957  0.1904 -0.0659 -0.1552
 1578SOL    HW116367   4.557   3.926  16.966  0.3702  0.3066  3.4866
 1578SOL    HW216368   4.559   4.045  16.865 -2.4766 -1.1552 -0.6898
 1579SOL     OW16369   4.364   2.382  13.362  0.2721 -0.2629 -0.2726
 1579SOL    HW116370   4.437   2.371  13.300 -1.7663 -0.9023 -2.5633
 1579SOL    HW216371   4.320   2.301  13.338  1.0274 -1.3439  2.0094
 1580SOL     OW16372   2.769   1.444  11.960 -0.5705  0.6030 -0.1462
 1580SOL    HW116373   2.798   1.533  11.976 -1.9226  0.8328  0.9869
 1580SOL    HW216374   2.679   1.476  11.959 -0.7912  0.0130  0.5341
 1581SOL     OW16375   1.507   0.872   8.488 -0.1801 -0.1613  0.4113
 1581SOL    HW116376   1.591   0.917   8.480 -0.1685 -0.3778 -0.6791
 1581SOL    HW216377   1.462   0.901   8.408 -0.0995  1.7585  1.0464
 1582SOL     OW16378   4.419   2.411   2.274  0.0247 -0.1646  0.1751
 1582SOL    HW116379   4.403   2.319   2.256  0.8368 -0.1694 -0.5496
 1582SOL    HW216380   4.409   2.442   2.184 -0.2840 -0.8764 -0.0334
 1583SOL     OW16381   3.305   4.647   8.306  0.7733  0.4607  0.4291
 1583SOL    HW116382   3.322   4.665   8.214 -2.8561  3.3449  0.3317
 1583SOL    HW216383   3.302   4.551   8.308  1.0447  0.4965  2.3230
 1584SOL     OW16384   0.050   4.709   0.325  0.5534  0.0209  0.1057
 1584SOL    HW116385   0.109   4.664   0.386 -0.2841 -0.2599  0.7032
 1584SOL    HW216386   0.110   0.016   0.263 -1.3726 -0.3719 -2.0037
 1585SOL     OW16387   0.943   4.243   9.375  0.0653  0.1428  0.4110
 1585SOL    HW116388   0.950   4.189   9.296 -0.2319 -0.1404  0.5771
 1585SOL    HW216389   0.882   4.308   9.341 -1.5571 -2.4187 -1.6626
 1586SOL     OW16390   4.720   1.416  16.703 -0.2773 -0.1269 -0.5046
 1586SOL    HW116391   0.053   1.350  16.717  0.1744  0.0417 -1.8557
 1586SOL    HW216392   0.023   1.471  16.634 -0.5578 -0.1168 -0.6503
 1587SOL     OW16393   2.234   2.135  12.357  0.6191 -0.0703  0.1987
 1587SOL    HW116394   2.186   2.164  12.280  0.4260 -1.9607 -0.3995
 1587SOL    HW216395   2.188   2.053  12.377  0.2875  0.8274  3.1058
 1588SOL     OW16396   3.314   1.461   0.355 -0.2767  0.7714  0.1907
 1588SOL    HW116397   3.232   1.510   0.345 -1.5493 -1.4984 -0.5315
 1588SOL    HW216398   3.296   1.370   0.334  1.5949  0.4403  0.0695
 1589SOL     OW16399   0.448   1.658  12.047  0.6479  0.1351  0.0206
 1589SOL    HW116400   0.517   1.698  11.995 -0.2789  0.1798 -1.1866
 1589SOL    HW216401   0.437   1.573  12.005 -0.4612  0.7247 -0.8806
 1590SOL     OW16402   0.021   1.131   6.140  0.0056  0.5610 -0.1141
 1590SOL    HW116403   4.663   1.132   6.113 -0.1028  3.1934  0.3090
 1590SOL    HW216404   0.024   1.195   6.212 -2.1411  1.2779 -0.6472
 1591SOL     OW16405   3.105   1.686   5.532  0.2351 -0.3750  0.1691
 1591SOL    HW116406   3.044   1.641   5.474 -0.1274 -0.3680  0.5385
 1591SOL    HW216407   3.087   1.638   5.613 -0.3101  0.1564  0.3617
 1592SOL     OW16408   2.994   3.427   3.012 -0.0166 -0.3801  0.1383
 1592SOL    HW116409   2.982   3.407   3.105  1.8225  1.8337  0.8631
 1592SOL    HW216410   2.916   3.386   2.975  0.0299  0.0931 -0.4800
 1593SOL     OW16411   0.288   4.557  14.486  0.2540 -0.0914  0.2828
 1593SOL    HW116412   0.298   4.631  14.427  0.1571  0.5952  1.1244
 1593SOL    HW216413   0.260   4.489  14.425 -1.2098  0.6161  0.1797
 1594SOL     OW16414   0.284   0.888   8.463  0.2648 -0.2672 -0.7206
 1594SOL    HW116415   0.313   0.937   8.540  1.2453  1.4868 -2.2060
 1594SOL    HW216416   0.317   0.954   8.402  0.8654  0.0450 -0.0531
 1595SOL     OW16417   0.568   1.798   3.914  0.4135 -0.3363 -0.0297
 1595SOL    HW116418   0.489   1.844   3.943 -1.2383 -1.8249 -2.1525
 1595SOL    HW216419   0.641   1.841   3.958  0.6130 -0.5016 -0.1985
 1596SOL     OW16420   3.092   4.420  10.992  0.2982  0.3027  0.1797
 1596SOL    HW116421   3.127   4.507  11.009  0.7008  0.0325  0.7415
 1596SOL    HW216422   3.056   4.395  11.077 -0.6864 -1.6422 -0.7886
 1597SOL     OW16423   2.338   4.358   0.823  0.2327 -0.1115 -0.1759
 1597SOL    HW116424   2.375   4.423   0.883  1.8842  0.4827 -1.8225
 1597SOL    HW216425   2.296   4.410   0.755  0.5833  0.6709  0.2131
 1598SOL     OW16426   3.267   1.699   1.922 -0.5660  0.7318  0.5058
 1598SOL    HW116427   3.292   1.634   1.855 -2.9703  1.4336 -1.0709
 1598SOL    HW216428   3.337   1.760   1.898 -0.2840 -0.4414 -1.7295
 1599SOL     OW16429   3.071   3.516   2.603 -0.4183 -0.3618 -0.5801
 1599SOL    HW116430   3.072   3.423   2.624  2.3910  0.0453  0.9934
 1599SOL    HW216431   3.155   3.532   2.646 -1.0856  0.0603  0.5575
 1600SOL     OW16432   2.975   3.440  11.161  0.3559 -0.6666 -0.0560
 1600SOL    HW116433   3.001   3.531  11.148 -2.7371  0.5171  2.2032
 1600SOL    HW216434   2.929   3.440  11.245 -1.1913 -4.1362 -0.9033
 1601SOL     OW16435   3.146   0.504   8.626 -0.0576 -0.3624  0.1403
 1601SOL    HW116436   3.225   0.463   8.593 -0.0336 -0.5149  0.3824
 1601SOL    HW216437   3.088   0.445   8.578 -0.6369 -0.0590  0.4612
 1602SOL     OW16438   3.547   2.481   8.597  0.1862  0.2539 -0.0451
 1602SOL    HW116439   3.492   2.470   8.674 -1.7734 -0.1010 -1.4925
 1602SOL    HW216440   3.578   2.571   8.608  0.4817  0.1502 -0.0177
 1603SOL     OW16441   0.181   4.675   0.826  0.1502 -0.1673  0.1974
 1603SOL    HW116442   0.119   0.012   0.839  0.9414  0.1705  2.0962
 1603SOL    HW216443   0.136   4.604   0.871 -0.4341 -1.6000 -2.6216
 1604SOL     OW16444   3.207   1.969   3.094 -0.5263  0.3039  0.2167
 1604SOL    HW116445   3.144   2.040   3.082 -0.8956 -0.2636 -1.2300
 1604SOL    HW216446   3.148   1.896   3.108 -1.5741  1.0129 -0.5204
 1605SOL     OW16447   1.582   4.699   7.488 -0.0468 -0.6909  0.0749
 1605SOL    HW116448   1.507   0.004   7.532  1.4666  0.1647  1.8904
 1605SOL    HW216449   1.563   4.605   7.485 -0.0340 -0.7348  1.3418
 1606SOL     OW16450   2.749   3.712   2.272  0.3810 -0.0068 -0.2985
 1606SOL    HW116451   2.698   3.779   2.318 -1.7311 -0.7387 -1.6097
 1606SOL    HW216452   2.798   3.764   2.208  4.8408 -2.3426  1.2001
 1607SOL     OW16453   2.448   2.736  10.276  0.0965 -0.2646 -0.5260
 1607SOL    HW116454   2.397   2.779  10.207 -2.1704 -2.0621  0.0178
 1607SOL    HW216455   2.397   2.655  10.280  0.0407 -0.2297 -0.5212
 1608SOL     OW16456   3.891   2.833   2.717  0.0299  0.1843  0.7801
 1608SOL    HW116457   3.937   2.903   2.763 -0.0577  0.9130 -0.2419
 1608SOL    HW216458   3.804   2.829   2.755  1.0466  2.2617  3.2944
 1609SOL     OW16459   1.314   4.004   2.860  0.0171 -0.5275  0.0572
 1609SOL    HW116460   1.317   3.926   2.804  0.9980  0.6624 -1.5533
 1609SOL    HW216461   1.346   4.060   2.790 -0.7144 -1.9648 -1.4263
 1610SOL     OW16462   3.455   2.461   3.239 -0.3146  0.3570  0.0817
 1610SOL    HW116463   3.529   2.469   3.178  1.2252  1.3260  2.0653
 1610SOL    HW216464   3.402   2.398   3.190 -0.4494  0.1644  0.4794
 1611SOL     OW16465   3.724   1.860   1.467  0.6859  0.4811  0.3755
 1611SOL    HW116466   3.700   1.940   1.515  1.0093  0.1750  1.0570
 1611SOL    HW216467   3.788   1.825   1.530  2.0530 -0.5914 -1.6336
 1612SOL     OW16468   1.293   2.262   7.683  0.1311  0.2468  0.3212
 1612SOL    HW116469   1.224   2.279   7.619  1.6069 -0.2380 -1.3973
 1612SOL    HW216470   1.285   2.341   7.737  1.7863  0.7380 -0.1298
 1613SOL     OW16471   1.836   4.094   3.132  0.2971  0.6734 -0.2341
 1613SOL    HW116472   1.769   4.128   3.073  0.5553  0.0162 -0.9078
 1613SOL    HW216473   1.903   4.071   3.068 -0.1470 -0.8464 -0.1603
 1614SOL     OW16474   3.009   4.551   3.089 -0.0395  0.1529  0.0195
 1614SOL    HW116475   3.044   4.523   3.173  1.5930 -1.0622 -1.0506
 1614SOL    HW216476   3.008   4.460   3.060  1.2356  0.0175  0.3881
 1615SOL     OW16477   3.768   1.186   1.325 -0.0046 -0.1012  0.4771
 1615SOL    HW116478   3.777   1.091   1.317 -2.3400 -0.2830  0.0365
 1615SOL    HW216479   3.678   1.195   1.295  0.2035 -0.2820 -0.1914
 1616SOL     OW16480   2.413   0.238   8.916  0.2866 -0.6238  0.0636
 1616SOL    HW116481   2.379   0.239   8.827  2.4806 -0.3590 -0.7768
 1616SOL    HW216482   2.419   0.146   8.942 -0.5387 -0.9233 -0.8222
 1617SOL     OW16483   2.776   0.484   0.846  0.4401 -0.3007  0.8863
 1617SOL    HW116484   2.853   0.542   0.845 -0.4893  0.9188 -0.8135
 1617SOL    HW216485   2.757   0.493   0.939  1.6941  0.3169  1.0909
 1618SOL     OW16486   4.263   3.721   1.514 -0.0087  0.4757 -0.0750
 1618SOL    HW116487   4.314   3.690   1.589 -0.9049 -0.0475  0.3076
 1618SOL    HW216488   4.337   3.760   1.467 -0.5188  0.8322 -0.5774
 1619SOL     OW16489   1.692   1.977   9.844 -0.8370 -0.3317 -0.1683
 1619SOL    HW116490   1.715   2.004   9.933  1.4048 -0.4149 -0.7167
 1619SOL    HW216491   1.673   1.885   9.861  1.2498 -0.3895  1.8860
 1620SOL     OW16492   2.464   4.278   9.100 -0.4847  0.9125 -0.4512
 1620SOL    HW116493   2.395   4.303   9.161  0.1013 -3.1488  1.8760
 1620SOL    HW216494   2.544   4.292   9.149 -0.0044  0.9018 -1.2297
 1621SOL     OW16495   2.792   0.083   3.963  0.0830  0.1369  0.4939
 1621SOL    HW116496   2.738   0.146   3.915 -0.4011 -2.1538 -1.9827
 1621SOL    HW216497   2.725   0.039   4.015  0.0228 -1.3180 -0.7883
 1622SOL     OW16498   0.656   0.248   7.716 -0.1633  0.2938  0.1874
 1622SOL    HW116499   0.607   0.256   7.634 -1.0137 -0.1773  0.6566
 1622SOL    HW216500   0.656   0.152   7.713 -0.3475  0.3726 -2.4326
 1623SOL     OW16501   3.547   2.111   9.106 -0.1864  0.5145 -0.3589
 1623SOL    HW116502   3.641   2.124   9.093  0.2948 -3.0334 -0.5065
 1623SOL    HW216503   3.534   2.147   9.193 -2.1574  0.8212 -0.7851
 1624SOL     OW16504   2.289   1.137   3.742 -0.1723  0.0387  0.6503
 1624SOL    HW116505   2.258   1.094   3.821 -0.1666 -1.9021 -0.3942
 1624SOL    HW216506   2.307   1.058   3.691 -0.0880  0.0802  0.6151
 1625SOL     OW16507   1.876   0.627  17.672  0.2155 -0.0028 -0.0712
 1625SOL    HW116508   1.800   0.631  17.613 -1.6300  0.9914  2.4116
 1625SOL    HW216509   1.836   0.665   0.012 -3.5011 -1.2856 -1.3514
 1626SOL     OW16510   3.097   1.421   1.467 -0.0782  0.1607 -0.2473
 1626SOL    HW116511   3.176   1.400   1.418 -0.6236 -0.2905 -0.9354
 1626SOL    HW216512   3.116   1.515   1.478 -0.4918  0.5099 -2.4236
 1627SOL     OW16513   3.414   0.508   7.214 -0.4080  0.2732 -0.2889
 1627SOL    HW116514   3.407   0.416   7.241 -2.4355  0.4291 -0.2691
 1627SOL    HW216515   3.336   0.526   7.162  0.0437  0.5599 -0.8609
 1628SOL     OW16516   3.599   3.339  15.976  0.5563 -0.0850  0.3424
 1628SOL    HW116517   3.568   3.257  16.014 -0.0109 -1.1792 -2.4911
 1628SOL    HW216518   3.665   3.306  15.916 -0.2154 -0.1202 -0.4925
 1629SOL     OW16519   3.201   2.495  15.879 -0.5034 -0.0102 -0.4202
 1629SOL    HW116520   3.276   2.522  15.932 -1.3926 -0.0567  0.8639
 1629SOL    HW216521   3.147   2.574  15.872 -0.3082  0.2550  1.0355
 1630SOL     OW16522   2.746   3.186   4.913  0.3238 -0.1175 -0.2541
 1630SOL    HW116523   2.829   3.233   4.904 -0.3908  1.3934  0.9412
 1630SOL    HW216524   2.726   3.171   4.820  0.0576 -0.3411 -0.1588
 1631SOL     OW16525   0.270   3.183   5.021 -0.6614 -0.4499  0.2296
 1631SOL    HW116526   0.201   3.235   5.062 -1.5258 -1.2101 -0.2820
 1631SOL    HW216527   0.229   3.146   4.942  0.2583 -0.1347 -0.3953
 1632SOL     OW16528   3.147   3.340   5.304 -0.3222 -0.0747  0.5695
 1632SOL    HW116529   3.084   3.300   5.244 -1.2327  1.0847  0.7488
 1632SOL    HW216530   3.093   3.408   5.344  0.0554  1.3091 -1.2645
 1633SOL     OW16531   1.401   1.842   6.307 -0.1245  0.0231 -0.0675
 1633SOL    HW116532   1.389   1.761   6.357 -0.6284  0.6258  0.7902
 1633SOL    HW216533   1.450   1.904   6.360 -0.6366  1.6033 -1.4614
 1634SOL     OW16534   3.508   1.319  15.323 -0.5683 -0.2367 -0.2144
 1634SOL    HW116535   3.439   1.371  15.362  2.0063  1.4759  2.0461
 1634SOL    HW216536   3.463   1.296  15.242 -0.1842 -2.4132  0.1632
 1635SOL     OW16537   1.435   1.528   5.262 -0.5842  0.3069  0.3095
 1635SOL    HW116538   1.527   1.514   5.283 -0.5705 -1.6336 -1.1234
 1635SOL    HW216539   1.395   1.517   5.348 -1.8504 -2.6426 -0.6748
 1636SOL     OW16540   2.520   2.966   7.024  0.3242 -0.2070 -0.1872
 1636SOL    HW116541   2.429   2.963   7.053  0.0320 -0.5152 -1.1166
 1636SOL    HW216542   2.557   2.921   7.100  2.0785  1.6667  0.0644
 1637SOL     OW16543   3.521   0.951   9.307 -0.7418 -0.7422  0.5853
 1637SOL    HW116544   3.447   0.941   9.368 -2.2729 -0.7921 -1.2561
 1637SOL    HW216545   3.482   1.027   9.264  0.4027 -0.0943  0.7082
 1638SOL     OW16546   3.833   2.328   5.222 -0.5393  0.4181 -0.3989
 1638SOL    HW116547   3.814   2.344   5.315  1.4087  2.8778 -0.4110
 1638SOL    HW216548   3.926   2.308   5.220 -0.0284  2.9307 -1.5291
 1639SOL     OW16549   2.043   3.016  10.056  0.1228  0.4332  0.6912
 1639SOL    HW116550   2.080   3.064   9.982  1.1003 -1.2427  0.0751
 1639SOL    HW216551   1.954   3.000  10.026  0.5708 -0.5540 -0.1206
 1640SOL     OW16552   3.646   2.425  16.207  0.2248 -0.0641  0.0537
 1640SOL    HW116553   3.697   2.494  16.165 -0.2557 -0.0504 -0.5083
 1640SOL    HW216554   3.662   2.440  16.300 -1.6761 -1.9508  0.6834
 1641SOL     OW16555   0.273   2.455  14.548  0.2567 -0.0585  0.1413
 1641SOL    HW116556   0.239   2.368  14.570 -0.9585  0.7089  1.2867
 1641SOL    HW216557   0.195   2.503  14.521 -0.4556 -1.2888  0.0061
 1642SOL     OW16558   1.293   0.027  16.374 -0.6109 -0.1048 -0.1606
 1642SOL    HW116559   1.278   0.015  16.281  0.1542 -0.2422 -0.2652
 1642SOL    HW216560   1.327   0.117  16.375 -0.3947 -0.1778 -2.6254
 1643SOL     OW16561   2.717   1.353   3.358  0.5334 -0.1695 -1.0281
 1643SOL    HW116562   2.724   1.431   3.412 -0.9620  0.0490 -1.1590
 1643SOL    HW216563   2.688   1.399   3.279 -1.9423  2.4347  1.4469
 1644SOL     OW16564   1.670   0.712   5.140 -0.4372  0.9329  0.7343
 1644SOL    HW116565   1.632   0.626   5.119  1.8789 -0.3821  1.8689
 1644SOL    HW216566   1.680   0.709   5.235  1.3325  1.7654  0.5646
 1645SOL     OW16567   0.891   0.873  11.856  0.3673 -0.4944  0.1045
 1645SOL    HW116568   0.884   0.777  11.861 -1.5147 -0.3163  0.7088
 1645SOL    HW216569   0.983   0.875  11.829  0.4988  1.4183  0.7633
 1646SOL     OW16570   1.718   4.620  13.962  0.1776  0.9717 -0.1652
 1646SOL    HW116571   1.802   4.584  13.990 -0.1452  0.9370  0.7602
 1646SOL    HW216572   1.691   4.556  13.896 -2.0568  0.3981  1.3155
 1647SOL     OW16573   0.055   1.998   2.325  0.5197  0.0590 -0.4657
 1647SOL    HW116574   0.028   2.076   2.374  1.1278 -1.5092  2.3655
 1647SOL    HW216575   0.123   1.957   2.378  0.8459 -1.1733 -1.8589
 1648SOL     OW16576   0.591   0.200   4.283  0.2775  0.8668 -0.2711
 1648SOL    HW116577   0.552   0.130   4.231  1.5871  0.5599 -0.8324
 1648SOL    HW216578   0.592   0.162   4.371  2.8592 -0.6071 -0.9121
 1649SOL     OW16579   4.573   4.008  17.443  0.2924 -0.1213  0.0955
 1649SOL    HW116580   4.628   3.935  17.415  1.8248  1.3698 -0.7677
 1649SOL    HW216581   4.548   4.046  17.359 -1.7031 -2.2410 -0.2688
 1650SOL     OW16582   2.134   3.682   3.662 -0.5527  0.0030 -0.2847
 1650SOL    HW116583   2.144   3.688   3.757  0.3333  0.2377 -0.3965
 1650SOL    HW216584   2.134   3.587   3.649 -1.5667  0.0066 -0.2641
 1651SOL     OW16585   2.950   3.547   3.953 -0.7846 -0.3914 -0.4791
 1651SOL    HW116586   2.879   3.523   4.012 -0.6204  2.9499  1.0965
 1651SOL    HW216587   2.988   3.460   3.941  0.0147 -0.1715  0.4327
 1652SOL     OW16588   3.313   4.717  17.647  0.0588 -0.2411  0.4500
 1652SOL    HW116589   3.393   4.668  17.628  0.2752  0.1021  0.4794
 1652SOL    HW216590   3.306   0.054  17.584 -4.8320 -1.3166 -0.2376
 1653SOL     OW16591   0.410   1.363   9.258 -0.3152 -0.2938  0.6144
 1653SOL    HW116592   0.496   1.322   9.268 -0.4525 -1.3681 -2.6480
 1653SOL    HW216593   0.357   1.294   9.297  0.4569  0.2457  2.6156
 1654SOL     OW16594   0.872   0.087   1.434 -0.0451  0.0849 -0.0916
 1654SOL    HW116595   0.816   0.044   1.498 -2.0331 -0.0239 -1.8998
 1654SOL    HW216596   0.806   0.082   1.364  0.0074 -0.7368 -0.0797
 1655SOL     OW16597   1.895   0.506  11.786  0.3953  0.5843 -0.2557
 1655SOL    HW116598   1.828   0.525  11.851  1.9801  1.8203  1.0233
 1655SOL    HW216599   1.975   0.519  11.838 -1.2086  1.3549  1.9776
 1656SOL     OW16600   2.383   2.500   6.610  0.2526 -0.1769 -0.7246
 1656SOL    HW116601   2.443   2.445   6.560 -0.1808 -0.6736 -0.6874
 1656SOL    HW216602   2.306   2.444   6.613  1.0306 -1.2359 -0.3919
 1657SOL     OW16603   2.413   4.542  14.938 -0.1886  0.3111  0.0898
 1657SOL    HW116604   2.429   4.448  14.924 -0.9857  0.7492 -3.8413
 1657SOL    HW216605   2.429   4.578  14.851 -0.1975 -0.4532 -0.2299
 1658SOL     OW16606   3.745   3.442   0.905 -0.0429 -0.2003 -0.5839
 1658SOL    HW116607   3.761   3.436   0.811  2.0800 -2.4403 -0.0753
 1658SOL    HW216608   3.782   3.529   0.922  0.5201 -0.3245 -1.1773
 1659SOL     OW16609   2.352   0.029  12.464 -0.3137 -0.5414  0.4931
 1659SOL    HW116610   2.298   4.700  12.510 -1.2131  0.1771  0.4501
 1659SOL    HW216611   2.428   0.048  12.519 -1.1565  4.1073  0.0979
 1660SOL     OW16612   1.923   1.461   5.810 -0.1465 -0.5612  0.5881
 1660SOL    HW116613   1.986   1.406   5.764 -1.1875 -0.4527 -0.9595
 1660SOL    HW216614   1.837   1.446   5.771 -0.0298 -0.9967  0.5037
 1661SOL     OW16615   0.020   1.203   4.177  0.6082  0.0139 -0.4577
 1661SOL    HW116616   0.077   1.163   4.242 -0.5051 -1.4664 -0.3864
 1661SOL    HW216617   0.009   1.132   4.114 -1.0725 -1.9587  2.0304
 1662SOL     OW16618   2.338   3.664  11.449 -0.2787  0.1530  0.0495
 1662SOL    HW116619   2.334   3.688  11.356  0.0107 -2.5607 -0.6587
 1662SOL    HW216620   2.246   3.664  11.476  0.4673 -2.4274  2.6345
 1663SOL     OW16621   4.030   1.094   6.649 -0.5172  0.1631 -0.1051
 1663SOL    HW116622   3.945   1.133   6.671  0.5940  2.7431 -0.4275
 1663SOL    HW216623   4.004   1.004   6.633 -1.0082  0.2305  0.3025
 1664SOL     OW16624   2.343   1.319   3.120  0.2836 -0.6117  0.2391
 1664SOL    HW116625   2.315   1.338   3.031  1.1956 -0.8643 -0.1054
 1664SOL    HW216626   2.324   1.408   3.152  0.9822 -0.4248  0.1430
 1665SOL     OW16627   0.575   3.839   8.583  0.1450  0.2751 -0.5866
 1665SOL    HW116628   0.650   3.825   8.640 -0.8600  1.1008  0.9292
 1665SOL    HW216629   0.539   3.917   8.626  1.0466  0.4002 -0.0592
 1666SOL     OW16630   2.129   3.493   7.897  0.6095  0.2755 -0.1354
 1666SOL    HW116631   2.120   3.484   7.992 -1.4280 -0.5786 -0.4218
 1666SOL    HW216632   2.069   3.424   7.871 -0.7849  0.6785  2.0092
 1667SOL     OW16633   1.958   4.196   4.450 -0.2801 -0.3869  0.0858
 1667SOL    HW116634   1.883   4.155   4.493 -0.5351  1.8183  1.7501
 1667SOL    HW216635   1.985   4.255   4.521  0.7288 -1.8625  0.9474
 1668SOL     OW16636   1.774   2.697   4.790  0.6001  0.1868  0.1661
 1668SOL    HW116637   1.767   2.715   4.884 -1.3391  0.0448  0.0434
 1668SOL    HW216638   1.824   2.615   4.785  0.5422  0.1148  0.7736
 1669SOL     OW16639   0.782   3.364   9.076  0.0057 -0.1887 -0.4234
 1669SOL    HW116640   0.810   3.279   9.110  3.0728  0.5672 -0.9694
 1669SOL    HW216641   0.823   3.413   9.147 -3.0800  0.1928  1.0557
 1670SOL     OW16642   3.386   2.910   4.518  0.1556  0.4816 -0.8200
 1670SOL    HW116643   3.408   2.988   4.569  1.1140 -0.1498 -0.2798
 1670SOL    HW216644   3.294   2.904   4.544  0.3144  1.9924  0.1118
 1671SOL     OW16645   2.892   4.345  14.315  0.3593 -0.5769 -0.0378
 1671SOL    HW116646   2.852   4.261  14.291 -1.6766 -0.0873  1.7162
 1671SOL    HW216647   2.964   4.324  14.374  1.7418  0.9227 -1.1816
 1672SOL     OW16648   0.178   0.029   2.190  0.4579 -0.1343  0.1846
 1672SOL    HW116649   0.107   4.702   2.168 -0.5600  0.6942  1.1132
 1672SOL    HW216650   0.136   0.105   2.149 -0.7939 -1.2251 -0.5828
 1673SOL     OW16651   0.540   0.627   1.274  0.0035  0.3898  0.0586
 1673SOL    HW116652   0.492   0.707   1.252 -0.7695 -0.4367 -1.2625
 1673SOL    HW216653   0.507   0.569   1.206 -2.5817  0.2556  1.4371
 1674SOL     OW16654   1.876   2.187   3.952  0.2669 -0.5863  0.2854
 1674SOL    HW116655   1.943   2.172   4.019 -3.2402  1.0137  4.0936
 1674SOL    HW216656   1.922   2.145   3.878 -0.3963  0.6772 -0.8405
 1675SOL     OW16657   3.930   3.051   4.758 -0.2204 -0.2982  0.4921
 1675SOL    HW116658   3.890   3.069   4.843 -0.5338  1.3265  0.0159
 1675SOL    HW216659   3.880   3.110   4.700 -0.2921 -1.6490 -0.8236
 1676SOL     OW16660   1.465   1.351  11.391 -0.5620  0.6962 -0.7777
 1676SOL    HW116661   1.515   1.338  11.310 -1.3814 -1.6062 -0.9219
 1676SOL    HW216662   1.449   1.444  11.381  1.1723  1.0534 -0.3892
 1677SOL     OW16663   0.579   1.048  10.995  0.5429  0.2774  0.4978
 1677SOL    HW116664   0.673   1.030  10.997  0.4023 -0.5063 -0.2746
 1677SOL    HW216665   0.582   1.144  11.002  0.2849  0.3648 -0.6132
 1678SOL     OW16666   1.006   2.006   2.690 -0.6726  0.0687 -0.4917
 1678SOL    HW116667   1.056   2.049   2.620 -1.9603  2.5386  0.0950
 1678SOL    HW216668   0.920   2.010   2.647 -0.5803 -0.0221 -0.6880
 1679SOL     OW16669   0.228   3.021  13.217  0.1810 -0.2249  0.1859
 1679SOL    HW116670   0.174   3.076  13.160  1.7382 -0.7357 -1.7802
 1679SOL    HW216671   0.301   3.009  13.156  0.9955  0.0365  1.1087
 1680SOL     OW16672   4.326   4.654   8.645 -0.3198 -0.7077 -0.2944
 1680SOL    HW116673   4.338   4.682   8.736  0.5598  0.3823 -0.7479
 1680SOL    HW216674   4.337   4.734   8.594 -0.1428 -1.3712 -1.2996
 1681SOL     OW16675   4.137   2.104   0.193  0.1561  0.3454  0.1460
 1681SOL    HW116676   4.063   2.136   0.244 -0.3571 -2.8898  1.4132
 1681SOL    HW216677   4.123   2.141   0.106 -0.3449 -0.7568 -0.2425
 1682SOL     OW16678   2.227   2.864  12.746  0.1397  0.1485  0.0448
 1682SOL    HW116679   2.286   2.835  12.677 -1.0831 -0.7269 -0.6311
 1682SOL    HW216680   2.169   2.788  12.750  0.4280 -0.0779 -0.1647
 1683SOL     OW16681   2.905   3.961   3.633 -0.2075  0.8159  0.0690
 1683SOL    HW116682   2.867   4.043   3.601 -1.0111  0.3617 -0.1409
 1683SOL    HW216683   2.875   3.964   3.724  1.9185  0.5477  0.7741
 1684SOL     OW16684   3.385   1.708  14.608 -0.0041  0.4560  0.0962
 1684SOL    HW116685   3.322   1.676  14.544 -0.5677  1.5851  0.1007
 1684SOL    HW216686   3.338   1.791  14.616  0.6201  1.1010 -2.7539
 1685SOL     OW16687   3.321   4.607  16.047 -0.1800  0.1507 -0.2938
 1685SOL    HW116688   3.381   4.610  16.121 -0.4688 -2.2991  0.0488
 1685SOL    HW216689   3.374   4.589  15.969 -1.9898 -0.0280 -1.5019
 1686SOL     OW16690   3.393   4.632   2.766  0.7465  0.6752 -0.3753
 1686SOL    HW116691   3.404   4.537   2.775  1.8144  0.8890  0.6130
 1686SOL    HW216692   3.404   4.636   2.671 -0.2766  1.0515 -0.4855
 1687SOL     OW16693   1.132   4.726  12.491 -0.1965  0.3736  0.3176
 1687SOL    HW116694   1.059   4.710  12.551  1.7796 -2.1423  2.0466
 1687SOL    HW216695   1.180   4.644  12.500  0.6706  0.7625 -0.7610
 1688SOL     OW16696   2.510   1.994   3.273  0.4549 -0.5120 -0.4416
 1688SOL    HW116697   2.530   1.930   3.205 -0.1957  1.0562 -2.0924
 1688SOL    HW216698   2.449   2.052   3.228 -0.4321 -0.4595  0.8133
 1689SOL     OW16699   0.788   0.842   9.288 -0.2362  0.0740 -0.0084
 1689SOL    HW116700   0.710   0.843   9.232 -0.9597 -1.2257  0.9801
 1689SOL    HW216701   0.856   0.897   9.247  0.5310  0.1297  1.3540
 1690SOL     OW16702   0.780   2.124   7.610 -0.0605 -0.2996  0.1491
 1690SOL    HW116703   0.768   2.029   7.600 -1.0006 -0.1996  0.3612
 1690SOL    HW216704   0.703   2.147   7.661  0.3331  0.8630  0.2067
 1691SOL     OW16705   1.089   1.957   3.915 -0.4307 -0.1447 -0.4778
 1691SOL    HW116706   1.066   2.049   3.922 -1.4949 -0.4387 -0.1172
 1691SOL    HW216707   1.182   1.976   3.927  0.1094 -2.8662 -0.3731
 1692SOL     OW16708   3.277   0.213  12.683 -0.4731 -0.3022  0.2393
 1692SOL    HW116709   3.215   0.147  12.715  1.0355 -2.1386 -0.5842
 1692SOL    HW216710   3.237   0.289  12.725  1.4643  0.8356 -0.0104
 1693SOL     OW16711   0.673   0.996   6.476 -0.3778 -0.5499  0.0751
 1693SOL    HW116712   0.618   1.034   6.546 -0.8578 -1.4898  0.2090
 1693SOL    HW216713   0.726   0.933   6.525  0.2100 -1.0403 -1.2202
 1694SOL     OW16714   2.447   3.724   4.001 -0.3893 -0.1188 -0.0995
 1694SOL    HW116715   2.525   3.689   3.959  0.7049 -0.0316  1.8519
 1694SOL    HW216716   2.418   3.793   3.941 -0.1987 -1.6597 -1.9515
 1695SOL     OW16717   2.018   4.568   6.823 -0.0664  0.2645  0.4171
 1695SOL    HW116718   2.024   4.477   6.793 -0.1583  0.4693 -0.2149
 1695SOL    HW216719   2.110   4.594   6.818  0.5053 -1.9599 -1.0891
 1696SOL     OW16720   0.316   1.192  12.917 -0.2419 -0.1542  0.4212
 1696SOL    HW116721   0.275   1.108  12.938  0.3641 -0.5884 -0.1192
 1696SOL    HW216722   0.304   1.239  13.000  4.0466 -1.2333  1.6541
 1697SOL     OW16723   4.348   0.132   9.733 -0.3953 -0.3087  0.1568
 1697SOL    HW116724   4.338   0.125   9.828  0.5292  1.3693  0.3828
 1697SOL    HW216725   4.334   0.226   9.731 -1.2676 -0.4363  0.4769
 1698SOL     OW16726   3.566   0.197  11.292 -0.7483  0.1280  0.3553
 1698SOL    HW116727   3.516   0.116  11.299  0.7449 -0.7212  1.1796
 1698SOL    HW216728   3.571   0.215  11.198 -2.3528  0.0225  0.2424
 1699SOL     OW16729   4.480   1.146   6.117 -0.3791 -0.0804  0.2128
 1699SOL    HW116730   4.438   1.213   6.171 -0.5047  0.2009 -0.2331
 1699SOL    HW216731   4.462   1.062   6.160  2.4990 -1.0877 -0.5072
 1700SOL     OW16732   1.542   4.251   2.170 -0.4656  0.2776  0.2431
 1700SOL    HW116733   1.538   4.341   2.136 -1.8079  0.6940  1.5187
 1700SOL    HW216734   1.636   4.232   2.165 -0.4732 -0.0419  1.3467
 1701SOL     OW16735   4.510   1.062   0.383 -0.4205 -0.1419 -0.2966
 1701SOL    HW116736   4.440   1.057   0.317 -0.7446 -0.2347  0.0575
 1701SOL    HW216737   4.455   1.048   0.460  0.9175  0.7858  0.8302
 1702SOL     OW16738   2.643   3.728   2.612 -0.3403 -0.0310 -0.2640
 1702SOL    HW116739   2.569   3.721   2.673 -0.4580  2.0245 -0.1632
 1702SOL    HW216740   2.694   3.650   2.633  2.7052  1.7741 -0.9861
 1703SOL     OW16741   3.769   4.645  11.342 -0.9034  0.2431  0.7067
 1703SOL    HW116742   3.835   4.611  11.403 -0.1125 -2.5375 -1.7226
 1703SOL    HW216743   3.692   4.671  11.392  1.1541  1.6379  3.1494
 1704SOL     OW16744   2.397   2.544  15.084 -0.5214 -0.2207 -0.7229
 1704SOL    HW116745   2.326   2.571  15.142 -1.6058  0.5104 -2.3780
 1704SOL    HW216746   2.361   2.463  15.046 -0.1011 -0.8264  0.1736
 1705SOL     OW16747   1.943   3.849   1.756  0.0148  0.2495  0.0631
 1705SOL    HW116748   1.870   3.790   1.737  0.9452 -0.9118  0.0946
 1705SOL    HW216749   2.006   3.810   1.696  0.2350  1.1474 -0.2796
 1706SOL     OW16750   3.889   1.959   4.515  0.2447  0.5124  0.2900
 1706SOL    HW116751   3.812   1.917   4.475 -0.3655  0.2012  1.7982
 1706SOL    HW216752   3.946   1.882   4.509  0.4181  0.6456  0.2409
 1707SOL     OW16753   3.639   1.917   0.838  0.1696  0.0152 -0.1312
 1707SOL    HW116754   3.681   1.990   0.884 -1.0509  1.6565 -1.6043
 1707SOL    HW216755   3.545   1.929   0.827  0.3486  0.3702 -1.3656
 1708SOL     OW16756   4.231   1.352   9.084 -0.1390 -0.1519 -0.3706
 1708SOL    HW116757   4.183   1.429   9.115 -0.2722 -1.1814  1.9698
 1708SOL    HW216758   4.168   1.287   9.116  0.1146  0.1033  0.6391
 1709SOL     OW16759   2.055   4.338   2.418  0.4873  0.6325 -0.5937
 1709SOL    HW116760   1.963   4.329   2.391  0.4802  1.2686 -0.7976
 1709SOL    HW216761   2.073   4.415   2.364  2.0818  2.2759  2.3145
 1710SOL     OW16762   4.224   2.740  11.568 -0.7918 -0.1229  0.2322
 1710SOL    HW116763   4.140   2.724  11.610 -0.1302 -1.0002  1.2603
 1710SOL    HW216764   4.228   2.834  11.584 -0.8908 -0.2095  0.7548
 1711SOL     OW16765   3.737   1.520   8.034 -0.4871 -0.1797  0.3091
 1711SOL    HW116766   3.655   1.499   8.078 -1.1409 -0.8528 -1.2304
 1711SOL    HW216767   3.788   1.439   8.030 -0.9617 -0.5171  1.1238
 1712SOL     OW16768   3.418   3.235  16.823  0.2685 -0.4263  0.0867
 1712SOL    HW116769   3.426   3.327  16.848 -2.0939  0.2366 -1.5413
 1712SOL    HW216770   3.482   3.194  16.881  0.5775  0.6742  0.5240
 1713SOL     OW16771   3.563   1.371   2.551  0.0824 -0.1395 -0.3829
 1713SOL    HW116772   3.531   1.440   2.608  0.6432 -1.1042  1.1061
 1713SOL    HW216773   3.554   1.408   2.463 -0.8352  1.8234  0.5529
 1714SOL     OW16774   3.203   3.022  12.806 -0.4083  0.3940 -0.5993
 1714SOL    HW116775   3.147   3.087  12.849 -0.3725  0.1647 -0.2132
 1714SOL    HW216776   3.221   2.964  12.880  0.4809  1.4026 -0.0092
 1715SOL     OW16777   3.745   0.046   3.863  0.5615  0.1428  0.0372
 1715SOL    HW116778   3.813   4.726   3.824  1.0715  0.1993  0.8680
 1715SOL    HW216779   3.760   0.027   3.955 -0.2933  0.0601  0.1639
 1716SOL     OW16780   1.704   2.959   4.485  0.3674  0.1580  0.3653
 1716SOL    HW116781   1.714   2.998   4.398  3.3081  0.8144  0.9843
 1716SOL    HW216782   1.609   2.964   4.491  0.5700  0.0408  3.8648
 1717SOL     OW16783   3.580   3.090   5.196  0.2317 -0.3814 -0.5308
 1717SOL    HW116784   3.652   3.149   5.218 -0.4518  0.3709 -0.3126
 1717SOL    HW216785   3.511   3.116   5.257 -0.7773 -2.5603 -0.7348
 1718SOL     OW16786   0.608   3.366   6.961 -0.2255  0.0884  0.3281
 1718SOL    HW116787   0.550   3.363   7.038 -0.8971  1.3026 -0.1192
 1718SOL    HW216788   0.680   3.312   6.991 -0.0919  0.5166  0.7808
 1719SOL     OW16789   4.130   0.045   7.820  0.3249  0.2447 -0.3844
 1719SOL    HW116790   4.058   0.074   7.877 -1.0274 -2.6824 -0.5984
 1719SOL    HW216791   4.082   0.061   7.739  0.7396 -1.9115 -1.0389
 1720SOL     OW16792   1.821   0.086   6.404  0.0221 -0.2857 -0.4866
 1720SOL    HW116793   1.813   0.034   6.484  1.8511  0.3965  0.1415
 1720SOL    HW216794   1.917   0.089   6.394  0.2800 -0.0534  2.0334
 1721SOL     OW16795   3.704   3.925   9.264  0.4056  0.0129 -0.3453
 1721SOL    HW116796   3.721   4.019   9.252  2.9063 -0.3033  0.7082
 1721SOL    HW216797   3.730   3.890   9.179 -0.8712 -0.6431 -0.4627
 1722SOL     OW16798   2.544   4.429   5.473 -0.2264 -0.1471  0.4601
 1722SOL    HW116799   2.452   4.455   5.462  0.3332  1.5447 -0.2983
 1722SOL    HW216800   2.590   4.459   5.394 -0.0716 -1.3697  0.0939
 1723SOL     OW16801   4.636   2.413   6.725 -0.2259  0.4516 -0.0207
 1723SOL    HW116802   4.564   2.442   6.781 -0.2914  1.4197 -0.5939
 1723SOL    HW216803   4.597   2.410   6.638  2.0245  0.9430 -1.0561
 1724SOL     OW16804   0.539   4.520   6.269 -0.5331  0.5744  0.7835
 1724SOL    HW116805   0.529   4.500   6.362 -1.0721 -1.7019  0.2152
 1724SOL    HW216806   0.594   4.595   6.292  0.3222  0.3932 -0.6519
 1725SOL     OW16807   1.782   3.459   0.334  0.3788 -0.3061  0.1669
 1725SOL    HW116808   1.771   3.400   0.409 -1.1413  0.5974  0.6562
 1725SOL    HW216809   1.831   3.534   0.366 -2.3524  0.6322  2.1649
 1726SOL     OW16810   2.673   4.564   2.223  0.6587 -0.7166 -0.3312
 1726SOL    HW116811   2.688   4.624   2.296 -1.5511 -2.2406  1.3556
 1726SOL    HW216812   2.677   4.630   2.154  0.6527  0.0208  0.3686
 1727SOL     OW16813   2.420   2.292   7.230 -0.4260  0.2282 -0.2722
 1727SOL    HW116814   2.422   2.261   7.140 -2.1978 -0.4727 -0.0675
 1727SOL    HW216815   2.329   2.320   7.231 -0.5372 -0.1005 -1.3341
 1728SOL     OW16816   2.380   2.876   0.008 -0.0743 -0.1200 -0.1150
 1728SOL    HW116817   2.354   2.940  17.678 -2.7620 -0.1794  0.8961
 1728SOL    HW216818   2.346   2.796  17.706  0.0975  0.9172 -2.4171
 1729SOL     OW16819   3.437   4.021   4.654 -0.6706  0.0080 -0.0677
 1729SOL    HW116820   3.423   4.085   4.724  2.4471 -1.1467  1.5882
 1729SOL    HW216821   3.412   4.070   4.575  0.8032  1.5669  0.4445
 1730SOL     OW16822   0.263   1.506  16.610  0.4323 -0.1410  0.8391
 1730SOL    HW116823   0.311   1.540  16.686  0.6051 -0.3164  0.8112
 1730SOL    HW216824   0.293   1.566  16.542  1.6020 -0.6831  0.8649
 1731SOL     OW16825   3.679   2.057   6.807 -0.0685 -0.7401  0.5444
 1731SOL    HW116826   3.666   2.149   6.827 -0.1465 -0.9914  1.6271
 1731SOL    HW216827   3.673   2.055   6.711 -1.4505  2.7768  0.5612
 1732SOL     OW16828   2.135   2.432   8.037  0.2081 -0.1138  0.4580
 1732SOL    HW116829   2.042   2.453   8.037  0.2053 -0.1673 -3.4393
 1732SOL    HW216830   2.131   2.338   8.016  1.1812  0.2354 -1.2123
 1733SOL     OW16831   2.335   3.416   2.680  0.3408 -0.0476 -0.2020
 1733SOL    HW116832   2.402   3.348   2.682 -1.3449 -1.7227 -0.9748
 1733SOL    HW216833   2.271   3.355   2.645  0.8542  0.6059 -2.2840
 1734SOL     OW16834   4.061   2.601   3.956 -0.5548 -0.1955  0.0333
 1734SOL    HW116835   4.044   2.638   4.043 -1.5275 -0.6533  0.0434
 1734SOL    HW216836   4.156   2.604   3.949 -0.4813  0.7859  1.5251
 1735SOL     OW16837   4.290   1.944   6.124 -0.1772  0.6617  0.3841
 1735SOL    HW116838   4.287   1.848   6.114  0.5960  0.4429  2.2048
 1735SOL    HW216839   4.346   1.947   6.202 -0.1334  0.1235  0.3741
 1736SOL     OW16840   4.188   4.185   3.107 -0.2615 -0.3908  0.1906
 1736SOL    HW116841   4.234   4.196   3.190  0.6254  2.2287 -0.6531
 1736SOL    HW216842   4.260   4.195   3.044  0.1511 -1.4628  0.4840
 1737SOL     OW16843   1.151   1.625   8.991 -0.3649 -0.3050  0.0164
 1737SOL    HW116844   1.238   1.598   8.962  0.4505  2.0987  0.1637
 1737SOL    HW216845   1.161   1.720   8.995 -1.9453 -0.1986  1.0165
 1738SOL     OW16846   1.667   1.737   3.177  0.5283 -0.6678  0.5516
 1738SOL    HW116847   1.572   1.734   3.166  0.8655 -1.1600 -2.2602
 1738SOL    HW216848   1.693   1.773   3.092  1.5914  0.1888  1.2356
 1739SOL     OW16849   3.401   1.181   9.289  0.1092 -0.1290  0.0749
 1739SOL    HW116850   3.422   1.209   9.378 -0.2111  2.1862 -0.5758
 1739SOL    HW216851   3.306   1.174   9.300  0.4127 -0.5744  2.3154
 1740SOL     OW16852   1.972   2.850   3.028  0.1770 -0.0292 -0.4018
 1740SOL    HW116853   1.957   2.789   2.956  1.2476 -1.4003  0.5170
 1740SOL    HW216854   2.020   2.922   2.988  0.4785 -0.3576 -0.6344
 1741SOL     OW16855   0.833   1.736   9.907  0.3612 -0.5338 -0.0231
 1741SOL    HW116856   0.825   1.779   9.822 -1.3894  0.4743  0.6578
 1741SOL    HW216857   0.813   1.648   9.875 -1.2929 -0.6843  1.4659
 1742SOL     OW16858   3.451   0.464  13.057 -0.0995 -0.2788 -0.2279
 1742SOL    HW116859   3.495   0.418  13.129 -2.5396 -1.0634  0.7491
 1742SOL    HW216860   3.358   0.454  13.075 -0.2210  0.8478 -0.2612
 1743SOL     OW16861   2.806   1.075   6.670  0.0306  0.1043 -0.6087
 1743SOL    HW116862   2.711   1.089   6.662 -0.2340 -0.2934  1.6561
 1743SOL    HW216863   2.812   1.075   6.766  1.5514 -0.2670 -0.7064
 1744SOL     OW16864   2.187   4.388   2.807  0.1018  0.1084  0.8334
 1744SOL    HW116865   2.240   4.334   2.748 -0.1073 -2.2620  2.8395
 1744SOL    HW216866   2.234   4.362   2.886 -0.1145  1.1122  1.2874
 1745SOL     OW16867   0.054   0.326  16.672  0.1954  0.0098 -0.1043
 1745SOL    HW116868   0.033   0.287  16.757 -1.8755  1.0454 -0.1339
 1745SOL    HW216869   0.146   0.344  16.687  0.0952  1.5702 -1.3020
 1746SOL     OW16870   4.181   2.206   6.301  0.3719  0.3527  0.1308
 1746SOL    HW116871   4.190   2.144   6.229  2.2923 -0.0880  0.7420
 1746SOL    HW216872   4.094   2.178   6.331 -0.2421  0.9019 -1.1225
 1747SOL     OW16873   4.003   1.318   4.310 -0.2622  0.4163 -0.2162
 1747SOL    HW116874   3.942   1.366   4.366  0.8864  0.0129  1.3476
 1747SOL    HW216875   4.086   1.358   4.332  1.3846 -2.5700 -0.9783
 1748SOL     OW16876   0.765   1.553  13.610  0.4238  0.1359 -0.7764
 1748SOL    HW116877   0.853   1.542  13.576  0.3804  0.0067 -0.8440
 1748SOL    HW216878   0.729   1.466  13.599  0.8909 -0.1478 -0.0750
 1749SOL     OW16879   3.645   0.930   6.422 -0.8999 -0.0482 -0.5914
 1749SOL    HW116880   3.663   1.016   6.460  0.7645  0.0009 -1.4881
 1749SOL    HW216881   3.637   0.885   6.507 -2.2508 -0.9988 -1.2308
 1750SOL     OW16882   0.786   1.271   6.594 -0.2036 -0.1729 -0.1409
 1750SOL    HW116883   0.818   1.228   6.674  0.1424  0.8890  0.2926
 1750SOL    HW216884   0.843   1.219   6.537  0.4683 -0.7093  1.0062
 1751SOL     OW16885   1.612   1.449   2.788 -0.1133  0.5198 -0.3870
 1751SOL    HW116886   1.627   1.361   2.756  1.3871  1.0248 -1.0577
 1751SOL    HW216887   1.532   1.468   2.739  0.6694  3.0682 -0.7057
 1752SOL     OW16888   4.295   2.807   3.655  0.6923  0.1295  0.4703
 1752SOL    HW116889   4.214   2.791   3.607  0.6349 -1.2213  1.0185
 1752SOL    HW216890   4.305   2.901   3.640 -0.5172  0.1330 -0.3141
 1753SOL     OW16891   0.004   3.082  13.026 -0.1255 -0.5945  0.1063
 1753SOL    HW116892   4.685   3.017  13.071 -0.9276 -0.0137 -0.0117
 1753SOL    HW216893   4.690   3.114  12.950  1.5971 -0.3386 -0.8956
 1754SOL     OW16894   2.632   3.932  17.129 -0.0026 -0.6387 -0.1050
 1754SOL    HW116895   2.707   3.876  17.150  1.7493  2.1858  1.0665
 1754SOL    HW216896   2.573   3.860  17.106  1.1019 -1.3204 -0.8050
 1755SOL     OW16897   2.287   1.525   5.691  0.2975  0.2075  0.3325
 1755SOL    HW116898   2.223   1.577   5.738  0.8666  0.9603  0.2647
 1755SOL    HW216899   2.346   1.495   5.760 -0.9047 -0.6011  1.0229
 1756SOL     OW16900   2.510   3.898   1.482 -0.1994  0.0406 -0.1745
 1756SOL    HW116901   2.549   3.888   1.395 -1.9385 -1.1096 -0.8310
 1756SOL    HW216902   2.514   3.992   1.497  3.3478  0.1165 -1.5483
 1757SOL     OW16903   4.677   2.795   1.974 -0.2814  0.0035  0.2021
 1757SOL    HW116904   4.708   2.831   1.891 -2.3938 -1.6501 -1.2940
 1757SOL    HW216905   4.712   2.859   2.036 -0.0075  0.9219 -0.9013
 1758SOL     OW16906   4.717   3.095   2.538  0.2871 -0.6787  0.0607
 1758SOL    HW116907   4.715   3.155   2.612 -0.7349 -0.1799 -0.3703
 1758SOL    HW216908   4.629   3.106   2.502  0.3472  0.1025  0.1539
 1759SOL     OW16909   0.350   0.153   8.880  0.3569  0.4365  0.0507
 1759SOL    HW116910   0.336   0.208   8.803 -0.6673 -0.0525 -0.1099
 1759SOL    HW216911   0.433   0.184   8.917 -0.2138  1.7104  0.2743
 1760SOL     OW16912   0.747   1.309   2.090  0.0493 -0.1303 -0.2071
 1760SOL    HW116913   0.717   1.335   2.003  1.6511 -3.0245 -1.6406
 1760SOL    HW216914   0.712   1.379   2.146 -1.0972 -0.8699  0.0075
 1761SOL     OW16915   2.996   1.536  15.216  0.1094  0.1402 -0.3317
 1761SOL    HW116916   3.063   1.481  15.257 -0.2319  0.2405  0.3610
 1761SOL    HW216917   2.978   1.479  15.141 -1.2650  0.9809 -0.6400
 1762SOL     OW16918   0.785   0.368  17.126 -0.5630 -0.2621 -0.3861
 1762SOL    HW116919   0.850   0.437  17.143  0.1917 -0.7011 -1.4932
 1762SOL    HW216920   0.779   0.382  17.031 -0.4814  0.0057 -0.3525
 1763SOL     OW16921   3.165   4.151  13.307  0.1402  0.0590 -0.2046
 1763SOL    HW116922   3.186   4.234  13.265 -0.8272  1.0211  1.2029
 1763SOL    HW216923   3.242   4.141  13.362 -1.5907 -1.2167  1.9829
 1764SOL     OW16924   2.172   0.888   7.168 -0.0994  0.3509 -0.1930
 1764SOL    HW116925   2.084   0.850   7.174 -0.0022 -0.6565 -5.1782
 1764SOL    HW216926   2.217   0.858   7.247 -0.6124  2.4594  0.8884
 1765SOL     OW16927   0.819   3.905   6.672 -0.1097  0.4777  0.1417
 1765SOL    HW116928   0.834   3.983   6.726 -0.3188 -1.1060  2.4683
 1765SOL    HW216929   0.726   3.893   6.688 -0.0595 -0.6285 -0.4084
 1766SOL     OW16930   3.420   1.778   4.190 -0.8420 -0.0860 -0.0389
 1766SOL    HW116931   3.453   1.858   4.148 -0.1478  0.4291  1.5100
 1766SOL    HW216932   3.498   1.758   4.240 -0.0256  1.2010 -0.8064
 1767SOL     OW16933   2.373   3.711   6.518  0.4635  0.0333 -0.0553
 1767SOL    HW116934   2.387   3.804   6.534  1.9651  0.2427 -2.6817
 1767SOL    HW216935   2.460   3.683   6.488  0.4608  1.1989 -1.1329
 1768SOL     OW16936   4.183   1.849  17.566 -0.0695 -0.3129 -0.2629
 1768SOL    HW116937   4.200   1.842  17.660 -0.0003  1.7565 -0.1145
 1768SOL    HW216938   4.207   1.763  17.532 -1.4815 -1.0037  0.4919
 1769SOL     OW16939   2.836   0.885   1.175 -0.6434  0.3508 -0.5886
 1769SOL    HW116940   2.834   0.945   1.100  0.9820 -0.5954 -1.3786
 1769SOL    HW216941   2.742   0.877   1.196 -0.0879 -1.9393  0.9983
 1770SOL     OW16942   2.518   0.527   2.156 -0.7415  0.0303  0.1686
 1770SOL    HW116943   2.533   0.473   2.078 -1.4948 -1.1173  0.8235
 1770SOL    HW216944   2.546   0.456   2.214 -1.7987 -0.1611  0.4357
 1771SOL     OW16945   1.687   2.288   0.760  0.3525  0.3476  0.8481
 1771SOL    HW116946   1.661   2.226   0.828 -3.9638  1.1342 -0.1028
 1771SOL    HW216947   1.772   2.321   0.788  0.2788 -0.1590  1.6716
 1772SOL     OW16948   0.582   2.335   8.086  0.3169 -0.5681  0.1417
 1772SOL    HW116949   0.605   2.245   8.066  1.4841  0.6135 -3.7835
 1772SOL    HW216950   0.648   2.367   8.024  0.1835  2.9314  1.7859
 1773SOL     OW16951   0.186   2.715  16.603  0.0079 -0.3278  0.1337
 1773SOL    HW116952   0.259   2.777  16.606  0.2609 -0.5858 -1.0575
 1773SOL    HW216953   0.151   2.741  16.518  1.1717 -2.5979 -1.0173
 1774SOL     OW16954   0.045   0.867  15.487 -0.7212  0.3025  0.0759
 1774SOL    HW116955   0.012   0.934  15.427 -0.6016  2.4385  2.3916
 1774SOL    HW216956   4.719   0.796  15.468  2.7168 -2.0232 -2.3434
 1775SOL     OW16957   2.854   1.359   9.338  0.4068 -0.1019  0.0996
 1775SOL    HW116958   2.889   1.437   9.294 -1.8572 -0.1890 -1.8338
 1775SOL    HW216959   2.888   1.370   9.427  0.4881  1.3610 -0.1133
 1776SOL     OW16960   0.130   4.349   6.665 -0.2758  0.1992 -0.0103
 1776SOL    HW116961   0.172   4.434   6.675 -1.4599  0.6530  1.1795
 1776SOL    HW216962   0.204   4.288   6.659 -2.8368 -2.8169 -1.2262
 1777SOL     OW16963   0.424   4.662   1.004  0.1892  0.7115  0.8132
 1777SOL    HW116964   0.475   4.585   0.977 -0.0636 -0.2439  3.0826
 1777SOL    HW216965   0.383   4.687   0.921 -0.9590 -0.9389  0.8741
 1778SOL     OW16966   0.614   2.456  12.504  0.6106  0.6352  0.3026
 1778SOL    HW116967   0.610   2.361  12.500  2.2983  0.6171 -0.9188
 1778SOL    HW216968   0.700   2.476  12.543 -0.4517  3.0973  1.3896
 1779SOL     OW16969   0.039   3.038   8.077  0.1882 -0.4308 -0.3176
 1779SOL    HW116970   0.071   3.032   7.987 -0.7932  1.4393 -0.7899
 1779SOL    HW216971   4.716   3.114   8.080 -0.4576 -0.9081 -0.6975
 1780SOL     OW16972   0.632   4.545  11.846  0.8202 -0.0740 -0.1833
 1780SOL    HW116973   0.600   4.462  11.811  0.2311 -0.7726  2.0733
 1780SOL    HW216974   0.549   4.592  11.854  0.4904 -1.0716  2.2110
 1781SOL     OW16975   0.083   0.080   7.686  0.8287  0.5500 -0.2434
 1781SOL    HW116976   0.055   0.016   7.751 -0.5684 -0.2660 -1.6595
 1781SOL    HW216977   0.006   0.137   7.685  0.3871 -0.0570 -0.5596
 1782SOL     OW16978   2.570   2.014  16.384 -0.3031 -0.3004 -0.7599
 1782SOL    HW116979   2.545   1.929  16.348 -1.7789  0.1249 -0.7449
 1782SOL    HW216980   2.579   2.064  16.304 -1.4494  1.3286  0.1244
 1783SOL     OW16981   4.139   2.575   4.852 -0.3378  0.0087 -0.5368
 1783SOL    HW116982   4.057   2.623   4.843 -0.6070 -0.0401  1.6495
 1783SOL    HW216983   4.119   2.485   4.880  0.5631  0.8362  2.6869
 1784SOL     OW16984   4.326   3.055   3.993 -0.5295 -0.5843 -0.3190
 1784SOL    HW116985   4.397   3.088   4.048 -0.8542 -2.3840  1.1756
 1784SOL    HW216986   4.306   3.135   3.945 -0.2313 -0.7931 -0.7952
 1785SOL     OW16987   0.606   0.890   8.175 -0.0750 -0.5090  0.1837
 1785SOL    HW116988   0.629   0.934   8.257 -1.7089 -0.8073  0.8214
 1785SOL    HW216989   0.596   0.799   8.204 -2.2527  0.4650  2.5602
 1786SOL     OW16990   1.812   0.716   1.662  0.1485  0.3930  0.0950
 1786SOL    HW116991   1.904   0.731   1.642 -0.9696  2.4361 -3.6888
 1786SOL    HW216992   1.777   0.805   1.672 -0.4406  0.2192 -0.3733
 1787SOL     OW16993   2.309   0.454  11.902  0.4975 -0.0808  0.0111
 1787SOL    HW116994   2.326   0.370  11.944 -1.4712 -0.0313  0.9075
 1787SOL    HW216995   2.389   0.488  11.862  1.1341 -1.1684  0.3706
 1788SOL     OW16996   2.653   2.467   6.808  0.2284 -0.5731  0.4356
 1788SOL    HW116997   2.684   2.441   6.895  1.1449 -0.3731  0.1655
 1788SOL    HW216998   2.595   2.538   6.836  0.7442  0.0268 -0.0156
 1789SOL     OW16999   1.728   0.199   7.479  0.1052  0.0018 -0.6559
 1789SOL    HW117000   1.781   0.217   7.556 -0.1457  1.0795 -0.7402
 1789SOL    HW217001   1.678   0.123   7.508  0.3696 -0.1825 -0.6726
 1790SOL     OW17002   2.051   2.743  11.718 -0.0886  0.0610  0.5404
 1790SOL    HW117003   1.990   2.712  11.785 -0.1824  0.3824  0.6036
 1790SOL    HW217004   2.000   2.723  11.639  2.1778  2.0623 -1.4274
 1791SOL     OW17005   4.701   2.700   6.447 -0.1362 -0.1720  0.5704
 1791SOL    HW117006   4.680   2.788   6.479  4.3327  1.8212 -1.9732
 1791SOL    HW217007   0.026   2.729   6.378 -1.3608 -1.6275 -1.0740
 1792SOL     OW17008   1.489   3.625   4.692 -0.5572  0.6705  0.2191
 1792SOL    HW117009   1.484   3.541   4.738  0.7037 -0.0495 -0.9580
 1792SOL    HW217010   1.404   3.635   4.651  0.2921  3.2490 -0.9269
 1793SOL     OW17011   2.331   3.969  14.906 -0.2558  0.0961 -0.1385
 1793SOL    HW117012   2.420   3.960  14.874 -0.0713 -0.1275  0.4346
 1793SOL    HW217013   2.280   3.934  14.833 -0.3220 -0.1864  0.0414
 1794SOL     OW17014   1.759   1.583   7.995 -0.0957 -0.4032  0.2381
 1794SOL    HW117015   1.748   1.495   7.958 -2.1654  1.0065 -2.5053
 1794SOL    HW217016   1.838   1.615   7.951 -1.6460  1.6358 -1.0412
 1795SOL     OW17017   0.606   3.936   3.807 -0.0150  0.1355  0.4262
 1795SOL    HW117018   0.541   3.993   3.765  0.5804  1.2073  0.9691
 1795SOL    HW217019   0.688   3.951   3.761 -0.5474  1.5618 -0.0645
 1796SOL     OW17020   1.527   1.216  10.080 -0.0202 -0.0198  0.3599
 1796SOL    HW117021   1.551   1.179  10.165  2.0724  0.2136 -0.1209
 1796SOL    HW217022   1.450   1.165  10.054 -1.1508  1.6915  0.3456
 1797SOL     OW17023   1.498   1.974  13.372 -0.3549  0.1648  0.0455
 1797SOL    HW117024   1.572   1.923  13.337 -0.5405  0.5246 -0.8758
 1797SOL    HW217025   1.498   1.961  13.467  1.1144 -3.1064 -0.3773
 1798SOL     OW17026   4.189   1.574   7.028  0.2570  0.5561  0.1020
 1798SOL    HW117027   4.169   1.665   7.048  1.9570  0.5183  1.9097
 1798SOL    HW217028   4.133   1.534   7.094  2.3315  1.1512  2.2311
 1799SOL     OW17029   3.222   0.222   1.907 -0.5939  0.2880 -0.0846
 1799SOL    HW117030   3.183   0.135   1.913 -0.4371  0.1613 -0.9162
 1799SOL    HW217031   3.156   0.261   1.850 -0.3768  0.6923 -0.0563
 1800SOL     OW17032   1.901   2.619  10.666 -0.4059  0.0156  0.4105
 1800SOL    HW117033   1.847   2.550  10.628  0.0717  0.5517 -1.2217
 1800SOL    HW217034   1.843   2.695  10.674 -0.4249 -0.2326  2.7528
 1801SOL     OW17035   0.333   1.209   5.374 -0.1000  0.3480 -0.2922
 1801SOL    HW117036   0.416   1.246   5.402  0.1803  0.2360 -0.9878
 1801SOL    HW217037   0.356   1.125   5.335 -0.1971  0.1056  0.1666
 1802SOL     OW17038   0.364   4.293   2.961  0.5795 -0.3942 -0.3395
 1802SOL    HW117039   0.421   4.224   2.927  3.6535  2.9041 -1.8699
 1802SOL    HW217040   0.418   4.323   3.034  2.1719 -1.9490 -0.8788
 1803SOL     OW17041   1.657   1.029   8.764 -0.4374  0.2840 -0.5262
 1803SOL    HW117042   1.712   0.960   8.803  0.5190  1.5776  0.4269
 1803SOL    HW217043   1.714   1.037   8.688  1.1415 -2.7897  0.3616
 1804SOL     OW17044   0.900   0.953   1.786 -0.2677 -0.0325  0.3152
 1804SOL    HW117045   0.940   0.893   1.849 -0.6103  0.3808  0.9331
 1804SOL    HW217046   0.974   1.015   1.780 -0.0915 -0.1760  1.0512
 1805SOL     OW17047   3.585   2.010   3.085  0.0446 -0.2467 -0.4733
 1805SOL    HW117048   3.551   1.925   3.112  1.9282 -0.6072  0.8465
 1805SOL    HW217049   3.598   2.003   2.991  1.5928  1.5217 -0.3921
 1806SOL     OW17050   1.689   2.130  16.675  0.1853 -0.4129  0.4028
 1806SOL    HW117051   1.651   2.053  16.633  0.4132  0.3851 -1.2308
 1806SOL    HW217052   1.628   2.155  16.744 -1.9528  0.4404 -1.8169
 1807SOL     OW17053   1.791   0.563  16.780  0.0768  0.2676 -0.3709
 1807SOL    HW117054   1.801   0.560  16.875 -0.2371 -0.3366 -0.3578
 1807SOL    HW217055   1.848   0.488  16.767  1.4414  1.2484 -0.0131
 1808SOL     OW17056   0.868   2.631   4.550 -0.3793  0.3005 -0.7354
 1808SOL    HW117057   0.830   2.719   4.548  1.8040  1.2540 -0.1467
 1808SOL    HW217058   0.942   2.644   4.491 -0.5591 -1.3321 -1.3321
 1809SOL     OW17059   4.725   1.739   4.483 -0.5052 -0.5636 -0.0748
 1809SOL    HW117060   0.061   1.677   4.465 -2.1178 -2.3014 -0.3847
 1809SOL    HW217061   0.001   1.803   4.413  0.1863  0.6869  1.1644
 1810SOL     OW17062   2.618   3.631   6.003 -0.2943 -0.3200 -0.6626
 1810SOL    HW117063   2.708   3.598   6.013 -0.4981 -1.0255 -1.1404
 1810SOL    HW217064   2.581   3.557   5.955 -0.2637 -1.9671  1.8180
 1811SOL     OW17065   3.447   2.331   3.842  0.0684  0.6402  0.4387
 1811SOL    HW117066   3.368   2.278   3.858  0.3058 -0.7295 -2.9149
 1811SOL    HW217067   3.510   2.281   3.791 -2.3916  1.0421 -2.9796
 1812SOL     OW17068   1.280   2.671  14.623 -0.1560  1.3325 -0.0656
 1812SOL    HW117069   1.353   2.701  14.569  1.8833 -0.3345  1.8021
 1812SOL    HW217070   1.307   2.673  14.715 -1.4237  1.1419  0.3110
 1813SOL     OW17071   0.811   0.131   8.043 -1.6583 -0.2960  0.1149
 1813SOL    HW117072   0.848   0.211   8.079  1.3445 -1.3030 -0.7092
 1813SOL    HW217073   0.881   0.099   7.986  0.3326  2.9276  0.7423
 1814SOL     OW17074   0.644   0.940   0.677  0.3158 -0.6201  0.1341
 1814SOL    HW117075   0.736   0.953   0.653  1.1526 -2.8395  2.1417
 1814SOL    HW217076   0.660   0.877   0.747 -0.3123 -0.2536  0.6080
 1815SOL     OW17077   2.661   1.174   9.301 -0.4963 -0.0586  0.4378
 1815SOL    HW117078   2.634   1.191   9.391 -1.2770 -0.5188  0.2975
 1815SOL    HW217079   2.730   1.240   9.295 -0.1736 -0.7341 -3.2923
 1816SOL     OW17080   4.302   0.028   1.826 -0.0956  0.8481  0.1949
 1816SOL    HW117081   4.236   0.095   1.846 -0.6466 -0.7481  3.8245
 1816SOL    HW217082   4.340   0.065   1.746 -1.6856  0.7910 -0.5827
 1817SOL     OW17083   0.859   1.803   8.927 -0.0010 -0.1615 -0.9982
 1817SOL    HW117084   0.901   1.762   8.852 -0.5359 -0.7629 -0.9718
 1817SOL    HW217085   0.921   1.872   8.951 -3.0197  1.7669  1.3110
 1818SOL     OW17086   2.559   1.142   2.765  0.1403 -0.3434 -0.5246
 1818SOL    HW117087   2.558   1.131   2.861 -2.4755 -0.2223 -0.5402
 1818SOL    HW217088   2.475   1.098   2.751 -0.0282 -0.8823  2.0935
 1819SOL     OW17089   2.413   4.312  17.071 -0.0128  0.1255  0.2999
 1819SOL    HW117090   2.504   4.323  17.098 -0.2627 -0.7104  1.4742
 1819SOL    HW217091   2.425   4.252  16.997 -0.2216  1.2959 -0.6681
 1820SOL     OW17092   1.484   2.034   3.082 -0.6917 -0.2203 -0.4478
 1820SOL    HW117093   1.448   1.946   3.073 -0.2527 -0.3756 -0.6679
 1820SOL    HW217094   1.473   2.061   3.173 -3.1110  3.2883 -1.7368
 1821SOL     OW17095   0.702   3.397   2.207 -0.4062 -0.2556  0.1159
 1821SOL    HW117096   0.679   3.445   2.128 -1.2042 -2.2676 -0.8809
 1821SOL    HW217097   0.717   3.307   2.177  2.4999  0.1384  0.4125
 1822SOL     OW17098   1.593   4.143   8.371  0.2083 -0.1389 -0.8821
 1822SOL    HW117099   1.676   4.100   8.351  0.6613  0.2153  0.3028
 1822SOL    HW217100   1.606   4.221   8.317  0.3228  0.2878 -0.2283
 1823SOL     OW17101   2.593   2.826   3.721 -0.8056 -0.3484  0.0223
 1823SOL    HW117102   2.503   2.828   3.686 -0.4732  0.9841 -0.7489
 1823SOL    HW217103   2.622   2.739   3.692  0.0197 -0.8420  2.3407
 1824SOL     OW17104   3.942   4.332   4.115  0.4238 -0.4639 -0.3888
 1824SOL    HW117105   3.875   4.368   4.056  1.0195  2.3059  0.6193
 1824SOL    HW217106   3.928   4.390   4.190  1.0519 -0.0607 -0.5789
 1825SOL     OW17107   3.915   3.126  17.165 -0.5492 -0.5247  0.5181
 1825SOL    HW117108   3.904   3.220  17.154 -0.5377 -0.7710 -1.5470
 1825SOL    HW217109   3.964   3.131  17.247  3.3503  3.0367 -2.0322
 1826SOL     OW17110   2.022   3.036   4.220 -0.1309 -0.0012 -0.3247
 1826SOL    HW117111   2.109   3.045   4.181 -1.3533 -0.9709 -3.2232
 1826SOL    HW217112   1.968   3.071   4.150  0.4257  0.9590 -0.2757
 1827SOL     OW17113   3.953   0.432   0.060  0.2544  0.2905 -0.4603
 1827SOL    HW117114   3.931   0.525   0.058 -2.9878 -0.4181  1.6807
 1827SOL    HW217115   4.008   0.423  17.719  1.0484 -2.1327  0.3692
 1828SOL     OW17116   1.971   1.018   9.451  0.0141 -0.0914 -0.3433
 1828SOL    HW117117   2.019   1.095   9.420 -1.3303  0.1352 -1.8423
 1828SOL    HW217118   1.889   1.035   9.404 -0.3289  0.6300  0.5126
 1829SOL     OW17119   2.230   3.374   5.920  0.5855  0.2796 -0.6779
 1829SOL    HW117120   2.176   3.443   5.958  0.5002 -0.6647  0.9174
 1829SOL    HW217121   2.155   3.341   5.871  1.8014 -0.2279 -2.1996
 1830SOL     OW17122   2.525   3.427   6.941  0.0814  0.3934  0.8818
 1830SOL    HW117123   2.604   3.383   6.910 -0.5196  2.2092 -3.1588
 1830SOL    HW217124   2.528   3.416   7.036 -2.7250  1.2675  1.0872
 1831SOL     OW17125   1.495   1.212   6.386  0.1921  0.0566  0.1288
 1831SOL    HW117126   1.566   1.160   6.349  0.1885 -1.0873  1.7078
 1831SOL    HW217127   1.541   1.287   6.425  3.7991 -1.8071 -0.5423
 1832SOL     OW17128   0.875   0.920   3.233 -0.3320 -0.2332 -0.5494
 1832SOL    HW117129   0.780   0.925   3.218  0.2341  1.2093 -3.7796
 1832SOL    HW217130   0.898   0.985   3.166 -0.8198 -0.3303 -0.8149
 1833SOL     OW17131   4.348   2.143   5.082 -0.1969 -0.3590 -0.5057
 1833SOL    HW117132   4.381   2.151   4.993 -1.8863  0.1708 -1.0915
 1833SOL    HW217133   4.421   2.099   5.125 -0.2169 -0.3267 -0.4388
 1834SOL     OW17134   1.798   3.545   4.007  0.2794  0.3087  0.1300
 1834SOL    HW117135   1.742   3.529   4.083 -0.0544 -1.5445 -0.4953
 1834SOL    HW217136   1.755   3.623   3.972 -0.9337  0.3993  1.8458
 1835SOL     OW17137   4.526   3.042  15.340 -0.3022  0.1119  0.0515
 1835SOL    HW117138   4.456   3.033  15.277 -0.1640  1.1110 -0.2332
 1835SOL    HW217139   4.571   2.957  15.342 -1.5725 -0.5199  1.8932
 1836SOL     OW17140   0.120   3.798   2.405  0.0521  0.2203 -0.1251
 1836SOL    HW117141   0.098   3.725   2.463 -0.1949  0.3954  0.0008
 1836SOL    HW217142   0.195   3.837   2.450 -0.2514  0.8630 -0.1825
 1837SOL     OW17143   3.293   1.220   5.916 -0.1070 -0.4937  0.4072
 1837SOL    HW117144   3.323   1.290   5.858 -0.1578 -0.9381 -0.1491
 1837SOL    HW217145   3.370   1.193   5.966 -0.3027 -0.1745  0.8801
 1838SOL     OW17146   1.560   4.345   8.190  0.3539 -0.0445  0.3113
 1838SOL    HW117147   1.554   4.322   8.098  0.6824  1.3820 -0.0657
 1838SOL    HW217148   1.482   4.401   8.195  1.6430  1.6533  1.3726
 1839SOL     OW17149   0.434   3.841   5.336  0.0085 -0.3990 -0.0909
 1839SOL    HW117150   0.440   3.878   5.424 -0.5393 -2.0478  0.6372
 1839SOL    HW217151   0.512   3.887   5.306 -0.6818 -0.0056 -1.3310
 1840SOL     OW17152   3.113   4.702   3.585  0.5579  0.4754  0.1979
 1840SOL    HW117153   3.110   4.706   3.680 -1.9217  0.2328  0.1298
 1840SOL    HW217154   3.035   0.020   3.564  1.1969  1.2057 -0.3469
 1841SOL     OW17155   1.027   1.054   7.727  0.1832 -0.1576 -0.2355
 1841SOL    HW117156   1.015   1.134   7.675 -0.4568  0.9168  1.5370
 1841SOL    HW217157   1.047   1.091   7.813  0.2572  0.5071 -0.5400
 1842SOL     OW17158   2.467   3.856   8.669 -0.7559  0.4350 -0.5112
 1842SOL    HW117159   2.502   3.783   8.619 -1.7844 -1.4043  1.4667
 1842SOL    HW217160   2.475   3.836   8.762 -1.5032 -2.0592 -0.9825
 1843SOL     OW17161   2.185   3.469  11.911  0.2970  0.4603 -0.3071
 1843SOL    HW117162   2.244   3.515  11.851  1.3445 -3.0352 -1.9402
 1843SOL    HW217163   2.231   3.385  11.922 -0.4855  0.5324  3.4358
 1844SOL     OW17164   2.838   4.067   4.695 -0.0037  0.1876  0.8781
 1844SOL    HW117165   2.752   4.108   4.711 -0.0051 -0.5880  2.8582
 1844SOL    HW217166   2.838   3.999   4.762  0.2633  1.1667  1.8656
 1845SOL     OW17167   0.506   2.726   5.514  0.7154  0.7571  0.4872
 1845SOL    HW117168   0.433   2.704   5.572 -0.6095 -0.0981 -1.4954
 1845SOL    HW217169   0.558   2.779   5.574 -0.0329  1.4355  0.5408
 1846SOL     OW17170   0.500   4.404   6.526  0.3870 -0.1190  0.3641
 1846SOL    HW117171   0.594   4.415   6.534  0.4506 -0.3161 -0.1545
 1846SOL    HW217172   0.475   4.438   6.612 -0.6735 -1.5870  0.6450
 1847SOL     OW17173   2.624   3.234   4.660 -0.3678  0.2511 -1.2951
 1847SOL    HW117174   2.648   3.225   4.568  0.7673 -1.2024 -0.8497
 1847SOL    HW217175   2.547   3.177   4.665 -1.3755  1.7946  0.6997
 1848SOL     OW17176   1.084   0.798   5.917  0.0013 -0.6317  0.1298
 1848SOL    HW117177   1.038   0.877   5.890 -1.6994 -1.4102  0.7767
 1848SOL    HW217178   1.059   0.782   6.008  3.3674 -0.7879  1.0382
 1849SOL     OW17179   3.363   3.344   2.431  0.1505 -0.1096  0.0817
 1849SOL    HW117180   3.427   3.299   2.485 -0.4963 -0.0429  0.9029
 1849SOL    HW217181   3.424   3.411   2.399 -1.4754  0.7735 -1.1461
 1850SOL     OW17182   3.047   4.100   9.661 -0.4902 -0.0437  0.1734
 1850SOL    HW117183   3.010   4.167   9.719 -0.4800 -0.5163  0.7214
 1850SOL    HW217184   2.970   4.087   9.605  0.3403 -1.1336 -0.7132
 1851SOL     OW17185   4.404   4.318   9.122  0.7887 -0.3469  0.5177
 1851SOL    HW117186   4.472   4.377   9.089 -0.0226 -0.6633 -1.7670
 1851SOL    HW217187   4.355   4.378   9.177  0.6149 -0.6850  0.7278
 1852SOL     OW17188   2.509   4.175   8.022 -0.0047 -0.6070  0.5580
 1852SOL    HW117189   2.538   4.211   7.938  0.9867  0.8109  1.5124
 1852SOL    HW217190   2.532   4.084   8.002  2.2275 -0.1614  1.1339
 1853SOL     OW17191   1.887   3.275   4.593 -0.2411  0.1089  0.2242
 1853SOL    HW117192   1.937   3.221   4.531 -0.8221  0.0874 -0.2297
 1853SOL    HW217193   1.947   3.293   4.665 -0.0693 -1.0892  0.3910
 1854SOL     OW17194   2.761   2.984   3.543 -0.3413 -0.1515 -0.4985
 1854SOL    HW117195   2.676   2.988   3.586 -0.0133  0.1344  0.1291
 1854SOL    HW217196   2.739   2.929   3.468  3.5280 -3.1444  0.5183
 1855SOL     OW17197   0.476   1.814  12.295  0.3819 -0.5140 -0.4493
 1855SOL    HW117198   0.445   1.765  12.371  0.9100  1.3741  0.9995
 1855SOL    HW217199   0.452   1.754  12.225 -0.2901 -1.8131  0.9035
 1856SOL     OW17200   0.965   1.650   5.027  0.3130 -0.5745  0.3554
 1856SOL    HW117201   1.025   1.664   4.954 -0.9009  0.1901 -0.4892
 1856SOL    HW217202   1.024   1.641   5.102 -1.3813  0.3386  1.7968
 1857SOL     OW17203   2.452   1.564   1.994  0.6023 -0.0483 -0.0070
 1857SOL    HW117204   2.417   1.481   2.026 -0.1012 -0.0116 -0.6662
 1857SOL    HW217205   2.447   1.557   1.898 -0.4118 -1.7317  0.1767
 1858SOL     OW17206   0.430   1.131   7.760  0.1906 -0.3217  1.1881
 1858SOL    HW117207   0.437   1.089   7.845 -0.3554  1.3187  2.0488
 1858SOL    HW217208   0.467   1.063   7.704  3.1194  1.2344  1.2678
 1859SOL     OW17209   0.093   3.930   3.958  0.3834  0.3120  0.2895
 1859SOL    HW117210   0.153   3.893   3.893  0.0713 -0.5561  0.4864
 1859SOL    HW217211   0.032   3.858   3.942 -0.5522  1.9456 -3.3474
 1860SOL     OW17212   4.065   2.197   7.587  0.4073  0.7036  0.0872
 1860SOL    HW117213   3.979   2.167   7.615  0.4008 -0.3886 -1.1166
 1860SOL    HW217214   4.075   2.289   7.613  0.6846  0.6508  0.1695
 1861SOL     OW17215   4.516   2.321   3.388 -0.7491 -0.3104  0.0818
 1861SOL    HW117216   4.522   2.253   3.455  1.8881  1.1999  1.3646
 1861SOL    HW217217   4.554   2.392   3.439  0.1640 -0.6023 -0.1790
 1862SOL     OW17218   0.025   1.165   6.627  0.3415 -0.0620  0.2199
 1862SOL    HW117219   0.060   1.211   6.704  1.4061 -1.6119  0.6691
 1862SOL    HW217220   4.675   1.208   6.618 -0.7287 -2.5706 -1.8877
 1863SOL     OW17221   0.763   1.785   1.172 -0.4286 -0.1190 -0.4788
 1863SOL    HW117222   0.668   1.797   1.162 -0.3756 -1.5386 -2.6967
 1863SOL    HW217223   0.788   1.770   1.081 -1.2861 -3.1571 -0.1984
 1864SOL     OW17224   4.248   3.792   2.438 -1.1434 -0.0221 -0.0578
 1864SOL    HW117225   4.292   3.765   2.519 -2.7475 -0.7560  0.5629
 1864SOL    HW217226   4.304   3.865   2.413  1.2963 -1.3923  1.3617
 1865SOL     OW17227   1.941   1.050   5.356 -0.0192  0.0805 -0.5305
 1865SOL    HW117228   1.858   1.088   5.383  0.0606  1.1419 -1.8016
 1865SOL    HW217229   1.968   1.107   5.284 -1.1319  2.3881  0.8792
 1866SOL     OW17230   1.528   0.279   8.627  0.0238  0.6939 -0.5842
 1866SOL    HW117231   1.624   0.272   8.628 -0.0717 -0.4271  1.4251
 1866SOL    HW217232   1.493   0.247   8.710  4.2236  0.1838  0.9931
 1867SOL     OW17233   4.018   3.635   7.962  0.1150 -0.2088 -0.1423
 1867SOL    HW117234   3.983   3.547   7.952  1.6121 -0.8892  0.6431
 1867SOL    HW217235   4.094   3.609   8.015  0.7632  0.2978 -0.8221
 1868SOL     OW17236   0.455   1.443   2.894 -0.3560 -0.3684  0.1378
 1868SOL    HW117237   0.399   1.437   2.971 -0.6065 -0.2808 -0.0362
 1868SOL    HW217238   0.394   1.421   2.823 -0.7181 -1.1246  0.6831
 1869SOL     OW17239   0.778   2.575   5.113  0.4003  0.3881  0.0719
 1869SOL    HW117240   0.737   2.543   5.032  0.4687 -2.3556  1.1132
 1869SOL    HW217241   0.806   2.663   5.087 -0.2105  0.4584 -0.3638
 1870SOL     OW17242   3.744   0.912   8.699 -0.1159  0.3492  0.1410
 1870SOL    HW117243   3.778   0.994   8.663  0.0577 -0.2112 -0.9591
 1870SOL    HW217244   3.742   0.851   8.626 -1.5221  0.4563  0.0860
 1871SOL     OW17245   2.859   1.455   4.881  0.4704  0.1872 -0.3081
 1871SOL    HW117246   2.898   1.487   4.963  0.8514  0.9080 -0.7685
 1871SOL    HW217247   2.767   1.444   4.904  0.1623  0.5557 -1.3517
 1872SOL     OW17248   1.557   0.978   7.277  0.0187 -0.6342 -0.1134
 1872SOL    HW117249   1.623   1.040   7.307 -1.8635  0.2227  2.2888
 1872SOL    HW217250   1.479   0.987   7.333  0.3456  0.0210  0.2249
 1873SOL     OW17251   4.650   0.184   9.020 -0.1249 -0.3587  0.7453
 1873SOL    HW117252   4.612   0.191   9.107 -2.0341  1.5313 -0.2519
 1873SOL    HW217253   4.636   0.276   8.996  0.2725  0.1668  2.5400
 1874SOL     OW17254   2.219   0.496   8.464 -0.2682 -0.7300 -0.8744
 1874SOL    HW117255   2.175   0.474   8.382 -0.8129 -0.2496 -0.7089
 1874SOL    HW217256   2.183   0.439   8.532  0.5760 -1.0954 -0.7246
 1875SOL     OW17257   4.544   2.317   2.693 -0.0399 -0.2389  0.0670
 1875SOL    HW117258   4.557   2.412   2.701 -2.3199  0.2033 -1.4115
 1875SOL    HW217259   4.600   2.294   2.767 -0.3496  0.5445  0.5516
 1876SOL     OW17260   2.727   0.017   5.825  0.4884  0.9803 -0.2551
 1876SOL    HW117261   2.672   0.049   5.754 -0.1269  1.6316  0.5183
 1876SOL    HW217262   2.773   4.684   5.774 -3.1790 -0.4181 -1.7127
 1877SOL     OW17263   1.714   2.139   2.689  0.2866 -0.6950  0.5952
 1877SOL    HW117264   1.670   2.065   2.647  1.1778 -0.4733 -0.7455
 1877SOL    HW217265   1.697   2.136   2.783  0.5001  0.3052  0.6648
 1878SOL     OW17266   0.506   0.435   1.084  0.4584  0.2023  0.1367
 1878SOL    HW117267   0.599   0.415   1.089  0.3398 -0.6027 -0.9700
 1878SOL    HW217268   0.464   0.353   1.107 -1.1164  0.9408 -0.0670
 1879SOL     OW17269   3.578   3.560   3.617  0.6568  0.0603 -0.1431
 1879SOL    HW117270   3.555   3.500   3.546 -2.0562 -1.3125  1.8939
 1879SOL    HW217271   3.498   3.612   3.623 -0.2538 -1.4885  0.7870
 1880SOL     OW17272   0.678   2.748  12.201  0.0636 -0.5275  0.3710
 1880SOL    HW117273   0.597   2.752  12.150  0.9905 -1.7170 -1.1599
 1880SOL    HW217274   0.632   2.700  12.271 -1.8360 -0.5699 -0.9052
 1881SOL     OW17275   2.687   3.332   1.520 -0.6601  0.4604  0.2164
 1881SOL    HW117276   2.728   3.257   1.564  0.9194  1.4706  0.4720
 1881SOL    HW217277   2.761   3.391   1.511 -0.7308  0.8497  2.0540
 1882SOL     OW17278   2.154   3.410   7.567 -0.2348 -0.3349 -0.0394
 1882SOL    HW117279   2.239   3.452   7.559 -0.6092  0.6092  0.9079
 1882SOL    HW217280   2.089   3.475   7.595  0.4529  0.3389  0.0124
 1883SOL     OW17281   2.233   3.854   5.031 -0.1791 -0.2404 -0.1121
 1883SOL    HW117282   2.289   3.787   5.068 -0.6818 -0.1825  0.7385
 1883SOL    HW217283   2.272   3.928   5.078  0.9656  0.8370 -2.6974
 1884SOL     OW17284   0.586   4.724  13.660  0.0164 -0.5289 -0.2321
 1884SOL    HW117285   0.605   0.041  13.738 -2.3767 -0.8416  0.5744
 1884SOL    HW217286   0.491   4.709  13.665 -0.1412  1.6021  3.1701
 1885SOL     OW17287   4.071   4.699   0.030 -0.2563 -0.3369  0.1984
 1885SOL    HW117288   4.091   4.711  17.675 -2.2808 -0.2024 -0.2260
 1885SOL    HW217289   4.031   0.047   0.059  1.0922  0.3891 -0.0231
 1886SOL     OW17290   3.202   3.458  10.863  0.4210  0.1057  0.5676
 1886SOL    HW117291   3.120   3.483  10.820  0.2699 -1.5456 -0.1005
 1886SOL    HW217292   3.225   3.536  10.914  0.0535  0.8337 -0.3917
 1887SOL     OW17293   3.734   3.074  17.508 -0.1663 -0.0112 -0.3266
 1887SOL    HW117294   3.813   3.106  17.464  0.9135  0.2790  1.8300
 1887SOL    HW217295   3.746   3.121  17.590  1.2933 -1.3731  0.2288
 1888SOL     OW17296   2.370   3.417   5.172 -0.1835  0.3322  0.1855
 1888SOL    HW117297   2.387   3.340   5.118  0.5469 -0.2585  1.2655
 1888SOL    HW217298   2.417   3.416   5.255 -0.6852  0.7160  0.4676
 1889SOL     OW17299   2.215   0.178  14.151  0.0547 -0.7449  0.3714
 1889SOL    HW117300   2.170   0.251  14.109 -0.2133 -0.4396  1.1854
 1889SOL    HW217301   2.149   0.140  14.210  1.0731 -0.5399  1.6388
 1890SOL     OW17302   0.114   1.182   8.474 -0.1961  0.0140 -0.1362
 1890SOL    HW117303   0.136   1.275   8.483 -0.7107 -0.0723  1.9833
 1890SOL    HW217304   0.169   1.134   8.536  1.3621  0.2109 -1.3529
 1891SOL     OW17305   2.099   2.917   0.652  0.3988  0.5285  0.1571
 1891SOL    HW117306   2.157   2.920   0.576  0.6378 -0.2942  0.3094
 1891SOL    HW217307   2.167   2.908   0.718 -0.3561  1.7831  1.1190
 1892SOL     OW17308   0.056   0.783   9.911 -0.0784  0.0255  0.3843
 1892SOL    HW117309   0.117   0.855   9.927 -1.3058  0.9601  0.8917
 1892SOL    HW217310   0.115   0.714   9.941 -0.4032  0.0384  1.0402
 1893SOL     OW17311   4.254   4.283  14.215 -0.5663 -0.2582  0.0547
 1893SOL    HW117312   4.279   4.374  14.229  0.2263 -0.3292 -0.9065
 1893SOL    HW217313   4.261   4.230  14.295 -2.4332 -1.9318 -0.8786
 1894SOL     OW17314   1.982   0.239  17.062  0.8115 -0.1940 -0.0396
 1894SOL    HW117315   1.951   0.219  17.151 -1.8998  0.2937 -0.8968
 1894SOL    HW217316   1.953   0.157  17.022 -2.2324  0.9235 -0.1352
 1895SOL     OW17317   3.650   1.180   5.558 -0.7007  0.2810 -0.2092
 1895SOL    HW117318   3.590   1.109   5.580 -1.2744  1.0092  0.5734
 1895SOL    HW217319   3.736   1.139   5.572 -0.9939 -0.7108 -1.3683
 1896SOL     OW17320   1.855   1.598   4.751  0.0857  0.3732  0.5105
 1896SOL    HW117321   1.873   1.680   4.706 -0.4859 -0.2326 -0.8323
 1896SOL    HW217322   1.809   1.557   4.677 -0.1413  1.4064  0.0776
 1897SOL     OW17323   2.895   3.125  11.375  0.0832 -0.2560 -0.5146
 1897SOL    HW117324   2.888   3.154  11.285  0.8610  0.9010 -0.2012
 1897SOL    HW217325   2.940   3.042  11.359  0.4410 -0.3278  0.8092
 1898SOL     OW17326   2.409   1.359   3.633  0.2065 -0.1775  0.7182
 1898SOL    HW117327   2.443   1.313   3.556 -0.0739  0.8866 -0.0416
 1898SOL    HW217328   2.370   1.285   3.680 -0.8968  0.6445  1.1046
 1899SOL     OW17329   1.518   3.551   4.119 -0.7387  0.1467  0.3325
 1899SOL    HW117330   1.513   3.470   4.070  3.6764 -0.0787  0.2184
 1899SOL    HW217331   1.570   3.526   4.196 -0.6880  1.0188  0.5838
 1900SOL     OW17332   3.771   2.370   8.730  0.1372 -0.5371 -0.3169
 1900SOL    HW117333   3.713   2.408   8.664  0.7149  1.7877  0.5215
 1900SOL    HW217334   3.709   2.338   8.796 -0.3055  1.0646  0.0398
 1901SOL     OW17335   3.674   1.862   1.208  0.7553  0.4315 -0.4086
 1901SOL    HW117336   3.706   1.791   1.152  1.5893  0.0981  0.4790
 1901SOL    HW217337   3.692   1.839   1.299  0.9682  0.2106 -0.5054
 1902SOL     OW17338   0.656   3.717  16.705  0.1785  0.3770  0.2969
 1902SOL    HW117339   0.609   3.647  16.751  0.6218  0.0731  0.2878
 1902SOL    HW217340   0.744   3.681  16.711 -0.1081 -0.3297  0.2539
 1903SOL     OW17341   3.246   1.078   9.727  0.3784  0.4213  0.2457
 1903SOL    HW117342   3.197   1.156   9.753  0.3637 -0.5009  2.9136
 1903SOL    HW217343   3.250   1.030   9.809 -1.1791  0.4886  0.3686
 1904SOL     OW17344   3.501   2.211  13.137  0.1372  0.2543  0.3226
 1904SOL    HW117345   3.571   2.164  13.092 -0.5799 -0.4506 -0.0313
 1904SOL    HW217346   3.542   2.209  13.223  0.6694 -0.0721  0.0616
 1905SOL     OW17347   2.341   2.659  10.945 -0.6101 -0.0474  0.3266
 1905SOL    HW117348   2.358   2.565  10.940  0.1883  0.0101  1.8448
 1905SOL    HW217349   2.271   2.678  10.883  0.9036 -1.0138 -1.6545
 1906SOL     OW17350   3.863   4.181  17.095 -0.2602 -0.9693  0.0355
 1906SOL    HW117351   3.791   4.237  17.126  0.6731  1.4195 -2.1519
 1906SOL    HW217352   3.837   4.175  17.003 -1.2707  0.0599  0.2533
 1907SOL     OW17353   1.054   0.998   0.868 -0.4027 -0.6099 -0.3958
 1907SOL    HW117354   1.043   1.071   0.808  0.1725 -0.9741 -0.9464
 1907SOL    HW217355   1.128   0.944   0.842  1.1918  1.5476 -0.3768
 1908SOL     OW17356   3.961   3.388  11.455 -0.0906 -0.3028 -0.6451
 1908SOL    HW117357   4.041   3.397  11.404 -2.1025  0.8677 -3.5699
 1908SOL    HW217358   3.976   3.455  11.522 -0.6581  0.0753 -0.8906
 1909SOL     OW17359   0.000   0.104  15.017  0.2420  0.6080  0.1763
 1909SOL    HW117360   0.035   0.183  15.057  0.2129 -0.0274  1.4606
 1909SOL    HW217361   4.701   0.134  14.933 -1.0282  1.5720  1.0284
 1910SOL     OW17362   0.115   4.610   4.735 -0.3789 -0.4638 -0.1108
 1910SOL    HW117363   0.154   4.560   4.807  2.0209 -0.4700 -1.4444
 1910SOL    HW217364   0.098   4.696   4.773 -0.4953 -0.9400  0.9259
 1911SOL     OW17365   3.187   3.051   8.567  0.2972 -0.3272  0.5814
 1911SOL    HW117366   3.158   2.968   8.605  1.7072 -1.2683 -0.4195
 1911SOL    HW217367   3.277   3.043   8.596 -0.1653  2.9811  2.8885
 1912SOL     OW17368   1.768   2.324  15.636 -0.1231 -0.6286 -0.3709
 1912SOL    HW117369   1.684   2.341  15.594  0.3528 -2.1619 -1.9674
 1912SOL    HW217370   1.734   2.297  15.722 -0.2285  1.3618  0.2090
 1913SOL     OW17371   3.068   2.701   5.129  0.2052 -0.0628  0.4335
 1913SOL    HW117372   2.987   2.650   5.127 -0.6663  1.3465  0.0582
 1913SOL    HW217373   3.039   2.789   5.153 -0.0768  0.0862 -0.4756
 1914SOL     OW17374   1.472   1.148  14.097 -0.1280 -0.3255 -0.1497
 1914SOL    HW117375   1.562   1.177  14.084 -0.0548 -0.2351  0.5213
 1914SOL    HW217376   1.479   1.053  14.097  0.6627 -0.2647  2.2178
 1915SOL     OW17377   2.754   1.402   5.152 -0.7811 -0.1678 -0.0496
 1915SOL    HW117378   2.699   1.450   5.090 -2.1909 -0.2935  1.1061
 1915SOL    HW217379   2.692   1.342   5.193  0.0001  0.7805  2.5483
 1916SOL     OW17380   3.731   2.230   3.220 -0.6378  0.6028  0.3856
 1916SOL    HW117381   3.699   2.313   3.183  1.6555  0.3515 -2.2586
 1916SOL    HW217382   3.696   2.173   3.151  0.8262  1.5317 -1.1478
 1917SOL     OW17383   3.718   0.971   0.940 -0.4110  0.0244  0.0336
 1917SOL    HW117384   3.650   0.908   0.966 -1.0290  0.0613 -1.5199
 1917SOL    HW217385   3.725   0.949   0.847  0.2716 -2.1808  0.6057
 1918SOL     OW17386   2.025   3.974   4.889 -0.0884  0.8047  0.4672
 1918SOL    HW117387   2.098   3.943   4.942 -0.3290 -0.9346 -0.2304
 1918SOL    HW217388   1.960   3.916   4.929  0.2030 -0.2260 -0.5743
 1919SOL     OW17389   4.641   3.820   4.255 -0.2128  0.2055  0.4489
 1919SOL    HW117390   4.618   3.897   4.202 -0.3814 -0.9910 -1.2248
 1919SOL    HW217391   4.723   3.805   4.208 -0.0684 -0.6225  0.9880
 1920SOL     OW17392   4.582   1.287  11.926  0.0833  0.0408  0.2745
 1920SOL    HW117393   4.522   1.351  11.888 -0.4518 -1.5705 -1.6243
 1920SOL    HW217394   4.551   1.210  11.877  1.3814 -0.4010  0.1527
 1921SOL     OW17395   1.922   3.903   0.200  0.2744  0.6324  0.2160
 1921SOL    HW117396   1.939   3.814   0.170  1.4093  1.0321 -0.3235
 1921SOL    HW217397   1.834   3.911   0.164  1.0616  1.1291 -1.5837
 1922SOL     OW17398   3.403   2.473   8.818 -0.4579  0.0424 -0.1462
 1922SOL    HW117399   3.469   2.425   8.868  0.8573  1.4816 -0.5258
 1922SOL    HW217400   3.394   2.551   8.872 -1.7047  0.1048 -0.4484
 1923SOL     OW17401   0.054   3.460  11.541 -0.8815 -0.3359  0.6185
 1923SOL    HW117402   0.096   3.375  11.531  0.5104  0.1928  2.0419
 1923SOL    HW217403   0.034   3.495  11.454 -0.9921 -0.1746  0.7071
 1924SOL     OW17404   1.730   3.774   4.748  0.5124  0.3471  0.1458
 1924SOL    HW117405   1.757   3.688   4.714 -0.6690  0.1169 -0.2240
 1924SOL    HW217406   1.638   3.774   4.723  0.5076 -0.1211  0.1633
 1925SOL     OW17407   4.287   1.706   1.843  0.6094 -0.0685 -0.6770
 1925SOL    HW117408   4.331   1.700   1.928  0.6367  1.0981 -0.6038
 1925SOL    HW217409   4.205   1.662   1.867 -0.3778  2.4669  0.6486
 1926SOL     OW17410   2.012   2.880   6.283  0.3739  0.3481  0.0051
 1926SOL    HW117411   2.062   2.799   6.269 -0.3699 -0.0052 -0.6646
 1926SOL    HW217412   2.075   2.940   6.320 -0.1771 -0.9695  3.0855
 1927SOL     OW17413   0.777   3.594   7.746  0.2574  0.4095 -0.5986
 1927SOL    HW117414   0.834   3.527   7.709  1.4010 -0.4104  2.6573
 1927SOL    HW217415   0.712   3.535   7.784  0.9203 -1.0434 -1.7054
 1928SOL     OW17416   3.795   1.613  16.269 -0.4873 -0.3058  0.7857
 1928SOL    HW117417   3.816   1.520  16.253 -0.6378 -0.2475  0.2441
 1928SOL    HW217418   3.709   1.632  16.232 -0.3426  1.0252  1.1449
 1929SOL     OW17419   3.707   4.034   6.919 -0.0519 -0.1438  0.0983
 1929SOL    HW117420   3.658   3.962   6.880  0.5809 -0.1818 -0.6220
 1929SOL    HW217421   3.794   4.003   6.894  0.3622  2.2639 -1.5394
 1930SOL     OW17422   2.866   1.714   8.570  0.0331  0.6031 -0.5592
 1930SOL    HW117423   2.800   1.767   8.525  0.2530  0.9736 -0.4423
 1930SOL    HW217424   2.936   1.705   8.506  0.3636  0.0809 -0.1204
 1931SOL     OW17425   3.556   3.924  11.647  0.6451  0.3360 -0.2414
 1931SOL    HW117426   3.600   3.860  11.703  0.7154  1.9683  1.5690
 1931SOL    HW217427   3.624   3.932  11.581  1.6919  0.8223  0.8959
 1932SOL     OW17428   2.828   4.555   0.171  0.0556 -0.9031  0.8987
 1932SOL    HW117429   2.801   4.578   0.082  0.1649  0.7583  1.2884
 1932SOL    HW217430   2.754   4.569   0.231  0.4295  4.1179  0.2563
 1933SOL     OW17431   3.572   0.153   3.340 -0.1166  0.1428 -0.6271
 1933SOL    HW117432   3.610   0.138   3.427 -1.3384  0.2536 -0.0732
 1933SOL    HW217433   3.498   0.094   3.357 -0.3839  0.9402  1.0206
 1934SOL     OW17434   2.170   2.317   9.692 -0.0928 -0.3299  0.1707
 1934SOL    HW117435   2.219   2.304   9.773 -0.1683 -0.1030  0.2519
 1934SOL    HW217436   2.147   2.225   9.679 -3.3410  0.1761  2.4384
 1935SOL     OW17437   0.512   3.816  10.377 -0.3103 -0.3628 -0.1422
 1935SOL    HW117438   0.419   3.793  10.368 -0.0332 -2.4762  2.3411
 1935SOL    HW217439   0.531   3.866  10.298 -0.3304 -1.1992 -0.6743
 1936SOL     OW17440   2.648   3.245   9.980  0.6552 -0.2072  0.1878
 1936SOL    HW117441   2.717   3.281   9.924 -0.5655  1.4778 -0.2414
 1936SOL    HW217442   2.703   3.179  10.021  1.6568  0.8868  0.6266
 1937SOL     OW17443   1.084   0.898  16.972 -0.6879 -0.6574  0.2868
 1937SOL    HW117444   1.179   0.903  16.961 -1.0270  1.0296 -1.6818
 1937SOL    HW217445   1.068   0.836  16.901  0.8408 -2.2327  1.2880
 1938SOL     OW17446   0.575   3.413   9.375 -0.1766  0.6870 -0.5626
 1938SOL    HW117447   0.575   3.432   9.281  0.7097  2.3338 -0.2311
 1938SOL    HW217448   0.628   3.486   9.408 -0.3728  0.0600  1.1207
 1939SOL     OW17449   2.819   0.719  15.809 -0.1781  0.0197 -0.2801
 1939SOL    HW117450   2.865   0.656  15.752 -0.0498 -1.8306  1.8483
 1939SOL    HW217451   2.739   0.733  15.760 -1.1567  3.2862  2.3066
 1940SOL     OW17452   2.783   0.862   7.582 -0.4654 -0.0991  0.5194
 1940SOL    HW117453   2.800   0.956   7.578  2.7528 -0.5520  2.6751
 1940SOL    HW217454   2.726   0.854   7.658 -0.9082 -4.4953 -0.2408
 1941SOL     OW17455   1.532   0.062   2.589  0.4597 -0.3606 -0.6739
 1941SOL    HW117456   1.624   0.056   2.613  0.7659 -3.0771 -2.5950
 1941SOL    HW217457   1.536   0.155   2.568  0.3295 -0.1517  0.2303
 1942SOL     OW17458   2.616   0.899  10.892  0.1820 -0.5029  0.4140
 1942SOL    HW117459   2.527   0.934  10.900  0.0792 -0.1881 -2.0820
 1942SOL    HW217460   2.609   0.828  10.955  1.8593  0.5640  1.8107
 1943SOL     OW17461   2.884   4.267   3.266  0.1390 -0.1940  0.4621
 1943SOL    HW117462   2.849   4.181   3.289 -1.3645  0.0840 -0.8156
 1943SOL    HW217463   2.968   4.265   3.313  1.1316  1.3306 -1.2624
 1944SOL     OW17464   1.173   1.219  14.582  0.4522  0.3757  0.3835
 1944SOL    HW117465   1.243   1.169  14.626  0.5685  0.6845  0.5488
 1944SOL    HW217466   1.161   1.278  14.656 -1.0588 -1.9476  2.0125
 1945SOL     OW17467   0.053   0.996   5.748 -0.5165 -0.4425 -0.6726
 1945SOL    HW117468   0.052   1.052   5.671  0.4371  0.6616  0.1220
 1945SOL    HW217469   0.124   1.044   5.790 -2.8595  0.8015  1.8955
 1946SOL     OW17470   1.777   4.698   2.934  0.2070  0.1509 -0.3010
 1946SOL    HW117471   1.860   4.682   2.979  0.4579  0.0300 -0.8016
 1946SOL    HW217472   1.720   4.640   2.986 -0.8687  0.4507 -1.1568
 1947SOL     OW17473   2.795   1.632   9.629 -0.8577 -0.6687  0.2177
 1947SOL    HW117474   2.788   1.715   9.676  0.6080 -0.0246 -0.7026
 1947SOL    HW217475   2.705   1.626   9.598 -0.7344  1.3415 -0.5487
 1948SOL     OW17476   3.231   4.734   6.323 -0.4410  0.6794 -0.7299
 1948SOL    HW117477   3.188   0.085   6.313 -1.1420  0.4377  0.1792
 1948SOL    HW217478   3.154   4.677   6.318  0.3127 -0.2410 -1.7452
 1949SOL     OW17479   3.816   3.641   8.139  0.1845 -0.2644 -0.6488
 1949SOL    HW117480   3.883   3.642   8.070  1.8511  0.5161  0.9686
 1949SOL    HW217481   3.759   3.571   8.107  0.2682  0.3789 -2.1702
 1950SOL     OW17482   3.951   2.615  17.036  0.3780 -0.2678  0.0412
 1950SOL    HW117483   3.916   2.683  17.094  2.3102  0.3962  0.4208
 1950SOL    HW217484   4.023   2.670  17.007  1.3862 -1.8977 -0.4892
 1951SOL     OW17485   1.000   2.369   5.449 -0.0604 -0.1997  0.3472
 1951SOL    HW117486   1.015   2.394   5.358  0.5587 -1.6428  0.0431
 1951SOL    HW217487   1.087   2.330   5.460  0.1381  0.0178 -0.4208
 1952SOL     OW17488   2.273   3.467   7.131 -0.3905  0.2535 -0.4465
 1952SOL    HW117489   2.202   3.420   7.175  0.6196 -0.5323  0.3345
 1952SOL    HW217490   2.257   3.430   7.044  0.2877  0.9865 -0.8790
 1953SOL     OW17491   1.626   4.409  16.269  0.1718  0.4492  0.2566
 1953SOL    HW117492   1.572   4.481  16.302  0.4981  0.7886  0.0388
 1953SOL    HW217493   1.568   4.335  16.290  1.7014 -0.2178  2.1317
 1954SOL     OW17494   4.001   0.422   8.384  0.7613  0.4702 -0.1438
 1954SOL    HW117495   4.082   0.460   8.417  2.1194 -1.5719 -1.0807
 1954SOL    HW217496   4.036   0.333   8.373  0.2766  0.0919  1.3417
 1955SOL     OW17497   2.874   3.929   4.929 -0.0926 -0.1203  0.0502
 1955SOL    HW117498   2.822   3.994   4.975  1.2487  1.8466 -1.2166
 1955SOL    HW217499   2.800   3.870   4.912 -0.6306  0.1828  1.3893
 1956SOL     OW17500   0.928   0.483   1.087  0.3779  0.4189  0.1655
 1956SOL    HW117501   0.896   0.522   1.168 -0.3677 -0.4068  0.2681
 1956SOL    HW217502   0.861   0.424   1.052  0.7482  0.1444 -0.0803
 1957SOL     OW17503   0.443   3.707   3.352 -0.1908  0.2074  0.5105
 1957SOL    HW117504   0.488   3.692   3.435  0.3891 -1.2284 -0.0543
 1957SOL    HW217505   0.492   3.786   3.327 -1.1129  1.1386  1.6509
 1958SOL     OW17506   4.148   0.068   5.179  0.0275  0.1921  0.1649
 1958SOL    HW117507   4.193   0.111   5.106  0.4100 -2.5392 -1.1794
 1958SOL    HW217508   4.211   4.732   5.194  0.1717  0.1741 -0.5385
 1959SOL     OW17509   2.875   1.789  12.799 -0.1676 -0.0282 -0.5890
 1959SOL    HW117510   2.946   1.768  12.859 -1.2106 -2.2866 -0.1652
 1959SOL    HW217511   2.859   1.881  12.821  2.8455  0.1190  0.9935
 1960SOL     OW17512   3.105   3.323   0.210  0.0341 -0.4274  0.1291
 1960SOL    HW117513   3.089   3.312   0.304 -0.1074  1.4861  0.3225
 1960SOL    HW217514   3.038   3.385   0.182  0.6797  0.1419 -0.1507
 1961SOL     OW17515   2.176   4.564   8.070 -0.2779  0.2933 -0.8174
 1961SOL    HW117516   2.236   4.637   8.056  0.7087 -0.7494 -2.0037
 1961SOL    HW217517   2.145   4.568   8.161 -2.0737 -0.2186 -1.3949
 1962SOL     OW17518   2.108   3.401  14.858  0.1270  0.1099 -0.9842
 1962SOL    HW117519   2.110   3.496  14.869 -0.3859 -0.0692  0.6737
 1962SOL    HW217520   2.200   3.382  14.879 -0.6830 -1.4882  1.1108
 1963SOL     OW17521   1.839   1.834  15.958  0.2822  0.5788  0.3781
 1963SOL    HW117522   1.748   1.841  15.932  0.1816 -0.3389  0.4690
 1963SOL    HW217523   1.836   1.769  16.029  0.4626 -0.2079 -0.3280
 1964SOL     OW17524   0.425   4.716   4.159 -0.7271  0.6317  0.1821
 1964SOL    HW117525   0.403   4.730   4.067  0.6734  0.3250 -0.1996
 1964SOL    HW217526   0.398   4.625   4.168 -0.2856  0.4541 -0.2337
 1965SOL     OW17527   3.505   3.042   3.434 -0.6224  0.5249  0.4797
 1965SOL    HW117528   3.544   3.093   3.505 -0.6691  0.4716  0.5432
 1965SOL    HW217529   3.572   2.978   3.408 -1.3227  0.7204 -1.8430
 1966SOL     OW17530   2.260   0.169  10.666  0.0541  0.2762  0.1582
 1966SOL    HW117531   2.189   0.232  10.654  0.8389  1.1028 -0.1954
 1966SOL    HW217532   2.315   0.225  10.722  0.2137  0.5275 -0.2496
 1967SOL     OW17533   4.108   1.435   7.267 -0.3184 -0.1203  0.2770
 1967SOL    HW117534   4.028   1.396   7.232 -1.0196  1.1674  0.4681
 1967SOL    HW217535   4.180   1.375   7.249  0.0653 -0.0006  1.4125
 1968SOL     OW17536   2.412   0.022  10.478 -0.0927  0.1911  0.6666
 1968SOL    HW117537   2.355   0.061  10.544  0.4831 -0.8754  1.8147
 1968SOL    HW217538   2.408   4.662  10.492  1.7083  0.1860  1.1427
 1969SOL     OW17539   3.912   2.236  15.883  0.0546 -0.0235 -0.3618
 1969SOL    HW117540   3.876   2.197  15.804 -0.2579 -1.3190  0.4203
 1969SOL    HW217541   3.987   2.177  15.897  0.8495  0.4772 -2.5947
 1970SOL     OW17542   1.846   1.521   2.954  0.4787  0.0521 -0.3386
 1970SOL    HW117543   1.765   1.516   2.904 -0.4616 -0.6169  1.2498
 1970SOL    HW217544   1.850   1.616   2.967 -0.6944  0.5233 -3.4512
 1971SOL     OW17545   2.873   1.218  12.751  0.2479 -0.2702  0.2389
 1971SOL    HW117546   2.779   1.235  12.748  0.4039  0.1577 -2.2067
 1971SOL    HW217547   2.888   1.145  12.690  0.6302 -0.7237  0.8764
 1972SOL     OW17548   1.578   0.148   8.341 -0.0466  0.1211  0.2648
 1972SOL    HW117549   1.595   0.237   8.372  0.2864  0.0873  0.1752
 1972SOL    HW217550   1.634   0.098   8.400 -0.5625 -1.8375 -0.9283
 1973SOL     OW17551   1.924   0.012   8.735  0.5122 -0.5058  0.4806
 1973SOL    HW117552   1.857   0.003   8.668  0.8035  0.8795  0.0081
 1973SOL    HW217553   1.995   0.051   8.685  0.0918 -0.8240 -0.3532
 1974SOL     OW17554   0.485   2.327   2.209  0.6055  0.8049 -0.5038
 1974SOL    HW117555   0.393   2.353   2.214  0.0377 -1.0439 -1.5602
 1974SOL    HW217556   0.502   2.329   2.115 -2.1749 -0.4632 -1.0524
 1975SOL     OW17557   3.590   0.043   5.654  0.4148 -0.4650  0.1924
 1975SOL    HW117558   3.674   0.086   5.669 -0.9882  2.0630  0.7333
 1975SOL    HW217559   3.571   0.003   5.739  0.8993 -0.1379  0.4530
 1976SOL     OW17560   3.613   0.077   4.797  0.4330  0.2679  0.2768
 1976SOL    HW117561   3.529   0.123   4.795  0.2320 -0.1051 -0.0330
 1976SOL    HW217562   3.661   0.156   4.772  1.4008  0.0100  1.3034
 1977SOL     OW17563   2.243   4.239   5.298 -0.2607  0.1618 -0.5347
 1977SOL    HW117564   2.158   4.275   5.271 -0.6479 -0.7781 -0.5666
 1977SOL    HW217565   2.279   4.218   5.213 -1.6820  0.2503 -1.1644
 1978SOL     OW17566   0.134   3.465   6.176 -0.3337  0.0767 -0.6056
 1978SOL    HW117567   0.183   3.545   6.157 -0.5768 -0.0132 -1.6513
 1978SOL    HW217568   0.082   3.469   6.096  1.1773  0.1388 -1.5939
 1979SOL     OW17569   4.497   0.389  17.651 -0.2967 -0.5137 -0.7717
 1979SOL    HW117570   4.467   0.299  17.662 -1.7420 -0.0784 -1.0677
 1979SOL    HW217571   4.464   0.439  17.726 -0.9905  0.2851 -1.6064
 1980SOL     OW17572   0.298   0.821   6.836 -0.2975 -0.0208 -0.2657
 1980SOL    HW117573   0.310   0.910   6.870 -2.2037 -0.3622  1.3197
 1980SOL    HW217574   0.247   0.845   6.759  2.4548 -1.3696 -2.4986
 1981SOL     OW17575   3.521   0.695   6.859  0.1120 -0.2259  0.4444
 1981SOL    HW117576   3.460   0.640   6.809 -1.4693  2.3096 -0.4291
 1981SOL    HW217577   3.464   0.746   6.917 -0.0358  0.6855 -0.4942
 1982SOL     OW17578   0.333   2.417   9.112  0.1397  0.2495 -0.2703
 1982SOL    HW117579   0.278   2.472   9.169  1.1502  1.6039 -0.5994
 1982SOL    HW217580   0.283   2.337   9.098  0.2567  0.3468 -1.2433
 1983SOL     OW17581   0.976   0.245   4.162 -0.5905 -0.3700  0.1768
 1983SOL    HW117582   1.005   0.261   4.251 -1.2748 -0.3298  0.3923
 1983SOL    HW217583   1.059   0.243   4.113 -0.6779 -0.2245  0.0231
 1984SOL     OW17584   4.611   4.324  14.931 -0.1741  0.1860 -0.6356
 1984SOL    HW117585   4.622   4.285  15.017  2.1044  1.9948 -0.0930
 1984SOL    HW217586   4.702   4.337  14.905 -0.0551 -1.8153 -1.2425
 1985SOL     OW17587   3.138   0.380   6.609 -0.2217  0.0526 -0.0227
 1985SOL    HW117588   3.139   0.387   6.514  1.9653 -0.5598 -0.0329
 1985SOL    HW217589   3.115   0.289   6.630  1.9718 -0.8043 -1.3250
 1986SOL     OW17590   4.002   0.142   0.981 -0.0667  0.5334  0.0521
 1986SOL    HW117591   4.011   0.073   0.915  1.8713 -0.0344  0.9166
 1986SOL    HW217592   3.906   0.140   0.980 -0.0820 -0.6450  2.9718
 1987SOL     OW17593   3.119   2.350   3.537  0.2535 -0.0418  1.0468
 1987SOL    HW117594   3.142   2.291   3.466 -1.7902  1.0166 -0.4961
 1987SOL    HW217595   3.023   2.351   3.531  0.2029 -1.7610  1.5879
 1988SOL     OW17596   4.411   0.911   6.257  0.0505  0.0693 -0.4160
 1988SOL    HW117597   4.463   0.833   6.277 -1.4367 -0.8521 -0.1849
 1988SOL    HW217598   4.426   0.964   6.336 -0.3745  0.4579 -0.5992
 1989SOL     OW17599   3.099   2.707   4.355  0.2149 -0.0812 -0.3124
 1989SOL    HW117600   3.043   2.663   4.419 -0.3465 -2.2546 -2.3350
 1989SOL    HW217601   3.186   2.702   4.395 -0.1210  1.3220  0.6182
 1990SOL     OW17602   1.157   1.983   1.401  0.4632 -0.0150  0.3151
 1990SOL    HW117603   1.077   1.947   1.363  2.4580 -2.4761 -1.5840
 1990SOL    HW217604   1.164   1.931   1.481 -0.8590 -0.2181  0.3018
 1991SOL     OW17605   4.289   2.820   4.369  0.4646 -0.4455 -0.1984
 1991SOL    HW117606   4.217   2.882   4.375 -0.8063 -2.0479  1.2258
 1991SOL    HW217607   4.259   2.739   4.411 -3.0132 -0.0002 -1.8723
 1992SOL     OW17608   3.067   2.550   4.130  0.0585 -0.7464 -0.2539
 1992SOL    HW117609   3.153   2.510   4.114  0.0324 -0.4706 -1.0971
 1992SOL    HW217610   3.073   2.598   4.213 -0.8013  1.0910 -1.2439
 1993SOL     OW17611   0.331   0.147   6.139  0.1956  0.0546  0.3033
 1993SOL    HW117612   0.285   0.131   6.056 -0.4315  0.4955  0.5682
 1993SOL    HW217613   0.267   0.113   6.201 -0.1056 -1.3689 -0.7783
 1994SOL     OW17614   1.391   3.706   5.796  0.3371 -0.2851  0.0326
 1994SOL    HW117615   1.300   3.682   5.777  0.3561  0.5646 -1.0837
 1994SOL    HW217616   1.445   3.628   5.811  0.1664 -0.5118 -0.5208
 1995SOL     OW17617   3.672   0.982   3.373 -0.2822 -0.0695  0.4126
 1995SOL    HW117618   3.763   0.970   3.343  0.0221  0.2061  1.2346
 1995SOL    HW217619   3.670   1.076   3.387  0.1856  0.1678 -1.0345
 1996SOL     OW17620   4.707   4.183   8.874 -0.1640  0.2774  0.3782
 1996SOL    HW117621   4.685   4.189   8.968  1.3294 -1.9560  0.8672
 1996SOL    HW217622   0.053   4.230   8.855  0.2559 -1.3635 -1.9048
 1997SOL     OW17623   4.305   0.088   0.774 -0.2864 -0.0038 -0.1486
 1997SOL    HW117624   4.252   0.139   0.835 -0.2530  0.1977 -0.2868
 1997SOL    HW217625   4.240   0.046   0.718 -1.0416 -0.4463  1.0591
 1998SOL     OW17626   4.506   2.527   7.101 -0.1887  0.1713  0.6187
 1998SOL    HW117627   4.531   2.620   7.100 -0.4129  0.1908 -2.5278
 1998SOL    HW217628   4.474   2.518   7.011 -1.6487  1.0197  1.0570
 1999SOL     OW17629   0.810   4.019   8.503  0.4173  0.1674 -0.1703
 1999SOL    HW117630   0.840   3.946   8.449  2.5047  1.2810 -0.5225
 1999SOL    HW217631   0.773   4.089   8.449 -3.2389 -2.3196 -0.8543
 2000SOL     OW17632   1.866   2.012   1.899 -0.1507  0.5095 -0.1641
 2000SOL    HW117633   1.928   2.085   1.893 -1.2443  1.2587 -2.1760
 2000SOL    HW217634   1.802   2.051   1.959 -2.6470 -1.5295 -1.5232
 2001SOL     OW17635   0.275   2.625   8.326  0.8125 -0.4230 -0.2936
 2001SOL    HW117636   0.187   2.627   8.289  1.5188 -0.9516 -1.9913
 2001SOL    HW217637   0.278   2.541   8.372  1.8981 -0.0352  0.3605
 2002SOL     OW17638   4.360   3.769   6.896 -0.6408 -0.4962  0.0979
 2002SOL    HW117639   4.441   3.819   6.888 -0.2902 -1.1747 -0.6801
 2002SOL    HW217640   4.357   3.729   6.809 -4.0480 -2.1379  0.9562
 2003SOL     OW17641   3.833   0.137   5.735 -0.0736 -0.5932 -0.4529
 2003SOL    HW117642   3.892   0.177   5.671 -1.0486 -1.5722 -1.9474
 2003SOL    HW217643   3.861   0.191   5.809 -1.2284  1.0146 -1.1946
 2004SOL     OW17644   1.169   0.222  11.961  0.1312  0.0921  0.1370
 2004SOL    HW117645   1.256   0.182  11.965 -0.8491 -1.9602  0.8442
 2004SOL    HW217646   1.128   0.180  12.038  1.2496  0.4295  0.9175
 2005SOL     OW17647   2.243   0.684   2.503 -0.6804 -0.8394  0.2431
 2005SOL    HW117648   2.218   0.710   2.592 -1.6739 -0.1595 -0.2329
 2005SOL    HW217649   2.226   0.590   2.505  1.7327 -1.3246 -2.6420
 2006SOL     OW17650   1.040   0.447  12.866 -0.3495  0.1945  0.2418
 2006SOL    HW117651   1.019   0.468  12.775  0.7888  0.3120  0.0057
 2006SOL    HW217652   1.058   0.534  12.901  3.9916 -1.3410  1.7815
 2007SOL     OW17653   2.457   2.202   5.628  0.0894 -0.6561  0.8647
 2007SOL    HW117654   2.497   2.116   5.615 -3.8279 -2.5457  1.1462
 2007SOL    HW217655   2.527   2.257   5.596 -0.8830 -0.3988 -0.8210
 2008SOL     OW17656   0.641   3.312  15.935  0.0658 -0.0556  0.0729
 2008SOL    HW117657   0.641   3.227  15.891 -0.4886 -1.4841  2.8474
 2008SOL    HW217658   0.609   3.359  15.858  0.7294 -2.6975 -1.7899
 2009SOL     OW17659   4.712   2.585  14.458  0.4420  0.1469 -0.0326
 2009SOL    HW117660   4.619   2.562  14.460  0.0511  1.7203 -0.1385
 2009SOL    HW217661   4.729   2.567  14.366  2.0525 -1.5087  0.5920
 2010SOL     OW17662   4.641   0.638   1.394 -0.1631  0.1483  0.3116
 2010SOL    HW117663   4.705   0.574   1.427  0.9942  0.4246 -1.3707
 2010SOL    HW217664   4.690   0.719   1.409  2.9555 -1.6549 -0.0403
 2011SOL     OW17665   1.192   1.882   4.727  0.0548  0.0480 -0.0397
 2011SOL    HW117666   1.255   1.843   4.787 -0.1394  1.4070  1.0478
 2011SOL    HW217667   1.240   1.960   4.700  2.1340 -1.7676 -1.6009
 2012SOL     OW17668   0.994   2.531  11.242 -0.0633  0.0375  0.1587
 2012SOL    HW117669   0.921   2.500  11.296  0.4635  0.2781  1.0194
 2012SOL    HW217670   0.974   2.624  11.247 -1.6313 -0.1981 -1.6759
 2013SOL     OW17671   2.791   1.216   8.053  0.4023 -0.5146 -0.4582
 2013SOL    HW117672   2.843   1.169   7.988 -0.7386 -1.0269 -1.0154
 2013SOL    HW217673   2.703   1.226   8.015 -0.7244 -0.8703  2.0939
 2014SOL     OW17674   2.986   1.855   4.071  0.4344 -1.1614 -0.2963
 2014SOL    HW117675   3.046   1.851   3.996  2.2666 -0.5819  1.1641
 2014SOL    HW217676   3.047   1.830   4.140 -2.0047  0.1451  2.3006
 2015SOL     OW17677   4.273   3.989   5.326  0.6220  0.2274 -0.1739
 2015SOL    HW117678   4.227   3.910   5.353 -3.4183  2.9667  0.9580
 2015SOL    HW217679   4.317   3.962   5.245  1.2768  2.0646 -0.4247
 2016SOL     OW17680   4.425   4.460   3.904 -0.0110 -0.0207  0.0600
 2016SOL    HW117681   4.338   4.476   3.942 -1.2380  0.5216 -2.9726
 2016SOL    HW217682   4.476   4.507   3.970 -3.8321  3.2550  0.6882
 2017SOL     OW17683   4.564   3.207   2.959  0.5643 -0.7512  0.0030
 2017SOL    HW117684   4.632   3.223   2.893  0.0294 -0.5875 -0.5117
 2017SOL    HW217685   4.608   3.134   3.001 -2.5985 -0.9122  3.0224
 2018SOL     OW17686   1.747   2.958  10.404 -0.4417 -0.1373  0.4701
 2018SOL    HW117687   1.774   3.022  10.470 -3.2768  1.3341  0.1781
 2018SOL    HW217688   1.829   2.923  10.369 -0.3052 -2.5964  3.3063
 2019SOL     OW17689   1.994   1.564   8.836  0.0647  0.2690 -0.0134
 2019SOL    HW117690   2.060   1.524   8.892 -1.4930 -0.6978  1.1417
 2019SOL    HW217691   1.998   1.488   8.779  2.8477  0.0336  0.5047
 2020SOL     OW17692   4.184   2.802   2.463  0.5450  0.1760 -0.0319
 2020SOL    HW117693   4.244   2.755   2.520  0.0152 -0.6208 -0.1415
 2020SOL    HW217694   4.232   2.805   2.381 -0.0776 -0.3698 -0.4122
 2021SOL     OW17695   0.096   0.403  11.036 -0.2484  0.2014 -0.5245
 2021SOL    HW117696   0.051   0.319  11.043 -2.3356  1.4755  1.4513
 2021SOL    HW217697   0.026   0.461  11.005 -1.5539 -0.7194  0.6860
 2022SOL     OW17698   4.722   2.824  13.494  0.0197  0.3589  0.4231
 2022SOL    HW117699   4.643   2.815  13.441  0.8737 -2.0317 -0.4518
 2022SOL    HW217700   4.688   2.868  13.572 -2.4265 -1.7794  0.5512
 2023SOL     OW17701   0.552   1.490  10.021 -0.1460 -0.1123 -0.0282
 2023SOL    HW117702   0.526   1.559  10.082 -0.6541 -1.2506  1.0168
 2023SOL    HW217703   0.598   1.538   9.952 -1.3729  0.0656 -0.7132
 2024SOL     OW17704   2.251   1.421   5.092 -0.1183 -0.4296  0.2915
 2024SOL    HW117705   2.307   1.497   5.077  0.2450 -0.3794  1.8514
 2024SOL    HW217706   2.282   1.354   5.031  0.9471  0.5034 -0.1799
 2025SOL     OW17707   4.589   4.035   2.676 -0.1313 -0.4237  0.0436
 2025SOL    HW117708   4.666   4.078   2.637 -1.2091  2.3163  0.9149
 2025SOL    HW217709   4.609   4.061   2.766 -1.4699 -1.3711  0.6192
 2026SOL     OW17710   3.465   1.935  13.694 -0.3314  0.1146 -0.1914
 2026SOL    HW117711   3.421   1.929  13.778  1.4969  0.9136  0.8210
 2026SOL    HW217712   3.407   1.991  13.642 -0.8086  0.5466  0.8001
 2027SOL     OW17713   1.860   4.568   1.652  0.1242 -0.7430  0.6007
 2027SOL    HW117714   1.830   4.485   1.689 -1.1219 -0.5247  0.0744
 2027SOL    HW217715   1.791   4.583   1.588 -0.1673  0.1550  1.1337
 2028SOL     OW17716   3.338   0.096   0.224  0.1311 -0.0681 -0.4404
 2028SOL    HW117717   3.246   0.074   0.232 -0.6236  2.2855 -2.5105
 2028SOL    HW217718   3.370   0.040   0.153 -1.7946  1.3635 -2.4333
 2029SOL     OW17719   0.460   3.213   7.415  0.0856 -0.7177 -0.6137
 2029SOL    HW117720   0.458   3.307   7.395  1.2678 -0.9401 -1.7757
 2029SOL    HW217721   0.553   3.199   7.395  0.7581  2.2543  0.3855
 2030SOL     OW17722   1.943   0.706   7.567  0.1288 -0.2358  0.3214
 2030SOL    HW117723   1.889   0.749   7.633 -0.2801 -0.8474  0.3802
 2030SOL    HW217724   1.873   0.691   7.504 -0.1286 -0.5512  0.6833
 2031SOL     OW17725   0.713   1.897  11.691 -0.2684 -0.8335 -0.1197
 2031SOL    HW117726   0.722   1.984  11.729 -2.7969  0.4430 -2.4442
 2031SOL    HW217727   0.777   1.899  11.619 -0.6375 -0.7421 -0.4472
 2032SOL     OW17728   1.647   3.719   8.005  0.5282  0.3172  0.2476
 2032SOL    HW117729   1.570   3.752   8.051 -0.3051 -3.0203  1.2771
 2032SOL    HW217730   1.711   3.790   8.013  0.8473  0.0668 -0.0891
 2033SOL     OW17731   0.574   0.321   9.710  0.3337 -0.2961  0.0355
 2033SOL    HW117732   0.629   0.250   9.677  0.8109 -0.3494  0.9456
 2033SOL    HW217733   0.551   0.367   9.628  1.7047  0.7274  0.2271
 2034SOL     OW17734   0.993   0.071   4.548  0.0016 -0.7020  0.0541
 2034SOL    HW117735   1.051   4.730   4.549  0.9606  0.0306  0.0978
 2034SOL    HW217736   0.928   0.032   4.490  1.5974 -0.4125 -1.8990
 2035SOL     OW17737   4.392   4.592   5.919 -0.0619 -0.2877  0.1363
 2035SOL    HW117738   4.351   4.509   5.894  1.1654 -0.7125 -0.4827
 2035SOL    HW217739   4.390   4.641   5.837 -1.3092  0.0563  0.3711
 2036SOL     OW17740   1.260   4.370   8.840  0.1830 -0.1455 -0.0944
 2036SOL    HW117741   1.258   4.303   8.908  1.7072  0.1999  0.2864
 2036SOL    HW217742   1.259   4.324   8.756  0.9174  1.8100 -1.1679
 2037SOL     OW17743   2.117   3.697  11.190  0.2987  0.3211 -0.4189
 2037SOL    HW117744   2.202   3.712  11.150  0.1731 -0.5837 -1.0375
 2037SOL    HW217745   2.097   3.781  11.232  2.2888  0.7187 -0.2877
 2038SOL     OW17746   0.004   2.036   7.898  0.1782 -0.1092  0.4118
 2038SOL    HW117747   0.071   1.968   7.902 -2.2398 -2.6233 -1.9904
 2038SOL    HW217748   0.048   2.119   7.915 -1.1233  0.3650  1.4088
 2039SOL     OW17749   1.834   0.557   6.550  0.2620 -0.4413 -0.6060
 2039SOL    HW117750   1.921   0.547   6.512 -0.3004 -1.7853 -1.5561
 2039SOL    HW217751   1.806   0.631   6.497 -4.2285  0.0390  2.4156
 2040SOL     OW17752   4.308   4.146   2.641  0.1007  0.1688  0.3245
 2040SOL    HW117753   4.385   4.091   2.650  0.3209  0.4503  0.1281
 2040SOL    HW217754   4.312   4.180   2.731 -1.5597 -2.6089  1.4488
 2041SOL     OW17755   0.768   2.121  13.566  0.6656 -0.5581 -0.1834
 2041SOL    HW117756   0.834   2.107  13.633  2.2380  3.3757 -0.8555
 2041SOL    HW217757   0.784   2.214  13.546  1.5302 -0.6987 -0.1546
 2042SOL     OW17758   0.724   4.172   2.327 -0.2058  0.4923  0.0395
 2042SOL    HW117759   0.798   4.230   2.347  0.3923 -1.0508  2.2807
 2042SOL    HW217760   0.785   4.110   2.287 -0.5191 -0.1158  0.5076
 2043SOL     OW17761   2.241   1.084   2.151 -0.3983  0.2038 -0.1529
 2043SOL    HW117762   2.218   1.015   2.088  1.9691  2.1727 -3.1427
 2043SOL    HW217763   2.162   1.089   2.205 -1.6593 -0.7932 -1.9023
 2044SOL     OW17764   0.221   0.740   3.055  0.0171 -0.0129 -0.2730
 2044SOL    HW117765   0.148   0.704   3.004  0.9839 -1.4185 -0.6751
 2044SOL    HW217766   0.265   0.791   2.987  0.5178  0.3028  0.2993
 2045SOL     OW17767   4.076   2.377  11.927 -0.2942  0.0267 -0.2634
 2045SOL    HW117768   4.119   2.293  11.942 -1.2559 -0.4103  0.0825
 2045SOL    HW217769   4.132   2.417  11.860  0.6967 -0.7658  0.0936
 2046SOL     OW17770   0.360   0.190  16.130 -0.2635 -0.0411  0.1000
 2046SOL    HW117771   0.306   0.249  16.183  0.3515 -0.8587  1.6552
 2046SOL    HW217772   0.397   0.248  16.064  2.6233 -1.4312  0.4933
 2047SOL     OW17773   0.742   2.806   3.934 -0.1807  0.2899 -0.6377
 2047SOL    HW117774   0.665   2.749   3.939  0.1347  0.1240  2.2496
 2047SOL    HW217775   0.701   2.870   3.992 -1.4289 -1.7734  0.7768
 2048SOL     OW17776   2.485   3.987   4.363 -0.4351  0.2223 -0.0942
 2048SOL    HW117777   2.493   3.949   4.451  3.0007 -0.3233 -0.6224
 2048SOL    HW217778   2.406   4.040   4.370 -1.0483 -0.6020 -0.7776
 2049SOL     OW17779   4.570   0.846  15.229  0.1878  0.3347 -0.0474
 2049SOL    HW117780   4.512   0.876  15.159  0.5607  0.2386 -0.3990
 2049SOL    HW217781   4.608   0.929  15.257  1.1661 -0.1062 -0.0584
 2050SOL     OW17782   2.750   2.735   2.454 -0.0499 -0.2131 -0.0737
 2050SOL    HW117783   2.804   2.693   2.520 -0.8510  0.1346  0.7963
 2050SOL    HW217784   2.797   2.816   2.434 -0.9760  0.0070 -1.3942
 2051SOL     OW17785   2.808   4.191   5.589 -0.1161  1.3413  0.0492
 2051SOL    HW117786   2.883   4.251   5.586  1.4629 -0.5694  1.4032
 2051SOL    HW217787   2.809   4.159   5.679  1.0691  0.5653 -0.2402
 2052SOL     OW17788   4.532   3.955   6.079  0.6924 -0.1355  0.0259
 2052SOL    HW117789   4.613   3.909   6.058 -0.7801 -2.7791  0.2064
 2052SOL    HW217790   4.472   3.901   6.028 -0.8738  2.0537 -0.4972
 2053SOL     OW17791   1.482   3.245   8.996  0.2268  0.8031  0.3070
 2053SOL    HW117792   1.392   3.256   8.967  0.3131 -2.0709 -0.9496
 2053SOL    HW217793   1.454   3.228   9.086  1.3328 -1.1473  0.2734
 2054SOL     OW17794   4.211   2.863   3.358  0.1456 -0.2758 -0.3516
 2054SOL    HW117795   4.174   2.775   3.350 -3.0458  1.1918 -1.7747
 2054SOL    HW217796   4.133   2.911   3.387  0.8064  1.4371 -1.4180
 2055SOL     OW17797   0.876   3.761   4.691  0.3740 -0.1172  0.6987
 2055SOL    HW117798   0.936   3.779   4.764  1.4208 -2.2044  0.3657
 2055SOL    HW217799   0.840   3.673   4.707 -0.8180  0.3454  0.5316
 2056SOL     OW17800   4.014   2.535   5.399 -0.0268 -0.1361 -0.8773
 2056SOL    HW117801   4.106   2.536   5.373  0.8717  1.3305  2.4072
 2056SOL    HW217802   4.026   2.577   5.485  0.8640 -2.7063  0.2400
 2057SOL     OW17803   0.451   0.349   4.956 -0.0678  0.3303 -0.3972
 2057SOL    HW117804   0.466   0.256   4.938  1.7983  0.2596  1.6746
 2057SOL    HW217805   0.514   0.362   5.026 -2.2943  0.5917  1.5447
 2058SOL     OW17806   0.937   3.371  13.724  0.0917  0.0429  0.2713
 2058SOL    HW117807   0.888   3.452  13.715 -0.0295 -0.0150  0.3958
 2058SOL    HW217808   0.995   3.410  13.790  1.0044 -0.0299 -0.4845
 2059SOL     OW17809   0.248   3.248   6.806  0.1614 -0.1829 -0.1433
 2059SOL    HW117810   0.206   3.221   6.724 -1.0333  0.1472  0.3490
 2059SOL    HW217811   0.258   3.342   6.788  1.6353 -0.5473 -1.2209
 2060SOL     OW17812   0.736   2.849   8.662 -0.1950  0.6228  0.4915
 2060SOL    HW117813   0.702   2.821   8.576 -1.0572  2.1017  0.3606
 2060SOL    HW217814   0.793   2.774   8.679 -1.2651  0.6146  3.9777
 2061SOL     OW17815   4.054   1.651   2.291 -0.7386  0.3321  0.5997
 2061SOL    HW117816   3.962   1.678   2.289 -0.9545 -0.4262  0.4481
 2061SOL    HW217817   4.070   1.607   2.374  1.5893  0.1302  0.0548
 2062SOL     OW17818   2.914   2.935   2.369 -0.0537 -0.2049  0.4678
 2062SOL    HW117819   2.987   2.971   2.421 -0.4839  2.3125 -0.6618
 2062SOL    HW217820   2.960   2.904   2.291 -0.2095 -0.2242  0.3836
 2063SOL     OW17821   3.717   2.985   8.620  0.1872  0.1480 -0.2350
 2063SOL    HW117822   3.647   3.047   8.602  1.6995  1.5561 -1.2766
 2063SOL    HW217823   3.734   2.995   8.714 -1.2939 -0.2999  0.0710
 2064SOL     OW17824   4.593   2.652  12.834  0.5223  0.3777 -0.2828
 2064SOL    HW117825   4.646   2.578  12.864  1.3709  1.5637  1.1656
 2064SOL    HW217826   4.506   2.617  12.852  0.6611 -0.4003 -1.1465
 2065SOL     OW17827   1.934   1.514   2.561  0.1488  0.0209 -0.5168
 2065SOL    HW117828   1.936   1.421   2.580 -1.6960 -0.4346 -2.5922
 2065SOL    HW217829   1.908   1.555   2.644 -0.4629 -1.5915  0.0714
 2066SOL     OW17830   1.169   0.373  11.639  0.1142 -0.0769 -0.3149
 2066SOL    HW117831   1.137   0.442  11.581 -0.0498  1.0071  1.0783
 2066SOL    HW217832   1.096   0.311  11.645  0.0463 -0.0637 -0.9862
 2067SOL     OW17833   0.601   2.182   5.181  0.0810  0.8034 -0.1788
 2067SOL    HW117834   0.634   2.235   5.254 -1.4702  2.0927 -0.4112
 2067SOL    HW217835   0.574   2.102   5.225 -1.3308  0.2426 -2.0968
 2068SOL     OW17836   3.231   1.261   7.323 -0.2289 -0.3668  1.1217
 2068SOL    HW117837   3.201   1.339   7.277  0.2287  0.1539  1.6959
 2068SOL    HW217838   3.309   1.301   7.363 -1.8813  2.4054  1.5441
 2069SOL     OW17839   3.505   3.768   5.159 -0.3862 -0.2546  0.4495
 2069SOL    HW117840   3.535   3.730   5.077  0.1289 -0.9318  0.9506
 2069SOL    HW217841   3.506   3.862   5.138 -1.6893 -0.4982 -0.6892
 2070SOL     OW17842   2.266   2.202   3.427 -0.2796 -0.0210  0.2316
 2070SOL    HW117843   2.251   2.204   3.522 -2.6610  0.1370 -0.1459
 2070SOL    HW217844   2.177   2.219   3.395 -0.2069  0.6075  0.3755
 2071SOL     OW17845   4.260   0.292   2.078 -0.0098 -0.2978 -0.0425
 2071SOL    HW117846   4.225   0.345   2.006  0.9727  1.4255  0.7646
 2071SOL    HW217847   4.201   0.217   2.076 -2.0495  1.3173 -0.5970
 2072SOL     OW17848   0.227   0.158  14.540  0.0734  0.2302 -0.7264
 2072SOL    HW117849   0.300   0.108  14.502  1.1098  1.2779 -0.1451
 2072SOL    HW217850   0.150   0.147  14.486 -0.7176  0.8534  0.2702
 2073SOL     OW17851   1.153   2.311  17.532  0.5054 -0.3585 -0.0021
 2073SOL    HW117852   1.136   2.399  17.498 -0.5932 -0.4344  0.3545
 2073SOL    HW217853   1.243   2.290  17.505 -0.3050 -0.4942 -2.6131
 2074SOL     OW17854   1.159   3.209   8.111 -0.1275  0.1414  0.3898
 2074SOL    HW117855   1.064   3.211   8.103 -0.0010  1.5104 -0.6716
 2074SOL    HW217856   1.165   3.122   8.151 -1.6814 -0.1682 -0.0642
 2075SOL     OW17857   0.561   4.232  16.181 -0.2117  1.0383  0.3068
 2075SOL    HW117858   0.582   4.162  16.120  0.7702  0.5857  1.1769
 2075SOL    HW217859   0.499   4.185  16.237  2.2800 -1.6777  0.7906
 2076SOL     OW17860   2.475   3.570  12.285  0.0279  0.6434  0.0053
 2076SOL    HW117861   2.500   3.662  12.276  1.5859  0.4185  1.9682
 2076SOL    HW217862   2.510   3.535  12.203  2.6475 -1.3931  1.9908
 2077SOL     OW17863   3.189   1.606   8.025  0.2616  0.0096 -0.5473
 2077SOL    HW117864   3.153   1.657   7.952  1.5432  3.0847  0.9744
 2077SOL    HW217865   3.145   1.522   8.013 -1.8152  1.2121 -1.2648
 2078SOL     OW17866   1.051   1.590   3.518  0.1984  0.5156  0.3632
 2078SOL    HW117867   0.995   1.663   3.492 -1.4323 -1.0176 -0.4882
 2078SOL    HW217868   1.096   1.630   3.593  1.6637 -2.2882  1.0111
 2079SOL     OW17869   2.094   2.989   5.567 -0.5821 -0.0845  0.1199
 2079SOL    HW117870   2.085   2.894   5.564 -0.5257 -0.0276 -1.8720
 2079SOL    HW217871   2.007   3.015   5.537  0.2866  0.9137 -1.5333
 2080SOL     OW17872   0.705   0.334   5.051  0.1866 -0.6005 -0.0026
 2080SOL    HW117873   0.759   0.381   4.987 -0.8430 -1.6068 -1.6188
 2080SOL    HW217874   0.764   0.332   5.127  0.1332 -1.6464  0.0186
 2081SOL     OW17875   2.847   1.634  14.923 -0.5796  0.0820 -0.1162
 2081SOL    HW117876   2.933   1.648  14.884  0.5960 -0.3477  2.3480
 2081SOL    HW217877   2.837   1.697  14.994 -0.5467  0.5574 -0.5310
 2082SOL     OW17878   0.680   0.846   6.889 -0.4231  0.2733 -0.0847
 2082SOL    HW117879   0.704   0.834   6.797  0.9357  0.1464  0.2762
 2082SOL    HW217880   0.686   0.940   6.902 -0.8862  0.0388  1.8112
 2083SOL     OW17881   3.498   0.341  10.490  0.6211 -0.0466  0.3567
 2083SOL    HW117882   3.527   0.402  10.422 -0.1400  1.1545  1.1184
 2083SOL    HW217883   3.560   0.268  10.481  0.6764  0.1599 -1.0020
 2084SOL     OW17884   1.043   0.131  11.719 -0.6153 -0.2246  0.2893
 2084SOL    HW117885   0.955   0.139  11.755 -1.4289  0.2439 -1.8118
 2084SOL    HW217886   1.087   0.150  11.802 -0.5162  0.9973 -0.0396
 2085SOL     OW17887   0.482   4.188   6.336  0.2973  0.6154 -0.2418
 2085SOL    HW117888   0.488   4.261   6.398 -0.5213  0.2736  0.2461
 2085SOL    HW217889   0.487   4.229   6.249  1.0003  1.3722  0.1549
 2086SOL     OW17890   1.015   3.686   6.892  0.0613 -0.2302 -0.4078
 2086SOL    HW117891   1.066   3.672   6.812  1.2075 -0.7125  0.4046
 2086SOL    HW217892   0.958   3.610   6.893  1.7188 -1.4813  0.4857
 2087SOL     OW17893   2.952   3.193  11.046 -0.3598  0.9868 -0.1123
 2087SOL    HW117894   2.946   3.274  11.097 -0.7723  1.4429 -0.8871
 2087SOL    HW217895   3.046   3.187  11.025 -0.0789 -3.8774  2.6414
 2088SOL     OW17896   0.218   1.555   9.232 -0.5294 -0.0590  0.3088
 2088SOL    HW117897   0.136   1.505   9.230 -2.2069  2.6849  1.2425
 2088SOL    HW217898   0.283   1.485   9.230 -0.9089 -0.4377  1.2935
 2089SOL     OW17899   0.446   2.043  10.507  0.3576 -0.4696 -0.7471
 2089SOL    HW117900   0.473   1.977  10.444 -0.0679 -0.5664 -0.8265
 2089SOL    HW217901   0.407   2.112  10.453 -3.0910 -1.4850  0.4864
 2090SOL     OW17902   1.579   3.599   5.476 -0.2266 -0.0293  0.5631
 2090SOL    HW117903   1.607   3.616   5.386  0.5336  1.8789  1.1775
 2090SOL    HW217904   1.651   3.637   5.526  0.6867 -0.1504 -0.6636
 2091SOL     OW17905   4.603   0.906  14.472 -0.1983  0.6571 -0.4258
 2091SOL    HW117906   4.675   0.914  14.410  0.2188 -0.8099 -0.1253
 2091SOL    HW217907   4.637   0.845  14.537 -4.1461  1.6591  2.5903
 2092SOL     OW17908   0.845   0.816  17.560  0.1498 -0.0495  0.4117
 2092SOL    HW117909   0.842   0.813  17.656 -2.4150  0.1564  0.3446
 2092SOL    HW217910   0.862   0.909  17.543 -0.6137  0.3507  1.7976
 2093SOL     OW17911   3.873   1.546   4.966 -0.1047 -0.4968 -0.3254
 2093SOL    HW117912   3.840   1.631   4.995  1.2684 -0.1855  0.3115
 2093SOL    HW217913   3.881   1.502   5.051  0.2565 -0.3866 -0.3025
 2094SOL     OW17914   3.034   0.076   3.826 -0.0822  0.3343  0.4338
 2094SOL    HW117915   3.073   0.085   3.913  1.4116  1.3089 -0.3404
 2094SOL    HW217916   2.942   0.095   3.844 -0.3400 -0.7899  0.3077
 2095SOL     OW17917   4.631   4.243   6.992 -0.8882 -0.0298  0.4189
 2095SOL    HW117918   4.586   4.181   7.049 -0.5757  1.0453  1.8175
 2095SOL    HW217919   4.584   4.244   6.908 -1.2384 -2.5128  0.5902
 2096SOL     OW17920   2.911   4.275   3.007  0.5962 -0.2048  0.1728
 2096SOL    HW117921   2.961   4.197   2.982  0.5416 -0.7321  1.7110
 2096SOL    HW217922   2.893   4.257   3.100  1.6000  0.5172  0.5092
 2097SOL     OW17923   0.358   1.441   6.918  0.3404  0.4830  0.0778
 2097SOL    HW117924   0.380   1.527   6.882  0.3616  0.1570 -0.6897
 2097SOL    HW217925   0.283   1.463   6.973  0.2469 -0.0954  0.1844
 2098SOL     OW17926   0.736   3.452   3.357 -0.5511  0.1316 -0.3601
 2098SOL    HW117927   0.830   3.468   3.342 -0.4190 -0.8671 -0.5987
 2098SOL    HW217928   0.720   3.400   3.278 -0.5908 -2.2310  1.2338
 2099SOL     OW17929   4.157   4.101   4.289  0.1203  0.7136  0.0462
 2099SOL    HW117930   4.084   4.152   4.254 -1.8577 -1.5711  0.8278
 2099SOL    HW217931   4.178   4.132   4.377 -1.7972  2.4345 -0.1204
 2100SOL     OW17932   3.447   3.464   7.784  0.0914 -0.2185  0.0032
 2100SOL    HW117933   3.498   3.470   7.703 -1.4841 -2.4929 -1.1674
 2100SOL    HW217934   3.441   3.369   7.795  0.6686 -0.1529  0.8772
 2101SOL     OW17935   0.155   3.996  15.185  0.6320 -0.0737  0.2613
 2101SOL    HW117936   0.220   3.965  15.249  1.1067  0.6060  0.1120
 2101SOL    HW217937   0.176   3.945  15.107  0.3050 -2.2900  1.6001
 2102SOL     OW17938   3.448   3.856  15.966 -0.3955 -0.2502 -0.0442
 2102SOL    HW117939   3.491   3.829  15.884 -1.9943 -1.1175 -0.5934
 2102SOL    HW217940   3.355   3.844  15.946 -0.8475  2.4177  0.4777
 2103SOL     OW17941   4.485   1.852  17.506 -0.2099  0.1708 -0.0651
 2103SOL    HW117942   4.471   1.890  17.593 -1.0776 -0.2774 -0.0116
 2103SOL    HW217943   4.521   1.767  17.530  0.0447 -0.0800 -1.3301
 2104SOL     OW17944   4.313   3.443   7.755  0.6428 -0.1174  0.1872
 2104SOL    HW117945   4.300   3.408   7.843  0.9718 -4.6745 -1.5797
 2104SOL    HW217946   4.225   3.435   7.718  0.5529 -1.7028  0.7357
 2105SOL     OW17947   3.432   3.555  12.577  0.0853  0.6736  0.3907
 2105SOL    HW117948   3.392   3.468  12.583 -1.2666  1.3173  0.8120
 2105SOL    HW217949   3.520   3.534  12.606 -0.5979 -0.6347  1.5184
 2106SOL     OW17950   3.228   3.903   2.445  0.4959 -0.4838 -0.2479
 2106SOL    HW117951   3.149   3.884   2.495  0.2221  0.7829 -0.2153
 2106SOL    HW217952   3.192   3.907   2.357  0.8955 -0.6136 -0.4183
 2107SOL     OW17953   1.387   2.234   2.516  0.4282 -0.1571  0.0800
 2107SOL    HW117954   1.421   2.295   2.581  0.9297 -1.2068  0.8133
 2107SOL    HW217955   1.421   2.153   2.553  0.6062 -1.0724 -2.0478
 2108SOL     OW17956   1.635   3.112   3.512  0.1807  0.0445  0.0161
 2108SOL    HW117957   1.710   3.068   3.474  0.8531  0.6612  0.6269
 2108SOL    HW217958   1.633   3.183   3.448  0.8228  0.1033  0.0626
 2109SOL     OW17959   1.953   4.491   3.538  0.1081  0.3546 -0.3739
 2109SOL    HW117960   1.872   4.537   3.515 -0.6665 -1.0314 -0.3975
 2109SOL    HW217961   1.922   4.401   3.532  0.2106  0.2665  0.4465
 2110SOL     OW17962   3.529   0.991   5.827  0.1438  0.0289  0.3961
 2110SOL    HW117963   3.513   0.971   5.735 -2.2174 -1.0664  1.0312
 2110SOL    HW217964   3.436   0.982   5.848  0.0857  1.4045  0.6981
 2111SOL     OW17965   1.862   2.799   5.058 -0.5178  0.6841  0.2884
 2111SOL    HW117966   1.952   2.797   5.090 -1.3397 -0.3708  2.5618
 2111SOL    HW217967   1.853   2.889   5.024  1.7135  1.6209  2.1443
 2112SOL     OW17968   3.182   4.728   6.922 -0.3763 -0.2560  0.0308
 2112SOL    HW117969   3.129   0.062   6.882  0.6273  0.8015  0.4877
 2112SOL    HW217970   3.239   0.047   6.979 -0.7633  4.2722 -3.8127
 2113SOL     OW17971   3.592   1.992  12.065  0.9621 -0.3530  0.5352
 2113SOL    HW117972   3.647   2.016  12.140  0.3692 -0.3736  0.9795
 2113SOL    HW217973   3.569   1.901  12.083  0.0656  0.3121  2.7010
 2114SOL     OW17974   0.525   3.782   2.320 -0.0641 -0.0110 -0.0232
 2114SOL    HW117975   0.496   3.808   2.233 -1.3526 -2.0843 -0.2182
 2114SOL    HW217976   0.556   3.857   2.371  2.8756 -1.8455  0.8645
 2115SOL     OW17977   3.743   2.210   1.955  0.4143 -0.0732 -0.1013
 2115SOL    HW117978   3.834   2.235   1.968  0.3716  0.2541 -0.4136
 2115SOL    HW217979   3.756   2.122   1.921 -0.1888  0.2293 -1.1151
 2116SOL     OW17980   3.152   4.146   3.875 -0.0012  0.6051  0.2475
 2116SOL    HW117981   3.228   4.190   3.835  0.5409  1.4812  2.2144
 2116SOL    HW217982   3.145   4.058   3.839  0.8563  0.8715 -0.5816
 2117SOL     OW17983   4.731   3.486  10.776  0.1396 -0.0017 -0.3884
 2117SOL    HW117984   4.663   3.502  10.842 -0.9116  1.3471 -1.7839
 2117SOL    HW217985   0.077   3.508  10.822  0.4543  2.4661 -2.1377
 2118SOL     OW17986   0.228   2.153   2.614  0.1012  0.3457  0.0064
 2118SOL    HW117987   0.137   2.156   2.584 -0.1873 -0.3547  0.7939
 2118SOL    HW217988   0.253   2.075   2.564  0.8657  1.1414 -0.8324
 2119SOL     OW17989   2.424   4.520   4.084  0.2984 -0.7746  0.2162
 2119SOL    HW117990   2.395   4.524   3.993  1.4070  1.7478 -0.0116
 2119SOL    HW217991   2.483   4.445   4.075  0.6018 -0.2630 -2.0050
 2120SOL     OW17992   3.412   4.641   4.190 -0.0321 -0.1537 -0.4600
 2120SOL    HW117993   3.466   4.693   4.250 -0.8759  2.4807 -2.0280
 2120SOL    HW217994   3.438   4.551   4.213 -2.2188 -0.7493 -0.3430
 2121SOL     OW17995   1.830   2.403  13.974  0.0680  0.3731 -0.1305
 2121SOL    HW117996   1.783   2.479  13.940  0.0878  0.9541  1.1309
 2121SOL    HW217997   1.813   2.420  14.067 -0.3759 -0.5949 -0.0291
 2122SOL     OW17998   4.438   4.202   6.127  0.6179  0.4622 -0.3380
 2122SOL    HW117999   4.485   4.121   6.105  0.5318  0.5017 -0.6696
 2122SOL    HW218000   4.453   4.201   6.221 -0.6459 -0.2714 -0.1419
 2123SOL     OW18001   1.725   4.232   5.541  0.3295  0.4843 -0.6920
 2123SOL    HW118002   1.653   4.279   5.499 -1.2857 -1.4082 -0.0564
 2123SOL    HW218003   1.772   4.307   5.577  1.4748  0.0838 -1.3319
 2124SOL     OW18004   3.999   4.316   8.480 -0.5760 -0.5092 -0.2032
 2124SOL    HW118005   4.033   4.352   8.398  2.8213 -0.6640  1.1566
 2124SOL    HW218006   4.063   4.249   8.503 -0.3169 -0.8165 -1.8035
 2125SOL     OW18007   0.880   0.438   0.588 -0.4414 -0.0067  0.5735
 2125SOL    HW118008   0.963   0.419   0.630  0.3587  1.6599 -0.2526
 2125SOL    HW218009   0.901   0.530   0.569 -1.9186  0.2385  0.0699
 2126SOL     OW18010   1.816   2.482   7.447  0.0044  0.1789  0.1987
 2126SOL    HW118011   1.754   2.409   7.451 -2.7974  2.7567  3.7857
 2126SOL    HW218012   1.831   2.490   7.353 -1.3770 -3.2715 -0.3099
 2127SOL     OW18013   0.827   3.233   5.192 -0.2849  0.5572 -0.0772
 2127SOL    HW118014   0.781   3.157   5.228 -0.7699  0.2458 -1.3499
 2127SOL    HW218015   0.887   3.248   5.264  0.5925 -0.0936 -0.6755
 2128SOL     OW18016   2.710   4.345   9.199 -0.3644 -0.0470  0.1564
 2128SOL    HW118017   2.747   4.412   9.258  0.0725 -0.5556  0.4601
 2128SOL    HW218018   2.751   4.377   9.119  0.0185 -0.7341  0.0799
 2129SOL     OW18019   2.341   0.399   0.874 -0.3300  0.1290 -0.4679
 2129SOL    HW118020   2.265   0.345   0.853 -0.5039 -0.4523  1.6931
 2129SOL    HW218021   2.408   0.332   0.888  0.2813  0.5745 -1.2219
 2130SOL     OW18022   4.597   0.996  10.935 -0.5565 -0.2505 -1.2362
 2130SOL    HW118023   4.637   1.064  10.881  2.0584 -0.5526  0.3187
 2130SOL    HW218024   4.674   0.960  10.978  0.1001  0.8062 -1.5231
 2131SOL     OW18025   0.633   3.822   7.642  0.3164 -0.3664 -0.7801
 2131SOL    HW118026   0.688   3.775   7.704 -0.4943 -0.0308  0.1940
 2131SOL    HW218027   0.705   3.852   7.587  1.4662 -0.9199  0.4162
 2132SOL     OW18028   1.777   0.071  15.906 -0.4811 -0.2430 -0.1216
 2132SOL    HW118029   1.777   0.143  15.969 -3.7297 -1.6098  1.4163
 2132SOL    HW218030   1.691   0.093  15.870  0.4674  1.7725 -1.1358
 2133SOL     OW18031   0.174   1.307   3.751 -0.0803 -0.4669 -0.0225
 2133SOL    HW118032   0.235   1.245   3.791  1.9306  1.8830  0.5813
 2133SOL    HW218033   0.223   1.373   3.702  0.1943 -0.7612 -0.1471
 2134SOL     OW18034   2.509   4.454  16.515  0.3033 -0.2791  0.0115
 2134SOL    HW118035   2.441   4.457  16.447  0.2560  1.7781  0.1417
 2134SOL    HW218036   2.551   4.540  16.507 -0.5096  0.3744  2.9635
 2135SOL     OW18037   1.593   4.560   2.398  0.2280  0.1039  0.0768
 2135SOL    HW118038   1.504   4.535   2.423  0.0397 -1.0145 -1.6941
 2135SOL    HW218039   1.599   4.635   2.457  1.0928  0.2004 -0.1290
 2136SOL     OW18040   2.979   2.129   8.797 -0.1808 -0.3640  0.1080
 2136SOL    HW118041   2.950   2.144   8.887  1.5439 -0.4925  0.6897
 2136SOL    HW218042   3.058   2.183   8.788  0.0553 -0.8328 -0.5478
 2137SOL     OW18043   3.965   1.889   3.798 -0.2455 -0.5583  0.1905
 2137SOL    HW118044   3.914   1.837   3.735  0.1281 -2.4042  1.4057
 2137SOL    HW218045   4.038   1.829   3.816  0.3063  0.2082  0.4907
 2138SOL     OW18046   2.131   1.809   4.269 -0.1351 -0.3974  0.0179
 2138SOL    HW118047   2.052   1.817   4.321  1.4115 -3.7756  2.8885
 2138SOL    HW218048   2.137   1.714   4.267 -1.6102 -0.5394  3.4520
 2139SOL     OW18049   1.945   0.051  11.863 -0.5669 -0.2732 -0.6108
 2139SOL    HW118050   1.941   0.100  11.780  1.6407 -0.0922 -0.6139
 2139SOL    HW218051   1.914   4.697  11.844 -2.6682  0.3753 -0.2511
 2140SOL     OW18052   1.714   0.659   6.001 -0.8254  0.2636 -0.0186
 2140SOL    HW118053   1.779   0.637   6.068  1.7289  0.0124 -2.5956
 2140SOL    HW218054   1.642   0.605   6.033  0.3437 -0.3372  1.5931
 2141SOL     OW18055   3.132   4.500   6.733  0.7015 -0.1593  0.1093
 2141SOL    HW118056   3.166   4.560   6.800  0.3227 -0.0606  0.2122
 2141SOL    HW218057   3.196   4.507   6.663 -0.3870 -0.8770 -0.9504
 2142SOL     OW18058   2.580   1.410  16.154  0.1683  0.5703  0.1689
 2142SOL    HW118059   2.626   1.493  16.141  0.6198 -0.3583 -4.1149
 2142SOL    HW218060   2.505   1.428  16.210 -0.8707 -1.7745 -0.4677
 2143SOL     OW18061   3.054   0.937   9.196 -0.7282  0.5410 -0.1370
 2143SOL    HW118062   3.099   0.880   9.133 -2.1670 -1.0275  0.2795
 2143SOL    HW218063   3.110   0.956   9.271  0.2467  0.3400 -0.8134
 2144SOL     OW18064   0.868   3.035   5.651  0.0675  0.0774  0.5960
 2144SOL    HW118065   0.870   3.057   5.744  0.2951  1.6931  0.1989
 2144SOL    HW218066   0.809   3.100   5.613  1.3882  0.3193 -1.0440
 2145SOL     OW18067   2.381   3.035   8.696 -0.0726 -0.1844  0.3105
 2145SOL    HW118068   2.432   3.114   8.714  1.3194 -0.4457 -2.5145
 2145SOL    HW218069   2.295   3.046   8.737 -0.1997  1.9842 -0.5249
 2146SOL     OW18070   4.308   3.192  15.125  0.4716  0.6749 -0.1380
 2146SOL    HW118071   4.399   3.222  15.133  0.4981  1.3682 -3.2605
 2146SOL    HW218072   4.312   3.131  15.052  2.4778 -0.2074  0.7096
 2147SOL     OW18073   0.755   0.370  17.478  0.0269  0.8103 -0.6070
 2147SOL    HW118074   0.715   0.456  17.463 -1.5417  0.3280  0.7853
 2147SOL    HW218075   0.849   0.388  17.476  0.3761 -1.2922 -2.0871
 2148SOL     OW18076   0.217   2.752   8.056  0.1620 -0.5348  0.0470
 2148SOL    HW118077   0.294   2.722   8.105 -1.5449 -0.0180  3.0364
 2148SOL    HW218078   0.192   2.662   8.036 -2.0071  0.0200  0.3190
 2149SOL     OW18079   1.423   3.558  12.691  1.1656  0.2636 -0.4392
 2149SOL    HW118080   1.375   3.545  12.773  1.4505 -0.2934 -0.3627
 2149SOL    HW218081   1.491   3.493  12.705  1.3866  0.5729 -0.0622
 2150SOL     OW18082   2.581   4.203   2.747 -0.3796 -0.2137  0.0499
 2150SOL    HW118083   2.644   4.136   2.773  0.4779  0.8348  0.7075
 2150SOL    HW218084   2.534   4.162   2.675 -0.4762 -0.3405  0.1851
 2151SOL     OW18085   4.473   3.563   7.582  0.2607 -0.3287 -0.1313
 2151SOL    HW118086   4.424   3.511   7.646  0.9988 -1.0343 -0.1383
 2151SOL    HW218087   4.441   3.648   7.611  0.9674  0.6616 -2.2629
 2152SOL     OW18088   2.248   1.670   7.565 -0.1466 -0.1250 -0.1858
 2152SOL    HW118089   2.260   1.679   7.659 -1.3867  1.9481 -0.2312
 2152SOL    HW218090   2.156   1.645   7.559 -0.4933  1.4429 -1.3891
 2153SOL     OW18091   3.083   4.617  10.228 -0.2671 -0.4773  0.2301
 2153SOL    HW118092   2.988   4.608  10.233 -0.2907 -0.0195  0.6619
 2153SOL    HW218093   3.087   4.710  10.205  1.5493  0.1950  3.2078
 2154SOL     OW18094   3.816   2.086   3.875  0.5292  0.1432  0.4140
 2154SOL    HW118095   3.874   2.156   3.844  0.6181  0.6787  1.7604
 2154SOL    HW218096   3.868   2.009   3.852  0.7469  0.2433  0.5677
 2155SOL     OW18097   2.712   4.427   2.836 -0.1312 -0.4243  0.3701
 2155SOL    HW118098   2.673   4.351   2.793  2.1452 -1.4186  0.0154
 2155SOL    HW218099   2.783   4.383   2.884  0.3305 -1.9234 -1.6752
 2156SOL     OW18100   0.779   4.418  14.934 -0.2534 -0.3214 -0.0540
 2156SOL    HW118101   0.851   4.456  14.984 -0.6517 -0.1704  0.4047
 2156SOL    HW218102   0.831   4.377  14.865  0.0098  0.9343 -0.5851
 2157SOL     OW18103   4.720   3.363  10.516 -0.6390  0.4501  0.0077
 2157SOL    HW118104   4.704   3.408  10.599  0.3153 -1.2721  1.1260
 2157SOL    HW218105   4.713   3.273  10.548 -1.1420  0.7668  0.8080
 2158SOL     OW18106   3.700   0.235   1.675 -0.2308  0.4276  0.4778
 2158SOL    HW118107   3.655   0.300   1.728 -1.7769 -0.4653  0.2657
 2158SOL    HW218108   3.697   0.273   1.588  0.2315  1.0727  0.7443
 2159SOL     OW18109   4.533   4.072   7.178  0.0094  0.0415 -0.4360
 2159SOL    HW118110   4.597   4.082   7.248 -0.9335  0.6835  0.3294
 2159SOL    HW218111   4.499   3.984   7.191  0.3614  0.1133  0.9246
 2160SOL     OW18112   1.901   2.350   8.350 -0.2628  0.1004  0.3922
 2160SOL    HW118113   1.884   2.404   8.427 -0.7225 -0.8328  0.9525
 2160SOL    HW218114   1.991   2.318   8.362 -0.5632 -1.2400 -1.0073
 2161SOL     OW18115   3.262   4.613   7.167 -0.0645  0.0182 -0.0178
 2161SOL    HW118116   3.218   4.586   7.086  1.8811 -2.7076 -0.1888
 2161SOL    HW218117   3.348   4.605   7.126  0.6780 -1.7950  1.8659
 2162SOL     OW18118   0.902   1.662   5.552 -0.3586  0.0894 -0.1005
 2162SOL    HW118119   0.985   1.636   5.592 -1.0063 -1.9285 -0.0610
 2162SOL    HW218120   0.932   1.719   5.481 -1.4937 -0.1919 -0.8036
 2163SOL     OW18121   4.605   0.814   4.327  0.4171  0.0653 -0.5233
 2163SOL    HW118122   4.588   0.872   4.401 -0.3238 -1.8248  0.8228
 2163SOL    HW218123   4.699   0.815   4.308  0.8021 -1.0947  1.2900
 2164SOL     OW18124   2.001   1.299  16.628  0.0709 -0.5574  0.7925
 2164SOL    HW118125   1.978   1.331  16.541 -0.2032 -1.2235  0.6171
 2164SOL    HW218126   2.004   1.386  16.668 -0.2485  0.9396 -2.4629
 2165SOL     OW18127   2.173   2.457   3.112  1.1318  0.0582  0.9800
 2165SOL    HW118128   2.255   2.422   3.147 -0.0358 -2.3903  1.2031
 2165SOL    HW218129   2.200   2.536   3.065  1.7819  0.3710  1.8643
 2166SOL     OW18130   3.318   1.625   2.292  0.2473  0.1713 -1.0864
 2166SOL    HW118131   3.306   1.544   2.342  3.0927 -0.0031 -0.6721
 2166SOL    HW218132   3.278   1.606   2.208 -4.6746  0.2555  1.2609
 2167SOL     OW18133   3.483   0.726   4.952 -0.1529 -0.5128  0.3017
 2167SOL    HW118134   3.436   0.766   5.026 -0.4598  0.1999 -0.2743
 2167SOL    HW218135   3.563   0.695   4.994 -0.0647 -0.5574  0.0964
 2168SOL     OW18136   3.973   1.361  14.370 -0.0735  0.5350  0.5831
 2168SOL    HW118137   4.028   1.439  14.377 -1.4604  1.3522  2.3974
 2168SOL    HW218138   3.909   1.385  14.304  0.6829  0.2045 -0.2672
 2169SOL     OW18139   3.057   1.190   0.495  0.3556  0.5577 -0.3719
 2169SOL    HW118140   2.991   1.133   0.534 -0.2611  0.6647 -1.2684
 2169SOL    HW218141   3.047   1.271   0.544  0.4063  0.0824  0.4230
 2170SOL     OW18142   2.645   2.888  11.252  0.0071  0.0981 -0.6108
 2170SOL    HW118143   2.625   2.981  11.245 -1.2274  0.2404  5.1018
 2170SOL    HW218144   2.611   2.863  11.166 -2.7891  0.9565  0.2338
 2171SOL     OW18145   4.162   1.255  17.607  0.3609  0.4581  0.1565
 2171SOL    HW118146   4.139   1.175  17.654 -0.8142  2.0465  2.3397
 2171SOL    HW218147   4.076   1.267  17.567  0.4468 -0.6954 -0.3645
 2172SOL     OW18148   2.532   3.836   0.505  0.0844 -0.0255 -0.4807
 2172SOL    HW118149   2.586   3.762   0.532 -0.5571 -0.4996 -0.5043
 2172SOL    HW218150   2.582   3.873   0.432  2.3402  0.0950  1.1269
 2173SOL     OW18151   3.638   1.418  11.546 -0.4273  0.0489 -0.2023
 2173SOL    HW118152   3.648   1.510  11.521  0.0143 -0.6784 -2.6064
 2173SOL    HW218153   3.595   1.379  11.470 -1.3760 -2.1863  1.4586
 2174SOL     OW18154   4.059   1.954  14.677 -0.2200 -0.1186  0.4338
 2174SOL    HW118155   4.033   1.903  14.754  1.7030  0.5409  1.5262
 2174SOL    HW218156   4.073   1.883  14.614 -2.8503 -1.0484  0.9116
 2175SOL     OW18157   1.422   2.029   8.312  0.1052  0.5693 -0.4108
 2175SOL    HW118158   1.457   2.047   8.399  0.2032  0.9039 -0.5207
 2175SOL    HW218159   1.500   1.996   8.267 -0.3612 -0.2127 -0.6578
 2176SOL     OW18160   2.738   3.923   8.346  0.5579  0.1487 -0.5688
 2176SOL    HW118161   2.783   3.983   8.286  2.7534  0.0409  0.9899
 2176SOL    HW218162   2.666   3.899   8.288  0.1930  0.0748 -0.0844
 2177SOL     OW18163   3.142   0.548   7.964  0.5879  0.2476 -0.4757
 2177SOL    HW118164   3.130   0.642   7.951  1.9331  0.4152 -0.5647
 2177SOL    HW218165   3.215   0.549   8.027  0.0626  1.4533  0.1068
 2178SOL     OW18166   1.899   3.107   2.828 -0.0999  0.3442  0.1360
 2178SOL    HW118167   1.930   3.176   2.769 -2.6933  0.6934 -0.7926
 2178SOL    HW218168   1.937   3.138   2.910  0.2422  1.6568 -0.5206
 2179SOL     OW18169   1.712   1.141  16.151 -0.3020  0.2248  0.0337
 2179SOL    HW118170   1.636   1.089  16.178  0.2579 -0.0865  1.0410
 2179SOL    HW218171   1.784   1.078  16.156  1.1601  1.8790 -0.2416
 2180SOL     OW18172   0.999   3.563   5.120 -0.1057 -0.2757  0.2807
 2180SOL    HW118173   1.032   3.647   5.152  1.0337 -1.3476  1.9395
 2180SOL    HW218174   0.911   3.573   5.158  1.0265 -1.2548  3.2161
 2181SOL     OW18175   1.689   1.731   5.633 -0.8617 -0.5972 -0.4203
 2181SOL    HW118176   1.669   1.652   5.684 -2.9314  0.0138 -0.2880
 2181SOL    HW218177   1.767   1.707   5.582  0.6116 -0.6256  1.8216
 2182SOL     OW18178   2.944   3.016   9.038  0.7438  0.3414  0.8438
 2182SOL    HW118179   2.852   2.999   9.016  1.4129 -1.6841 -0.4246
 2182SOL    HW218180   2.965   2.932   9.079 -0.4070 -0.5570 -0.4184
 2183SOL     OW18181   1.852   2.924   6.519  0.2138  0.0197 -0.0703
 2183SOL    HW118182   1.928   2.872   6.494  0.2792  0.4411 -0.7771
 2183SOL    HW218183   1.781   2.871   6.484 -0.9738  0.0381  2.3342
 2184SOL     OW18184   0.803   4.722   4.390 -0.6293  0.3927 -0.6218
 2184SOL    HW118185   0.789   4.669   4.311  0.5204 -0.7933 -0.0453
 2184SOL    HW218186   0.709   4.732   4.407 -0.7933  1.3668 -2.1161
 2185SOL     OW18187   0.049   1.744  11.623  0.3142 -0.1003  0.5847
 2185SOL    HW118188   0.137   1.737  11.586  0.7491 -1.0252  1.7936
 2185SOL    HW218189   0.058   1.701  11.708  1.9562 -0.0302  0.4546
 2186SOL     OW18190   0.132   4.350   3.420 -0.8222  0.2757  0.3368
 2186SOL    HW118191   0.171   4.301   3.493  0.5506 -2.0102 -1.9582
 2186SOL    HW218192   0.119   4.271   3.369 -1.4762 -0.0388  0.9892
 2187SOL     OW18193   4.543   4.336  13.213 -0.0198 -0.2473  0.2028
 2187SOL    HW118194   4.597   4.289  13.277 -1.4732  1.6778  2.8832
 2187SOL    HW218195   4.459   4.294  13.231 -0.6350  0.5971 -0.7114
 2188SOL     OW18196   2.159   4.263   4.155  0.5337  0.0217 -0.4155
 2188SOL    HW118197   2.160   4.312   4.072 -0.3897  2.2996  0.9086
 2188SOL    HW218198   2.184   4.177   4.122  0.6579 -0.8545  1.9760
 2189SOL     OW18199   0.456   2.350   4.418 -0.6299 -0.4208  0.8119
 2189SOL    HW118200   0.515   2.416   4.455 -1.6108  0.6836  0.4060
 2189SOL    HW218201   0.504   2.269   4.435 -0.1863 -0.1573  0.7955
 2190SOL     OW18202   1.487   2.097   7.579 -0.4913 -0.1544  0.3907
 2190SOL    HW118203   1.534   2.056   7.652  1.2622 -0.2140 -0.7526
 2190SOL    HW218204   1.420   2.144   7.628 -0.9828 -1.4325  0.9291
 2191SOL     OW18205   0.199   4.483   2.528  0.0844  0.7488 -0.0774
 2191SOL    HW118206   0.136   4.511   2.594 -1.0403 -2.3532  0.1772
 2191SOL    HW218207   0.248   4.565   2.521 -1.6830  1.7421 -0.9296
 2192SOL     OW18208   2.879   4.566  13.721  0.2589 -0.0269  0.4933
 2192SOL    HW118209   2.935   4.499  13.681 -0.9098 -1.8182  1.9015
 2192SOL    HW218210   2.892   4.642  13.664  0.2526 -0.2161  0.2386
 2193SOL     OW18211   4.138   1.704   9.530  0.0541 -0.2221 -0.1769
 2193SOL    HW118212   4.223   1.738   9.502  0.3286 -0.6850  0.0948
 2193SOL    HW218213   4.083   1.780   9.547 -0.4727 -0.3112 -1.5545
 2194SOL     OW18214   0.039   1.363  11.636 -0.9676 -0.2681  0.0225
 2194SOL    HW118215   4.705   1.416  11.597 -2.7094 -0.1989  3.1585
 2194SOL    HW218216   0.108   1.377  11.571 -0.5379 -0.3582  0.4549
 2195SOL     OW18217   2.519   1.033   5.051 -0.1767  0.1624 -0.6128
 2195SOL    HW118218   2.573   1.037   5.130 -0.4805 -2.4764 -0.2546
 2195SOL    HW218219   2.428   1.037   5.079 -0.4494 -2.7477 -1.0370
 2196SOL     OW18220   2.274   3.242  11.004 -0.0572  0.0194 -0.0009
 2196SOL    HW118221   2.196   3.187  10.991  0.1414 -0.5758  1.3079
 2196SOL    HW218222   2.236   3.318  11.048 -0.6630 -1.2224  1.6292
 2197SOL     OW18223   0.958   4.013   2.401 -0.2788  0.0485 -0.6627
 2197SOL    HW118224   1.025   3.958   2.442 -0.3475  0.4066 -0.0747
 2197SOL    HW218225   0.942   4.076   2.471  2.5324  0.4012 -0.3252
 2198SOL     OW18226   3.103   0.395   0.806 -0.5751  0.1101  0.4773
 2198SOL    HW118227   3.091   0.479   0.851 -0.3155  0.6203 -0.4090
 2198SOL    HW218228   3.121   0.432   0.720 -0.3477  0.6330  0.7449
 2199SOL     OW18229   0.608   1.482   2.270 -0.0795  0.4164  0.1540
 2199SOL    HW118230   0.636   1.567   2.235  3.1529  0.0398  1.7839
 2199SOL    HW218231   0.515   1.489   2.249  0.0072 -0.6755 -0.5803
 2200SOL     OW18232   4.223   1.437   6.058 -0.3024 -0.5414  0.1796
 2200SOL    HW118233   4.168   1.496   6.007  2.1274  1.0830 -0.5467
 2200SOL    HW218234   4.229   1.361   6.000 -0.7929 -0.7566  0.4034
 2201SOL     OW18235   0.578   2.719   8.165  0.2392  0.8639  0.0351
 2201SOL    HW118236   0.522   2.665   8.109  1.0871  0.6080 -0.5682
 2201SOL    HW218237   0.566   2.688   8.254  1.8058 -0.4736 -0.2187
 2202SOL     OW18238   4.093   0.521   6.955 -0.1968  0.1386  0.1244
 2202SOL    HW118239   4.182   0.541   6.984  0.6700 -1.6159 -1.3204
 2202SOL    HW218240   4.039   0.581   7.006  1.2736  0.6468  1.0737
 2203SOL     OW18241   2.838   1.198   0.014  0.3069 -0.7559 -0.6237
 2203SOL    HW118242   2.854   1.210  17.658  0.5343  0.0611 -0.4778
 2203SOL    HW218243   2.914   1.151   0.049  1.8326  2.1953  0.0611
 2204SOL     OW18244   0.371   2.913   3.401 -0.0484 -0.2618 -0.4968
 2204SOL    HW118245   0.281   2.906   3.433  0.6068  1.7691  1.8504
 2204SOL    HW218246   0.376   2.838   3.342 -0.7012 -1.4429  0.9509
 2205SOL     OW18247   4.134   4.556   1.791 -0.3317  0.0370  0.2418
 2205SOL    HW118248   4.188   4.626   1.827  0.2812 -1.7600  2.7912
 2205SOL    HW218249   4.129   4.587   1.700 -1.2120  0.9656  0.6052
 2206SOL     OW18250   3.447   2.485   6.249 -0.1918 -0.3693 -0.7144
 2206SOL    HW118251   3.529   2.455   6.290  0.4351 -0.0607 -1.7480
 2206SOL    HW218252   3.406   2.399   6.256  0.5576 -0.5279  1.8840
 2207SOL     OW18253   1.044   1.786   7.231 -0.5228 -0.4329  0.0613
 2207SOL    HW118254   1.036   1.850   7.161  0.8370  0.0161  0.3213
 2207SOL    HW218255   0.963   1.811   7.277  0.7687  0.2704  1.9517
 2208SOL     OW18256   4.709   3.463   5.673  0.2618 -0.2664 -0.0613
 2208SOL    HW118257   0.006   3.395   5.733 -1.1228 -1.4977 -0.7024
 2208SOL    HW218258   0.049   3.486   5.618 -0.1964 -2.2631 -1.5329
 2209SOL     OW18259   3.410   0.783   9.080 -0.1072  0.0255 -0.7842
 2209SOL    HW118260   3.417   0.818   9.169  3.1192 -1.9743 -0.2554
 2209SOL    HW218261   3.314   0.775   9.076 -0.3804  1.9693  1.9132
 2210SOL     OW18262   2.935   4.062   1.898 -0.2277 -0.6777 -0.5994
 2210SOL    HW118263   2.902   4.132   1.954  1.2544 -1.1116  0.8170
 2210SOL    HW218264   3.030   4.062   1.911 -0.0416  0.0313 -1.9795
 2211SOL     OW18265   3.970   0.285   5.144 -0.2048 -0.1614 -0.0731
 2211SOL    HW118266   4.025   0.210   5.167 -0.1006 -0.9988 -3.1725
 2211SOL    HW218267   4.014   0.365   5.174 -1.4002  0.1406  0.8608
 2212SOL     OW18268   0.848   3.389  16.928 -0.2181  0.3063 -0.5073
 2212SOL    HW118269   0.772   3.332  16.912 -0.1150  0.4504 -1.5091
 2212SOL    HW218270   0.811   3.460  16.981 -2.6178  0.4768 -2.4000
 2213SOL     OW18271   2.826   4.503   2.578  0.2031  0.0523  0.5798
 2213SOL    HW118272   2.739   4.464   2.569 -0.0887  1.3862 -2.4449
 2213SOL    HW218273   2.847   4.483   2.669 -1.1270 -1.0821  0.6464
 2214SOL     OW18274   3.141   3.010   9.870  0.2250 -0.4068 -0.0211
 2214SOL    HW118275   3.119   3.077   9.935 -1.3429  0.2665 -1.2409
 2214SOL    HW218276   3.131   3.054   9.785 -2.6645 -0.8566  0.0883
 2215SOL     OW18277   1.187   1.895   9.044  0.0530  0.5598 -0.3696
 2215SOL    HW118278   1.105   1.936   9.020 -1.1086 -2.2381 -1.1874
 2215SOL    HW218279   1.255   1.961   9.056  1.5159 -0.8246 -1.0680
 2216SOL     OW18280   0.489   0.298   0.469  0.1392  0.3716  0.4732
 2216SOL    HW118281   0.492   0.251   0.553  0.8088  0.7340  0.6575
 2216SOL    HW218282   0.580   0.287   0.440 -0.0117 -2.2601  0.9238
 2217SOL     OW18283   4.119   2.521   6.937 -0.1825 -0.1445  0.2671
 2217SOL    HW118284   4.055   2.542   7.005 -1.5779 -1.0203 -0.7583
 2217SOL    HW218285   4.093   2.587   6.871  2.3700 -0.1219 -0.7145
 2218SOL     OW18286   0.554   0.042   4.522 -0.0843 -0.1699  0.5839
 2218SOL    HW118287   0.490   4.706   4.513 -0.0731  0.0988 -1.5793
 2218SOL    HW218288   0.550   0.053   4.617  0.0615 -1.1583  0.7004
 2219SOL     OW18289   0.678   0.472   3.177  0.2853 -0.5905  0.0605
 2219SOL    HW118290   0.617   0.512   3.239  0.9057 -0.2554  0.4542
 2219SOL    HW218291   0.694   0.384   3.213  1.2141  0.7194  2.8480
 2220SOL     OW18292   4.229   1.693  15.499 -0.5137  0.1925 -0.0314
 2220SOL    HW118293   4.225   1.780  15.537 -1.3325  0.6350 -1.1262
 2220SOL    HW218294   4.255   1.709  15.408 -0.3324 -0.5304 -0.1099
 2221SOL     OW18295   1.278   3.575   9.186 -0.0397 -0.0484  0.0362
 2221SOL    HW118296   1.245   3.638   9.250 -0.7888 -0.2239 -0.1710
 2221SOL    HW218297   1.359   3.547   9.226  0.7526  0.7868 -0.9614
 2222SOL     OW18298   2.064   2.233   2.477 -0.2712  0.4305 -0.1172
 2222SOL    HW118299   2.055   2.256   2.385 -1.5057 -2.8715 -0.8402
 2222SOL    HW218300   2.158   2.251   2.486 -0.7029  1.6370  1.8951
 2223SOL     OW18301   0.187   1.685   5.405  0.3532  0.0270  0.3266
 2223SOL    HW118302   0.210   1.700   5.313  0.1978  0.2555  0.3252
 2223SOL    HW218303   0.101   1.651   5.382  0.0413  0.8600  0.2813
 2224SOL     OW18304   1.070   3.942   6.047  0.6216 -0.3406  0.1259
 2224SOL    HW118305   1.095   3.937   6.139  0.6857 -1.0215  0.0716
 2224SOL    HW218306   0.976   3.920   6.045  0.4815  0.2787 -0.0610
 2225SOL     OW18307   1.741   3.092   4.229 -0.3559  0.2011 -0.2543
 2225SOL    HW118308   1.698   3.055   4.152  1.4273  1.3533 -1.7942
 2225SOL    HW218309   1.830   3.056   4.229 -0.5142 -0.1581 -2.2718
 2226SOL     OW18310   0.191   4.396   4.486  0.5167 -0.2987  0.6672
 2226SOL    HW118311   0.123   4.456   4.518 -0.5080 -0.3310 -1.4352
 2226SOL    HW218312   0.151   4.315   4.518  0.4144 -0.9621 -1.1309
 2227SOL     OW18313   0.048   1.010   5.433 -0.2276 -0.7267  0.3888
 2227SOL    HW118314   0.009   0.923   5.423  0.4105 -1.0840  1.0049
 2227SOL    HW218315   0.141   0.988   5.434  0.3775  1.8660  0.0521
 2228SOL     OW18316   0.601   4.267   5.594 -0.0411  0.7457  0.4159
 2228SOL    HW118317   0.656   4.296   5.521 -1.7456 -0.6974 -1.4773
 2228SOL    HW218318   0.661   4.238   5.662  2.3159  0.5195 -1.7401
 2229SOL     OW18319   3.518   2.575  12.102 -0.4685 -0.7183  0.3648
 2229SOL    HW118320   3.535   2.582  12.196  1.9117 -2.8064  0.0750
 2229SOL    HW218321   3.422   2.574  12.105 -0.4734  0.5464  0.5991
 2230SOL     OW18322   1.973   1.604  16.515  0.0348 -0.6471 -0.4869
 2230SOL    HW118323   1.881   1.588  16.493 -0.2853 -0.6717  0.8689
 2230SOL    HW218324   1.964   1.667  16.587  0.4120  0.2468 -1.2232
 2231SOL     OW18325   0.709   2.334  14.798 -0.3152  0.2685 -0.8691
 2231SOL    HW118326   0.686   2.311  14.708 -0.1366 -0.9878 -0.5964
 2231SOL    HW218327   0.625   2.332  14.844  0.3791 -0.7015  0.3604
 2232SOL     OW18328   0.024   0.417   1.534 -0.1672 -0.8295 -0.2994
 2232SOL    HW118329   0.086   0.419   1.608 -0.3027  4.6173 -0.2998
 2232SOL    HW218330   4.708   0.338   1.553 -1.2285 -0.7985 -3.0541
 2233SOL     OW18331   0.759   4.606  16.184  0.7980  0.2061  0.2028
 2233SOL    HW118332   0.727   4.690  16.150 -2.0881 -0.5426  1.0697
 2233SOL    HW218333   0.743   4.623  16.277  1.6941  2.7840 -0.1034
 2234SOL     OW18334   1.219   1.410  17.563  0.0902  0.8437  0.1237
 2234SOL    HW118335   1.200   1.406  17.469 -1.1470 -0.3192  0.4083
 2234SOL    HW218336   1.288   1.343  17.570 -0.6570  0.3272  2.2797
 2235SOL     OW18337   0.561   1.470   3.650  0.4044 -0.1943 -0.2285
 2235SOL    HW118338   0.533   1.488   3.561  0.2770 -2.1719 -0.5891
 2235SOL    HW218339   0.654   1.449   3.638  0.0975 -1.0572 -1.0646
 2236SOL     OW18340   4.036   3.980  14.638  0.6971  0.1233 -0.2192
 2236SOL    HW118341   4.079   4.059  14.608 -0.7568  1.3693  0.9897
 2236SOL    HW218342   3.993   3.948  14.558  0.2305 -0.7509  0.3802
 2237SOL     OW18343   2.362   4.648   0.469  0.5529 -0.3749  0.8257
 2237SOL    HW118344   2.328   4.561   0.449  0.3040 -0.2578  0.7425
 2237SOL    HW218345   2.294   4.706   0.435  2.1604  0.5374 -0.8090
 2238SOL     OW18346   3.754   0.655   4.091 -0.1827  0.0824  0.0265
 2238SOL    HW118347   3.764   0.748   4.110  2.2492 -0.4467  1.2647
 2238SOL    HW218348   3.662   0.642   4.114  0.0138 -0.0347  0.7303
 2239SOL     OW18349   1.298   1.588  13.923 -0.7043  0.0871 -0.0467
 2239SOL    HW118350   1.298   1.534  14.001 -0.5343  0.8837  0.5078
 2239SOL    HW218351   1.383   1.632  13.921  0.0908 -1.5559 -1.9464
 2240SOL     OW18352   4.352   1.821   7.563 -0.2404 -0.2306  0.1286
 2240SOL    HW118353   4.426   1.878   7.542  0.6802 -1.4701 -0.0037
 2240SOL    HW218354   4.295   1.871   7.622 -2.7606 -0.0995 -2.3966
 2241SOL     OW18355   1.454   0.645   5.709  0.1375  0.3945  0.6275
 2241SOL    HW118356   1.434   0.712   5.644  0.4555 -0.0548  0.0710
 2241SOL    HW218357   1.544   0.665   5.733  0.3665 -0.7833  0.7676
 2242SOL     OW18358   0.251   2.878  10.494 -0.5883 -0.0274 -0.6432
 2242SOL    HW118359   0.324   2.821  10.469 -0.3327  0.9813 -2.2187
 2242SOL    HW218360   0.231   2.924  10.412 -0.5941  0.7194 -0.2181
 2243SOL     OW18361   2.409   0.292   7.452 -0.2100  0.3041  0.5493
 2243SOL    HW118362   2.370   0.378   7.439 -0.1033  0.1335 -0.9347
 2243SOL    HW218363   2.332   0.245   7.486 -0.4328  1.4313  1.6015
 2244SOL     OW18364   0.703   3.665   9.477 -0.1186  0.1444  0.3172
 2244SOL    HW118365   0.715   3.667   9.572  1.7567 -2.4030  0.1151
 2244SOL    HW218366   0.646   3.739   9.455  0.6881  0.4075 -0.9034
 2245SOL     OW18367   4.734   1.623   9.995 -0.0727 -0.2044 -0.0442
 2245SOL    HW118368   0.093   1.606   9.984 -0.4318 -1.5139 -1.0365
 2245SOL    HW218369   4.720   1.635  10.089 -0.6832  1.5953 -0.3614
 2246SOL     OW18370   1.885   4.303   9.486  0.2022 -0.4101 -0.5322
 2246SOL    HW118371   1.860   4.388   9.522 -0.9464 -2.6879  4.0984
 2246SOL    HW218372   1.807   4.282   9.433  0.3885 -0.2312 -0.8792
 2247SOL     OW18373   3.671   0.745   5.443  0.5801 -0.0162 -0.3571
 2247SOL    HW118374   3.656   0.672   5.384  2.7100 -0.4220 -0.4199
 2247SOL    HW218375   3.747   0.717   5.494  0.1405 -0.7242 -0.0882
 2248SOL     OW18376   0.147   3.837   8.588 -0.3495 -0.4194 -0.2025
 2248SOL    HW118377   0.216   3.889   8.546  0.6337 -0.7070  1.0743
 2248SOL    HW218378   0.088   3.900   8.628  2.0112  0.1548  2.2767
 2249SOL     OW18379   1.826   2.455   8.093  0.2792 -0.1666 -0.2035
 2249SOL    HW118380   1.813   2.386   8.028  0.4842 -1.3316  0.9755
 2249SOL    HW218381   1.872   2.416   8.168 -1.9031  0.0077  1.2292
 2250SOL     OW18382   0.508   3.516  10.718 -0.6711 -0.5312 -0.0276
 2250SOL    HW118383   0.483   3.444  10.776 -0.7532 -0.4403  0.0501
 2250SOL    HW218384   0.578   3.563  10.763 -0.7296 -0.8885  0.4329
 2251SOL     OW18385   3.338   0.342   8.868  0.1612  0.2674 -0.0932
 2251SOL    HW118386   3.353   0.306   8.956 -0.7245  1.2012  0.4482
 2251SOL    HW218387   3.246   0.365   8.877  0.1348  1.2078 -2.7335
 2252SOL     OW18388   4.109   1.968   4.914  0.5284 -0.2013  0.4892
 2252SOL    HW118389   4.200   1.984   4.891  0.4461  0.6223  0.7545
 2252SOL    HW218390   4.064   2.035   4.864 -0.9138 -1.3833  0.1839
 2253SOL     OW18391   2.090   0.574  12.016  0.4076  0.7540  0.5679
 2253SOL    HW118392   2.153   0.541  11.953 -0.1926  0.1578  0.2806
 2253SOL    HW218393   2.146   0.647  12.044 -0.1805  1.4667 -0.0848
 2254SOL     OW18394   0.225   0.608   1.142  0.6610  0.0202 -0.2190
 2254SOL    HW118395   0.209   0.519   1.113  0.6704  0.1690 -0.6911
 2254SOL    HW218396   0.155   0.647   1.090  0.0554 -1.9551 -0.8795
 2255SOL     OW18397   4.450   1.952   2.426 -0.0819 -0.1352  0.2185
 2255SOL    HW118398   4.442   2.007   2.504 -1.8243 -0.8843  0.5566
 2255SOL    HW218399   4.371   1.971   2.375  0.6311  0.8147 -0.5229
 2256SOL     OW18400   1.119   2.873  16.603  0.1154 -0.0232 -0.5485
 2256SOL    HW118401   1.198   2.836  16.565 -0.2144 -1.1766 -0.1231
 2256SOL    HW218402   1.131   2.962  16.571  0.7248  0.8334  2.0207
 2257SOL     OW18403   4.311   0.611  14.519  0.0713  0.3526  0.2584
 2257SOL    HW118404   4.307   0.666  14.597 -0.5238 -1.5086  1.5445
 2257SOL    HW218405   4.231   0.644  14.479  0.0735  0.4172  0.3062
 2258SOL     OW18406   3.734   4.463   0.434  0.4411 -0.4030 -0.3132
 2258SOL    HW118407   3.673   4.531   0.405 -0.3329 -0.5180  1.0496
 2258SOL    HW218408   3.688   4.379   0.435  1.8110 -1.1743 -2.8834
 2259SOL     OW18409   0.635   4.209   8.389 -0.2542 -0.2415 -0.1907
 2259SOL    HW118410   0.581   4.257   8.452  1.6828 -0.6015  1.7691
 2259SOL    HW218411   0.593   4.225   8.305 -2.3079  1.8302  1.2262
 2260SOL     OW18412   3.648   3.363   6.734 -0.0352 -0.5580 -0.4995
 2260SOL    HW118413   3.645   3.320   6.820 -1.3416  0.7102  0.0857
 2260SOL    HW218414   3.698   3.442   6.753 -0.6012  0.0790 -1.7148
 2261SOL     OW18415   2.472   3.510   4.200 -0.5092  0.3126 -0.3182
 2261SOL    HW118416   2.422   3.589   4.222 -0.6338 -1.2117  4.8667
 2261SOL    HW218417   2.545   3.548   4.151  0.7407 -1.2525  0.3381
 2262SOL     OW18418   3.331   2.467   4.518  0.2756  0.0547  0.4209
 2262SOL    HW118419   3.292   2.442   4.602  2.2444 -1.6633  0.8328
 2262SOL    HW218420   3.394   2.533   4.550  0.1867 -0.5251  1.8073
 2263SOL     OW18421   2.629   2.317   5.431  0.0328 -0.0387 -0.4625
 2263SOL    HW118422   2.598   2.405   5.410  0.2157 -0.2764 -1.7323
 2263SOL    HW218423   2.606   2.270   5.351 -1.3328 -1.5429  0.8335
 2264SOL     OW18424   2.811   4.059  17.395  0.4812 -0.1594 -0.4503
 2264SOL    HW118425   2.855   4.003  17.459  1.0632  0.6068 -0.1774
 2264SOL    HW218426   2.877   4.080  17.329 -2.8876  1.1192 -3.4623
 2265SOL     OW18427   4.616   0.156   5.892 -0.5759 -0.0753  0.1742
 2265SOL    HW118428   4.628   0.162   5.797 -1.2048  1.1334  0.1654
 2265SOL    HW218429   4.567   0.076   5.907  0.5304 -0.8757 -0.4255
 2266SOL     OW18430   1.371   1.560   5.831 -0.1320  0.3826  0.0920
 2266SOL    HW118431   1.387   1.621   5.903 -0.0231  1.2711 -0.6927
 2266SOL    HW218432   1.333   1.481   5.869  1.4532 -0.2640  0.3335
 2267SOL     OW18433   3.919   3.878   6.436 -0.3317 -0.7198 -0.3156
 2267SOL    HW118434   3.886   3.939   6.503 -3.0662 -1.4092 -1.0353
 2267SOL    HW218435   4.009   3.890   6.468 -0.1475  1.5204 -1.7030
 2268SOL     OW18436   1.397   2.514   9.443  0.1606 -0.4036 -0.1296
 2268SOL    HW118437   1.318   2.542   9.489 -1.2303  0.1852 -2.8694
 2268SOL    HW218438   1.462   2.534   9.510 -0.3740 -0.6037  0.4471
 2269SOL     OW18439   4.236   4.456   4.398  0.2337  0.1539 -0.3117
 2269SOL    HW118440   4.232   4.440   4.492 -1.0336 -1.2622 -0.6033
 2269SOL    HW218441   4.327   4.488   4.397  0.9139 -1.7017  1.1305
 2270SOL     OW18442   4.240   0.766   4.236  0.0338  0.2341  0.3035
 2270SOL    HW118443   4.190   0.836   4.194  1.7645  0.5771 -1.1601
 2270SOL    HW218444   4.168   0.718   4.278 -1.0568  1.2782 -0.3734
 2271SOL     OW18445   2.528   0.182  16.129  0.1978 -0.0916  0.2182
 2271SOL    HW118446   2.612   0.148  16.099 -1.1378 -0.3325 -3.3276
 2271SOL    HW218447   2.505   0.227  16.047  3.2451 -0.7895 -1.0079
 2272SOL     OW18448   3.103   3.764   3.998 -0.5601  0.1097  0.1435
 2272SOL    HW118449   3.020   3.811   3.983 -0.9300 -0.2346  1.0824
 2272SOL    HW218450   3.060   3.679   4.006  0.5911 -0.5963 -1.3901
 2273SOL     OW18451   0.803   2.538   7.396  0.3731  0.0716 -0.3548
 2273SOL    HW118452   0.783   2.462   7.341  1.2441  0.6842 -1.5217
 2273SOL    HW218453   0.880   2.519   7.450 -0.0548  2.1359  0.9884
 2274SOL     OW18454   3.181   2.650   3.072  0.3412 -0.3162  0.4937
 2274SOL    HW118455   3.241   2.618   3.140  0.5427  0.0234  0.4726
 2274SOL    HW218456   3.112   2.704   3.111  1.9224  1.4683  0.8479
 2275SOL     OW18457   0.623   1.780   4.201  0.2657  0.4612  0.0091
 2275SOL    HW118458   0.667   1.854   4.158 -0.4558  0.3006 -0.9834
 2275SOL    HW218459   0.570   1.749   4.128  0.3822  0.4125 -0.0560
 2276SOL     OW18460   4.575   1.607  17.592 -0.3964 -0.0480  0.0833
 2276SOL    HW118461   4.574   1.573  17.681  1.3311  0.4747  0.3126
 2276SOL    HW218462   4.535   1.537  17.540 -0.2077  1.8910 -2.7196
 2277SOL     OW18463   1.766   2.999   3.131 -0.2737  0.5227  0.0550
 2277SOL    HW118464   1.786   3.080   3.084 -1.4366 -0.2645 -1.7918
 2277SOL    HW218465   1.831   2.940   3.094 -0.0110  1.0575 -0.3285
 2278SOL     OW18466   1.453   0.349   5.582 -0.2829  0.5099  0.3666
 2278SOL    HW118467   1.540   0.331   5.616  0.2022  0.4892 -0.8843
 2278SOL    HW218468   1.448   0.444   5.592 -0.6116  0.3496  1.6982
 2279SOL     OW18469   0.629   2.197  17.549 -0.1884  0.0019  0.1938
 2279SOL    HW118470   0.556   2.158  17.500  0.5882 -0.9748 -0.1709
 2279SOL    HW218471   0.695   2.131  17.529  0.1321  0.7257 -1.1899
 2280SOL     OW18472   2.763   1.215   8.606  0.6873 -0.2898 -0.1688
 2280SOL    HW118473   2.748   1.123   8.624  0.1455 -0.0687  0.5276
 2280SOL    HW218474   2.716   1.252   8.681  0.2914 -0.4415 -0.3378
 2281SOL     OW18475   4.699   3.818  16.348 -0.1369  0.5681 -0.4598
 2281SOL    HW118476   4.626   3.876  16.325 -0.9623  1.0068  3.2250
 2281SOL    HW218477   4.659   3.731  16.350 -1.2913  1.0754 -1.3699
 2282SOL     OW18478   2.873   1.015   2.781 -0.6544  0.1915  0.0932
 2282SOL    HW118479   2.786   1.007   2.741 -1.2336  2.8332  0.8524
 2282SOL    HW218480   2.909   0.926   2.784  0.0194  0.4296 -0.9206
 2283SOL     OW18481   3.550   3.464   6.276  0.3037 -0.1553 -0.2008
 2283SOL    HW118482   3.530   3.442   6.367 -0.3239  1.0471 -0.0451
 2283SOL    HW218483   3.643   3.484   6.274 -0.1066  1.6705 -0.7525
 2284SOL     OW18484   1.838   2.647  17.189  0.1887  0.2709 -0.3608
 2284SOL    HW118485   1.834   2.651  17.094 -2.2084  0.7037 -0.2563
 2284SOL    HW218486   1.857   2.738  17.213  0.0735  0.2091 -0.0362
 2285SOL     OW18487   0.856   0.770  10.654  0.1185 -0.0384 -0.2896
 2285SOL    HW118488   0.887   0.833  10.719 -1.9849 -0.8246  1.4706
 2285SOL    HW218489   0.813   0.710  10.714  1.7906 -0.4329  0.4976
 2286SOL     OW18490   2.766   2.232   5.709  0.5429 -0.0770  0.4479
 2286SOL    HW118491   2.825   2.182   5.765  0.7563 -0.3906 -0.0533
 2286SOL    HW218492   2.751   2.172   5.636  1.4853  0.9730 -0.6179
 2287SOL     OW18493   1.173   0.566  16.747  0.2558  0.3434 -0.3809
 2287SOL    HW118494   1.093   0.602  16.786 -1.7715 -2.9384 -1.4228
 2287SOL    HW218495   1.208   0.635  16.692  0.4104  0.8622  0.3731
 2288SOL     OW18496   1.625   4.515   6.348  0.0988 -0.3931  0.6353
 2288SOL    HW118497   1.666   4.537   6.432  2.0164  0.1126 -0.4540
 2288SOL    HW218498   1.664   4.572   6.282 -0.7730 -1.4046 -0.7506
 2289SOL     OW18499   2.007   2.301   3.422 -0.4435  0.2673  0.5176
 2289SOL    HW118500   1.938   2.323   3.484 -0.7799 -0.1205  0.2767
 2289SOL    HW218501   1.952   2.275   3.349  0.4565 -1.5261  0.5009
 2290SOL     OW18502   0.916   3.994   7.202  0.0116 -0.3053 -0.1626
 2290SOL    HW118503   0.873   3.923   7.155 -3.9276  1.3602  0.9794
 2290SOL    HW218504   0.905   4.073   7.149 -1.3302  0.2624  0.9746
 2291SOL     OW18505   3.760   4.215   7.694  0.3547  0.3890 -0.1946
 2291SOL    HW118506   3.846   4.175   7.707 -0.4793 -1.6654 -1.1231
 2291SOL    HW218507   3.699   4.145   7.674  0.1860  0.4202  0.1955
 2292SOL     OW18508   1.348   1.756   4.913  0.2447  0.5704  0.3563
 2292SOL    HW118509   1.337   1.838   4.961  1.3334  0.8572  0.0983
 2292SOL    HW218510   1.443   1.756   4.916  0.2722 -0.8436 -0.6163
 2293SOL     OW18511   0.520   3.206  10.045  0.4743  0.1216 -0.2117
 2293SOL    HW118512   0.606   3.204  10.087  1.1017 -1.6614 -1.5838
 2293SOL    HW218513   0.494   3.298  10.052  1.1968  0.2013  1.3347
 2294SOL     OW18514   3.999   2.341  14.128  0.6416 -0.2030 -0.5187
 2294SOL    HW118515   4.035   2.256  14.156  1.8031  0.1206 -1.0516
 2294SOL    HW218516   4.072   2.388  14.088  1.8299 -0.6153  1.1481
 2295SOL     OW18517   0.433   2.198  16.869  0.1854  0.3840  0.0921
 2295SOL    HW118518   0.412   2.108  16.845  1.7391  0.0086  0.1171
 2295SOL    HW218519   0.521   2.212  16.833  0.6450 -0.7782  0.7656
 2296SOL     OW18520   3.597   0.702   7.173  0.4847 -0.2600 -0.9178
 2296SOL    HW118521   3.551   0.622   7.200 -0.7015  0.6508 -0.2351
 2296SOL    HW218522   3.539   0.736   7.105  0.5116 -0.6521 -1.1380
 2297SOL     OW18523   3.639   0.692  10.539 -0.1973  0.7776  0.0617
 2297SOL    HW118524   3.633   0.729  10.450 -1.0668  0.2482 -0.0979
 2297SOL    HW218525   3.731   0.666  10.540 -0.1755  0.8071 -0.6322
 2298SOL     OW18526   1.472   3.989   7.112  0.0991  0.3931  0.1443
 2298SOL    HW118527   1.445   3.909   7.157  0.6381 -0.5200 -1.1249
 2298SOL    HW218528   1.487   4.046   7.187  0.3986  0.8554 -0.2609
 2299SOL     OW18529   1.170   1.619   5.186  0.1445  0.1330 -0.0703
 2299SOL    HW118530   1.247   1.565   5.205  0.1940  0.0889 -0.3878
 2299SOL    HW218531   1.186   1.693   5.245 -0.6194  0.2144  0.0292
 2300SOL     OW18532   4.409   2.667   4.922 -0.0710  0.4024 -0.4693
 2300SOL    HW118533   4.319   2.660   4.892 -0.7786 -0.0844  1.8099
 2300SOL    HW218534   4.439   2.579   4.945 -0.0023  0.6678  0.4545
 2301SOL     OW18535   1.185   4.258   9.077  0.0107 -0.3683  0.0467
 2301SOL    HW118536   1.170   4.174   9.120  2.6028  0.0190  1.7297
 2301SOL    HW218537   1.100   4.277   9.037  0.1639 -0.8861 -0.5217
 2302SOL     OW18538   1.397   3.579   2.266  0.3063  0.2196 -0.0764
 2302SOL    HW118539   1.366   3.621   2.346  0.9071  2.2061 -0.8635
 2302SOL    HW218540   1.394   3.658   2.211 -0.8686  0.0094 -0.3039
 2303SOL     OW18541   0.535   3.564   0.238 -0.3939  0.4809  0.3970
 2303SOL    HW118542   0.540   3.592   0.146  0.0416 -1.4663 -0.1649
 2303SOL    HW218543   0.449   3.523   0.245  1.5749 -3.4874  1.0313
 2304SOL     OW18544   1.988   1.858   5.168 -0.2616  0.1078 -0.2612
 2304SOL    HW118545   2.037   1.858   5.085 -2.5257  0.6642 -1.6061
 2304SOL    HW218546   1.904   1.895   5.140 -1.2875 -0.9955  1.3648
 2305SOL     OW18547   2.560   0.193   8.480 -0.3362 -0.2782  0.4222
 2305SOL    HW118548   2.633   0.254   8.489  0.3864 -1.0026 -0.4646
 2305SOL    HW218549   2.529   0.210   8.391 -0.8505 -0.6834  0.5243
 2306SOL     OW18550   0.391   3.125   8.896  0.5425  0.3515  0.0327
 2306SOL    HW118551   0.426   3.202   8.941  2.2425  0.2673 -1.1236
 2306SOL    HW218552   0.472   3.074   8.887  0.3254  0.0812 -0.3981
 2307SOL     OW18553   2.550   1.210   6.316  0.5876  0.3044  0.1603
 2307SOL    HW118554   2.620   1.169   6.366 -0.2647 -1.7504 -0.3289
 2307SOL    HW218555   2.489   1.230   6.387 -0.1473  0.9923 -0.6499
 2308SOL     OW18556   2.803   0.488   3.479  0.0945 -0.1580  0.1450
 2308SOL    HW118557   2.853   0.460   3.556 -0.1325 -1.1337 -0.0577
 2308SOL    HW218558   2.760   0.565   3.516  1.1041  0.6496 -0.3507
 2309SOL     OW18559   0.369   1.624   6.337  0.2394 -0.4493  0.4376
 2309SOL    HW118560   0.402   1.556   6.278  0.7144 -1.8388  2.3143
 2309SOL    HW218561   0.408   1.594   6.419 -0.2231  0.4754  1.0008
 2310SOL     OW18562   3.171   1.787   4.250  0.4878 -0.2327  0.4369
 2310SOL    HW118563   3.265   1.784   4.230  0.0231 -1.6855 -1.4544
 2310SOL    HW218564   3.177   1.854   4.319  3.1538  1.5707 -1.5373
 2311SOL     OW18565   0.635   4.689  11.129  0.0728  0.0478  0.2532
 2311SOL    HW118566   0.703   4.662  11.190  0.2311 -1.0895 -0.4140
 2311SOL    HW218567   0.635   4.613  11.070 -0.4226 -0.6691  1.1794
 2312SOL     OW18568   4.376   0.505  17.215  0.5602  0.1701  0.3909
 2312SOL    HW118569   4.376   0.421  17.261 -1.0516 -1.2310 -2.2051
 2312SOL    HW218570   4.316   0.557  17.267 -0.4365  1.6135 -2.1990
 2313SOL     OW18571   2.750   0.672   5.600 -0.4807  0.1168  0.2809
 2313SOL    HW118572   2.760   0.623   5.518 -0.9805 -0.1651  0.3889
 2313SOL    HW218573   2.743   0.592   5.652  2.4526  0.6273  1.4631
 2314SOL     OW18574   0.868   1.209   4.658  0.2739 -0.0874 -0.7028
 2314SOL    HW118575   0.848   1.208   4.751  1.6294 -0.6266 -0.4194
 2314SOL    HW218576   0.945   1.152   4.652  0.2013 -0.1586 -0.9838
 2315SOL     OW18577   4.711   0.878  14.023  0.1953 -0.1294 -0.1087
 2315SOL    HW118578   4.636   0.841  14.070 -0.4048  2.0819  0.6713
 2315SOL    HW218579   4.715   0.830  13.940  2.5468 -1.6213  0.8651
 2316SOL     OW18580   3.150   3.529  17.062  0.4335  0.3618  0.2908
 2316SOL    HW118581   3.097   3.464  17.107  0.0643  0.0487 -0.5952
 2316SOL    HW218582   3.160   3.594  17.131 -2.1431  1.8014 -0.6896
 2317SOL     OW18583   1.875   0.369   4.746  0.6005 -0.4183 -0.0111
 2317SOL    HW118584   1.914   0.287   4.715 -1.0791  0.3264 -3.9892
 2317SOL    HW218585   1.825   0.400   4.671 -0.4800  0.2034  0.9741
 2318SOL     OW18586   2.404   0.471   8.709  0.7054 -0.2462 -0.2441
 2318SOL    HW118587   2.376   0.539   8.648 -3.3288 -1.1364  0.6770
 2318SOL    HW218588   2.491   0.507   8.728  1.4695 -1.1696 -2.0473
 2319SOL     OW18589   0.303   3.049   9.737 -0.1286  0.4907 -0.1557
 2319SOL    HW118590   0.378   2.994   9.758  0.4664  0.8551 -1.3207
 2319SOL    HW218591   0.277   3.086   9.821  1.1956  1.6901 -0.2957
 2320SOL     OW18592   3.100   2.306  16.553 -0.4478  0.3479  0.0224
 2320SOL    HW118593   3.176   2.305  16.495 -0.3568 -0.3689  0.1597
 2320SOL    HW218594   3.035   2.314  16.483  0.8306 -1.5275 -1.3731
 2321SOL     OW18595   3.418   1.598   8.898  0.3366  0.4475  0.6913
 2321SOL    HW118596   3.348   1.587   8.963  0.0892  0.7931  0.4840
 2321SOL    HW218597   3.438   1.507   8.879  2.3983  0.9611  0.3978
 2322SOL     OW18598   4.372   2.438   0.830 -0.1204  0.3676  0.1018
 2322SOL    HW118599   4.319   2.358   0.823  0.6369 -0.1057 -0.2161
 2322SOL    HW218600   4.449   2.400   0.872 -0.9181 -0.3729  0.8763
 2323SOL     OW18601   4.644   0.606  16.791 -0.1697 -0.1172  0.0480
 2323SOL    HW118602   4.653   0.562  16.876  0.9243 -1.6520 -0.8681
 2323SOL    HW218603   4.671   0.697  16.807 -0.8290 -0.0771  0.9610
 2324SOL     OW18604   4.099   1.527   9.274 -0.0974 -0.4225  0.9518
 2324SOL    HW118605   4.090   1.573   9.357  3.6169  0.3038  0.9506
 2324SOL    HW218606   4.144   1.453   9.314 -0.4147 -1.0830  0.0816
 2325SOL     OW18607   4.329   4.354   9.520  0.3270 -0.1396  0.3533
 2325SOL    HW118608   4.307   4.404   9.599 -0.0065 -1.1436  0.9018
 2325SOL    HW218609   4.424   4.348   9.531  0.2903  0.1797  0.8306
 2326SOL     OW18610   1.393   2.729   7.897  0.2104  0.6170 -0.1784
 2326SOL    HW118611   1.485   2.709   7.877  0.3739 -0.2484  1.4810
 2326SOL    HW218612   1.397   2.815   7.940  2.2728  0.4533 -0.0268
 2327SOL     OW18613   2.937   4.250   4.890  0.2104  0.1493 -0.0275
 2327SOL    HW118614   2.957   4.168   4.846 -1.9564 -0.6871  0.5445
 2327SOL    HW218615   2.946   4.232   4.984  3.5665 -1.6269 -0.7062
 2328SOL     OW18616   0.795   2.679   5.845  0.3937 -0.1191 -0.1576
 2328SOL    HW118617   0.704   2.651   5.834  0.5351 -0.1932 -1.0891
 2328SOL    HW218618   0.836   2.655   5.762 -0.0708  0.8554 -0.6703
 2329SOL     OW18619   1.569   3.511   9.236  0.6760  0.3261  0.0213
 2329SOL    HW118620   1.657   3.549   9.234 -0.2781  2.5922  1.0856
 2329SOL    HW218621   1.595   3.429   9.194 -3.6377 -1.5537  1.0465
 2330SOL     OW18622   0.432   3.268   4.009  0.0022  0.3224  0.0228
 2330SOL    HW118623   0.443   3.174   4.024  2.3381  0.7595  1.0362
 2330SOL    HW218624   0.368   3.275   4.080 -0.4332 -1.8148 -0.1528
 2331SOL     OW18625   0.083   0.504   7.825 -0.3150  0.6543  0.2008
 2331SOL    HW118626   0.179   0.497   7.824 -0.2208  1.9610  0.0640
 2331SOL    HW218627   0.061   0.495   7.732  1.3012 -0.9994 -0.0333
 2332SOL     OW18628   1.581   3.394   9.977 -0.0762 -0.3757  0.0695
 2332SOL    HW118629   1.626   3.341  10.043  0.2183  0.2565  0.3643
 2332SOL    HW218630   1.652   3.455   9.959 -1.3755  1.1434  0.1349
 2333SOL     OW18631   1.551   0.745   3.320 -0.3394  0.0315 -0.2844
 2333SOL    HW118632   1.514   0.734   3.407  0.5737  2.1297  0.3597
 2333SOL    HW218633   1.607   0.667   3.317 -0.5665 -0.1654  0.4896
 2334SOL     OW18634   1.885   0.601   8.699  0.2243  0.4998  0.1225
 2334SOL    HW118635   1.932   0.522   8.673 -0.2350  0.5653 -0.9630
 2334SOL    HW218636   1.803   0.565   8.735 -0.6012  3.2655  0.9424
 2335SOL     OW18637   0.495   4.425   4.406  0.2229  0.5032 -0.3669
 2335SOL    HW118638   0.411   4.386   4.379 -0.8218  3.0864 -0.8565
 2335SOL    HW218639   0.468   4.493   4.468 -0.1547  0.1032 -0.0917
 2336SOL     OW18640   3.317   0.740   2.952  0.6556 -0.6297  0.0503
 2336SOL    HW118641   3.285   0.692   3.028 -1.0632 -2.8517 -2.0583
 2336SOL    HW218642   3.236   0.740   2.901  0.7680 -0.4971 -0.1262
 2337SOL     OW18643   3.641   1.667   5.278 -0.2677  0.1835  0.4871
 2337SOL    HW118644   3.736   1.677   5.272 -0.6588  3.6505  0.1642
 2337SOL    HW218645   3.629   1.650   5.372  1.8047 -1.0023  0.5365
 2338SOL     OW18646   0.464   4.130   3.712  0.6059  0.1498 -0.0004
 2338SOL    HW118647   0.501   4.187   3.645  2.2257 -0.7407  0.1463
 2338SOL    HW218648   0.371   4.148   3.697  0.9254  1.3119 -0.5817
 2339SOL     OW18649   1.545   2.569   9.235  0.4075  0.0748  0.6271
 2339SOL    HW118650   1.616   2.629   9.260  1.1287 -0.4457 -0.1803
 2339SOL    HW218651   1.498   2.554   9.317  0.8060 -1.4815  0.5816
 2340SOL     OW18652   0.943   3.039   8.735 -0.1526  0.8243 -0.1027
 2340SOL    HW118653   0.956   3.133   8.723 -1.6185  0.7336 -2.4328
 2340SOL    HW218654   0.867   3.028   8.678  0.6683  2.1995 -1.4300
 2341SOL     OW18655   0.129   2.065  15.433  0.1193 -0.2481  0.1353
 2341SOL    HW118656   0.188   2.136  15.406 -1.0119  0.9018  0.6702
 2341SOL    HW218657   0.043   2.106  15.419  0.4451  0.0561 -0.9816
 2342SOL     OW18658   0.980   1.096   0.254  0.2584 -0.1579  0.7395
 2342SOL    HW118659   0.970   1.179   0.207 -0.5034 -0.3214  0.6082
 2342SOL    HW218660   0.898   1.102   0.302  0.1800 -0.0141  0.5871
 2343SOL     OW18661   1.809   3.162   7.546  0.1557 -0.3659  0.4232
 2343SOL    HW118662   1.875   3.222   7.581 -1.0751  1.2837 -0.0781
 2343SOL    HW218663   1.853   3.077   7.552 -0.4735 -0.7092  0.0971
 2344SOL     OW18664   2.201   2.969   2.930 -0.1807 -0.3864  0.1691
 2344SOL    HW118665   2.275   3.016   2.889  1.1594 -2.4378  0.2267
 2344SOL    HW218666   2.166   2.939   2.847 -1.1929  1.9330 -0.2516
 2345SOL     OW18667   4.076   1.335   6.292 -0.3814  0.1558 -0.1631
 2345SOL    HW118668   4.087   1.241   6.273  0.6120  0.5117 -1.3504
 2345SOL    HW218669   4.109   1.386   6.218  0.5220 -0.1818  0.0048
 2346SOL     OW18670   1.684   4.119   2.657 -0.4049  0.0042 -0.6113
 2346SOL    HW118671   1.590   4.121   2.641 -0.6575 -2.2525  0.5720
 2346SOL    HW218672   1.708   4.166   2.578 -1.1438 -1.9128 -1.9728
 2347SOL     OW18673   2.973   3.384   3.274 -0.2768 -0.8494  0.3041
 2347SOL    HW118674   2.939   3.463   3.316  0.6526 -0.5691  0.5309
 2347SOL    HW218675   2.929   3.321   3.330 -0.9690  0.7990  1.6088
 2348SOL     OW18676   1.892   1.726   2.065  0.1706 -0.0976  0.6824
 2348SOL    HW118677   1.843   1.651   2.101  0.2640  0.3742  1.7994
 2348SOL    HW218678   1.958   1.676   2.017  1.0975  1.0884  0.7313
 2349SOL     OW18679   3.487   0.278   5.790  0.2416 -0.3184 -0.0241
 2349SOL    HW118680   3.524   0.218   5.855 -0.7055  0.2949  1.0922
 2349SOL    HW218681   3.419   0.327   5.836  1.3145  0.0252  1.2107
 2350SOL     OW18682   1.242   2.721   3.062  0.0800 -0.5925  0.1390
 2350SOL    HW118683   1.289   2.648   3.102 -0.1290 -1.2447 -0.8086
 2350SOL    HW218684   1.251   2.712   2.967  0.9653  0.8898  0.0748
 2351SOL     OW18685   4.651   3.518  13.135  0.6008 -0.3796  0.3279
 2351SOL    HW118686   4.657   3.607  13.171  0.9932 -0.1894 -0.2020
 2351SOL    HW218687   4.724   3.476  13.182  1.6412  0.8577 -0.1671
 2352SOL     OW18688   3.911   4.201   7.384 -0.3248  0.1162 -0.2159
 2352SOL    HW118689   3.995   4.224   7.343 -0.7172 -1.8425 -2.1712
 2352SOL    HW218690   3.853   4.211   7.309 -0.1045  2.5704 -0.0546
 2353SOL     OW18691   3.265   4.641   9.121 -0.1447  0.1365  0.2218
 2353SOL    HW118692   3.261   4.547   9.104 -2.5700  0.1020  0.8918
 2353SOL    HW218693   3.215   4.679   9.048  0.2418 -1.3231 -0.8129
 2354SOL     OW18694   0.816   2.842   2.323  0.5990  0.0125 -0.1572
 2354SOL    HW118695   0.736   2.812   2.365  0.1555 -0.9665 -1.6988
 2354SOL    HW218696   0.873   2.769   2.346 -1.6668 -1.2297  1.5447
 2355SOL     OW18697   4.591   2.705  16.101 -0.2439 -0.3160  0.2061
 2355SOL    HW118698   4.681   2.738  16.109  1.0006 -3.7042  0.2211
 2355SOL    HW218699   4.543   2.778  16.139 -2.1809 -2.5281  1.9903
 2356SOL     OW18700   3.125   2.941   6.622 -0.8214  0.2845  0.0014
 2356SOL    HW118701   3.074   3.020   6.603  0.3094  0.5887 -1.7296
 2356SOL    HW218702   3.093   2.888   6.550 -1.6107  1.8491 -0.8023
 2357SOL     OW18703   0.725   4.428   9.980  0.5091  0.5870  0.0823
 2357SOL    HW118704   0.673   4.438   9.900  2.1628 -0.0359 -1.0636
 2357SOL    HW218705   0.692   4.341  10.004  0.2678  1.0732  1.5161
 2358SOL     OW18706   2.752   4.012   8.778  0.9699  0.6492  0.1149
 2358SOL    HW118707   2.738   3.933   8.830 -1.7535 -0.2323 -1.9272
 2358SOL    HW218708   2.691   4.069   8.825  0.0114  0.4408 -0.8645
 2359SOL     OW18709   4.562   4.086   0.288  0.2969  0.1074  0.4396
 2359SOL    HW118710   4.523   4.002   0.311  0.8767 -0.9529 -2.5210
 2359SOL    HW218711   4.599   4.067   0.202 -1.4130  0.5616 -0.3905
 2360SOL     OW18712   2.346   2.419   7.797  0.0457 -0.8975 -0.0353
 2360SOL    HW118713   2.263   2.445   7.838  0.4864  0.5727 -0.0683
 2360SOL    HW218714   2.404   2.470   7.854  0.9025 -1.9631  0.0398
 2361SOL     OW18715   2.482   2.942   9.932  0.2569 -0.1763  0.4388
 2361SOL    HW118716   2.570   2.977   9.915  0.2765 -0.8077 -0.7560
 2361SOL    HW218717   2.458   2.992  10.010 -0.3547 -1.5895  1.1609
 2362SOL     OW18718   1.606   0.554   6.686  0.1496  0.0107  0.0682
 2362SOL    HW118719   1.654   0.607   6.749 -0.8841  1.0843 -0.0444
 2362SOL    HW218720   1.679   0.534   6.628 -0.4758  2.0828 -1.4466
 2363SOL     OW18721   2.677   0.969   7.242 -0.6144 -0.4131 -0.3871
 2363SOL    HW118722   2.617   0.990   7.314 -0.2237  1.0262 -0.4850
 2363SOL    HW218723   2.631   0.971   7.159  0.8025  1.6899 -1.1282
 2364SOL     OW18724   2.739   3.398   2.903 -0.5308 -0.2002  0.1966
 2364SOL    HW118725   2.710   3.307   2.912  1.5481 -0.8578  0.2862
 2364SOL    HW218726   2.662   3.431   2.949 -0.8347  0.4613 -0.7866
 2365SOL     OW18727   0.486   2.274   7.405 -0.0107  0.7336  0.1301
 2365SOL    HW118728   0.496   2.328   7.483  1.2097 -0.2377  0.6274
 2365SOL    HW218729   0.390   2.279   7.399  0.0097  0.4192 -0.4193
 2366SOL     OW18730   2.601   1.256  12.630  0.2034  0.3125 -0.0038
 2366SOL    HW118731   2.582   1.350  12.634  0.5876  0.4493 -1.2913
 2366SOL    HW218732   2.609   1.246  12.535  2.5103 -1.8664  0.4101
 2367SOL     OW18733   0.459   0.554   5.602  0.0117  0.4947 -0.1446
 2367SOL    HW118734   0.514   0.566   5.679 -1.9775  0.3762  1.3035
 2367SOL    HW218735   0.375   0.572   5.643 -1.0902 -1.1912 -1.6291
 2368SOL     OW18736   4.724   4.595   2.677 -0.3703  1.1359 -0.4108
 2368SOL    HW118737   4.674   4.672   2.652 -0.4182  1.1197 -0.3666
 2368SOL    HW218738   0.041   4.632   2.749  0.8131 -0.7776 -0.2518
 2369SOL     OW18739   0.223   0.732  17.198 -0.4005  0.1150  0.5568
 2369SOL    HW118740   0.231   0.748  17.292 -2.2436 -1.3913  0.9532
 2369SOL    HW218741   0.220   0.637  17.188  0.1594  0.3501 -1.9436
 2370SOL     OW18742   3.613   2.917   2.629 -0.4316 -1.2666 -0.1259
 2370SOL    HW118743   3.568   2.910   2.545 -0.6098  1.1429 -0.2305
 2370SOL    HW218744   3.675   2.990   2.620 -1.2158 -0.6213 -0.2468
 2371SOL     OW18745   4.497   2.853   2.450  0.6376 -0.7144  0.2839
 2371SOL    HW118746   4.465   2.837   2.539 -0.7173  1.6724  0.2094
 2371SOL    HW218747   4.500   2.761   2.423  0.4596 -0.0519 -2.0179
 2372SOL     OW18748   3.052   3.439   8.595 -0.4733 -0.2335  0.0443
 2372SOL    HW118749   3.067   3.429   8.688 -0.1813  1.6954  0.2024
 2372SOL    HW218750   2.963   3.472   8.582  0.6330  1.4363 -3.4867
 2373SOL     OW18751   3.622   4.340   5.820 -0.3100 -0.7009  0.1161
 2373SOL    HW118752   3.650   4.248   5.810  1.2422 -0.2704  0.5200
 2373SOL    HW218753   3.651   4.362   5.908 -2.1782  0.0468  0.5458
 2374SOL     OW18754   2.339   1.780   3.386 -0.1779 -0.0228  0.1817
 2374SOL    HW118755   2.407   1.731   3.433  0.8649 -1.3609 -2.7387
 2374SOL    HW218756   2.396   1.845   3.345 -2.1288  1.1126 -0.6840
 2375SOL     OW18757   3.887   0.999   1.123  0.0921 -0.8050  0.7236
 2375SOL    HW118758   3.966   0.977   1.073  0.7139  2.2940  0.3635
 2375SOL    HW218759   3.819   0.981   1.059  1.3515 -2.0770 -0.2499
 2376SOL     OW18760   2.474   0.608   7.650  0.1908  0.1792  0.4363
 2376SOL    HW118761   2.547   0.547   7.639  1.3689  2.0319 -1.9372
 2376SOL    HW218762   2.410   0.591   7.581  0.6729 -4.9219  1.2318
 2377SOL     OW18763   0.408   1.412  16.284 -0.5622  0.1812  0.2572
 2377SOL    HW118764   0.439   1.484  16.338  0.1006  2.3137 -2.9960
 2377SOL    HW218765   0.340   1.454  16.232 -0.0646 -0.4299 -0.8984
 2378SOL     OW18766   2.015   1.724  11.136 -0.0692 -0.2184  0.1526
 2378SOL    HW118767   1.954   1.750  11.067 -1.6324  0.5027  1.8135
 2378SOL    HW218768   2.027   1.812  11.171  0.6242 -0.8378  1.4897
 2379SOL     OW18769   2.042   3.283  11.641 -0.0766 -0.2839  0.7774
 2379SOL    HW118770   2.031   3.350  11.709  1.1639 -0.6526  1.3446
 2379SOL    HW218771   2.097   3.213  11.677 -0.0517 -0.7604 -0.2007
 2380SOL     OW18772   0.068   0.211   6.864 -0.2574 -0.1600  0.1588
 2380SOL    HW118773   4.721   0.199   6.913 -0.2384  0.6188  0.3723
 2380SOL    HW218774   0.034   0.264   6.793  0.2966  1.2400  0.9528
 2381SOL     OW18775   1.520   2.973   4.789  0.9423 -0.2549 -0.2850
 2381SOL    HW118776   1.578   3.045   4.767 -1.8393  1.8621 -0.7756
 2381SOL    HW218777   1.528   2.972   4.885  1.0306 -1.6024 -0.3086
 2382SOL     OW18778   1.675   4.711   5.033 -0.0478 -0.2531 -0.0936
 2382SOL    HW118779   1.676   0.035   5.109 -1.5986  1.2925 -1.2675
 2382SOL    HW218780   1.618   4.641   5.065 -1.3990  0.1861 -1.5400
 2383SOL     OW18781   3.677   3.547   1.306 -0.4309 -0.1322  0.1099
 2383SOL    HW118782   3.688   3.637   1.274  0.7960  0.2959  1.7438
 2383SOL    HW218783   3.762   3.513   1.275  0.0125  0.3787  0.7753
 2384SOL     OW18784   0.916   3.007   3.438 -0.2576  0.1708  0.5877
 2384SOL    HW118785   0.824   3.022   3.416 -0.2558  1.3856  1.4612
 2384SOL    HW218786   0.898   2.959   3.519 -0.3087 -1.6318 -0.4889
 2385SOL     OW18787   1.642   0.555   8.830  0.0352  0.2357  0.2869
 2385SOL    HW118788   1.561   0.605   8.841 -0.0969  0.4605 -1.6831
 2385SOL    HW218789   1.612   0.468   8.857 -0.7666  0.1651 -0.7991
 2386SOL     OW18790   3.018   0.665   7.608 -0.3454 -0.2848  0.7958
 2386SOL    HW118791   2.955   0.722   7.564  0.5065  0.8142  1.0010
 2386SOL    HW218792   3.044   0.613   7.532 -0.7944 -1.4199  1.4165
 2387SOL     OW18793   3.506   2.792   8.880 -0.2725  0.4859 -0.5584
 2387SOL    HW118794   3.422   2.789   8.925  1.7360 -0.8093  3.1279
 2387SOL    HW218795   3.526   2.886   8.879  0.5412  0.3442  4.0620
 2388SOL     OW18796   1.117   1.799   2.478 -0.3636  0.4584 -0.8271
 2388SOL    HW118797   1.096   1.891   2.464 -0.0058  0.3435 -2.1603
 2388SOL    HW218798   1.196   1.804   2.532 -1.6774  1.4938  0.9731
 2389SOL     OW18799   3.609   0.627   2.960 -0.1666  0.1043 -0.1173
 2389SOL    HW118800   3.571   0.598   3.043  0.4965 -0.3931  0.0163
 2389SOL    HW218801   3.578   0.565   2.894  2.7929 -1.6609  0.1460
 2390SOL     OW18802   2.576   3.842   4.622 -0.0102  0.3024  0.2426
 2390SOL    HW118803   2.568   3.929   4.660 -2.5374 -0.7854  2.2202
 2390SOL    HW218804   2.516   3.798   4.683 -0.4463  3.8254  2.3523
 2391SOL     OW18805   2.639   1.409   8.309  0.0504 -0.2888 -0.4434
 2391SOL    HW118806   2.630   1.314   8.313 -3.4572  0.1834  2.2573
 2391SOL    HW218807   2.657   1.439   8.398 -1.6951  0.0647 -0.2121
 2392SOL     OW18808   2.322   0.394   3.979  0.1005  0.4300  0.5711
 2392SOL    HW118809   2.339   0.475   3.933  0.6755  0.1695  0.3240
 2392SOL    HW218810   2.288   0.428   4.062 -1.4332 -0.4420  0.3117
 2393SOL     OW18811   1.874   4.237  12.838  0.4443  0.4785 -0.4821
 2393SOL    HW118812   1.812   4.270  12.903 -1.1533  1.1124 -2.3142
 2393SOL    HW218813   1.811   4.209  12.772  0.5476  1.6618 -1.0778
 2394SOL     OW18814   0.887   2.336   3.219 -0.5448 -0.4381 -0.0910
 2394SOL    HW118815   0.976   2.331   3.184 -0.2441 -0.4749  0.6711
 2394SOL    HW218816   0.908   2.288   3.299  0.0023 -3.3842 -2.0243
 2395SOL     OW18817   0.324   4.433  10.015 -0.1971 -0.2005  0.2982
 2395SOL    HW118818   0.402   4.425  10.070 -0.5090  1.1513  0.9414
 2395SOL    HW218819   0.289   4.514  10.052 -2.4089 -1.6340  1.3795
 2396SOL     OW18820   3.664   1.313   5.297 -0.2909 -0.8532  0.5197
 2396SOL    HW118821   3.605   1.379   5.335  2.5900  1.9360  0.1315
 2396SOL    HW218822   3.651   1.250   5.368 -1.5153 -0.3410  0.7568
 2397SOL     OW18823   4.000   4.493   5.766 -0.5492 -0.5107 -0.1031
 2397SOL    HW118824   4.026   4.534   5.849  0.4999 -0.9842 -0.1941
 2397SOL    HW218825   4.073   4.518   5.709 -1.1486 -1.1431 -1.1370
 2398SOL     OW18826   1.220   0.366  13.074 -0.2143 -0.2523  0.4820
 2398SOL    HW118827   1.187   0.398  12.990 -1.6077 -2.5619  0.1537
 2398SOL    HW218828   1.145   0.382  13.132  0.8334 -1.2414  2.1139
 2399SOL     OW18829   0.518   0.631  12.926  0.3880 -0.4936 -0.0939
 2399SOL    HW118830   0.449   0.591  12.872  0.0136  1.7541 -1.2816
 2399SOL    HW218831   0.595   0.580  12.898  1.8214  0.5300  2.0275
 2400SOL     OW18832   3.219   2.630  12.103 -0.2632  0.1194  0.2529
 2400SOL    HW118833   3.255   2.716  12.082 -0.2127 -0.1535 -0.7778
 2400SOL    HW218834   3.137   2.622  12.055 -1.0903  0.4662  1.6046
 2401SOL     OW18835   3.888   2.123  16.413 -0.2415  0.0186  0.1914
 2401SOL    HW118836   3.969   2.080  16.439  0.4858  1.2851  0.0043
 2401SOL    HW218837   3.890   2.117  16.317  2.2095 -0.2591  0.2543
 2402SOL     OW18838   1.273   2.989   9.288 -0.2749 -0.0652 -0.4128
 2402SOL    HW118839   1.202   3.021   9.233 -0.2076  0.2467 -0.3189
 2402SOL    HW218840   1.235   2.977   9.376  0.0548  0.1269 -0.2425
 2403SOL     OW18841   3.646   0.923   7.878  0.0485  0.1126 -0.2628
 2403SOL    HW118842   3.641   0.867   7.956 -2.9948 -0.6966 -1.0311
 2403SOL    HW218843   3.690   0.864   7.817  0.9945  1.2414 -0.6790
 2404SOL     OW18844   0.157   2.802   6.277 -0.3825  0.9041 -0.0279
 2404SOL    HW118845   0.165   2.891   6.310 -1.6949  0.5494  1.2477
 2404SOL    HW218846   0.247   2.787   6.248 -1.1891 -5.1049  0.5527
 2405SOL     OW18847   2.479   2.140  16.614 -0.1985 -0.1061  0.4097
 2405SOL    HW118848   2.508   2.085  16.541 -0.6257 -0.3636  0.4341
 2405SOL    HW218849   2.560   2.164  16.659  1.4661 -3.7533 -0.5865
 2406SOL     OW18850   3.488   2.705   3.583 -0.2360  0.0888  0.4963
 2406SOL    HW118851   3.448   2.664   3.660 -0.8919 -1.5236 -0.7009
 2406SOL    HW218852   3.422   2.771   3.564 -0.6880 -0.9703 -1.6648
 2407SOL     OW18853   4.529   0.245   8.167 -0.0704  0.3387 -0.2668
 2407SOL    HW118854   4.584   0.246   8.089  2.1022 -0.5491  1.2639
 2407SOL    HW218855   4.578   0.311   8.216 -1.7504 -0.0018  1.8285
 2408SOL     OW18856   4.209   1.598  17.459 -1.3102 -0.2443 -0.1100
 2408SOL    HW118857   4.266   1.523  17.475 -1.9142 -0.5526  0.5514
 2408SOL    HW218858   4.209   1.601  17.363  0.9028 -1.1090 -0.1403
 2409SOL     OW18859   1.225   1.303  16.991 -0.1097  0.0016  0.9464
 2409SOL    HW118860   1.312   1.304  17.030  0.3601  0.6822 -0.1114
 2409SOL    HW218861   1.186   1.219  17.017  0.6988 -0.6203  0.1525
 2410SOL     OW18862   3.443   2.902   2.410 -0.0131 -0.1184  0.2494
 2410SOL    HW118863   3.359   2.858   2.420 -0.2960  0.5082  0.6428
 2410SOL    HW218864   3.423   2.994   2.391 -1.3634 -0.7095 -1.1509
 2411SOL     OW18865   0.228   1.889   7.888  0.0433 -0.1391  0.2404
 2411SOL    HW118866   0.229   1.828   7.815  1.3872  0.4864 -0.2763
 2411SOL    HW218867   0.313   1.933   7.879  1.1144 -2.1503  0.5098
 2412SOL     OW18868   3.689   3.939   3.492 -0.7406 -0.1307 -0.3130
 2412SOL    HW118869   3.693   4.025   3.452 -0.4584 -0.2292 -0.4963
 2412SOL    HW218870   3.743   3.886   3.433 -1.6137 -1.1986 -0.1559
 2413SOL     OW18871   2.595   3.425   8.360 -0.0471 -0.2107 -0.1270
 2413SOL    HW118872   2.514   3.456   8.321  0.5159  1.3211 -0.0750
 2413SOL    HW218873   2.625   3.362   8.293  0.7850  1.1668 -1.0509
 2414SOL     OW18874   1.549   3.530  10.802  0.2322  0.3089  0.3529
 2414SOL    HW118875   1.522   3.443  10.775  0.1473  0.2092  0.7625
 2414SOL    HW218876   1.621   3.547  10.741 -0.1497  0.3759 -0.0799
 2415SOL     OW18877   1.208   3.891   0.931 -0.2783 -0.1440 -0.1217
 2415SOL    HW118878   1.281   3.861   0.877 -0.7795 -1.2307 -0.2148
 2415SOL    HW218879   1.178   3.964   0.877 -1.7327 -1.7306 -1.4861
 2416SOL     OW18880   1.076   4.361  10.946 -0.3422 -0.3019 -0.3585
 2416SOL    HW118881   1.163   4.326  10.924  0.7200  2.7860 -1.0683
 2416SOL    HW218882   1.075   4.443  10.898  0.0793 -1.0914 -1.7397
 2417SOL     OW18883   4.565   0.043  11.942 -0.1792  0.1901  0.3873
 2417SOL    HW118884   4.553   4.722  11.864  1.1847  0.1320  0.2211
 2417SOL    HW218885   4.602   0.126  11.912 -2.3333  1.2285  0.6372
 2418SOL     OW18886   4.040   0.562  14.376 -0.4728  0.2575  0.3443
 2418SOL    HW118887   4.077   0.474  14.369  0.5400  0.8146 -1.2191
 2418SOL    HW218888   4.059   0.607  14.294 -0.7098  1.5200  0.9779
 2419SOL     OW18889   4.613   4.113   2.935  0.2847 -0.4286  0.5457
 2419SOL    HW118890   4.672   4.165   2.990  0.1913  0.0961  0.1529
 2419SOL    HW218891   4.596   4.051   3.006 -0.4864 -2.7039 -1.6472
 2420SOL     OW18892   0.365   4.630   7.943 -0.1326 -0.2173  0.2010
 2420SOL    HW118893   0.444   4.671   7.979 -0.7812  1.0370  0.2192
 2420SOL    HW218894   0.342   4.676   7.862  1.3572 -0.1757 -0.1892
 2421SOL     OW18895   3.181   1.311  10.784 -0.0838  0.5966 -0.3134
 2421SOL    HW118896   3.160   1.232  10.833  1.4607  0.4001  0.0334
 2421SOL    HW218897   3.096   1.326  10.743  1.2566  2.7923 -2.2697
 2422SOL     OW18898   0.020   2.293   8.838 -0.7994  0.0070  0.0174
 2422SOL    HW118899   0.074   2.362   8.798 -0.1000  0.4148  1.6715
 2422SOL    HW218900   0.069   2.219   8.804  1.1571  0.8968  0.8872
 2423SOL     OW18901   1.507   1.926  13.661  0.4015  0.1535  0.6441
 2423SOL    HW118902   1.563   2.003  13.672  0.4104  1.0194 -5.6403
 2423SOL    HW218903   1.420   1.953  13.692 -0.1401 -0.0427 -0.7051
 2424SOL     OW18904   0.232   3.715   1.951 -0.0952 -0.1373 -0.0602
 2424SOL    HW118905   0.325   3.733   1.964 -0.5752  1.8977  0.4350
 2424SOL    HW218906   0.207   3.801   1.919  1.3274  0.9273  1.7077
 2425SOL     OW18907   4.580   2.295   0.890  0.3416 -0.5607  0.4637
 2425SOL    HW118908   4.632   2.321   0.814  0.4500 -0.6269  0.5157
 2425SOL    HW218909   4.608   2.203   0.889 -0.4827 -0.8050 -0.6263
 2426SOL     OW18910   2.066   0.168  12.063 -0.2977  0.1951 -0.1983
 2426SOL    HW118911   2.147   0.175  12.013 -0.8373 -0.0072 -1.0996
 2426SOL    HW218912   2.006   0.161  11.989 -0.3824  1.2000 -0.2279
 2427SOL     OW18913   3.381   1.241  13.227  0.7743 -0.8449  0.8514
 2427SOL    HW118914   3.467   1.265  13.193  1.6883 -3.2758  1.4154
 2427SOL    HW218915   3.405   1.168  13.285 -0.7603 -2.2015 -0.2279
 2428SOL     OW18916   3.341   0.681  10.632  0.2529 -0.7866 -0.0549
 2428SOL    HW118917   3.433   0.673  10.609 -0.0240 -1.0234 -1.0718
 2428SOL    HW218918   3.316   0.679  10.540  0.4148 -2.0536 -0.0758
 2429SOL     OW18919   4.345   3.911  13.589  0.2099 -0.4516 -0.1900
 2429SOL    HW118920   4.404   3.980  13.558 -1.6387  0.8401 -0.8485
 2429SOL    HW218921   4.377   3.902  13.679 -0.6513 -1.0700  0.0572
 2430SOL     OW18922   0.134   1.051   2.406  0.4163 -0.0597 -0.4670
 2430SOL    HW118923   0.111   0.968   2.364  2.8645 -0.8694 -0.2227
 2430SOL    HW218924   0.062   1.105   2.375 -0.8935 -1.4126  0.2251
 2431SOL     OW18925   1.331   1.029   7.406  0.0717  0.2108 -0.1490
 2431SOL    HW118926   1.285   1.070   7.333  1.2484  0.3618 -0.8058
 2431SOL    HW218927   1.263   0.982   7.454 -0.4335 -0.6178 -1.7021
 2432SOL     OW18928   2.704   1.994   7.408 -0.2767  0.2559  0.0468
 2432SOL    HW118929   2.652   2.059   7.456  0.2113 -0.5506  1.6683
 2432SOL    HW218930   2.758   1.957   7.478  0.1037 -0.5276 -0.6547
 2433SOL     OW18931   0.854   4.378  11.806 -0.0260  0.5092 -0.0027
 2433SOL    HW118932   0.810   4.454  11.843 -0.6203 -0.3160  0.9907
 2433SOL    HW218933   0.798   4.309  11.843 -2.2714  1.8415 -0.9622
 2434SOL     OW18934   3.837   1.089   7.507  0.1762  0.3867 -0.3880
 2434SOL    HW118935   3.773   1.160   7.509 -1.0929 -0.6310 -4.4288
 2434SOL    HW218936   3.786   1.028   7.454 -0.7144  1.3560 -0.6674
 2435SOL     OW18937   0.837   2.689   7.175  0.1068  0.1088  0.1545
 2435SOL    HW118938   0.806   2.639   7.251 -0.8766  3.0729  1.7248
 2435SOL    HW218939   0.890   2.755   7.221 -1.2598 -0.0536  1.9492
 2436SOL     OW18940   3.141   2.668  17.445  0.3297  0.3507 -0.2057
 2436SOL    HW118941   3.178   2.604  17.506  1.3932  1.2457  0.0851
 2436SOL    HW218942   3.152   2.629  17.359  1.1420  0.6423 -0.2328
 2437SOL     OW18943   3.008   0.975   4.043  0.4754 -0.1261 -0.5127
 2437SOL    HW118944   3.070   0.922   3.992 -0.7168  1.2339 -3.3461
 2437SOL    HW218945   2.953   1.012   3.974  0.4154  0.6621 -0.0426
 2438SOL     OW18946   4.547   1.737   1.597  0.2188  0.1000  0.1289
 2438SOL    HW118947   4.483   1.807   1.609  0.9648  0.7639  0.1887
 2438SOL    HW218948   4.496   1.659   1.621  1.2558 -0.8936 -0.9137
 2439SOL     OW18949   2.866   2.516  17.302 -0.2074 -0.2768 -0.4568
 2439SOL    HW118950   2.778   2.552  17.301 -0.1887 -0.2493 -1.6597
 2439SOL    HW218951   2.903   2.573  17.235  0.6045  1.2400  1.3037
 2440SOL     OW18952   0.243   4.525   3.058  0.0889  0.4166 -0.1670
 2440SOL    HW118953   0.287   4.608   3.039 -2.0810  1.7739  0.7294
 2440SOL    HW218954   0.307   4.458   3.036 -1.0625 -0.4870 -0.7472
 2441SOL     OW18955   0.191   2.944   6.661  0.1336 -0.3762  0.0078
 2441SOL    HW118956   0.207   2.855   6.694 -0.4105  0.5040  2.6895
 2441SOL    HW218957   0.154   2.986   6.739  0.1334 -0.6322  0.1463
 2442SOL     OW18958   0.042   3.070   7.125 -0.2612 -0.0689  0.5281
 2442SOL    HW118959   0.056   2.976   7.120  0.1902 -0.0675  1.8562
 2442SOL    HW218960   0.123   3.099   7.168 -0.0259  1.4263 -0.8950
 2443SOL     OW18961   1.261   1.060  14.255  0.4243 -0.4512  0.4076
 2443SOL    HW118962   1.292   1.128  14.196 -1.7791  0.3528  0.1598
 2443SOL    HW218963   1.274   0.983  14.200  0.5323  1.3148 -2.0287
 2444SOL     OW18964   4.173   4.535   4.012  0.5462 -0.4040 -0.2809
 2444SOL    HW118965   4.108   4.474   4.049  0.1256 -1.2846 -2.4797
 2444SOL    HW218966   4.144   4.617   4.051  1.0525 -1.8002  3.0427
 2445SOL     OW18967   1.471   2.707   8.215  0.3024  0.6757 -0.2971
 2445SOL    HW118968   1.474   2.615   8.239 -1.0645  0.5750 -0.4753
 2445SOL    HW218969   1.540   2.708   8.149  0.4378  1.4108 -0.1475
 2446SOL     OW18970   0.931   0.513   8.912  0.3557 -0.1237 -0.7209
 2446SOL    HW118971   1.017   0.479   8.888  0.2162 -0.2830 -0.9927
 2446SOL    HW218972   0.914   0.599   8.874 -1.8084 -0.4802 -0.5614
 2447SOL     OW18973   2.093   3.415  11.407 -0.1390 -0.2714 -0.0694
 2447SOL    HW118974   2.072   3.378  11.492  0.6868 -0.0612  0.2240
 2447SOL    HW218975   2.120   3.498  11.446  1.3110 -0.5975 -0.3562
 2448SOL     OW18976   3.241   0.974   7.368  0.5793  0.2314  0.3967
 2448SOL    HW118977   3.227   1.068   7.381  0.6225  0.2251  0.4897
 2448SOL    HW218978   3.233   0.937   7.456  1.0275  0.5177  0.5551
 2449SOL     OW18979   3.541   3.051   9.110 -0.0174 -0.5770 -0.1432
 2449SOL    HW118980   3.556   3.114   9.181 -1.7674  0.6755 -0.9007
 2449SOL    HW218981   3.519   2.972   9.159  1.8782 -0.7397  0.4757
 2450SOL     OW18982   1.186   0.888  15.702 -0.2032 -0.1247  0.4795
 2450SOL    HW118983   1.091   0.890  15.694 -0.4614 -0.6989  3.3719
 2450SOL    HW218984   1.195   0.945  15.778 -2.7411  2.9869 -1.5672
 2451SOL     OW18985   1.277   0.315   4.512  0.1832 -0.1968 -0.0148
 2451SOL    HW118986   1.319   0.230   4.501 -0.3708 -0.3383 -1.0274
 2451SOL    HW218987   1.356   0.368   4.507  0.9635 -1.4941 -1.7479
 2452SOL     OW18988   4.448   1.780   3.160 -0.2067  0.2700 -0.3725
 2452SOL    HW118989   4.403   1.845   3.214 -0.1148  1.3319 -1.5764
 2452SOL    HW218990   4.371   1.723   3.153 -0.4210  0.4033  0.9108
 2453SOL     OW18991   4.190   1.564   5.167 -0.2729 -0.1086  0.3806
 2453SOL    HW118992   4.201   1.485   5.115  2.4544  0.4625  0.0964
 2453SOL    HW218993   4.160   1.516   5.244 -0.7708 -3.1233 -1.6953
 2454SOL     OW18994   2.727   2.620   9.234  0.1655 -0.4542 -0.5588
 2454SOL    HW118995   2.691   2.575   9.158 -1.9939 -0.9197  0.7437
 2454SOL    HW218996   2.764   2.551   9.290 -0.2038  0.0710  0.3384
 2455SOL     OW18997   0.807   4.354  16.291  0.3531 -0.0651  0.3481
 2455SOL    HW118998   0.728   4.316  16.253  1.1922  0.1378 -1.5729
 2455SOL    HW218999   0.793   4.438  16.248  0.7470 -0.9537 -1.5254
 2456SOL     OW19000   0.199   1.757  12.091 -1.2144  0.2556  0.4232
 2456SOL    HW119001   0.291   1.746  12.066 -0.4154  0.9758  2.9697
 2456SOL    HW219002   0.160   1.716  12.014 -0.4263  2.1964 -0.9768
 2457SOL     OW19003   0.788   3.702   2.221 -0.3077 -0.5600  0.1083
 2457SOL    HW119004   0.705   3.724   2.263  0.8043 -0.2715  2.1411
 2457SOL    HW219005   0.758   3.670   2.136 -1.3081 -0.4806  0.4388
 2458SOL     OW19006   3.861   4.147   4.662 -0.4468  0.1663  0.1409
 2458SOL    HW119007   3.940   4.164   4.611  0.7423 -1.4087  1.4642
 2458SOL    HW219008   3.864   4.053   4.677  1.9667  0.3412  0.8945
 2459SOL     OW19009   2.843   0.773   9.507  0.1254  0.3821  0.3281
 2459SOL    HW119010   2.775   0.816   9.558  1.2985  0.7183  1.5989
 2459SOL    HW219011   2.834   0.686   9.547 -1.8354  0.4964  0.1214
 2460SOL     OW19012   3.884   0.516   3.033 -0.6674 -0.4301 -0.2390
 2460SOL    HW119013   3.891   0.518   3.129  2.0104 -0.5051 -0.4259
 2460SOL    HW219014   3.791   0.534   3.018 -0.5414 -1.2168 -1.9587
 2461SOL     OW19015   3.938   0.824   1.333 -0.5068  0.2314 -0.2124
 2461SOL    HW119016   4.033   0.812   1.322 -0.1680  1.7308  1.1727
 2461SOL    HW219017   3.929   0.889   1.264 -1.3469 -1.3133 -1.5518
 2462SOL     OW19018   3.506   3.917   4.338  0.2955 -0.5128  0.1202
 2462SOL    HW119019   3.433   3.976   4.319 -1.8166 -3.5162 -1.2119
 2462SOL    HW219020   3.574   3.927   4.271  0.7208  0.6538  0.7363
 2463SOL     OW19021   4.369   4.262   7.888 -0.0806 -0.2228 -0.2847
 2463SOL    HW119022   4.323   4.196   7.940 -0.6155  0.0375 -0.4198
 2463SOL    HW219023   4.440   4.288   7.946 -1.2470 -2.9482  2.3826
 2464SOL     OW19024   2.965   4.254   6.472  0.4605  0.1072  0.4715
 2464SOL    HW119025   3.047   4.253   6.522  0.3857 -1.6402  0.5519
 2464SOL    HW219026   2.959   4.340   6.430  0.2976 -0.1388 -0.0099
 2465SOL     OW19027   0.355   1.085   3.043  0.7719  0.0274 -0.7052
 2465SOL    HW119028   0.264   1.066   3.062 -0.3499  2.4248 -3.7935
 2465SOL    HW219029   0.337   1.078   2.949  0.5412  0.7065 -0.7100
 2466SOL     OW19030   4.265   3.450  10.821  0.0314 -0.1004  0.3112
 2466SOL    HW119031   4.193   3.397  10.787 -1.1324  0.7854  1.3927
 2466SOL    HW219032   4.252   3.538  10.787 -0.5484 -0.5018 -0.5063
 2467SOL     OW19033   4.065   1.222   4.059  0.1438  0.2157 -0.2472
 2467SOL    HW119034   4.066   1.254   4.149 -0.8694  2.5035 -1.0613
 2467SOL    HW219035   3.983   1.261   4.029 -0.5551 -2.3509 -1.6925
 2468SOL     OW19036   2.146   2.630   4.881 -0.0870 -0.0889 -0.0448
 2468SOL    HW119037   2.064   2.585   4.898 -0.4630  1.2771  1.7224
 2468SOL    HW219038   2.144   2.612   4.787 -1.3659 -1.0589  0.1773
 2469SOL     OW19039   0.537   2.336   1.886 -0.5266  0.3375  0.4170
 2469SOL    HW119040   0.626   2.346   1.851 -0.5170 -0.2992  0.2695
 2469SOL    HW219041   0.490   2.403   1.836  0.7035  0.0127 -1.1797
 2470SOL     OW19042   0.102   3.445   3.065 -0.1267  0.0224 -0.6483
 2470SOL    HW119043   0.178   3.474   3.114 -2.0770  1.5134  1.5102
 2470SOL    HW219044   0.139   3.380   3.006 -0.2797 -2.3855  1.9451
 2471SOL     OW19045   2.288   1.773   9.384  0.0284  0.1455  0.4001
 2471SOL    HW119046   2.245   1.757   9.468  1.6900 -1.8594  0.8887
 2471SOL    HW219047   2.360   1.830   9.412 -1.3732  2.2583 -0.2758
 2472SOL     OW19048   1.124   1.657   2.870  0.6563 -0.3778  0.0020
 2472SOL    HW119049   1.111   1.641   2.964 -0.1967 -0.6686 -0.1642
 2472SOL    HW219050   1.034   1.673   2.844  0.2666 -4.3626 -1.0502
 2473SOL     OW19051   0.198   0.991   4.623  0.6907 -0.5689  0.8664
 2473SOL    HW119052   0.229   1.077   4.653  0.5152  0.0173 -0.6416
 2473SOL    HW219053   0.241   0.947   4.697 -0.9147 -0.6436  1.7622
 2474SOL     OW19054   4.236   2.989   3.120  0.7237 -0.7539  0.1100
 2474SOL    HW119055   4.265   3.068   3.165 -0.5558 -0.6075  0.6938
 2474SOL    HW219056   4.232   2.933   3.197 -2.2092 -1.1397 -0.3086
 2475SOL     OW19057   1.323   0.441   0.404 -0.5561 -0.1494 -0.0519
 2475SOL    HW119058   1.340   0.446   0.498  0.4260 -1.1212 -0.1783
 2475SOL    HW219059   1.407   0.400   0.384 -1.1718 -1.6147  0.3395
 2476SOL     OW19060   2.383   3.194   3.748  0.1360  0.1983  0.3513
 2476SOL    HW119061   2.467   3.164   3.784  0.1475  0.0637  0.2106
 2476SOL    HW219062   2.397   3.152   3.663 -2.5022  0.3223 -0.1502
 2477SOL     OW19063   1.601   3.122   0.355  0.5830  0.1002 -0.3816
 2477SOL    HW119064   1.617   3.200   0.408 -0.6978 -0.0670  0.2376
 2477SOL    HW219065   1.517   3.097   0.392  0.4689 -1.5316 -1.7699
 2478SOL     OW19066   0.775   4.617   3.479 -0.3723 -0.2702 -0.1138
 2478SOL    HW119067   0.859   4.655   3.503 -0.1481 -0.4582 -0.5999
 2478SOL    HW219068   0.770   4.540   3.536  0.0554 -2.0182 -2.3959
 2479SOL     OW19069   0.749   2.194   5.678 -0.4009 -0.4708  0.3419
 2479SOL    HW119070   0.713   2.211   5.765 -1.8250  1.1137 -0.5627
 2479SOL    HW219071   0.708   2.108   5.675 -1.0033 -0.1661 -0.0561
 2480SOL     OW19072   1.280   3.481   5.363 -0.4613 -0.1910  0.0201
 2480SOL    HW119073   1.239   3.507   5.446 -1.8596  0.8926 -1.0011
 2480SOL    HW219074   1.205   3.434   5.326 -0.1051 -0.3214 -0.5228
 2481SOL     OW19075   0.049   1.524   7.432  0.2051 -0.4213  0.4098
 2481SOL    HW119076   0.089   1.582   7.367  0.4949 -1.8447 -0.6670
 2481SOL    HW219077   0.010   1.593   7.487  0.1852  0.5840 -0.8704
 2482SOL     OW19078   4.051   4.080  17.249 -0.2915 -0.0035  0.1384
 2482SOL    HW119079   4.121   4.071  17.184  0.3847  0.5227  0.7999
 2482SOL    HW219080   3.988   4.124  17.191 -0.2868  0.0254  0.1550
 2483SOL     OW19081   0.432   0.448   1.913 -0.3503 -0.2669 -0.1856
 2483SOL    HW119082   0.512   0.446   1.861  0.7656 -0.0869  1.5219
 2483SOL    HW219083   0.406   0.540   1.905  0.7916 -0.0338 -1.1112
 2484SOL     OW19084   2.685   2.867   9.312 -0.0524  0.1829  0.5917
 2484SOL    HW119085   2.709   2.779   9.283 -0.9979  0.7572 -1.8798
 2484SOL    HW219086   2.601   2.871   9.266 -1.2188  2.0814  2.8823
 2485SOL     OW19087   3.358   4.606  15.595  0.1002  0.6586 -0.1740
 2485SOL    HW119088   3.339   4.553  15.518 -2.6475 -0.5771  1.3595
 2485SOL    HW219089   3.274   4.650  15.605 -1.1129 -1.6704 -0.1594
 2486SOL     OW19090   1.407   3.885  11.554 -0.4745 -0.4682 -0.1204
 2486SOL    HW119091   1.373   3.949  11.492  0.4289  0.0034 -0.1175
 2486SOL    HW219092   1.388   3.799  11.515  0.0011  0.3098 -2.0472
 2487SOL     OW19093   3.028   1.783   3.157 -0.8520  0.0545 -0.0405
 2487SOL    HW119094   3.010   1.749   3.245 -0.9058 -0.1678 -0.1384
 2487SOL    HW219095   2.992   1.715   3.101  0.0404 -1.0666  0.7408
 2488SOL     OW19096   0.233   4.578  17.401  0.4144 -0.1626 -0.0235
 2488SOL    HW119097   0.192   4.591  17.486 -0.2849 -0.5743 -0.3015
 2488SOL    HW219098   0.317   4.622  17.416  0.4841 -0.5167  0.6413
 2489SOL     OW19099   4.439   4.089   4.402  0.3592 -0.4339  0.0732
 2489SOL    HW119100   4.471   4.058   4.318  0.7027 -0.4139  0.1961
 2489SOL    HW219101   4.417   4.004   4.440  1.7463 -1.2007 -0.8370
 2490SOL     OW19102   3.163   3.705   6.183 -0.1608 -0.7389 -0.6111
 2490SOL    HW119103   3.107   3.724   6.258 -0.7461 -0.9910 -0.9893
 2490SOL    HW219104   3.125   3.628   6.142  1.3004 -1.9762  0.3841
 2491SOL     OW19105   4.456   3.356   8.285 -0.0371  0.0551 -0.1204
 2491SOL    HW119106   4.416   3.330   8.368  0.5442 -1.2960 -0.2666
 2491SOL    HW219107   4.451   3.452   8.294  1.8311  0.1904 -0.5416
 2492SOL     OW19108   1.905   3.513   9.712 -0.1772 -0.0958  0.9174
 2492SOL    HW119109   1.941   3.466   9.787 -2.6860 -1.3615  1.3267
 2492SOL    HW219110   1.942   3.453   9.647  0.5429  1.0404  0.2826
 2493SOL     OW19111   0.638   4.115   9.995  0.0144  0.1483  0.3486
 2493SOL    HW119112   0.624   4.100   9.902  0.7748  0.0231  0.2607
 2493SOL    HW219113   0.701   4.049  10.021  1.0456  1.1353  0.3711
 2494SOL     OW19114   4.222   0.815   1.300 -0.1052 -0.4228  0.5981
 2494SOL    HW119115   4.281   0.883   1.266  0.0160  0.0276  1.7039
 2494SOL    HW219116   4.281   0.743   1.281  0.2315  0.2098 -0.7473
 2495SOL     OW19117   3.078   3.413   6.877 -0.4579 -0.0515 -0.7267
 2495SOL    HW119118   3.045   3.328   6.906  1.9366 -1.0694 -0.9869
 2495SOL    HW219119   3.046   3.416   6.787 -0.0899  0.2084 -0.8453
 2496SOL     OW19120   2.612   1.486   3.813 -0.2834 -0.0967  0.2706
 2496SOL    HW119121   2.628   1.414   3.875  0.2354 -0.1085  0.1201
 2496SOL    HW219122   2.523   1.469   3.784  0.5211 -3.7940  0.0410
 2497SOL     OW19123   1.581   4.502   5.482 -0.5977  0.5811 -0.5898
 2497SOL    HW119124   1.602   4.584   5.525 -2.5520 -0.0999  1.6610
 2497SOL    HW219125   1.493   4.508   5.443 -0.9813 -1.0451  0.0098
 2498SOL     OW19126   0.480   4.143  15.588 -0.1076  0.2335 -0.0848
 2498SOL    HW119127   0.470   4.186  15.673  0.6347  1.3125 -0.5443
 2498SOL    HW219128   0.519   4.219  15.544  2.0399 -0.7506  0.1310
 2499SOL     OW19129   2.014   0.039   6.170  0.3943  0.0004  0.6581
 2499SOL    HW119130   2.069   4.702   6.137 -2.9337 -0.9489 -2.8839
 2499SOL    HW219131   2.041   0.044   6.262 -0.8429  1.4098  0.9420
 2500SOL     OW19132   1.761   0.325  16.297  0.4631  0.3450 -0.5486
 2500SOL    HW119133   1.704   0.345  16.371 -0.0583 -0.0422 -0.8480
 2500SOL    HW219134   1.797   0.414  16.289 -0.5118  0.8736  1.0163
 2501SOL     OW19135   3.670   3.607   4.748 -0.4030  0.3787 -0.3813
 2501SOL    HW119136   3.647   3.685   4.697  3.9578  1.1706 -1.1444
 2501SOL    HW219137   3.745   3.584   4.693 -0.6089  0.1412 -0.5592
 2502SOL     OW19138   3.664   0.543   6.070 -0.5341  0.1030 -0.1617
 2502SOL    HW119139   3.697   0.458   6.101  0.3834  0.3009 -0.6094
 2502SOL    HW219140   3.715   0.600   6.126 -0.4987 -0.5019  0.4281
 2503SOL     OW19141   1.588   1.950   0.402 -0.1559  0.4806 -0.1217
 2503SOL    HW119142   1.581   1.930   0.309  0.5349  1.8131 -0.4646
 2503SOL    HW219143   1.598   2.045   0.406 -0.1754  0.4709  0.1672
 2504SOL     OW19144   4.329   0.828   4.842 -0.5084 -0.1561  0.4731
 2504SOL    HW119145   4.254   0.845   4.785  0.3379  0.9103 -0.3354
 2504SOL    HW219146   4.282   0.830   4.925  0.6283  0.0055  1.1035
 2505SOL     OW19147   1.546   0.899   3.078  0.2149 -0.0626  0.5026
 2505SOL    HW119148   1.597   0.977   3.097  0.8257 -0.2553 -0.3468
 2505SOL    HW219149   1.585   0.843   3.145 -0.3834 -0.6776  0.3400
 2506SOL     OW19150   3.570   0.594   6.421 -0.2279 -0.0753 -0.0288
 2506SOL    HW119151   3.552   0.504   6.448  1.7367 -1.0744 -2.0647
 2506SOL    HW219152   3.481   0.624   6.404  0.1689  2.1062  1.6317
 2507SOL     OW19153   4.214   0.745   5.348  0.1375  0.5766 -0.3781
 2507SOL    HW119154   4.289   0.694   5.381  0.6051 -0.2616 -2.7052
 2507SOL    HW219155   4.210   0.806   5.421  2.0190 -0.0240  0.2350
 2508SOL     OW19156   1.946   3.852   0.545 -0.1055  0.2033 -0.2466
 2508SOL    HW119157   1.945   3.762   0.580 -0.0073 -0.3015 -1.5409
 2508SOL    HW219158   1.896   3.897   0.613  0.5448 -0.6884  0.8267
 2509SOL     OW19159   0.695   1.016  13.988 -0.5944  0.1358 -0.0458
 2509SOL    HW119160   0.709   1.052  14.076 -0.1802 -1.6667  0.6203
 2509SOL    HW219161   0.785   1.018  13.956 -0.6644 -0.9240 -0.2982
 2510SOL     OW19162   4.070   0.822  11.402 -0.2666 -0.3884 -0.5689
 2510SOL    HW119163   4.051   0.766  11.327  0.9494 -0.2690 -0.9507
 2510SOL    HW219164   4.029   0.904  11.375  0.1330  0.2043  0.6459
 2511SOL     OW19165   4.514   1.884  16.454  0.0733 -0.3053 -0.8574
 2511SOL    HW119166   4.511   1.802  16.405  2.1898 -0.3668 -0.8708
 2511SOL    HW219167   4.606   1.904  16.440 -0.2258  0.3618 -1.8685
 2512SOL     OW19168   3.543   2.342   1.441 -0.6288 -0.2361  0.3189
 2512SOL    HW119169   3.609   2.317   1.377 -1.2410  2.3945 -1.3534
 2512SOL    HW219170   3.592   2.365   1.520  0.0525 -2.6107  0.5822
 2513SOL     OW19171   1.850   0.310   3.047  0.2020 -0.1294 -0.0824
 2513SOL    HW119172   1.934   0.272   3.022  0.3419  1.2737 -1.6984
 2513SOL    HW219173   1.840   0.362   2.968 -0.5748  0.2845  0.2857
 2514SOL     OW19174   3.465   4.411   6.205 -0.3163  0.4754 -0.1001
 2514SOL    HW119175   3.553   4.375   6.217  0.6090  2.0690 -1.8876
 2514SOL    HW219176   3.408   4.337   6.224  0.1265  0.3334  0.6687
 2515SOL     OW19177   1.113   4.688   8.096  0.1930 -0.1179 -0.5114
 2515SOL    HW119178   1.149   0.035   8.130 -1.4955 -0.0871  1.2045
 2515SOL    HW219179   1.176   4.676   8.025  0.4252 -1.6741 -0.0397
 2516SOL     OW19180   2.163   4.370  16.629  1.1890  0.0951 -0.1640
 2516SOL    HW119181   2.090   4.432  16.619  1.7118  0.2647 -2.9639
 2516SOL    HW219182   2.124   4.299  16.679  2.0724 -0.6983 -0.6048
 2517SOL     OW19183   3.887   1.419   7.068 -0.1419 -0.0424  0.2474
 2517SOL    HW119184   3.877   1.479   6.994  1.6759  0.9248  0.7846
 2517SOL    HW219185   3.830   1.344   7.048 -1.1544  1.1791 -1.4193
 2518SOL     OW19186   0.012   1.734   4.987  0.0867 -0.3027  0.1828
 2518SOL    HW119187   0.085   1.692   5.031  0.2425  1.9714  2.1279
 2518SOL    HW219188   0.017   1.695   4.900  0.2641 -2.6845  1.2555
 2519SOL     OW19189   3.005   2.733   9.069 -0.7270 -0.3609  0.1397
 2519SOL    HW119190   3.017   2.640   9.088  2.1673 -0.3687 -1.6967
 2519SOL    HW219191   2.951   2.730   8.990 -1.8668 -0.1692  0.9206
 2520SOL     OW19192   4.255   4.375  13.711 -0.3174  0.4116 -0.1101
 2520SOL    HW119193   4.338   4.347  13.749 -0.5421 -0.9694 -0.6496
 2520SOL    HW219194   4.277   4.460  13.671 -0.1666 -0.2502 -1.4383
 2521SOL     OW19195   2.896   4.646   6.960 -0.1657  0.2128  0.7520
 2521SOL    HW119196   2.881   0.003   6.981 -0.2946  0.0652  1.2811
 2521SOL    HW219197   2.976   4.652   6.907  0.2228  0.0361  1.3114
 2522SOL     OW19198   2.354   2.489   2.397  0.4243 -0.6354 -0.2382
 2522SOL    HW119199   2.282   2.545   2.366  0.6856  0.2998  0.8505
 2522SOL    HW219200   2.399   2.541   2.464 -2.8430  1.2440  0.4922
 2523SOL     OW19201   2.013   0.648  14.148  0.6061 -0.0916 -0.2686
 2523SOL    HW119202   2.004   0.682  14.059 -1.2225  1.1350  0.3719
 2523SOL    HW219203   2.106   0.645  14.169  0.2820  0.5259  1.2683
 2524SOL     OW19204   1.926   3.404  14.033 -0.3369  0.1949  0.1145
 2524SOL    HW119205   1.868   3.408  14.109  0.5400 -1.4592  0.8755
 2524SOL    HW219206   2.009   3.374  14.069  0.5080  3.0026  0.4814
 2525SOL     OW19207   3.195   1.157   3.718  0.1749  0.2832 -0.4141
 2525SOL    HW119208   3.241   1.240   3.731  0.1731  0.1155  0.6547
 2525SOL    HW219209   3.114   1.183   3.763  1.2145 -1.1769  2.2857
 2526SOL     OW19210   1.605   2.962   0.028 -0.1279 -0.2613 -0.1814
 2526SOL    HW119211   1.566   3.038  17.723  2.4067  0.5728 -1.0136
 2526SOL    HW219212   1.521   2.919   0.045  0.2568 -0.6202  0.8206
 2527SOL     OW19213   0.806   3.695   8.737  0.3394  0.1846  0.0051
 2527SOL    HW119214   0.788   3.602   8.749  0.4775 -0.0698 -1.6941
 2527SOL    HW219215   0.879   3.701   8.675  0.6431 -0.2598  0.3200
 2528SOL     OW19216   2.856   4.396  12.632  0.2577 -0.1650 -0.8079
 2528SOL    HW119217   2.769   4.386  12.595 -0.0021 -1.1302  0.0445
 2528SOL    HW219218   2.881   4.304  12.631  1.0174  0.0277  0.3705
 2529SOL     OW19219   0.665   2.799  14.225 -0.2697 -0.4243  1.3789
 2529SOL    HW119220   0.675   2.738  14.152  0.0669 -0.4656  1.4604
 2529SOL    HW219221   0.741   2.779  14.280 -1.6277 -2.2930  2.6163
 2530SOL     OW19222   0.485   3.180   6.124  0.2141  0.2556 -0.7162
 2530SOL    HW119223   0.507   3.142   6.209  0.1320 -0.5812 -1.0691
 2530SOL    HW219224   0.552   3.248   6.116 -0.6270  1.2353  0.5117
 2531SOL     OW19225   3.070   4.236   5.658 -0.1489  0.2452 -0.0703
 2531SOL    HW119226   3.049   4.264   5.747 -2.8670 -0.6783 -0.4057
 2531SOL    HW219227   3.160   4.266   5.648 -0.1495  0.5570  0.8344
 2532SOL     OW19228   3.918   2.390   3.888  0.4922 -0.3297  0.3952
 2532SOL    HW119229   3.882   2.392   3.799 -1.8107 -1.7073  1.3040
 2532SOL    HW219230   3.989   2.454   3.884 -1.8711  2.4398  3.2872
 2533SOL     OW19231   4.723   0.841   2.684  0.3680 -0.2187  0.2615
 2533SOL    HW119232   4.662   0.886   2.624  1.7269  0.8164 -0.3559
 2533SOL    HW219233   0.031   0.785   2.619  1.3096 -0.4968  1.1375
 2534SOL     OW19234   3.729   0.753   7.658  0.1239 -0.3014  0.2539
 2534SOL    HW119235   3.644   0.777   7.621 -1.2815 -3.7340  1.2453
 2534SOL    HW219236   3.713   0.665   7.694 -2.3882 -0.0082 -0.1292
 2535SOL     OW19237   2.000   4.382   2.099  0.7191  0.2014 -0.0663
 2535SOL    HW119238   2.040   4.465   2.075 -0.4005  0.4835 -0.9527
 2535SOL    HW219239   1.950   4.402   2.178 -2.1094  1.6434 -2.2389
 2536SOL     OW19240   4.356   3.051   5.964 -0.1855  0.0067 -0.1629
 2536SOL    HW119241   4.304   3.121   5.926 -1.2349  1.0701  3.2630
 2536SOL    HW219242   4.444   3.089   5.956  0.7056 -1.9534  0.2747
 2537SOL     OW19243   1.987   0.382   4.108 -0.0512 -0.3676 -0.3851
 2537SOL    HW119244   1.993   0.408   4.016  2.5060  2.1212  0.4695
 2537SOL    HW219245   2.021   0.293   4.101  0.9006 -0.0200 -0.2268
 2538SOL     OW19246   2.277   3.620   7.719  0.3616  0.1427 -0.5192
 2538SOL    HW119247   2.219   3.583   7.785 -1.6153  3.4300 -0.3888
 2538SOL    HW219248   2.302   3.701   7.763 -0.0085  1.1939 -2.2623
 2539SOL     OW19249   3.856   1.735  11.659  0.0328  0.4111 -0.3007
 2539SOL    HW119250   3.918   1.748  11.587  1.0499  0.3052  0.5535
 2539SOL    HW219251   3.791   1.713  11.593 -1.1549  1.7640  0.4255
 2540SOL     OW19252   2.847   1.001   0.517 -0.5756  0.1128 -0.0009
 2540SOL    HW119253   2.819   0.915   0.546  0.4277  0.0750  0.8737
 2540SOL    HW219254   2.791   1.014   0.440 -4.5342 -1.9790  2.5528
 2541SOL     OW19255   2.588   0.241   2.118 -0.3006 -0.5452  0.3066
 2541SOL    HW119256   2.503   0.227   2.159  0.0157  0.7901  1.4193
 2541SOL    HW219257   2.605   0.152   2.086 -1.8395 -0.0483 -1.9178
 2542SOL     OW19258   0.726   2.327   5.412  0.0498  0.1860  0.0215
 2542SOL    HW119259   0.712   2.264   5.483  2.3238 -0.3922 -0.0334
 2542SOL    HW219260   0.821   2.341   5.412  0.3424 -1.7853  0.1653
 2543SOL     OW19261   2.277   1.430   9.312  0.4082  0.2298 -0.0512
 2543SOL    HW119262   2.240   1.499   9.256 -2.6947 -1.6245 -0.2783
 2543SOL    HW219263   2.367   1.431   9.278  0.5854  2.1491  0.4664
 2544SOL     OW19264   2.328   0.574   7.427 -0.1632 -0.0013  0.3197
 2544SOL    HW119265   2.335   0.654   7.374  0.5332 -1.5395 -1.9140
 2544SOL    HW219266   2.238   0.551   7.403  0.6122  0.3301 -2.9023
 2545SOL     OW19267   3.538   0.646  14.190  0.7264 -0.1602 -0.1969
 2545SOL    HW119268   3.631   0.670  14.186  1.2254 -1.5614  2.5671
 2545SOL    HW219269   3.557   0.574  14.251 -2.0304 -1.5194 -0.9747
 2546SOL     OW19270   4.190   4.115  15.182  0.2866 -0.3646  0.1618
 2546SOL    HW119271   4.254   4.174  15.223  1.1148 -0.7268 -0.6014
 2546SOL    HW219272   4.130   4.171  15.133  0.6198 -0.2862 -0.1621
 2547SOL     OW19273   2.423   1.015   2.342 -0.1654 -0.1521 -0.0860
 2547SOL    HW119274   2.415   0.921   2.324  2.2689  0.1055 -2.5334
 2547SOL    HW219275   2.364   1.039   2.270 -0.5137 -1.0145 -0.0898
 2548SOL     OW19276   0.409   4.715   3.873 -0.1689  0.2769  0.8665
 2548SOL    HW119277   0.472   0.038   3.829 -2.2382  0.2132 -2.1901
 2548SOL    HW219278   0.391   4.641   3.815 -1.9129  1.6997 -0.4556
 2549SOL     OW19279   2.997   0.777   7.886  0.0446 -0.0627  0.2174
 2549SOL    HW119280   2.991   0.719   7.810  1.4109 -1.4281  1.1371
 2549SOL    HW219281   3.037   0.857   7.852  2.2167 -0.7127  1.2402
 2550SOL     OW19282   2.928   0.905   1.784 -0.0699  0.2895 -0.4436
 2550SOL    HW119283   2.941   0.959   1.862  0.8505 -0.5296 -0.0201
 2550SOL    HW219284   2.837   0.878   1.785  0.7665 -2.6980 -3.2513
 2551SOL     OW19285   1.907   0.306  16.739 -0.1788 -0.0635  0.6470
 2551SOL    HW119286   1.943   0.276  16.655  2.7752 -0.7768  2.1493
 2551SOL    HW219287   1.934   0.237  16.800  1.5785 -0.3832 -0.4943
 2552SOL     OW19288   1.719   1.192   5.046  0.2446 -0.4250 -0.1001
 2552SOL    HW119289   1.705   1.204   5.141  1.4908 -2.5262  0.3290
 2552SOL    HW219290   1.685   1.104   5.032  1.1370 -0.9386  0.9991
 2553SOL     OW19291   3.051   3.825   7.235 -0.0122  0.0189 -0.0154
 2553SOL    HW119292   3.058   3.734   7.207  1.0349  0.1176 -0.0772
 2553SOL    HW219293   3.119   3.874   7.190 -1.8036  1.6363 -0.9649
 2554SOL     OW19294   3.414   2.967  12.210  0.2423 -0.5192 -0.6701
 2554SOL    HW119295   3.475   3.036  12.184  0.8576 -0.9302 -0.3032
 2554SOL    HW219296   3.363   2.971  12.129 -1.6910 -1.5944  0.5005
 2555SOL     OW19297   2.043   4.022   2.969  0.5235  0.2929 -0.1376
 2555SOL    HW119298   2.024   4.011   2.875  0.6991  0.0401 -0.1439
 2555SOL    HW219299   2.114   3.958   2.975 -0.2233 -0.6164 -0.8729
 2556SOL     OW19300   1.238   0.455   8.120  0.0862 -0.1450  0.3783
 2556SOL    HW119301   1.274   0.382   8.069  1.5688  1.2404 -0.5351
 2556SOL    HW219302   1.274   0.532   8.076  1.0554 -0.9302 -0.1966
 2557SOL     OW19303   4.410   1.415  13.863  0.3750 -0.7065 -0.4056
 2557SOL    HW119304   4.374   1.330  13.836  1.1144 -1.3624  0.6823
 2557SOL    HW219305   4.478   1.428  13.797  1.2869 -2.1256  0.2497
 2558SOL     OW19306   3.880   4.315   8.725  0.4290 -0.3235 -0.1454
 2558SOL    HW119307   3.940   4.324   8.650 -0.9764  2.3353 -0.9511
 2558SOL    HW219308   3.927   4.268   8.794  1.7883  1.6003  0.2374
 2559SOL     OW19309   1.830   1.696   8.653  0.1482  0.4415  0.2341
 2559SOL    HW119310   1.896   1.644   8.700 -0.1904  0.6737  0.9732
 2559SOL    HW219311   1.864   1.693   8.564  0.9389  1.1466  0.5162
 2560SOL     OW19312   2.941   0.193  10.008  0.1749 -0.3740 -0.1283
 2560SOL    HW119313   2.957   0.176  10.102  0.8366 -0.3465 -0.2319
 2560SOL    HW219314   2.899   0.278  10.016 -0.4327 -0.4953 -2.1257
 2561SOL     OW19315   1.963   2.245   4.362 -0.7361  0.4090  0.2137
 2561SOL    HW119316   1.958   2.309   4.291  0.2147 -1.6553 -1.7008
 2561SOL    HW219317   1.947   2.166   4.310 -1.0698  1.8181 -1.8461
 2562SOL     OW19318   0.154   3.782   6.325  0.1853  0.0964  0.0643
 2562SOL    HW119319   0.121   3.843   6.391  3.0562 -0.9815  2.5206
 2562SOL    HW219320   0.101   3.805   6.249 -0.7172 -1.9188  0.0952
 2563SOL     OW19321   2.417   0.920   3.638  0.3475  0.0566 -0.6814
 2563SOL    HW119322   2.417   0.894   3.546  4.0707  0.1383 -0.7224
 2563SOL    HW219323   2.382   0.843   3.683 -1.3494  2.0720  1.4455
 2564SOL     OW19324   3.443   2.403  16.771 -0.2634 -0.2660 -0.2719
 2564SOL    HW119325   3.360   2.364  16.794  0.1209  1.4131  3.8722
 2564SOL    HW219326   3.477   2.436  16.854 -0.3769 -1.0584  0.0865
 2565SOL     OW19327   1.462   1.143   5.212 -0.4823 -0.1893 -0.6559
 2565SOL    HW119328   1.420   1.215   5.165  1.6451  2.0119  0.8242
 2565SOL    HW219329   1.512   1.104   5.141  0.3221  1.0566 -0.7753
 2566SOL     OW19330   1.291   3.839   8.328 -0.2761 -0.1606 -0.3096
 2566SOL    HW119331   1.244   3.760   8.303 -3.1675  1.4851 -0.1752
 2566SOL    HW219332   1.323   3.802   8.410  1.5219  1.1153 -0.4198
 2567SOL     OW19333   3.088   4.358  12.825  0.4394 -0.5677  0.4095
 2567SOL    HW119334   3.008   4.325  12.784  1.6065 -1.0758 -1.4512
 2567SOL    HW219335   3.090   4.311  12.909 -0.6954  2.3679  2.0609
 2568SOL     OW19336   0.693   3.646   7.204 -0.3555 -1.0059 -0.1018
 2568SOL    HW119337   0.723   3.704   7.134  1.7452 -1.1811  0.6583
 2568SOL    HW219338   0.608   3.689   7.219 -0.3812 -1.1158  0.0677
 2569SOL     OW19339   4.565   2.613   0.708  0.0778 -0.7457  0.4488
 2569SOL    HW119340   4.502   2.554   0.749 -0.2566 -0.1508  0.7977
 2569SOL    HW219341   4.641   2.599   0.765  1.4975 -0.1378 -1.2967
 2570SOL     OW19342   4.085   0.923   8.422  0.9243  0.1770 -0.0787
 2570SOL    HW119343   4.081   0.921   8.326  1.4643 -1.0729 -0.0809
 2570SOL    HW219344   4.133   0.840   8.428 -1.2441 -1.1585 -1.0947
 2571SOL     OW19345   3.541   2.391  11.507  0.1244  0.4738  0.4682
 2571SOL    HW119346   3.622   2.441  11.498  1.5221 -2.0321 -0.9958
 2571SOL    HW219347   3.543   2.371  11.601 -1.3484 -0.8730  0.2151
 2572SOL     OW19348   1.303   4.547   7.551  0.7476  0.3734  0.1088
 2572SOL    HW119349   1.279   4.499   7.630  0.8803  0.7302  0.3675
 2572SOL    HW219350   1.358   4.485   7.503  0.8646  1.1234 -0.7175
 2573SOL     OW19351   2.105   4.005   7.883  0.1296 -0.2194  0.1007
 2573SOL    HW119352   2.078   3.915   7.868  1.0922 -0.4645 -0.1566
 2573SOL    HW219353   2.152   4.034   7.805 -0.5982  0.2404 -0.1651
 2574SOL     OW19354   2.423   4.648  16.133  0.0394 -0.0571  0.1357
 2574SOL    HW119355   2.466   4.727  16.100 -0.8586  1.2132  1.9711
 2574SOL    HW219356   2.342   4.641  16.083  0.8469  2.7302 -1.5520
 2575SOL     OW19357   4.656   0.159  15.527 -0.1329 -0.4774 -0.2720
 2575SOL    HW119358   0.006   0.121  15.505 -0.2603 -0.2343 -1.1783
 2575SOL    HW219359   4.680   0.243  15.566 -1.2066 -1.6769  2.9452
 2576SOL     OW19360   4.717   2.454   7.267 -0.6144 -0.6542 -0.3115
 2576SOL    HW119361   4.649   2.479   7.204  0.7417  0.7015 -1.2581
 2576SOL    HW219362   0.050   2.428   7.205  0.1628 -1.3385  0.8251
 2577SOL     OW19363   0.109   0.147   1.728  0.1349  0.0540 -0.2752
 2577SOL    HW119364   0.191   0.111   1.696  0.2074 -0.7450  0.8092
 2577SOL    HW219365   0.134   0.239   1.721  0.1001  0.0136 -0.9447
 2578SOL     OW19366   0.792   2.262   7.333 -0.2766 -0.1364 -0.4711
 2578SOL    HW119367   0.817   2.197   7.399  1.4558  3.1010  2.0714
 2578SOL    HW219368   0.697   2.251   7.332 -0.3103  0.3948 -2.0830
 2579SOL     OW19369   3.991   4.296   2.888  0.1940  0.0751 -0.5413
 2579SOL    HW119370   4.067   4.251   2.924  1.6215  1.6780 -1.5084
 2579SOL    HW219371   4.035   4.367   2.841 -0.8213  0.9021 -0.2399
 2580SOL     OW19372   0.856   0.016   6.013  0.1363 -0.6144  0.0913
 2580SOL    HW119373   0.795   0.044   5.945  1.0646 -0.6060 -0.7423
 2580SOL    HW219374   0.876   0.106   6.041 -2.8745 -0.2375  0.9387
 2581SOL     OW19375   0.948   0.777   2.213  0.7443 -0.7364 -0.1273
 2581SOL    HW119376   0.920   0.839   2.281 -0.0938  0.0160 -1.1715
 2581SOL    HW219377   0.947   0.695   2.263 -1.1271  0.2286  1.4224
 2582SOL     OW19378   3.672   3.636  11.598  0.3271 -0.2753  0.2140
 2582SOL    HW119379   3.658   3.542  11.592 -3.4523  0.2266  1.3235
 2582SOL    HW219380   3.767   3.643  11.586  0.1425  1.7030 -0.0349
 2583SOL     OW19381   2.019   2.417   3.772 -0.2957 -0.2315  0.1820
 2583SOL    HW119382   1.947   2.373   3.726 -0.9462  1.1319 -0.1131
 2583SOL    HW219383   2.060   2.343   3.816  2.3312  1.1773  0.1447
 2584SOL     OW19384   4.623   1.861   3.659  0.1389 -0.1297  0.2119
 2584SOL    HW119385   4.635   1.771   3.632  1.2269  0.2771 -0.6675
 2584SOL    HW219386   4.537   1.863   3.700  0.2780 -0.3863  0.5214
 2585SOL     OW19387   3.274   0.759   5.690  0.8273 -0.5308 -0.1187
 2585SOL    HW119388   3.303   0.783   5.602  1.0743  0.3283  0.2020
 2585SOL    HW219389   3.179   0.747   5.685  0.6840 -0.2074  1.8108
 2586SOL     OW19390   0.520   0.435   3.624 -0.3089 -0.8352 -0.3080
 2586SOL    HW119391   0.576   0.365   3.658  0.5668  0.6602  1.3641
 2586SOL    HW219392   0.583   0.502   3.594  0.0030 -1.9457 -2.1575
 2587SOL     OW19393   1.822   3.223   2.409 -0.0661 -0.0374 -0.4590
 2587SOL    HW119394   1.771   3.297   2.440 -2.2547 -2.4799  1.7403
 2587SOL    HW219395   1.808   3.222   2.314 -2.7975 -1.4277 -0.0542
 2588SOL     OW19396   3.082   3.291   1.404 -0.0605 -0.2068 -0.0182
 2588SOL    HW119397   3.111   3.346   1.331  1.7788 -0.2752  0.6574
 2588SOL    HW219398   3.021   3.351   1.449  1.4330 -0.8396  2.8584
 2589SOL     OW19399   0.500   1.954   7.941  0.2917 -0.0750 -0.3405
 2589SOL    HW119400   0.545   1.997   8.014 -2.6974  2.2898  0.1424
 2589SOL    HW219401   0.533   1.865   7.932 -0.0485 -0.1396 -0.9915
 2590SOL     OW19402   3.624   3.267   1.080 -0.2664 -0.3573 -0.1679
 2590SOL    HW119403   3.697   3.312   1.038  0.0759 -1.9110 -1.2446
 2590SOL    HW219404   3.598   3.218   1.002  1.0156 -0.3561 -0.5911
 2591SOL     OW19405   2.787   2.690   8.092 -0.0031 -0.7113  0.4743
 2591SOL    HW119406   2.769   2.719   8.181  3.3650  0.2200  0.8765
 2591SOL    HW219407   2.862   2.630   8.093 -0.7795 -1.7542 -1.8532
 2592SOL     OW19408   1.251   2.378   1.144 -0.3862  0.2892  0.0963
 2592SOL    HW119409   1.241   2.285   1.123  1.1296  0.3149 -0.7133
 2592SOL    HW219410   1.322   2.381   1.208 -0.4931 -2.3673  0.3326
 2593SOL     OW19411   2.522   0.982   7.005 -0.7609  0.3261  0.3793
 2593SOL    HW119412   2.501   0.904   6.955  1.8874 -0.2889  0.2175
 2593SOL    HW219413   2.567   1.019   6.930 -2.5750  0.1792 -0.7825
 2594SOL     OW19414   0.508   0.222   6.474 -0.6270  0.0406  0.1755
 2594SOL    HW119415   0.413   0.212   6.473 -0.9898  3.5103 -1.9460
 2594SOL    HW219416   0.517   0.298   6.532 -0.1507 -0.1487  0.3522
 2595SOL     OW19417   4.091   2.042   6.916  0.3521  0.0686 -0.0422
 2595SOL    HW119418   4.059   2.130   6.895 -3.1480 -1.1672  0.2180
 2595SOL    HW219419   4.169   2.043   6.860  0.6407 -0.5875  0.3503
 2596SOL     OW19420   0.252   1.584   0.257 -0.6318  0.0278  0.5341
 2596SOL    HW119421   0.315   1.647   0.222  0.3286 -0.8940  0.6183
 2596SOL    HW219422   0.176   1.620   0.211 -2.0983 -0.3779  2.6168
 2597SOL     OW19423   1.738   1.030  17.522 -0.2931 -0.1300 -0.2001
 2597SOL    HW119424   1.653   1.070  17.502 -0.6959 -1.9578 -2.0196
 2597SOL    HW219425   1.723   0.941  17.490 -3.1354  0.7730 -1.4590
 2598SOL     OW19426   3.298   2.050   7.609  0.0179 -0.2821 -0.5051
 2598SOL    HW119427   3.391   2.039   7.589  0.1341 -1.9236  0.9348
 2598SOL    HW219428   3.268   2.090   7.528 -0.7847  0.2917  0.0710
 2599SOL     OW19429   4.265   3.115  12.426  0.2162 -0.1341  1.1220
 2599SOL    HW119430   4.278   3.147  12.337 -0.6336 -2.9100  0.0165
 2599SOL    HW219431   4.170   3.108  12.428  0.2131  0.0114  1.4906
 2600SOL     OW19432   4.228   1.362   7.941 -0.2600 -0.1835 -0.0430
 2600SOL    HW119433   4.239   1.323   8.027 -0.7497  0.9374  0.5264
 2600SOL    HW219434   4.132   1.365   7.930 -0.4701 -1.6301  1.5317
 2601SOL     OW19435   1.797   0.841   7.737  0.5435  0.2144  0.1015
 2601SOL    HW119436   1.703   0.858   7.723  0.1352 -1.4856  0.7938
 2601SOL    HW219437   1.805   0.790   7.817 -2.9191 -2.0211 -0.9591
 2602SOL     OW19438   1.158   3.128  13.760 -0.2114 -0.3390 -0.4620
 2602SOL    HW119439   1.180   3.034  13.764  1.6489  0.0859 -0.3500
 2602SOL    HW219440   1.063   3.125  13.767  0.1910  1.1140  5.6202
 2603SOL     OW19441   2.071   4.732   3.291  0.0135  0.5713 -0.2378
 2603SOL    HW119442   2.023   4.651   3.279 -2.8083  2.0325  1.2311
 2603SOL    HW219443   2.038   0.029   3.375 -0.6730  0.9793 -0.6648
 2604SOL     OW19444   0.602   3.732   8.085 -0.2498  0.2344  0.4635
 2604SOL    HW119445   0.511   3.762   8.090 -0.0928  0.5992  1.0738
 2604SOL    HW219446   0.610   3.696   8.173  0.0660 -1.4699 -0.2563
 2605SOL     OW19447   3.708   2.081  13.036 -0.0938  0.1463 -0.1390
 2605SOL    HW119448   3.800   2.100  13.017 -0.2742  0.7194 -0.4244
 2605SOL    HW219449   3.725   2.015  13.103 -0.7549 -0.5660 -0.6797
 2606SOL     OW19450   0.586   4.639   2.872 -0.8081  0.1355 -0.0645
 2606SOL    HW119451   0.588   4.565   2.812  0.9637  0.6460 -0.6507
 2606SOL    HW219452   0.642   4.608   2.942 -0.7385 -2.0097 -1.0827
 2607SOL     OW19453   3.059   2.670  16.331 -0.4037  0.4442  0.4755
 2607SOL    HW119454   3.070   2.660  16.425  4.2709  1.7277  0.0797
 2607SOL    HW219455   3.116   2.746  16.325 -1.2308  1.2165  2.4028
 2608SOL     OW19456   3.764   0.960  12.340  0.2413 -0.6726 -0.2332
 2608SOL    HW119457   3.796   1.011  12.265  0.6541  0.1173  0.4746
 2608SOL    HW219458   3.798   1.009  12.415 -0.8528  0.7820 -0.6868
 2609SOL     OW19459   1.018   0.427   3.450  0.3768 -0.7697 -0.5794
 2609SOL    HW119460   0.969   0.501   3.414  0.0728 -0.8034 -0.2333
 2609SOL    HW219461   1.068   0.467   3.520 -2.8605  0.5482  1.0000
 2610SOL     OW19462   3.330   4.711   5.256  0.6464  0.1068  1.0688
 2610SOL    HW119463   3.416   0.011   5.279  0.4138  0.5318  1.2916
 2610SOL    HW219464   3.266   0.030   5.303 -1.7991 -1.4825 -0.4080
 2611SOL     OW19465   2.037   1.879  14.727 -0.6799  0.4819  0.3565
 2611SOL    HW119466   1.989   1.829  14.661 -1.7487  2.8682 -0.6637
 2611SOL    HW219467   2.046   1.970  14.700  0.8086  0.3519  0.3979
 2612SOL     OW19468   0.746   0.583   9.375  0.3959  0.3574 -0.0089
 2612SOL    HW119469   0.767   0.666   9.333 -0.5266  3.1019  5.0193
 2612SOL    HW219470   0.747   0.535   9.292  0.9391 -1.0237  0.8004
 2613SOL     OW19471   3.459   2.341   5.890  0.3773  0.5757  0.2405
 2613SOL    HW119472   3.404   2.332   5.812  0.6273 -0.5529  0.1980
 2613SOL    HW219473   3.447   2.433   5.911 -1.9552 -0.0909  1.7581
 2614SOL     OW19474   2.193   2.483   9.967 -0.0388 -0.1519 -0.5388
 2614SOL    HW119475   2.118   2.543   9.961 -0.8618 -1.1055  0.2733
 2614SOL    HW219476   2.150   2.398   9.960  0.5649 -0.7502  3.0703
 2615SOL     OW19477   0.465   2.211   6.628 -0.1061  0.3877 -0.2723
 2615SOL    HW119478   0.430   2.154   6.560  1.2299  0.1982 -0.7918
 2615SOL    HW219479   0.392   2.273   6.634 -2.5526 -2.7564  2.8569
 2616SOL     OW19480   3.378   0.220   4.911  0.6165 -0.1159  0.2114
 2616SOL    HW119481   3.385   0.235   5.005 -1.0765  0.1310  0.2992
 2616SOL    HW219482   3.383   0.124   4.913 -1.5982 -0.2740 -1.3144
 2617SOL     OW19483   2.983   0.075   7.952  0.2111 -0.0938 -0.1894
 2617SOL    HW119484   2.982   0.094   8.046 -0.2100 -0.9049 -0.0320
 2617SOL    HW219485   2.989   4.714   7.957  0.7260 -0.0408  0.2978
 2618SOL     OW19486   0.561   4.434   7.727 -0.6612 -0.3920 -0.0582
 2618SOL    HW119487   0.490   4.410   7.667  0.3717  0.9925 -1.8301
 2618SOL    HW219488   0.555   4.363   7.791 -0.6473 -2.1444 -2.0060
 2619SOL     OW19489   0.544   1.630  13.465  0.1908  0.0263  0.1821
 2619SOL    HW119490   0.607   1.626  13.538  1.3996 -1.2254 -0.9239
 2619SOL    HW219491   0.585   1.561  13.413 -1.3731 -0.9318  0.2633
 2620SOL     OW19492   1.681   3.308  17.080  0.0299  0.2766  0.0563
 2620SOL    HW119493   1.774   3.326  17.095  0.3042 -0.7701 -0.4007
 2620SOL    HW219494   1.651   3.397  17.097  0.7055  0.4394  0.4001
 2621SOL     OW19495   3.409   2.711  16.733 -0.1865 -0.0049  0.8741
 2621SOL    HW119496   3.338   2.678  16.788 -0.0750 -0.3249  0.8272
 2621SOL    HW219497   3.379   2.674  16.650 -0.3140 -1.9366  1.7804
 2622SOL     OW19498   1.449   0.542   2.169 -0.2248  0.6480  0.1352
 2622SOL    HW119499   1.361   0.513   2.148 -1.1581  1.8810  2.4124
 2622SOL    HW219500   1.501   0.526   2.090 -0.3681  0.2766  0.1175
 2623SOL     OW19501   3.650   2.537  15.903 -0.3003  0.0239 -0.6393
 2623SOL    HW119502   3.647   2.441  15.898  1.6538 -0.0415 -0.3485
 2623SOL    HW219503   3.733   2.548  15.950  0.8165 -1.5290 -2.2299
 2624SOL     OW19504   0.742   1.700   2.955 -0.0488 -0.6822 -0.3904
 2624SOL    HW119505   0.677   1.770   2.963 -0.1195 -0.5422 -2.0503
 2624SOL    HW219506   0.798   1.728   3.027  0.4242 -0.3732 -0.8797
 2625SOL     OW19507   3.484   2.512   7.355  0.5557  0.0528  0.3650
 2625SOL    HW119508   3.507   2.558   7.436  0.7355  1.1281 -0.2921
 2625SOL    HW219509   3.559   2.522   7.296 -1.0220  0.6844 -1.5305
 2626SOL     OW19510   0.269   0.696   7.334 -0.2966  0.4038  0.3348
 2626SOL    HW119511   0.201   0.631   7.316  1.0599 -1.5227  2.2561
 2626SOL    HW219512   0.230   0.779   7.305  0.7445  1.2880  1.4482
 2627SOL     OW19513   4.300   3.121   8.391  0.5001 -0.6693  0.3677
 2627SOL    HW119514   4.295   3.074   8.308  1.2910 -0.1412  0.0240
 2627SOL    HW219515   4.385   3.085   8.416 -0.1067 -0.9539  2.0278
 2628SOL     OW19516   3.779   1.589   0.194  0.1425  0.1976 -0.0638
 2628SOL    HW119517   3.852   1.613   0.250 -1.5331  2.6061  1.0584
 2628SOL    HW219518   3.717   1.542   0.249 -0.5266  0.4900 -0.5682
 2629SOL     OW19519   1.771   0.463   7.079 -0.0639  0.2523  0.6506
 2629SOL    HW119520   1.739   0.399   7.016  2.4472 -0.9139  0.5335
 2629SOL    HW219521   1.795   0.405   7.151  1.6559  0.0959 -0.0483
 2630SOL     OW19522   3.218   4.383  12.573 -0.0966 -0.2356 -0.3458
 2630SOL    HW119523   3.163   4.370  12.649 -1.1861  0.8989 -0.9495
 2630SOL    HW219524   3.284   4.444  12.606  0.1072 -0.4496 -0.3551
 2631SOL     OW19525   1.148   3.653   5.545  0.0920 -1.1676  0.3780
 2631SOL    HW119526   1.101   3.723   5.590 -1.3441 -1.3262 -0.9262
 2631SOL    HW219527   1.152   3.594   5.620 -0.3992 -0.7176  0.7558
 2632SOL     OW19528   0.592   2.072  12.202 -0.0806  0.7255 -0.2628
 2632SOL    HW119529   0.584   1.981  12.232  1.7406  0.7474  0.2802
 2632SOL    HW219530   0.508   2.093  12.161 -0.6572 -0.2403  0.3874
 2633SOL     OW19531   4.307   3.872  15.181 -0.1236  0.8447 -0.0368
 2633SOL    HW119532   4.253   3.951  15.180  1.1646  1.7564  1.3212
 2633SOL    HW219533   4.395   3.910  15.171  0.0997 -0.2120 -1.9469
 2634SOL     OW19534   4.726   4.185   3.835 -0.0461 -0.2260 -0.1974
 2634SOL    HW119535   4.632   4.167   3.841  0.2616 -1.3510  1.2500
 2634SOL    HW219536   0.031   4.104   3.868  1.2922  0.6668  0.3651
 2635SOL     OW19537   0.679   1.544   3.868  0.0627  0.1051 -0.7324
 2635SOL    HW119538   0.673   1.638   3.887  0.7641 -0.2593  1.2699
 2635SOL    HW219539   0.609   1.532   3.803  1.1074 -2.2052 -1.4145
 2636SOL     OW19540   0.512   4.013   7.049 -0.6448 -0.4370  0.3025
 2636SOL    HW119541   0.565   4.018   6.970  0.1801 -2.3989  0.7205
 2636SOL    HW219542   0.526   4.097   7.093  0.2567  0.1114 -1.0432
 2637SOL     OW19543   2.669   2.803  17.592  0.0899 -0.4342  0.1648
 2637SOL    HW119544   2.664   2.891  17.555 -1.4295 -0.7292 -0.3424
 2637SOL    HW219545   2.638   2.758  17.514  0.7179 -1.0136  0.2524
 2638SOL     OW19546   3.545   3.265  10.496  0.2354 -0.0149  0.0483
 2638SOL    HW119547   3.603   3.268  10.420  0.1780 -0.4346 -0.0149
 2638SOL    HW219548   3.607   3.261  10.569  0.5626 -0.9838 -0.2838
 2639SOL     OW19549   2.146   0.976   6.869  0.5072  0.1174 -0.4514
 2639SOL    HW119550   2.190   1.004   6.949 -0.5389  1.7630 -0.4499
 2639SOL    HW219551   2.145   0.880   6.867 -0.2055  0.1081 -0.0150
 2640SOL     OW19552   1.601   2.162  13.754 -0.2461  0.2766 -0.0082
 2640SOL    HW119553   1.545   2.161  13.832  0.0401  0.2872  0.1952
 2640SOL    HW219554   1.688   2.171  13.793 -0.2007  0.1428 -0.0792
 2641SOL     OW19555   4.274   3.259   5.199 -0.3262 -0.4785 -0.5693
 2641SOL    HW119556   4.191   3.297   5.169  1.7044  2.4201 -2.6173
 2641SOL    HW219557   4.236   3.201   5.264  0.8422 -0.6442 -0.0347
 2642SOL     OW19558   0.525   3.119   4.519 -0.6109  0.9289 -0.5680
 2642SOL    HW119559   0.558   3.039   4.559 -0.1480 -0.0490 -2.9021
 2642SOL    HW219560   0.445   3.074   4.493 -0.7070  1.7188 -1.6380
 2643SOL     OW19561   3.908   4.373   2.423  0.0717 -0.4379  0.2804
 2643SOL    HW119562   3.845   4.312   2.385 -0.9244  2.0273 -2.0444
 2643SOL    HW219563   3.947   4.414   2.346 -1.3093  0.0451 -0.1640
 2644SOL     OW19564   3.933   2.211   6.509  0.4905 -0.3452  0.2479
 2644SOL    HW119565   3.855   2.159   6.526  0.5948 -0.1461  1.3759
 2644SOL    HW219566   4.005   2.150   6.526  0.0854 -1.6218 -2.7390
 2645SOL     OW19567   2.303   1.106   7.105 -0.5202 -0.2526 -0.1184
 2645SOL    HW119568   2.264   1.028   7.145 -3.5547  1.3427  0.0361
 2645SOL    HW219569   2.379   1.065   7.064 -1.1652 -0.7840 -0.7885
 2646SOL     OW19570   3.239   2.301  10.076 -0.0382 -0.3731  0.3416
 2646SOL    HW119571   3.268   2.220  10.036 -2.0651 -1.1240  0.4181
 2646SOL    HW219572   3.146   2.280  10.087 -0.1600 -0.6881 -1.2559
 2647SOL     OW19573   1.014   0.093   8.688 -0.1234  0.2376 -0.1453
 2647SOL    HW119574   0.937   0.149   8.700 -0.3581  0.0533 -0.7568
 2647SOL    HW219575   0.995   0.034   8.762 -1.9309 -0.2208 -0.9707
 2648SOL     OW19576   4.571   3.800   8.483 -0.1721 -0.3750  0.4250
 2648SOL    HW119577   4.566   3.860   8.558 -0.7401  0.9715 -0.6964
 2648SOL    HW219578   4.607   3.847   8.408 -0.4532 -0.3686  0.2953
 2649SOL     OW19579   0.978   3.916   9.499 -0.4255 -0.3823 -0.2531
 2649SOL    HW119580   0.987   4.009   9.478 -1.9502 -0.0674  0.5790
 2649SOL    HW219581   1.049   3.914   9.563 -0.4873  3.4413 -0.0401
 2650SOL     OW19582   0.719   3.972  13.562 -0.0822  0.4926 -0.3746
 2650SOL    HW119583   0.751   4.056  13.596 -0.9481  0.7395 -0.1715
 2650SOL    HW219584   0.758   3.982  13.475  0.6117  1.8788  0.0832
 2651SOL     OW19585   0.776   2.642   8.390 -1.1244 -0.1037  0.0527
 2651SOL    HW119586   0.840   2.713   8.396  0.6496 -1.6181 -0.9154
 2651SOL    HW219587   0.785   2.619   8.298 -0.9346 -0.7041  0.2187
 2652SOL     OW19588   2.344   2.997   1.294 -0.4630  0.0349  0.2136
 2652SOL    HW119589   2.342   2.991   1.389 -2.0092  0.1273  0.1894
 2652SOL    HW219590   2.403   3.072   1.290 -2.9784  1.9435 -1.7600
 2653SOL     OW19591   2.018   3.738   4.200  0.1941 -0.3417  0.3580
 2653SOL    HW119592   1.987   3.826   4.223 -0.4327 -0.6981  0.8608
 2653SOL    HW219593   1.985   3.692   4.277 -0.5842 -1.6927 -0.7761
 2654SOL     OW19594   3.369   2.128  16.607 -0.8181 -0.3826  0.6187
 2654SOL    HW119595   3.443   2.184  16.583 -1.1400  0.1213  0.8259
 2654SOL    HW219596   3.377   2.055  16.545  1.7271 -0.5543  1.1637
 2655SOL     OW19597   2.737   4.724   2.849 -0.6972  0.2748  0.1425
 2655SOL    HW119598   2.742   4.631   2.872  2.9503  0.7881  1.4275
 2655SOL    HW219599   2.803   0.034   2.901  1.6127  1.6678 -3.9350
 2656SOL     OW19600   3.450   2.868   5.096  0.4970 -0.5793 -0.7693
 2656SOL    HW119601   3.482   2.937   5.155  0.0035 -0.0617 -1.1041
 2656SOL    HW219602   3.538   2.845   5.066 -0.3061 -2.5407 -1.6376
 2657SOL     OW19603   4.659   0.860   8.007  0.4193  0.1701 -0.4339
 2657SOL    HW119604   4.571   0.888   7.978  0.4581 -1.6296 -2.3223
 2657SOL    HW219605   4.714   0.922   7.959  0.3525  2.0452  1.9391
 2658SOL     OW19606   4.191   0.353   3.180  0.5341 -0.4855  0.5481
 2658SOL    HW119607   4.122   0.367   3.246 -1.7425 -3.7761 -1.1060
 2658SOL    HW219608   4.129   0.353   3.107  0.8159 -0.5326  0.3094
 2659SOL     OW19609   0.839   3.883  15.194 -0.3011 -0.0934 -1.2359
 2659SOL    HW119610   0.888   3.866  15.275 -0.4714  1.1407 -0.8720
 2659SOL    HW219611   0.831   3.792  15.166 -1.8189 -0.2916 -0.1507
 2660SOL     OW19612   2.894   1.778  10.104 -0.2965 -0.4438  0.1125
 2660SOL    HW119613   2.878   1.866  10.071 -0.1442  0.1060  1.5185
 2660SOL    HW219614   2.810   1.751  10.141 -0.5576 -0.7101 -0.6736
 2661SOL     OW19615   4.387   0.300  17.384  0.1441  0.0174  0.6369
 2661SOL    HW119616   4.339   0.277  17.463  2.6263 -2.7363  1.3394
 2661SOL    HW219617   4.472   0.323  17.421  0.0992  0.5307  0.4271
 2662SOL     OW19618   3.442   3.647   9.232 -0.8153  0.2024 -0.3515
 2662SOL    HW119619   3.505   3.601   9.176 -1.4318  0.3465 -1.1708
 2662SOL    HW219620   3.483   3.658   9.317 -1.9214  0.4336  0.1570
 2663SOL     OW19621   3.265   2.531   3.683  0.5881  0.1735  0.4385
 2663SOL    HW119622   3.297   2.469   3.748  2.0359 -0.8289 -1.2214
 2663SOL    HW219623   3.230   2.464   3.624  1.6042  0.5300 -0.5742
 2664SOL     OW19624   1.580   3.554  13.741 -0.1192 -0.0989 -0.2125
 2664SOL    HW119625   1.591   3.631  13.685 -2.4851  1.4639  1.5028
 2664SOL    HW219626   1.666   3.555  13.783  0.4329  2.3681 -1.4071
 2665SOL     OW19627   2.913   2.076   8.338  0.5313 -0.3522 -0.5116
 2665SOL    HW119628   2.922   2.116   8.251 -1.1773 -0.3162 -0.6718
 2665SOL    HW219629   3.000   2.036   8.338  0.4897 -0.4536  0.9435
 2666SOL     OW19630   2.577   2.416  12.929 -0.0255 -0.0847  0.3994
 2666SOL    HW119631   2.563   2.345  12.867  0.0348 -1.0171  1.4601
 2666SOL    HW219632   2.550   2.377  13.012 -1.6906 -0.3613 -0.2780
 2667SOL     OW19633   3.032   0.068   5.836 -0.2315  0.2292 -0.2219
 2667SOL    HW119634   3.027   0.102   5.746  0.5913  1.3888  0.1754
 2667SOL    HW219635   2.974   4.727   5.824 -0.2290  0.6674 -3.0486
 2668SOL     OW19636   0.650   2.061   3.501 -0.4833 -0.0712 -0.6517
 2668SOL    HW119637   0.707   2.052   3.578 -0.6662  2.1738 -0.2522
 2668SOL    HW219638   0.582   2.000   3.530 -2.4592  1.3902 -2.1985
 2669SOL     OW19639   0.505   0.077  16.595  0.2201  0.3113 -0.2564
 2669SOL    HW119640   0.432   0.042  16.646  0.5692 -0.8947 -0.5819
 2669SOL    HW219641   0.461   0.146  16.546  0.3890 -0.5621 -1.6596
 2670SOL     OW19642   1.803   2.201   7.912 -0.3944 -0.1202  0.0280
 2670SOL    HW119643   1.838   2.156   7.990 -1.7804 -2.8857 -0.9292
 2670SOL    HW219644   1.727   2.144   7.904 -0.5006 -0.1978  1.5654
 2671SOL     OW19645   3.354   3.678  13.839  0.1277  0.4432 -0.1311
 2671SOL    HW119646   3.386   3.768  13.849  1.5360  0.0101 -0.7287
 2671SOL    HW219647   3.271   3.708  13.802 -0.8459 -0.0076  1.6931
 2672SOL     OW19648   2.366   2.982  14.062  0.1661  0.2568  0.1408
 2672SOL    HW119649   2.293   2.970  14.001  1.3043  1.2949 -1.4040
 2672SOL    HW219650   2.337   2.929  14.136  1.3905  0.5473  0.8198
 2673SOL     OW19651   3.512   4.096   4.071 -0.1436 -0.7201 -0.1483
 2673SOL    HW119652   3.538   4.141   3.990 -1.2763  2.4826  1.2596
 2673SOL    HW219653   3.475   4.013   4.040  0.9156 -1.5723  0.8516
 2674SOL     OW19654   2.497   4.722   7.232 -0.4927  0.0672  0.2641
 2674SOL    HW119655   2.567   0.051   7.245 -0.6799 -0.2054  2.5323
 2674SOL    HW219656   2.434   0.014   7.164 -0.8546 -2.2955 -0.3359
 2675SOL     OW19657   3.974   0.788  13.868  0.8936  0.2765  0.1236
 2675SOL    HW119658   3.974   0.705  13.821  1.0698  0.5685 -0.3965
 2675SOL    HW219659   3.887   0.781  13.906  0.7192 -1.0794 -0.5115
 2676SOL     OW19660   4.418   3.678   5.304  0.3153  0.1456 -0.4107
 2676SOL    HW119661   4.332   3.703   5.339  0.1655 -2.2476  0.9158
 2676SOL    HW219662   4.464   3.660   5.386  1.7066  0.2935 -1.1707
 2677SOL     OW19663   3.479   0.030   2.978 -0.8302  0.0938  0.4971
 2677SOL    HW119664   3.513   4.683   3.014 -1.1983 -0.8875 -1.3690
 2677SOL    HW219665   3.453   4.727   2.893  2.1652  2.3960 -1.4538
 2678SOL     OW19666   4.701   3.956   2.282  0.2527 -0.7821 -0.4545
 2678SOL    HW119667   0.035   3.902   2.323  1.3572 -0.9592 -2.5465
 2678SOL    HW219668   0.016   4.035   2.260 -1.6121  0.7370  0.9104
 2679SOL     OW19669   3.696   2.204   4.245 -0.0506  0.0159  0.4371
 2679SOL    HW119670   3.626   2.242   4.298 -0.4348 -0.5332  0.3232
 2679SOL    HW219671   3.694   2.270   4.175  3.1268  1.0590  1.3155
 2680SOL     OW19672   2.507   3.262   4.073  0.6730 -0.4558  0.2936
 2680SOL    HW119673   2.474   3.351   4.090  1.1028 -0.5463  1.5487
 2680SOL    HW219674   2.503   3.268   3.977  2.2151  0.4149  0.2943
 2681SOL     OW19675   1.046   2.160  11.521 -0.1622 -0.1470  0.0102
 2681SOL    HW119676   0.990   2.223  11.568  0.2200  1.4814 -1.6965
 2681SOL    HW219677   1.082   2.113  11.596 -1.3776 -2.0484 -0.5919
 2682SOL     OW19678   0.656   3.694   4.954 -0.1843 -0.0852  0.1293
 2682SOL    HW119679   0.669   3.625   5.019 -0.6336 -0.9458 -0.6937
 2682SOL    HW219680   0.668   3.639   4.877 -0.8345  1.2086 -0.8950
 2683SOL     OW19681   3.467   0.045   3.818  0.4197  0.5127 -1.0425
 2683SOL    HW119682   3.559   0.071   3.828  0.8245 -1.0742 -0.7717
 2683SOL    HW219683   3.427   0.121   3.774 -2.5869 -0.6578 -0.3193
 2684SOL     OW19684   2.572   1.316   4.588 -0.1581 -0.0180 -0.2721
 2684SOL    HW119685   2.634   1.388   4.599 -0.9304  0.4687  0.9163
 2684SOL    HW219686   2.510   1.358   4.529 -1.0691 -1.1755 -0.1298
 2685SOL     OW19687   3.883   3.072  10.647 -0.2148  0.3140 -0.0319
 2685SOL    HW119688   3.839   3.005  10.699 -2.4853 -0.2730 -2.6580
 2685SOL    HW219689   3.910   3.019  10.572 -3.0121 -2.0480  0.6133
 2686SOL     OW19690   0.677   0.166   2.902 -0.0460 -0.0106  0.1031
 2686SOL    HW119691   0.731   0.138   2.977  0.4031  1.5331  0.3669
 2686SOL    HW219692   0.654   0.080   2.869 -1.0170 -0.5909  2.2704
 2687SOL     OW19693   1.379   4.124   4.316  0.8034 -0.2265  0.2548
 2687SOL    HW119694   1.454   4.147   4.371  0.4587 -0.1824  0.7132
 2687SOL    HW219695   1.334   4.056   4.367  0.2889 -0.8358 -1.0126
 2688SOL     OW19696   2.401   3.470   2.038  0.2369  0.0801 -0.0732
 2688SOL    HW119697   2.388   3.422   1.956 -0.5223 -1.8050  1.1609
 2688SOL    HW219698   2.451   3.546   2.009 -0.2718  0.7533  0.8181
 2689SOL     OW19699   2.964   1.464   8.961  0.1306 -0.2082  0.4468
 2689SOL    HW119700   2.998   1.503   8.881 -0.2389 -1.3874 -0.2933
 2689SOL    HW219701   2.945   1.375   8.931  1.7698 -1.0105  1.8138
 2690SOL     OW19702   2.130   0.387  14.392 -0.5493 -0.6033 -0.1109
 2690SOL    HW119703   2.161   0.398  14.482 -0.0971  1.3737 -0.5203
 2690SOL    HW219704   2.210   0.372  14.341 -0.1620  0.3138  0.2375
 2691SOL     OW19705   0.523   4.557  15.840 -0.1003 -0.0641  0.2969
 2691SOL    HW119706   0.600   4.524  15.887 -0.0610  1.7535  1.4632
 2691SOL    HW219707   0.560   4.616  15.774  1.8375  0.2036  1.6243
 2692SOL     OW19708   4.423   0.612   2.580 -0.0051 -0.2816 -0.2467
 2692SOL    HW119709   4.338   0.618   2.535  0.1753 -0.3840 -0.6058
 2692SOL    HW219710   4.471   0.687   2.544 -0.3447  0.4181  0.7622
 2693SOL     OW19711   2.956   2.464   2.439  0.1478 -0.7172 -0.3970
 2693SOL    HW119712   2.986   2.382   2.399  1.8283 -0.3130  0.0562
 2693SOL    HW219713   3.009   2.464   2.519 -0.4591 -2.0584  0.0088
 2694SOL     OW19714   1.755   2.665  16.931 -0.1934  0.2053  0.6082
 2694SOL    HW119715   1.667   2.639  16.958  0.4745  0.4720  3.0784
 2694SOL    HW219716   1.789   2.575  16.930 -0.4928  0.1086 -0.9679
 2695SOL     OW19717   2.042   2.598   7.774 -0.6732 -0.4371  0.5128
 2695SOL    HW119718   2.042   2.502   7.776 -2.3687 -0.4797 -1.1021
 2695SOL    HW219719   1.955   2.614   7.736  0.1286  2.5360 -0.0798
 2696SOL     OW19720   1.634   0.019  10.792  0.3476 -0.6788 -0.4981
 2696SOL    HW119721   1.595   4.670  10.818  1.2127  0.3107  3.9045
 2696SOL    HW219722   1.720   4.727  10.761  1.4906  0.6313  1.5384
 2697SOL     OW19723   0.107   4.217   5.602 -0.7036 -0.1221 -0.4302
 2697SOL    HW119724   0.099   4.277   5.676 -2.3675  2.5032 -2.7654
 2697SOL    HW219725   0.179   4.265   5.562 -1.0506  1.5320  0.9275
 2698SOL     OW19726   4.648   4.177  10.683 -0.2246 -0.2995 -0.3028
 2698SOL    HW119727   4.614   4.101  10.636  1.8839 -2.2399  1.3105
 2698SOL    HW219728   4.654   4.244  10.615 -1.1814 -0.3147 -0.4000
 2699SOL     OW19729   1.908   0.163  11.629  0.0506  0.4275 -0.6427
 2699SOL    HW119730   1.971   0.174  11.558  0.9120 -0.8008 -0.0681
 2699SOL    HW219731   1.825   0.173  11.582 -1.1265 -2.8106  0.7504
 2700SOL     OW19732   2.073   1.914   7.464 -0.1475 -0.3868 -0.7453
 2700SOL    HW119733   2.066   1.992   7.519  0.4914  0.5233 -1.9445
 2700SOL    HW219734   2.166   1.895   7.475  0.0202  0.3716 -0.8506
 2701SOL     OW19735   0.515   2.095   4.496  0.1603 -0.0848  0.1772
 2701SOL    HW119736   0.450   2.043   4.448  0.1063  1.0276 -0.9518
 2701SOL    HW219737   0.593   2.064   4.450 -0.6557 -1.5257 -0.2502
 2702SOL     OW19738   0.161   4.682   5.683 -0.0186 -0.2244 -0.5935
 2702SOL    HW119739   0.132   4.591   5.691  0.0385 -0.2958 -1.2506
 2702SOL    HW219740   0.251   4.683   5.651  0.4375  3.9055  0.8661
 2703SOL     OW19741   1.405   4.620  12.738 -0.9217  0.1608  0.5637
 2703SOL    HW119742   1.425   4.665  12.656  1.3233 -1.9673 -0.0739
 2703SOL    HW219743   1.463   4.547  12.717  0.2276  1.3904 -0.5603
 2704SOL     OW19744   4.719   4.358  17.236  0.6864 -0.3465  0.0143
 2704SOL    HW119745   0.065   4.319  17.202 -0.0105 -1.4011 -0.4351
 2704SOL    HW219746   4.662   4.289  17.201 -0.7134  0.3081  0.9887
 2705SOL     OW19747   3.347   1.779  10.463 -0.0086 -0.5729 -0.3690
 2705SOL    HW119748   3.363   1.703  10.408  1.1718 -1.0665  0.6840
 2705SOL    HW219749   3.269   1.752  10.513  1.3103 -0.2909  1.8227
 2706SOL     OW19750   0.772   2.143   4.806  0.5683 -0.2613 -0.1473
 2706SOL    HW119751   0.691   2.163   4.853  0.6877  0.6283 -0.3189
 2706SOL    HW219752   0.812   2.076   4.860  1.9519  1.3257  0.7731
 2707SOL     OW19753   0.146   4.623  14.917  0.2798 -0.2714  0.3653
 2707SOL    HW119754   0.081   4.682  14.953  1.4481  1.5537 -0.5462
 2707SOL    HW219755   0.224   4.643  14.969  0.5775  0.4404 -0.3602
 2708SOL     OW19756   4.355   1.353   3.318 -0.2600 -0.0384 -0.4693
 2708SOL    HW119757   4.341   1.273   3.368 -0.4141  1.2650  1.5972
 2708SOL    HW219758   4.384   1.421   3.379 -1.7901  0.0680  0.1468
 2709SOL     OW19759   0.358   1.996   3.581 -0.5078  0.0617  0.3339
 2709SOL    HW119760   0.409   1.919   3.603  1.7519  1.8067  1.2029
 2709SOL    HW219761   0.282   1.980   3.636  0.8109 -1.0904  1.8005
 2710SOL     OW19762   4.306   1.015   6.805 -0.4221  0.4082 -0.3821
 2710SOL    HW119763   4.262   1.057   6.878  1.0178  0.2057  0.6004
 2710SOL    HW219764   4.257   0.934   6.792 -1.5219  1.6701 -4.2036
 2711SOL     OW19765   2.681   1.983   9.573 -0.0466 -0.4137  0.1146
 2711SOL    HW119766   2.628   2.056   9.607  0.9101 -0.3992  1.5593
 2711SOL    HW219767   2.706   1.936   9.652  1.8568  1.7731  0.7958
 2712SOL     OW19768   1.347   0.058   6.381 -0.2325  0.1395 -0.1647
 2712SOL    HW119769   1.307   0.119   6.444 -2.8753  0.4899 -2.1943
 2712SOL    HW219770   1.407   0.119   6.340 -2.2204  0.7329 -2.1951
 2713SOL     OW19771   1.541   4.476   3.442 -0.4507 -0.1457  0.4224
 2713SOL    HW119772   1.546   4.398   3.497 -0.0942  1.1231  2.1798
 2713SOL    HW219773   1.473   4.525   3.488  0.5627  0.2309  1.5164
 2714SOL     OW19774   3.527   4.237   5.459  0.7821 -0.2507 -0.3224
 2714SOL    HW119775   3.495   4.259   5.547 -0.1751  0.2243 -0.7802
 2714SOL    HW219776   3.520   4.143   5.472  1.2928 -0.0845  1.1358
 2715SOL     OW19777   2.367   2.385   1.206  0.4014 -0.0981  0.0165
 2715SOL    HW119778   2.448   2.334   1.201  0.1869 -0.4329 -0.0407
 2715SOL    HW219779   2.364   2.409   1.299 -0.4185  1.0750 -0.3193
 2716SOL     OW19780   1.091   0.965  16.543  0.4462 -0.1067  0.4579
 2716SOL    HW119781   1.019   0.960  16.480  0.4012  0.9136  0.4251
 2716SOL    HW219782   1.037   0.991  16.617 -2.8143  0.7450 -2.1782
 2717SOL     OW19783   4.480   0.727  14.111  0.5129  0.0748 -0.1772
 2717SOL    HW119784   4.396   0.763  14.082  0.2710  0.6248  1.2088
 2717SOL    HW219785   4.509   0.675  14.036  2.9758  3.0431 -1.2810
 2718SOL     OW19786   1.945   0.846  13.662 -0.2547  0.0516  0.4280
 2718SOL    HW119787   1.945   0.926  13.715 -0.9822  0.7570 -0.6455
 2718SOL    HW219788   1.851   0.829  13.665 -0.2738  0.5738  2.8015
 2719SOL     OW19789   1.377   2.248   0.155 -0.1941 -0.1921 -0.1393
 2719SOL    HW119790   1.372   2.294   0.238 -3.7117 -0.8229 -0.0063
 2719SOL    HW219791   1.300   2.191   0.164 -0.2236 -0.1511 -0.1320
 2720SOL     OW19792   2.651   4.445   7.547  0.3811 -0.0295 -0.0412
 2720SOL    HW119793   2.601   4.376   7.589  0.1887 -0.2806 -0.6727
 2720SOL    HW219794   2.704   4.477   7.620  0.6043  0.7572 -0.5492
 2721SOL     OW19795   3.300   1.130   3.039 -0.2487 -0.0941 -0.4517
 2721SOL    HW119796   3.381   1.082   3.057  0.0755  0.2740 -0.9385
 2721SOL    HW219797   3.235   1.060   3.044 -1.6134  1.3280  1.4707
 2722SOL     OW19798   4.345   1.151   1.793 -0.2111 -0.0047 -0.0635
 2722SOL    HW119799   4.361   1.123   1.883  0.8253  1.1981  0.1247
 2722SOL    HW219800   4.258   1.112   1.781 -0.8895  1.4958  0.0628
 2723SOL     OW19801   4.581   2.158   6.837  0.2325 -0.2080 -0.4197
 2723SOL    HW119802   4.512   2.180   6.900  0.3532 -0.6153 -0.1483
 2723SOL    HW219803   4.578   2.233   6.777 -0.4076 -0.2549 -0.4391
 2724SOL     OW19804   1.455   0.765   0.549  0.3832  0.1330 -0.2402
 2724SOL    HW119805   1.503   0.833   0.597  1.5299  0.0920 -1.3142
 2724SOL    HW219806   1.369   0.775   0.589  1.2146 -0.3494  1.6646
 2725SOL     OW19807   2.426   2.425   9.632 -0.7664  0.4625  0.3541
 2725SOL    HW119808   2.406   2.517   9.615 -1.7398  0.1748 -0.0700
 2725SOL    HW219809   2.338   2.388   9.639 -1.5786  2.5656  1.2743
 2726SOL     OW19810   2.456   3.627   9.374  0.9862  0.4533 -0.0653
 2726SOL    HW119811   2.415   3.571   9.308 -0.4901 -0.2006  1.3991
 2726SOL    HW219812   2.391   3.626   9.444  0.6210 -0.9506 -0.4361
 2727SOL     OW19813   0.514   2.982   9.901  0.7333 -0.5530  0.0648
 2727SOL    HW119814   0.531   3.058   9.957 -0.6018  0.7899 -1.3784
 2727SOL    HW219815   0.550   2.921   9.967  1.5399 -1.5377 -1.2756
 2728SOL     OW19816   4.602   3.766   8.956  0.0413  0.5170  0.0884
 2728SOL    HW119817   4.617   3.782   9.049 -0.7681 -2.3607  0.6910
 2728SOL    HW219818   4.690   3.791   8.928 -0.3863 -0.3073 -1.9615
 2729SOL     OW19819   3.792   0.156  16.305 -0.4944  0.3626 -0.0177
 2729SOL    HW119820   3.762   0.220  16.240 -0.9676  0.2443  0.0837
 2729SOL    HW219821   3.817   0.209  16.381  0.6086  0.8091 -0.6770
 2730SOL     OW19822   4.478   2.432  12.006  0.0564 -0.4520  0.1251
 2730SOL    HW119823   4.431   2.380  12.071  1.5778 -0.4925  1.1848
 2730SOL    HW219824   4.418   2.498  11.973  0.2843 -0.8340 -1.0677
 2731SOL     OW19825   1.084   2.984   1.623  0.3839 -0.7479 -0.4220
 2731SOL    HW119826   1.113   3.064   1.667 -2.7840  0.7403 -1.0601
 2731SOL    HW219827   1.036   3.026   1.552  1.2091 -0.5948 -0.8975
 2732SOL     OW19828   0.752   1.067   5.203  0.1548  0.2336  0.8732
 2732SOL    HW119829   0.845   1.067   5.179  0.0439 -2.0825  0.4525
 2732SOL    HW219830   0.715   1.012   5.135 -0.5688 -0.0754  1.5212
 2733SOL     OW19831   4.470   4.626   4.369  0.0603  0.1419 -0.2851
 2733SOL    HW119832   4.477   4.700   4.308 -1.1263 -1.7069 -2.6283
 2733SOL    HW219833   4.538   4.654   4.430  1.2395 -0.0775 -1.5001
 2734SOL     OW19834   0.516   0.725   1.584  0.0776  0.4871  0.9667
 2734SOL    HW119835   0.598   0.739   1.537  0.1912 -2.7177  0.2311
 2734SOL    HW219836   0.454   0.705   1.514  2.0377 -0.9310 -0.3558
 2735SOL     OW19837   2.481   4.338   3.376  0.2330  0.1411  0.0736
 2735SOL    HW119838   2.389   4.336   3.405  0.3837  3.5472  0.7956
 2735SOL    HW219839   2.512   4.413   3.426  1.5727 -0.4909  0.1892
 2736SOL     OW19840   1.815   3.048  12.576  0.6718 -0.3278 -0.1738
 2736SOL    HW119841   1.823   2.979  12.509 -1.3473  1.7892 -2.5841
 2736SOL    HW219842   1.901   3.085  12.556  0.2842  2.0128  2.6902
 2737SOL     OW19843   3.473   3.976   5.555 -0.0073 -0.2769 -1.0781
 2737SOL    HW119844   3.470   3.919   5.632  0.3497  2.3584  0.8510
 2737SOL    HW219845   3.524   3.922   5.495  0.0484  1.9883 -3.0557
 2738SOL     OW19846   3.732   0.343   4.708  0.1818 -0.5965  0.0596
 2738SOL    HW119847   3.699   0.426   4.673  0.4810  0.2714  1.7861
 2738SOL    HW219848   3.706   0.344   4.801 -0.0890 -1.7162 -0.0081
 2739SOL     OW19849   3.425   1.638   0.087  0.2957 -0.3450 -0.4090
 2739SOL    HW119850   3.339   1.613   0.120  0.5264 -0.3309  0.2077
 2739SOL    HW219851   3.458   1.668   0.171 -1.9923  0.0876  0.3499
 2740SOL     OW19852   1.691   3.582   8.279  0.6597  0.3898  0.1399
 2740SOL    HW119853   1.777   3.542   8.293 -1.2014 -2.6288  2.8567
 2740SOL    HW219854   1.694   3.612   8.188 -2.4588 -1.4677 -0.5643
 2741SOL     OW19855   4.636   2.368   7.878  0.1338 -0.3406  0.3289
 2741SOL    HW119856   4.563   2.350   7.936  0.6130 -0.9742  0.7398
 2741SOL    HW219857   4.671   2.454   7.902  0.5691  0.6566 -3.8345
 2742SOL     OW19858   3.171   1.430   6.133 -0.3015 -0.0368 -0.2642
 2742SOL    HW119859   3.205   1.414   6.221 -0.6427  0.3671 -0.0566
 2742SOL    HW219860   3.248   1.453   6.082  0.3128  1.0755  1.1742
 2743SOL     OW19861   4.714   4.088   7.387  0.4115  0.7951 -0.5416
 2743SOL    HW119862   0.042   4.153   7.417  0.6543  0.2006  0.2677
 2743SOL    HW219863   4.695   4.039   7.467  1.3281 -0.1999 -0.9342
 2744SOL     OW19864   0.777   4.691  10.847 -0.0298 -0.2793  0.1809
 2744SOL    HW119865   0.836   0.000  10.785 -1.6677  0.6621 -0.6955
 2744SOL    HW219866   0.727   4.645  10.780 -1.1488  0.2604  0.6504
 2745SOL     OW19867   1.330   2.981  17.244  0.2126 -0.7640 -0.1870
 2745SOL    HW119868   1.423   2.982  17.264 -0.1213  0.8187  1.3239
 2745SOL    HW219869   1.319   3.076  17.248  1.5452 -0.7025  2.2347
 2746SOL     OW19870   2.969   2.874   9.359 -0.0269  0.0789 -0.4146
 2746SOL    HW119871   2.875   2.881   9.379 -0.1497  2.6609 -1.8109
 2746SOL    HW219872   2.964   2.834   9.273  2.4974  2.5609 -1.7304
 2747SOL     OW19873   2.564   2.532   0.316  0.0635  0.0002  0.1392
 2747SOL    HW119874   2.600   2.581   0.390  0.4712  0.7473 -0.5580
 2747SOL    HW219875   2.587   2.597   0.250 -2.7921 -0.0770 -0.9410
 2748SOL     OW19876   0.501   0.204   2.014 -0.3362  0.3581 -0.0926
 2748SOL    HW119877   0.583   0.253   2.015 -0.0147 -0.1746 -0.1557
 2748SOL    HW219878   0.443   0.275   1.988  2.2499  1.8916 -1.6408
 2749SOL     OW19879   4.274   3.898   4.133 -0.0022  0.1119 -0.3912
 2749SOL    HW119880   4.215   3.877   4.061 -0.3645  2.5358 -0.8034
 2749SOL    HW219881   4.223   3.959   4.187 -0.5253 -1.1435  0.5627
 2750SOL     OW19882   3.695   0.669  13.888  0.4006 -0.5130  0.2246
 2750SOL    HW119883   3.693   0.690  13.981  0.7613 -0.6865  0.2721
 2750SOL    HW219884   3.684   0.574  13.893 -2.5909 -0.2718 -1.4941
 2751SOL     OW19885   2.309   1.078   5.242 -0.7252  0.3750 -0.3913
 2751SOL    HW119886   2.227   1.117   5.213 -1.0393 -0.4661 -0.6526
 2751SOL    HW219887   2.278   0.988   5.249  0.0688  0.0770 -0.6690
 2752SOL     OW19888   1.589   2.271  16.952 -0.6264 -0.4946  0.5180
 2752SOL    HW119889   1.606   2.242  17.042  0.9363 -1.5302 -0.1168
 2752SOL    HW219890   1.583   2.367  16.958  1.9411 -0.2955 -0.0159
 2753SOL     OW19891   3.781   1.291   4.059  0.0162  0.4916  0.1257
 2753SOL    HW119892   3.695   1.303   4.019 -0.5027 -0.4124  0.9734
 2753SOL    HW219893   3.757   1.280   4.151  3.8500  0.4708  1.1241
 2754SOL     OW19894   0.208   3.473  12.210  0.1852  0.1530 -0.0631
 2754SOL    HW119895   0.289   3.512  12.241  0.4204 -1.9045  1.9219
 2754SOL    HW219896   0.208   3.491  12.116  1.2589 -2.3209 -0.5476
 2755SOL     OW19897   3.596   3.507   9.014  0.0988 -0.1501 -0.0386
 2755SOL    HW119898   3.579   3.414   8.998  1.1117 -0.0361 -1.6665
 2755SOL    HW219899   3.538   3.550   8.951 -0.3164  1.0642  1.1561
 2756SOL     OW19900   3.622   3.530  14.321 -0.3722 -0.0057  0.0911
 2756SOL    HW119901   3.678   3.606  14.336  0.5988 -0.5253 -0.8998
 2756SOL    HW219902   3.649   3.488  14.239 -0.2765  1.2705 -0.5367
 2757SOL     OW19903   3.973   0.347   7.709 -0.0860  0.2951  0.7861
 2757SOL    HW119904   3.971   0.322   7.801  0.9524 -0.2248  0.6738
 2757SOL    HW219905   3.893   0.399   7.702 -0.0696  0.0152 -1.5725
 2758SOL     OW19906   2.267   0.301   2.926 -0.3938 -0.0902 -0.3300
 2758SOL    HW119907   2.334   0.234   2.916 -0.8629 -1.2839  4.7646
 2758SOL    HW219908   2.322   0.375   2.951  0.8514 -0.6539 -1.4206
 2759SOL     OW19909   3.027   3.235   8.416 -0.5433 -0.2894 -0.0607
 2759SOL    HW119910   3.031   3.301   8.486  2.1733  0.5590 -1.0179
 2759SOL    HW219911   3.067   3.160   8.460 -1.5820  0.4322  2.1502
 2760SOL     OW19912   2.302   3.355  15.403 -0.0070  0.4624 -0.2050
 2760SOL    HW119913   2.272   3.443  15.380  1.5250  0.7141 -1.2461
 2760SOL    HW219914   2.372   3.347  15.338 -0.8644  0.1098 -1.0936
 2761SOL     OW19915   0.750   0.429  14.445  0.0987  0.2969 -0.1659
 2761SOL    HW119916   0.841   0.411  14.466 -0.1148  0.3011  0.7840
 2761SOL    HW219917   0.762   0.459  14.355  1.3204 -1.5734 -0.6192
 2762SOL     OW19918   1.012   4.494  15.053  0.0902  0.0660 -0.0523
 2762SOL    HW119919   1.037   4.581  15.023 -2.1760  1.4234  1.9243
 2762SOL    HW219920   1.014   4.498  15.149  0.5014  1.1262 -0.1057
 2763SOL     OW19921   0.673   1.271   7.588 -1.0986 -0.5385  0.6899
 2763SOL    HW119922   0.597   1.215   7.569 -0.4754 -1.5252  1.1267
 2763SOL    HW219923   0.674   1.269   7.683 -0.8058  0.1222  0.7012
 2764SOL     OW19924   4.323   1.852   3.601  0.3167 -0.3579  0.5520
 2764SOL    HW119925   4.340   1.928   3.546 -2.1150 -0.8699 -0.8684
 2764SOL    HW219926   4.242   1.816   3.566 -0.0420  1.0106 -0.0120
 2765SOL     OW19927   2.635   3.816   5.294 -0.0741 -0.1580 -0.1305
 2765SOL    HW119928   2.563   3.784   5.239 -0.8897  1.9719 -0.2914
 2765SOL    HW219929   2.699   3.838   5.226  0.0615  3.1371  1.0665
 2766SOL     OW19930   2.148   2.855   7.911  0.0614 -0.5873  0.0953
 2766SOL    HW119931   2.142   2.782   7.848 -0.9914  0.1930 -0.6951
 2766SOL    HW219932   2.241   2.846   7.934  0.1049 -0.1727  0.0813
 2767SOL     OW19933   4.378   0.061   5.404  0.0817 -0.6166  0.3890
 2767SOL    HW119934   4.402   0.147   5.370 -1.6059 -1.0776 -1.9444
 2767SOL    HW219935   4.372   0.001   5.330  0.6672  0.3406 -0.4245
 2768SOL     OW19936   0.132   4.644  17.665 -0.5219  0.6370  0.0272
 2768SOL    HW119937   0.140   4.585   0.002  0.3703  1.5186  0.6272
 2768SOL    HW219938   0.049   4.625  17.621 -0.6343 -1.2612  1.0918
 2769SOL     OW19939   2.679   0.202   4.280 -0.2837  0.6733 -0.5210
 2769SOL    HW119940   2.619   0.276   4.277 -1.3365 -0.1338  1.1922
 2769SOL    HW219941   2.633   0.138   4.226  0.5783 -0.4947  0.1346
 2770SOL     OW19942   3.781   1.456  16.488 -0.0614  0.2828 -0.4249
 2770SOL    HW119943   3.743   1.422  16.407  0.1297  0.9569 -0.7948
 2770SOL    HW219944   3.792   1.545  16.454  1.6077  0.8269  1.5086
 2771SOL     OW19945   3.025   0.405   7.773  0.4416 -0.1038  0.5535
 2771SOL    HW119946   3.083   0.444   7.838  0.4165  1.0700 -0.1273
 2771SOL    HW219947   3.005   0.481   7.719  1.1392  0.4591  1.1020
 2772SOL     OW19948   2.697   2.252   2.704  0.1968 -0.0307 -0.1792
 2772SOL    HW119949   2.768   2.302   2.665 -2.1550  2.8416 -0.7647
 2772SOL    HW219950   2.656   2.218   2.624 -1.8647  2.0028  0.0155
 2773SOL     OW19951   2.154   2.167  12.641 -0.5735 -0.1166 -0.4677
 2773SOL    HW119952   2.151   2.167  12.545 -1.3034 -1.2064 -0.4481
 2773SOL    HW219953   2.065   2.149  12.671 -0.5211 -0.4398 -0.4973
 2774SOL     OW19954   0.383   3.362   9.710  0.1505  0.0189  0.2331
 2774SOL    HW119955   0.443   3.290   9.691  0.4227  0.2149  0.3522
 2774SOL    HW219956   0.356   3.372   9.619  1.6005 -0.1934 -0.2164
 2775SOL     OW19957   2.229   2.552   5.744  0.8162  0.1213  0.2613
 2775SOL    HW119958   2.248   2.597   5.826  0.6395 -1.3733  1.1286
 2775SOL    HW219959   2.317   2.525   5.716  0.0025 -2.4928  0.1912
 2776SOL     OW19960   1.423   0.941   7.942 -0.5541 -1.0936  0.2754
 2776SOL    HW119961   1.508   0.941   7.985  0.0374 -3.9500 -0.8868
 2776SOL    HW219962   1.410   1.034   7.922  1.2914 -1.4070 -2.3535
 2777SOL     OW19963   3.781   1.475   3.422  0.0493  0.0106 -0.2148
 2777SOL    HW119964   3.867   1.465   3.381 -0.5175 -2.1991 -0.8636
 2777SOL    HW219965   3.796   1.481   3.517  0.0841  2.1186 -0.3593
 2778SOL     OW19966   3.212   4.552   1.617  0.4491 -0.8370  0.3262
 2778SOL    HW119967   3.127   4.596   1.611  1.5028  0.9775 -1.5922
 2778SOL    HW219968   3.261   4.633   1.630 -0.6596  0.1770 -1.8411
 2779SOL     OW19969   0.459   0.868   7.212  0.1097 -0.1554  0.3156
 2779SOL    HW119970   0.393   0.925   7.251  2.2836  1.7977  1.1124
 2779SOL    HW219971   0.438   0.799   7.275 -0.5650 -0.4076 -0.1791
 2780SOL     OW19972   3.195   2.743   2.790 -0.5590 -0.0568 -0.2412
 2780SOL    HW119973   3.287   2.764   2.802 -0.1579 -1.0746 -1.6303
 2780SOL    HW219974   3.162   2.695   2.867 -0.5032  2.2314  1.1985
 2781SOL     OW19975   3.562   0.137   5.366 -0.1287 -0.5738 -0.0217
 2781SOL    HW119976   3.646   0.101   5.337  0.4168 -0.8066  1.8515
 2781SOL    HW219977   3.589   0.174   5.450 -2.8668  0.4422  0.4041
 2782SOL     OW19978   4.087   2.032   7.316 -0.0143  0.2781  0.1350
 2782SOL    HW119979   4.157   2.090   7.285  0.1560  1.1217  2.1075
 2782SOL    HW219980   4.124   2.027   7.404  2.0629 -0.0241 -0.7566
 2783SOL     OW19981   0.653   1.857  10.844  0.1682 -0.1327 -0.1240
 2783SOL    HW119982   0.627   1.865  10.936  3.0678  1.0883  0.6029
 2783SOL    HW219983   0.735   1.904  10.858  0.1207  0.3139 -1.3206
 2784SOL     OW19984   3.076   0.858  15.923  0.1732 -0.1612 -0.0437
 2784SOL    HW119985   3.107   0.788  15.981 -0.2289  0.1283  0.5218
 2784SOL    HW219986   2.997   0.822  15.884  0.2531  0.2136 -0.5558
 2785SOL     OW19987   3.493   0.640   4.088  0.0236  0.0756  0.2963
 2785SOL    HW119988   3.437   0.584   4.034 -1.6729 -1.1574  3.3234
 2785SOL    HW219989   3.449   0.623   4.172  1.8062  0.2297  1.2470
 2786SOL     OW19990   2.711   2.414   8.255  0.7417  0.3112 -0.3198
 2786SOL    HW119991   2.786   2.444   8.307  0.7821  0.7783 -0.6560
 2786SOL    HW219992   2.726   2.451   8.168  2.6445 -1.9479 -0.9768
 2787SOL     OW19993   3.556   3.992   3.040 -0.6012  0.0124  0.1525
 2787SOL    HW119994   3.651   3.978   3.036 -0.7616 -0.9927 -0.4170
 2787SOL    HW219995   3.525   3.905   3.012 -1.6933  0.1890  0.8270
 2788SOL     OW19996   3.614   4.571   6.702  0.0802  0.6180  0.2130
 2788SOL    HW119997   3.625   4.654   6.747 -2.6333  0.0775  1.8964
 2788SOL    HW219998   3.650   4.515   6.771 -0.6299  1.0096  0.8978
 2789SOL     OW19999   0.196   2.983  13.463 -0.7800  0.3477 -0.8976
 2789SOL    HW120000   0.216   2.999  13.371  0.3878 -0.7262 -0.8136
 2789SOL    HW220001   0.127   2.917  13.456 -0.1767 -0.3697 -0.0184
 2790SOL     OW20002   3.878   0.615   3.837 -0.2161  0.1140 -0.6583
 2790SOL    HW120003   3.817   0.626   3.910  2.9059 -1.3788  2.1693
 2790SOL    HW220004   3.847   0.678   3.771  0.4841  1.1601  0.0172
 2791SOL     OW20005   2.153   2.032   9.575  0.0124  0.1289 -0.5519
 2791SOL    HW120006   2.220   2.064   9.515 -1.6831 -0.7868 -2.9008
 2791SOL    HW220007   2.087   2.032   9.506 -0.2844 -2.2013 -0.2759
 2792SOL     OW20008   1.916   0.999   8.186 -0.1205 -0.0282  0.4329
 2792SOL    HW120009   1.958   1.080   8.216 -0.1083  0.0485  0.2078
 2792SOL    HW220010   1.975   0.930   8.216 -1.5731 -1.1771  0.6279
 2793SOL     OW20011   0.741   1.343   2.943 -0.3462 -0.0446  0.2511
 2793SOL    HW120012   0.652   1.333   2.911 -0.5747 -0.5917  1.0556
 2793SOL    HW220013   0.759   1.430   2.908 -0.0644 -1.2376 -2.5645
 2794SOL     OW20014   0.783   1.806   4.754  0.8879  0.2135 -0.0008
 2794SOL    HW120015   0.777   1.714   4.728  2.9521 -0.2238  1.0083
 2794SOL    HW220016   0.700   1.849   4.735 -0.1425 -2.2118 -1.0373
 2795SOL     OW20017   4.611   4.020  11.208 -0.0276 -0.2093 -0.2467
 2795SOL    HW120018   4.579   4.086  11.147  1.1098  0.3502 -0.2264
 2795SOL    HW220019   4.546   3.951  11.197  0.3151 -0.9382  2.2696
 2796SOL     OW20020   3.185   0.792  11.334  0.1886  0.6063  0.0934
 2796SOL    HW120021   3.186   0.816  11.427 -2.0215  1.4601 -0.1119
 2796SOL    HW220022   3.258   0.845  11.303  0.2402  0.2493 -0.3767
 2797SOL     OW20023   4.042   1.805   4.177  0.5212  0.1190 -0.1774
 2797SOL    HW120024   4.126   1.766   4.152  0.4815  0.6788 -1.1863
 2797SOL    HW220025   4.059   1.898   4.191  1.3967 -0.0200 -0.2770
 2798SOL     OW20026   1.758   1.025   4.565 -0.7429  0.4271 -0.5376
 2798SOL    HW120027   1.669   1.041   4.596 -1.2298 -2.0443 -0.6672
 2798SOL    HW220028   1.735   0.956   4.502 -0.7056 -0.1407  0.0822
 2799SOL     OW20029   4.143   4.016   1.854  0.2755 -0.3258 -0.3888
 2799SOL    HW120030   4.168   4.108   1.866 -0.8715  0.1381 -1.5399
 2799SOL    HW220031   4.069   4.028   1.795  1.1928  0.4043 -1.3785
 2800SOL     OW20032   2.347   0.354   0.293  0.5974  0.3257  0.5468
 2800SOL    HW120033   2.429   0.399   0.273  0.7954 -0.0863  0.4302
 2800SOL    HW220034   2.288   0.403   0.236  0.9035 -1.0145 -0.8996
 2801SOL     OW20035   0.633   0.662   8.323 -0.0401 -0.6300  0.6040
 2801SOL    HW120036   0.643   0.618   8.407  0.0583 -2.0699 -0.1544
 2801SOL    HW220037   0.595   0.590   8.272 -2.0411  0.2383  0.8927
 2802SOL     OW20038   0.242   4.091   8.769 -0.1536  0.1041 -0.0775
 2802SOL    HW120039   0.249   4.181   8.736  0.4315  0.9316  2.2640
 2802SOL    HW220040   0.284   4.043   8.698  0.9741 -1.2171  1.4922
 2803SOL     OW20041   3.329   2.346   2.316 -0.0087  0.2600  0.2481
 2803SOL    HW120042   3.243   2.309   2.335  0.4412 -0.4749  0.8913
 2803SOL    HW220043   3.302   2.433   2.289 -1.7354 -0.9362 -1.9129
 2804SOL     OW20044   1.829   3.904   8.089  0.0720  0.1249 -0.5356
 2804SOL    HW120045   1.892   3.833   8.099 -1.2041 -0.8881  0.4577
 2804SOL    HW220046   1.835   3.956   8.170  1.0122 -1.1032  0.1857
 2805SOL     OW20047   1.993   3.850   5.574  0.1791 -0.6191 -0.0042
 2805SOL    HW120048   2.042   3.930   5.552 -1.6913 -0.3931 -3.3786
 2805SOL    HW220049   1.901   3.874   5.577  0.3049 -0.0968 -0.3627
 2806SOL     OW20050   3.440   1.255   3.553 -0.0602  0.5219 -0.1854
 2806SOL    HW120051   3.380   1.202   3.500  2.1006 -0.0524 -2.0930
 2806SOL    HW220052   3.515   1.278   3.498  0.4328 -0.3168  0.1410
 2807SOL     OW20053   1.528   2.707   4.671  0.0613  0.2427  0.8953
 2807SOL    HW120054   1.617   2.698   4.707  0.7853  3.4185 -0.0931
 2807SOL    HW220055   1.518   2.801   4.687  2.2771  0.8037 -1.0611
 2808SOL     OW20056   1.706   1.130   3.139 -0.0950 -0.3313  0.5081
 2808SOL    HW120057   1.735   1.172   3.058 -0.9806  0.1377  0.4280
 2808SOL    HW220058   1.735   1.196   3.201 -0.5740  1.0428 -0.7229
 2809SOL     OW20059   4.021   0.246   4.728 -0.3412  0.4557 -0.1364
 2809SOL    HW120060   4.038   0.311   4.660 -1.5983 -0.2213 -1.1011
 2809SOL    HW220061   3.938   0.287   4.753 -0.6536  0.3933 -1.0832
 2810SOL     OW20062   1.985   0.211   2.522  0.2866 -0.1843 -0.2802
 2810SOL    HW120063   2.036   0.251   2.593  2.9407 -0.6427 -1.9205
 2810SOL    HW220064   1.903   0.205   2.571  0.3526  0.1520 -0.1245
 2811SOL     OW20065   4.444   3.374   6.100  0.1666  0.3725  0.3569
 2811SOL    HW120066   4.375   3.421   6.147  0.1961 -0.3143  1.1012
 2811SOL    HW220067   4.454   3.296   6.155  0.3640  2.2072  2.9527
 2812SOL     OW20068   3.147   4.370   7.376 -0.1239 -0.1817 -0.1930
 2812SOL    HW120069   3.148   4.274   7.368 -0.3832 -0.0737 -1.5619
 2812SOL    HW220070   3.209   4.386   7.304 -0.0164 -0.6376 -0.2030
 2813SOL     OW20071   2.088   1.531   1.986 -0.8698  0.4015 -0.1550
 2813SOL    HW120072   2.126   1.487   2.062 -1.2162 -2.1045 -1.4264
 2813SOL    HW220073   2.125   1.472   1.921  2.5340  2.4724 -0.0682
 2814SOL     OW20074   3.233   0.847   0.368  0.7829  0.0083  0.1322
 2814SOL    HW120075   3.290   0.916   0.402 -0.1771  1.7110 -1.7477
 2814SOL    HW220076   3.269   0.819   0.284 -0.3872 -1.7461  0.1940
 2815SOL     OW20077   2.913   0.333   4.374 -0.6006 -0.2008  0.6743
 2815SOL    HW120078   2.962   0.331   4.291  0.4696  0.3667  1.2927
 2815SOL    HW220079   2.825   0.314   4.343 -0.6156  0.7617  0.1111
 2816SOL     OW20080   1.577   1.251   4.461  0.0994  0.2643 -0.4568
 2816SOL    HW120081   1.515   1.232   4.391  1.6327 -0.9091 -1.4954
 2816SOL    HW220082   1.542   1.201   4.535  2.8115 -1.1639 -0.1207
 2817SOL     OW20083   2.113   4.696  14.588 -0.2115  0.0430 -0.4454
 2817SOL    HW120084   2.027   4.729  14.615  0.7889  0.9091  1.7232
 2817SOL    HW220085   2.128   4.612  14.631 -0.3687 -0.3041 -1.0682
 2818SOL     OW20086   0.015   3.778   6.093 -0.3201  0.1476 -0.0070
 2818SOL    HW120087   0.062   3.778   6.009 -1.2872 -1.5508 -0.5441
 2818SOL    HW220088   4.680   3.721   6.061  1.6780 -0.9676 -2.3877
 2819SOL     OW20089   1.668   3.767   6.145  0.1962  0.4580  0.6822
 2819SOL    HW120090   1.672   3.694   6.206  2.4581 -1.5051 -1.7881
 2819SOL    HW220091   1.573   3.779   6.142  0.2997  0.9584 -0.4954
 2820SOL     OW20092   1.819   4.272   7.771 -0.1097  0.0182  0.0699
 2820SOL    HW120093   1.850   4.181   7.778  1.0881  0.3858 -0.3362
 2820SOL    HW220094   1.889   4.321   7.814  2.5324 -1.6995 -2.2498
 2821SOL     OW20095   2.985   2.091   2.506  0.3789 -0.3551 -0.1101
 2821SOL    HW120096   2.907   2.113   2.557  0.1441 -1.7939  0.1706
 2821SOL    HW220097   2.980   1.995   2.500 -2.3806 -0.3742  2.2549
 2822SOL     OW20098   3.744   0.497   1.984  0.0450  0.8250 -0.3885
 2822SOL    HW120099   3.661   0.449   1.976  0.2604  0.7217 -2.1029
 2822SOL    HW220100   3.702   0.583   1.990  1.2609  1.2231  2.3169
 2823SOL     OW20101   2.064   0.623   4.705  0.5775  0.0241 -0.0203
 2823SOL    HW120102   2.101   0.574   4.778  1.2745  0.6398  0.0420
 2823SOL    HW220103   1.976   0.627   4.742  1.5411  3.2754  1.9018
 2824SOL     OW20104   3.152   3.487  10.462  0.0424  0.4286 -0.5998
 2824SOL    HW120105   3.155   3.538  10.544  0.0311 -0.5662  0.0242
 2824SOL    HW220106   3.059   3.478  10.444 -0.2082  1.6228  0.0599
 2825SOL     OW20107   2.046   4.594   5.973 -0.3437 -0.1252  0.1087
 2825SOL    HW120108   1.975   4.552   6.021  1.3011 -0.8861  1.8740
 2825SOL    HW220109   1.999   4.648   5.909  0.4365  1.0401  0.5257
 2826SOL     OW20110   3.521   1.309   7.718 -0.4136  0.4609 -0.2252
 2826SOL    HW120111   3.505   1.403   7.712  0.4246  0.6109 -0.0898
 2826SOL    HW220112   3.474   1.284   7.797 -1.8157  0.4484 -1.0585
 2827SOL     OW20113   2.593   0.973  15.128  0.1146  0.2834  0.3785
 2827SOL    HW120114   2.688   0.960  15.135 -0.3246 -2.5902  0.8265
 2827SOL    HW220115   2.554   0.905  15.072  0.1413  0.0540  0.6380
 2828SOL     OW20116   3.302   3.794   7.584  0.1830 -0.6692  0.1421
 2828SOL    HW120117   3.343   3.763   7.504  0.1851  0.5461 -0.3335
 2828SOL    HW220118   3.373   3.782   7.646  0.8129  0.1763 -0.4074
 2829SOL     OW20119   3.312   2.221   6.249 -0.1557  0.3942 -0.1861
 2829SOL    HW120120   3.329   2.127   6.253  0.7079  0.5086 -1.2509
 2829SOL    HW220121   3.299   2.234   6.343  2.4091 -1.3059  0.4015
 2830SOL     OW20122   2.640   2.905   2.136  0.2562 -0.1622 -0.1016
 2830SOL    HW120123   2.699   2.981   2.135 -0.4231  0.3484 -2.5588
 2830SOL    HW220124   2.599   2.927   2.220  0.5320  2.8991 -0.7522
 2831SOL     OW20125   0.081   0.300  16.943 -0.3899  0.3406 -0.4646
 2831SOL    HW120126   0.168   0.287  16.982 -0.1006 -1.7589 -1.7565
 2831SOL    HW220127   0.020   0.291  17.016  0.7026 -0.7949  0.3046
 2832SOL     OW20128   2.282   0.157   7.066  0.6531 -0.3857 -0.1167
 2832SOL    HW120129   2.205   0.203   7.034  0.9196 -0.6124 -1.0729
 2832SOL    HW220130   2.248   0.133   7.152  3.0290  1.5019  1.3716
 2833SOL     OW20131   3.626   1.962   8.246  0.6900 -0.3173 -0.4154
 2833SOL    HW120132   3.706   1.931   8.286  1.2117  2.5109  0.6912
 2833SOL    HW220133   3.596   2.024   8.313  1.5963 -3.1990  2.6303
 2834SOL     OW20134   1.635   2.839   6.372  0.2677  0.1160 -0.2516
 2834SOL    HW120135   1.556   2.811   6.420 -0.0772  0.3365 -0.6930
 2834SOL    HW220136   1.613   2.824   6.280 -0.1444  1.3816 -0.3642
 2835SOL     OW20137   0.763   4.334   3.894 -0.0245 -0.1393  0.0005
 2835SOL    HW120138   0.669   4.354   3.901 -0.0911  0.2980 -2.3764
 2835SOL    HW220139   0.775   4.291   3.979 -1.3530  0.5500  0.5321
 2836SOL     OW20140   2.247   0.204   4.752  0.0961 -0.5007 -0.3682
 2836SOL    HW120141   2.170   0.151   4.733 -1.0362  1.0406 -0.0787
 2836SOL    HW220142   2.311   0.133   4.749 -2.1380 -2.3328 -4.2402
 2837SOL     OW20143   0.441   3.574   4.767  0.0056 -0.5086  0.7947
 2837SOL    HW120144   0.520   3.521   4.753  0.8109  0.8832  0.0600
 2837SOL    HW220145   0.441   3.568   4.863 -0.5968 -1.5391  0.7272
 2838SOL     OW20146   4.368   4.037   1.666 -0.8781 -0.2844 -0.6012
 2838SOL    HW120147   4.347   4.044   1.759 -0.2477 -0.9678 -0.4032
 2838SOL    HW220148   4.334   3.950   1.646  0.1878 -0.6839 -0.6764
 2839SOL     OW20149   3.974   0.726   2.327  0.0812  0.4780  0.4188
 2839SOL    HW120150   3.936   0.723   2.415 -1.2123  1.3596 -0.0932
 2839SOL    HW220151   3.930   0.650   2.290  0.2885  1.1744 -1.2521
 2840SOL     OW20152   1.331   3.360   7.040  0.0952 -0.0315  0.4537
 2840SOL    HW120153   1.244   3.383   7.072 -0.6121 -0.9966 -0.8199
 2840SOL    HW220154   1.361   3.449   7.021  0.4518  0.0375  1.3497
 2841SOL     OW20155   3.584   2.218   8.836  0.0556 -0.1267 -0.3208
 2841SOL    HW120156   3.531   2.170   8.772  1.3193 -1.0153 -0.6942
 2841SOL    HW220157   3.577   2.161   8.913 -0.0317  1.5029  0.8557
 2842SOL     OW20158   1.389   1.781   3.041 -0.0645 -0.3575  0.0101
 2842SOL    HW120159   1.357   1.729   2.968  1.1401 -0.1462 -0.6827
 2842SOL    HW220160   1.308   1.827   3.063  0.4892  0.7762 -0.2625
 2843SOL     OW20161   3.946   1.775   1.959  0.5564 -0.1850  0.4301
 2843SOL    HW120162   3.997   1.695   1.967 -0.2244 -0.7510 -0.2013
 2843SOL    HW220163   3.981   1.831   2.028 -1.7330 -0.3339  1.7113
 2844SOL     OW20164   3.918   1.140  12.190 -0.0397  0.1735 -0.1683
 2844SOL    HW120165   4.010   1.168  12.196  0.3658 -1.4518  1.1319
 2844SOL    HW220166   3.878   1.215  12.145 -0.9249 -0.9777 -1.2809
 2845SOL     OW20167   3.094   1.608   0.113 -0.5193 -0.0720  0.2618
 2845SOL    HW120168   3.064   1.622   0.023  0.7936  0.0763 -0.1584
 2845SOL    HW220169   3.087   1.512   0.111 -1.1969 -0.0038 -0.6865
 2846SOL     OW20170   2.231   1.515   9.608 -0.8661 -0.2348  0.5636
 2846SOL    HW120171   2.202   1.604   9.625  1.7818  0.5056  1.2463
 2846SOL    HW220172   2.210   1.499   9.516  2.6472 -0.7693 -0.1463
 2847SOL     OW20173   2.805   3.034   9.725  0.7296 -0.6900  0.4160
 2847SOL    HW120174   2.805   3.048   9.820  1.0956  0.3570  0.2608
 2847SOL    HW220175   2.801   2.939   9.724  4.4912 -0.8387 -0.5665
 2848SOL     OW20176   3.561   3.794   2.576  0.1419 -0.3845  0.7817
 2848SOL    HW120177   3.625   3.832   2.636 -0.1372 -0.5734  1.2025
 2848SOL    HW220178   3.624   3.759   2.513 -1.8693 -3.0899  0.2491
 2849SOL     OW20179   1.057   2.848   6.278  0.1512  0.2529  0.1593
 2849SOL    HW120180   1.038   2.941   6.286 -0.2877  0.0734  1.2385
 2849SOL    HW220181   1.001   2.811   6.209 -0.8203  0.9163  0.5946
 2850SOL     OW20182   4.125   1.024   1.731  0.0850 -0.1354  0.2293
 2850SOL    HW120183   4.133   0.967   1.654  0.0863 -0.8706  0.7684
 2850SOL    HW220184   4.081   1.101   1.695 -0.0350  0.2312  1.1714
 2851SOL     OW20185   2.706   0.044  16.807 -0.3797 -0.3570 -0.1944
 2851SOL    HW120186   2.626   0.062  16.855  0.7437  4.0304 -0.0088
 2851SOL    HW220187   2.685   4.694  16.767  2.6485 -1.4907  0.6135
 2852SOL     OW20188   0.054   0.973  14.267  0.6692 -0.1329  0.2288
 2852SOL    HW120189   0.144   0.975  14.299  1.6567  0.8688 -2.5639
 2852SOL    HW220190   0.069   0.914  14.192 -0.1765  0.2626 -0.2485
 2853SOL     OW20191   0.750   2.671   5.357  0.4099  0.9241  0.0312
 2853SOL    HW120192   0.747   2.631   5.270 -0.7031 -1.5199  1.2082
 2853SOL    HW220193   0.843   2.691   5.366  0.6796  0.1009 -0.9451
 2854SOL     OW20194   2.250   0.047  14.996  0.3220 -0.2277 -0.0503
 2854SOL    HW120195   2.293   4.697  15.005  1.2765  0.1735 -0.7949
 2854SOL    HW220196   2.256   0.084  15.084  2.5720  0.0189 -0.3016
 2855SOL     OW20197   2.871   2.083   5.921  0.4946 -0.3160  0.2638
 2855SOL    HW120198   2.921   2.022   5.867 -0.4522  0.6299 -1.6862
 2855SOL    HW220199   2.797   2.029   5.948  0.5444 -0.5779 -0.1301
 2856SOL     OW20200   4.113   0.484   5.271  0.6565  0.3596 -0.1754
 2856SOL    HW120201   4.149   0.570   5.295 -0.3797  0.8309 -0.3473
 2856SOL    HW220202   4.160   0.429   5.334  0.3155 -0.5194 -0.6996
 2857SOL     OW20203   3.618   3.164   2.847 -0.1755 -0.0720  0.7477
 2857SOL    HW120204   3.699   3.181   2.800 -1.6769 -0.3468 -1.9633
 2857SOL    HW220205   3.652   3.126   2.928  0.2534 -1.3502 -0.0393
 2858SOL     OW20206   2.474   1.483   5.885  0.3624 -0.0948  0.6051
 2858SOL    HW120207   2.505   1.435   5.962 -2.0112 -0.8873  1.0804
 2858SOL    HW220208   2.547   1.544   5.880  1.0036 -1.0443 -1.4349
 2859SOL     OW20209   4.700   0.162   3.622  0.2936  0.1586  0.1380
 2859SOL    HW120210   0.053   0.142   3.588  0.1838 -1.3723  0.7749
 2859SOL    HW220211   4.702   0.256   3.638 -0.2970 -0.1408  1.9480
 2860SOL     OW20212   2.122   1.899  12.364  0.2929 -0.1430 -0.3763
 2860SOL    HW120213   2.060   1.828  12.380  0.0590  0.4999  1.5379
 2860SOL    HW220214   2.194   1.854  12.321  0.3982 -1.7628  1.5280
 2861SOL     OW20215   4.385   4.290   5.780  0.2919  0.1477 -0.0935
 2861SOL    HW120216   4.453   4.234   5.743  0.8623  1.9754 -1.8190
 2861SOL    HW220217   4.315   4.269   5.718 -0.4340 -0.5591  0.9614
 2862SOL     OW20218   1.672   2.195   2.015  0.1089 -0.4772  0.0566
 2862SOL    HW120219   1.692   2.267   1.956  0.7085  1.0487  2.1366
 2862SOL    HW220220   1.663   2.231   2.103 -2.6547  0.2512 -0.5060
 2863SOL     OW20221   1.952   1.841   6.041  0.1508  0.0819 -0.3081
 2863SOL    HW120222   2.039   1.832   6.081  0.3383  0.3381 -0.6512
 2863SOL    HW220223   1.975   1.812   5.952 -2.3330 -0.5272 -0.7410
 2864SOL     OW20224   1.718   4.640   6.591  0.4697 -0.1530  0.6224
 2864SOL    HW120225   1.654   4.653   6.661  0.3464 -1.8129  0.7999
 2864SOL    HW220226   1.786   4.599   6.644  1.3259  2.6231  1.6589
 2865SOL     OW20227   1.656   2.772   2.991 -0.3632  0.1640 -0.4010
 2865SOL    HW120228   1.567   2.796   2.965 -0.5342  0.5458  0.5513
 2865SOL    HW220229   1.685   2.847   3.043  1.9474 -1.9318  1.3308
 2866SOL     OW20230   1.267   2.666   6.285  0.1234  0.1648  0.5284
 2866SOL    HW120231   1.215   2.746   6.286  0.9615  0.7140  0.5515
 2866SOL    HW220232   1.340   2.695   6.339  0.6044  1.3853 -0.7725
 2867SOL     OW20233   1.210   4.146  17.636  0.2105  0.0263  0.5075
 2867SOL    HW120234   1.220   4.240  17.650 -4.6971  0.2948  1.8692
 2867SOL    HW220235   1.291   4.128  17.587  0.4891 -0.3771  1.1165
 2868SOL     OW20236   0.947   1.023   1.146 -0.2817 -0.6484  0.8489
 2868SOL    HW120237   0.960   0.994   1.056  1.6991 -0.5032  1.1038
 2868SOL    HW220238   0.854   1.003   1.159 -1.2465  2.2561 -1.4446
 2869SOL     OW20239   2.725   4.728  12.019 -0.6805  0.5701 -0.5499
 2869SOL    HW120240   2.739   4.636  12.042 -0.2438  1.3860  2.4848
 2869SOL    HW220241   2.749   0.039  12.100 -0.4028 -0.0262 -0.2966
 2870SOL     OW20242   2.718   4.525   5.280 -0.0693  0.5342  0.4119
 2870SOL    HW120243   2.787   4.543   5.344  1.5632  1.3766 -1.5742
 2870SOL    HW220244   2.715   4.605   5.227  0.0660 -0.6139 -1.3065
 2871SOL     OW20245   1.976   0.806   2.888 -0.2496 -0.3212 -0.3828
 2871SOL    HW120246   1.997   0.724   2.842 -1.0718  0.1888 -1.6497
 2871SOL    HW220247   1.897   0.831   2.840 -0.6943 -0.8178  0.0828
 2872SOL     OW20248   2.328   1.511  17.591  0.0563  0.0574 -0.6033
 2872SOL    HW120249   2.387   1.523  17.666 -2.2874  1.0374  1.0684
 2872SOL    HW220250   2.383   1.534  17.516  1.1643 -0.3765  0.0710
 2873SOL     OW20251   2.582   1.080   4.800  0.1562 -0.0091  0.4135
 2873SOL    HW120252   2.575   1.175   4.790 -3.6865 -0.6785 -3.1693
 2873SOL    HW220253   2.569   1.064   4.894  1.1933 -4.6299 -0.2285
 2874SOL     OW20254   1.646   0.057   9.392 -0.3748 -0.4975 -0.3067
 2874SOL    HW120255   1.559   0.064   9.431  0.5704  0.3632  1.6705
 2874SOL    HW220256   1.706   0.082   9.462 -0.4137  0.1110 -0.4899
 2875SOL     OW20257   3.494   3.970  12.015 -0.5582  0.3040  0.2836
 2875SOL    HW120258   3.521   3.983  12.106 -4.2713  0.2393  1.4066
 2875SOL    HW220259   3.566   3.912  11.991  0.2447  1.6632 -0.6376
 2876SOL     OW20260   3.912   1.173   8.990 -0.5088  0.0327  0.3775
 2876SOL    HW120261   3.866   1.251   8.960 -2.4025 -1.3875 -0.4110
 2876SOL    HW220262   3.838   1.116   9.011 -0.1826  0.4642  2.7411
 2877SOL     OW20263   3.164   4.224   6.666 -0.1990  0.1575 -0.1507
 2877SOL    HW120264   3.200   4.181   6.744 -2.5838 -3.0567 -0.7956
 2877SOL    HW220265   3.120   4.300   6.703  0.2211  1.3320 -2.0427
 2878SOL     OW20266   2.618   2.485   7.239  0.2977 -0.3128  0.0536
 2878SOL    HW120267   2.561   2.548   7.195 -1.1558 -0.0472  2.3336
 2878SOL    HW220268   2.552   2.417   7.252 -2.7116  2.3987 -1.2876
 2879SOL     OW20269   0.193   3.270   2.398  0.8648 -0.6328 -0.6012
 2879SOL    HW120270   0.214   3.178   2.413  2.1555 -0.3449 -0.6269
 2879SOL    HW220271   0.124   3.273   2.464 -0.6082  2.2546 -2.2668
 2880SOL     OW20272   0.543   3.944   3.296 -0.0522 -0.4747 -0.0389
 2880SOL    HW120273   0.625   3.924   3.252 -0.5089 -1.0008 -0.6472
 2880SOL    HW220274   0.479   3.957   3.226 -0.8706 -4.1199  0.0365
 2881SOL     OW20275   1.771   2.925   7.899 -0.2373 -0.4185 -0.1098
 2881SOL    HW120276   1.783   3.006   7.948  0.2821  0.2454 -1.3305
 2881SOL    HW220277   1.760   2.854   7.962 -2.2900  0.2145  0.2596
 2882SOL     OW20278   2.856   1.701  14.578  0.2040  0.2456  0.5177
 2882SOL    HW120279   2.908   1.621  14.569 -1.0128 -0.2867 -1.8582
 2882SOL    HW220280   2.772   1.668  14.548  0.6186 -1.1114  0.8725
 2883SOL     OW20281   4.578   2.185  16.398 -0.1649  0.3820  0.5232
 2883SOL    HW120282   4.670   2.180  16.424 -0.0578  1.4370  0.3433
 2883SOL    HW220283   4.567   2.116  16.332  0.7697 -0.8099  1.6323
 2884SOL     OW20284   2.605   2.688   1.181  0.0284  0.6133  0.2076
 2884SOL    HW120285   2.656   2.693   1.100 -2.0715  1.6428 -1.0398
 2884SOL    HW220286   2.629   2.601   1.212 -0.0692  0.8535  0.9684
 2885SOL     OW20287   1.240   1.719   6.722 -0.0606 -0.5809 -0.5758
 2885SOL    HW120288   1.294   1.702   6.645 -1.7421  0.2903 -1.9383
 2885SOL    HW220289   1.179   1.646   6.706  1.4367 -2.5618  2.6137
 2886SOL     OW20290   4.211   0.545   8.750  0.1348 -0.1851 -0.0637
 2886SOL    HW120291   4.234   0.546   8.843  0.2420  4.7825 -0.1314
 2886SOL    HW220292   4.121   0.576   8.749 -0.3551 -1.6640 -1.4468
 2887SOL     OW20293   1.431   3.633  10.067 -0.2065  0.5528  0.7455
 2887SOL    HW120294   1.484   3.596  10.139 -1.1501  0.4715  1.3998
 2887SOL    HW220295   1.489   3.596  10.000 -0.4770  1.7386 -0.1218
 2888SOL     OW20296   4.300   4.482  11.565 -0.2293  0.4768 -0.2148
 2888SOL    HW120297   4.390   4.513  11.562  0.8956 -2.5801  1.9934
 2888SOL    HW220298   4.259   4.549  11.510 -0.3741  1.6882  1.3311
 2889SOL     OW20299   3.585   3.538   7.268 -0.6815 -0.4694 -0.0410
 2889SOL    HW120300   3.618   3.448   7.278  1.3574 -0.1675 -4.1968
 2889SOL    HW220301   3.601   3.542   7.174  0.5198 -1.1016  0.1296
 2890SOL     OW20302   2.018   1.440   4.077 -0.1785  0.0817  0.3518
 2890SOL    HW120303   2.051   1.422   3.989 -1.1330  1.4890 -0.2856
 2890SOL    HW220304   1.932   1.471   4.049 -0.2949  1.0577  1.8079
 2891SOL     OW20305   0.242   2.092   6.881 -0.0496  0.0020 -0.6632
 2891SOL    HW120306   0.192   2.059   6.807 -1.6428 -1.6674  1.1361
 2891SOL    HW220307   0.234   2.186   6.867 -0.2848  0.0714 -0.0741
 2892SOL     OW20308   2.549   1.826   8.638 -0.5375  0.0749  0.0192
 2892SOL    HW120309   2.584   1.889   8.702 -0.4464  2.6925 -2.5823
 2892SOL    HW220310   2.612   1.829   8.565 -0.8184 -1.7427 -0.2904
 2893SOL     OW20311   4.424   1.763   9.485 -0.0184  0.1748  0.0929
 2893SOL    HW120312   4.412   1.844   9.535  1.9013 -1.8186  3.8367
 2893SOL    HW220313   4.498   1.789   9.430  0.6225 -0.1351  0.8007
 2894SOL     OW20314   4.268   2.555   5.313  0.4159  0.1292  0.4382
 2894SOL    HW120315   4.303   2.547   5.402 -2.0111 -0.2545  1.3687
 2894SOL    HW220316   4.326   2.496   5.264  0.5325  0.6078  0.0111
 2895SOL     OW20317   4.449   1.417   2.158  0.3807  0.8904 -0.0980
 2895SOL    HW120318   4.444   1.473   2.081  0.2665  3.0225  1.4598
 2895SOL    HW220319   4.520   1.452   2.212 -0.4378  0.0678  1.5225
 2896SOL     OW20320   1.818   3.947   6.980  0.1677 -0.0174 -0.2456
 2896SOL    HW120321   1.814   3.852   6.980  1.0921 -0.0603 -1.3640
 2896SOL    HW220322   1.912   3.965   6.981  0.0681  0.4404  0.5070
 2897SOL     OW20323   1.531   3.575  13.132  0.3689  0.2209 -0.0086
 2897SOL    HW120324   1.524   3.649  13.192 -1.1601 -1.6398  2.1205
 2897SOL    HW220325   1.593   3.534  13.192  0.8300  0.0818 -0.5758
 2898SOL     OW20326   2.406   0.362   9.592 -0.0759 -0.5080 -0.6659
 2898SOL    HW120327   2.470   0.291   9.600  2.0767  1.4034 -0.9315
 2898SOL    HW220328   2.328   0.312   9.567 -0.1848 -1.6668  2.0110
 2899SOL     OW20329   3.498   4.373   7.378 -0.0560  0.0506 -0.3315
 2899SOL    HW120330   3.416   4.345   7.337 -0.0618 -1.9512  1.0412
 2899SOL    HW220331   3.560   4.382   7.306 -3.1392  0.8324 -2.8636
 2900SOL     OW20332   4.421   0.728   7.672 -0.3451 -0.0407  0.4165
 2900SOL    HW120333   4.509   0.764   7.665  0.3430 -2.0008 -0.9717
 2900SOL    HW220334   4.379   0.807   7.638  0.9032 -0.1606 -1.4176
 2901SOL     OW20335   0.504   1.790   6.155 -0.1994  0.2927 -0.0520
 2901SOL    HW120336   0.559   1.716   6.131  2.1370  1.2256  2.3895
 2901SOL    HW220337   0.443   1.743   6.212 -0.8668  1.1519 -0.0468
 2902SOL     OW20338   1.463   4.053   3.287 -0.0523  0.0079  0.2938
 2902SOL    HW120339   1.383   4.094   3.319  0.3751  0.8542  0.2832
 2902SOL    HW220340   1.459   3.958   3.301  1.9769 -0.2401 -0.8572
 2903SOL     OW20341   2.277   3.387   8.459 -0.0326  0.4387 -0.1361
 2903SOL    HW120342   2.296   3.480   8.447 -2.5881  0.7628 -1.5044
 2903SOL    HW220343   2.255   3.378   8.552 -0.7479 -1.2870 -0.4753
 2904SOL     OW20344   1.404   4.395   4.875  0.0899 -0.1971 -0.3269
 2904SOL    HW120345   1.463   4.323   4.856  1.1938  0.1904  1.6577
 2904SOL    HW220346   1.320   4.356   4.852  0.6893 -0.7973 -1.5048
 2905SOL     OW20347   3.934   1.462   0.893  0.5844 -0.2443 -0.0779
 2905SOL    HW120348   3.900   1.532   0.948  3.6738  2.4303 -1.6109
 2905SOL    HW220349   3.897   1.383   0.933  2.2019 -1.0067 -0.0732
 2906SOL     OW20350   2.559   1.572  10.615  0.2221  0.0584 -0.1309
 2906SOL    HW120351   2.562   1.666  10.634  3.8508 -0.3166  1.0841
 2906SOL    HW220352   2.463   1.570  10.613  0.2894 -2.9757 -0.5761
 2907SOL     OW20353   0.933   0.224  16.278  0.7602 -0.3715 -0.9316
 2907SOL    HW120354   0.854   0.242  16.227  0.2229 -0.4028 -0.1068
 2907SOL    HW220355   0.971   0.312  16.271  3.1106 -1.0042  3.6996
 2908SOL     OW20356   0.322   3.207   8.386 -0.2424  0.0073 -0.5318
 2908SOL    HW120357   0.241   3.182   8.430  0.5946 -1.2803  0.2822
 2908SOL    HW220358   0.328   3.298   8.415 -1.0547 -0.1867  0.2353
 2909SOL     OW20359   3.111   3.125   4.361  0.2165 -0.3199 -0.1152
 2909SOL    HW120360   3.123   3.098   4.453 -0.9569 -1.7786 -0.3820
 2909SOL    HW220361   3.016   3.127   4.368  0.0409 -0.2475 -2.8716
 2910SOL     OW20362   3.143   4.095   0.618  0.4832 -0.2567  0.2497
 2910SOL    HW120363   3.212   4.030   0.607  0.4183 -0.2146 -0.4134
 2910SOL    HW220364   3.119   4.106   0.526 -0.7579  2.7391  0.9117
 2911SOL     OW20365   4.245   3.048  13.940 -0.1295 -0.0223  0.2189
 2911SOL    HW120366   4.253   2.954  13.923 -1.0964 -0.0504 -0.1193
 2911SOL    HW220367   4.158   3.072  13.908  0.0151  1.7257  1.1193
 2912SOL     OW20368   3.552   1.805  13.421  0.2639  0.2577  0.4270
 2912SOL    HW120369   3.478   1.851  13.382 -0.2531  0.3642  1.5601
 2912SOL    HW220370   3.535   1.822  13.513  0.5289 -2.4382  0.9820
 2913SOL     OW20371   0.058   0.463   9.153  0.4631  0.0802  0.0180
 2913SOL    HW120372   4.717   0.458   9.094 -1.1864  4.3540  1.7642
 2913SOL    HW220373   0.086   0.371   9.149  1.1378  0.3725 -2.3600
 2914SOL     OW20374   0.910   0.326   7.119 -0.2559  0.0779  0.2596
 2914SOL    HW120375   0.948   0.313   7.206  0.8384 -1.3040 -0.4179
 2914SOL    HW220376   0.906   0.422   7.116  0.6977  0.1686  1.4212
 2915SOL     OW20377   1.777   0.395   8.165  0.3262  0.2146 -0.0409
 2915SOL    HW120378   1.864   0.418   8.197  1.1658 -2.6497 -0.2162
 2915SOL    HW220379   1.730   0.462   8.214 -2.7754 -0.7846 -1.6452
 2916SOL     OW20380   0.108   4.079   4.204  0.0087 -0.0488  0.1161
 2916SOL    HW120381   0.016   4.102   4.190  0.3674  0.9409 -0.5533
 2916SOL    HW220382   0.120   4.013   4.136  0.6846  0.8841 -0.6575
 2917SOL     OW20383   3.676   2.604   4.308 -0.0711 -0.5852 -0.6282
 2917SOL    HW120384   3.692   2.590   4.401 -2.5949 -0.2788 -0.1701
 2917SOL    HW220385   3.651   2.514   4.286 -2.3211  0.0954 -0.8539
 2918SOL     OW20386   2.980   2.964   5.245  0.0005 -0.3964 -0.7849
 2918SOL    HW120387   3.062   2.963   5.294 -1.8803 -0.1775  2.3101
 2918SOL    HW220388   2.925   2.981   5.321  0.3776 -1.7822 -0.2045
 2919SOL     OW20389   2.765   4.539  12.863  0.4940 -0.2083 -0.6749
 2919SOL    HW120390   2.796   4.512  12.776  0.3613 -1.3607 -0.3744
 2919SOL    HW220391   2.845   4.527  12.913 -0.5134 -0.0808  0.9602
 2920SOL     OW20392   4.353   1.154  13.748  0.0903 -0.2624 -0.4622
 2920SOL    HW120393   4.433   1.118  13.710  0.9010 -0.1500  1.1424
 2920SOL    HW220394   4.292   1.080  13.751 -0.5329  0.2236 -1.0145
 2921SOL     OW20395   3.522   1.077   2.291  0.0359 -0.2753  0.8121
 2921SOL    HW120396   3.574   1.004   2.255  0.8101  0.7257 -0.0995
 2921SOL    HW220397   3.492   1.124   2.214 -0.1503 -1.0177  0.4278
 2922SOL     OW20398   2.713   1.653   4.048  0.5361 -0.0285 -0.4830
 2922SOL    HW120399   2.782   1.631   3.985  1.2990 -0.9507  0.6877
 2922SOL    HW220400   2.683   1.562   4.058 -0.6740  0.5072  0.6572
 2923SOL     OW20401   1.763   1.515   3.994 -0.2801 -0.3171  0.1525
 2923SOL    HW120402   1.682   1.527   3.943  0.5127  1.6957 -0.6224
 2923SOL    HW220403   1.726   1.484   4.077  1.0260  1.4630  1.3880
 2924SOL     OW20404   3.459   0.228   7.372  0.1236  0.0980  0.3556
 2924SOL    HW120405   3.484   0.275   7.451  1.5248  0.2398 -0.1651
 2924SOL    HW220406   3.371   0.195   7.389 -0.0724  0.9583  0.9625
 2925SOL     OW20407   4.347   1.774   4.120 -0.3177  0.6521  0.3556
 2925SOL    HW120408   4.377   1.863   4.139  2.1663 -0.0204 -0.3570
 2925SOL    HW220409   4.426   1.721   4.130 -0.8146  0.1749  1.7501
 2926SOL     OW20410   1.002   0.543   4.190 -0.0175  0.1976 -0.4059
 2926SOL    HW120411   0.990   0.449   4.201 -2.3676  0.5568  0.0950
 2926SOL    HW220412   0.985   0.571   4.280  0.7917 -0.8085  0.0539
 2927SOL     OW20413   1.930   2.918  17.271 -0.0823 -0.0358  0.0691
 2927SOL    HW120414   1.907   3.006  17.300  1.2168 -0.0238  1.0670
 2927SOL    HW220415   2.025   2.919  17.260  0.2666 -1.8338  2.8325
 2928SOL     OW20416   0.181   2.290  12.614 -0.0386 -0.4259 -0.0308
 2928SOL    HW120417   0.233   2.211  12.603 -0.5101 -0.5021 -1.7025
 2928SOL    HW220418   0.172   2.339  12.532 -1.2088 -2.2759 -1.0107
 2929SOL     OW20419   0.390   3.512  15.519 -0.0112 -0.1856  0.5027
 2929SOL    HW120420   0.401   3.545  15.430  1.8695 -0.8137  0.5153
 2929SOL    HW220421   0.318   3.571  15.544 -1.4789 -1.1350 -1.5004
 2930SOL     OW20422   2.771   0.585   5.029  0.1179  0.1774  0.1048
 2930SOL    HW120423   2.742   0.505   4.984 -0.0998  1.9089 -2.8642
 2930SOL    HW220424   2.698   0.636   4.994 -0.2274  0.6305  1.5180
 2931SOL     OW20425   2.041   1.059   3.546 -0.1473  0.8996 -0.6703
 2931SOL    HW120426   1.989   1.096   3.618  0.4269  0.3643  0.0189
 2931SOL    HW220427   2.082   1.142   3.519 -1.1843  1.9913  1.0637
 2932SOL     OW20428   1.986   0.986  14.400  0.0853 -0.2173 -0.2461
 2932SOL    HW120429   2.018   1.074  14.386 -0.1349  0.1005  1.2671
 2932SOL    HW220430   1.941   0.966  14.318 -0.4999 -0.7790  0.2003
 2933SOL     OW20431   2.247   3.861   3.317  0.4328  0.0252 -0.6164
 2933SOL    HW120432   2.154   3.843   3.305  0.2170  0.6050  0.1687
 2933SOL    HW220433   2.239   3.950   3.283 -1.9303 -0.6087 -1.6768
 2934SOL     OW20434   3.967   4.661   1.160 -0.6183  0.0949 -0.0797
 2934SOL    HW120435   4.002   0.004   1.117  1.4488 -1.5071 -1.3366
 2934SOL    HW220436   3.906   4.624   1.096 -1.7403 -0.3222  1.2394
 2935SOL     OW20437   4.733   1.349  14.887 -0.1041  0.0640  0.1635
 2935SOL    HW120438   4.695   1.262  14.888 -1.0468  0.4866  0.8501
 2935SOL    HW220439   4.663   1.409  14.862  0.6602  0.2260 -1.6079
 2936SOL     OW20440   0.992   4.238   7.889 -0.1727  0.3818  0.2070
 2936SOL    HW120441   0.998   4.153   7.845  1.3087 -0.0544  1.2403
 2936SOL    HW220442   1.070   4.230   7.944 -0.6595 -2.0708  0.5433
 2937SOL     OW20443   4.198   2.319   8.545  0.1341  0.6744 -0.2360
 2937SOL    HW120444   4.127   2.259   8.564  1.4985 -0.1378  2.3727
 2937SOL    HW220445   4.137   2.387   8.518 -1.0433  0.1548  1.1216
 2938SOL     OW20446   3.957   4.382   5.078 -0.3557 -0.2617  0.4567
 2938SOL    HW120447   3.894   4.375   5.006  1.4190  1.5851 -1.2846
 2938SOL    HW220448   3.918   4.460   5.116 -2.0975 -0.8032 -0.2182
 2939SOL     OW20449   2.244   0.493   2.219  0.3069  0.7690 -0.4072
 2939SOL    HW120450   2.267   0.458   2.305 -1.3039 -2.3516 -1.2782
 2939SOL    HW220451   2.332   0.505   2.182  0.3935  1.3751 -0.0120
 2940SOL     OW20452   2.357   4.382   0.434  0.0043  0.0032 -0.4680
 2940SOL    HW120453   2.316   4.358   0.351 -0.2290 -0.6217 -0.1689
 2940SOL    HW220454   2.452   4.384   0.417  0.0418 -1.1550 -0.3996
 2941SOL     OW20455   2.295   1.663   2.952  0.6232 -0.2739 -0.0835
 2941SOL    HW120456   2.235   1.697   2.885  0.2732 -1.5392 -0.4262
 2941SOL    HW220457   2.351   1.616   2.890  1.5218 -1.0691  1.3273
 2942SOL     OW20458   3.036   2.908   1.899  0.3042 -0.3212 -0.0817
 2942SOL    HW120459   3.049   2.910   1.993  1.9460 -0.5515 -0.2868
 2942SOL    HW220460   2.971   2.978   1.900  0.8705  0.1717  1.4395
 2943SOL     OW20461   3.230   0.743   8.746 -0.3256  0.1155  0.7256
 2943SOL    HW120462   3.187   0.676   8.692  1.2575 -0.0569 -0.3239
 2943SOL    HW220463   3.322   0.728   8.721 -0.0399  1.1020  1.1890
 2944SOL     OW20464   2.610   3.083   3.859 -0.0491 -0.0798  0.1719
 2944SOL    HW120465   2.588   2.995   3.830 -3.7129  1.0933 -0.5574
 2944SOL    HW220466   2.631   3.060   3.950  0.8071 -1.4524 -0.3770
 2945SOL     OW20467   3.517   3.909   6.767  0.2313 -0.4388  0.3266
 2945SOL    HW120468   3.422   3.899   6.769  0.2009 -0.3307 -0.7200
 2945SOL    HW220469   3.531   3.837   6.706 -0.8720 -1.3308  1.1452
 2946SOL     OW20470   0.762   0.201  16.567  0.3103  0.4674  0.0606
 2946SOL    HW120471   0.687   0.142  16.574 -0.6467  1.4218 -2.0257
 2946SOL    HW220472   0.838   0.143  16.561  0.4181  0.6987 -0.8494
 2947SOL     OW20473   2.696   0.844  14.059 -0.4291  0.6776  0.2527
 2947SOL    HW120474   2.685   0.851  14.154 -0.6142 -0.3007  0.3097
 2947SOL    HW220475   2.676   0.751  14.046  0.4100  0.8574 -2.2778
 2948SOL     OW20476   3.015   1.218   2.261 -0.0845  0.4415 -0.1207
 2948SOL    HW120477   3.030   1.298   2.210  0.5930  0.7254  0.5177
 2948SOL    HW220478   3.105   1.195   2.285 -0.2101  1.3075  1.2043
 2949SOL     OW20479   0.978   3.728   2.386  0.0112 -0.7423  0.0390
 2949SOL    HW120480   0.887   3.738   2.356 -0.2520  0.3551  1.2252
 2949SOL    HW220481   0.995   3.645   2.342  1.1546 -0.3581 -0.2447
 2950SOL     OW20482   4.055   1.049   0.021  0.1027 -0.2435  0.2420
 2950SOL    HW120483   4.035   0.980   0.084  0.8018 -1.4757 -0.9007
 2950SOL    HW220484   3.992   1.026  17.690 -0.6832  0.8655  0.5900
 2951SOL     OW20485   3.488   1.217   1.454 -0.5458  0.3096  0.0425
 2951SOL    HW120486   3.481   1.150   1.521  0.8492  0.2933  0.1715
 2951SOL    HW220487   3.491   1.172   1.370  3.6442 -0.2113  0.4795
 2952SOL     OW20488   4.213   2.942  10.141 -0.5703 -0.2868 -0.0437
 2952SOL    HW120489   4.180   2.880  10.076 -1.2632 -0.8000  0.7986
 2952SOL    HW220490   4.143   2.941  10.207  0.2131  1.2786  0.8331
 2953SOL     OW20491   1.480   1.295   1.976  0.0604  0.0604 -0.2532
 2953SOL    HW120492   1.444   1.372   2.020 -0.3169 -0.1528 -0.1991
 2953SOL    HW220493   1.434   1.229   2.026  1.0563 -1.4940 -1.4030
 2954SOL     OW20494   2.287   2.857   6.035 -0.4118 -0.0590  0.0286
 2954SOL    HW120495   2.248   2.782   5.991 -0.9924  0.4692 -0.3600
 2954SOL    HW220496   2.230   2.924   5.996 -0.6724 -0.8526 -0.9344
 2955SOL     OW20497   2.326   2.468   8.277  0.1930  0.5735 -0.1510
 2955SOL    HW120498   2.342   2.562   8.273 -0.4303  0.6070 -1.7676
 2955SOL    HW220499   2.296   2.439   8.191 -0.3362  1.9998 -0.4463
 2956SOL     OW20500   0.678   1.761  11.917  0.5542 -0.0413  0.3470
 2956SOL    HW120501   0.763   1.725  11.943  0.2967 -0.9834 -0.0954
 2956SOL    HW220502   0.699   1.805  11.835 -0.5404 -1.1518 -0.5307
 2957SOL     OW20503   0.958   1.870  10.146 -0.2711 -0.1303  0.2838
 2957SOL    HW120504   0.945   1.944  10.087  0.1444  1.6393  2.4196
 2957SOL    HW220505   0.893   1.809  10.111  0.2308 -0.1016 -0.6994
 2958SOL     OW20506   0.023   3.270  13.952 -0.2345 -0.1434 -0.7386
 2958SOL    HW120507   4.711   3.302  14.029  0.5408 -0.9172  0.0511
 2958SOL    HW220508   0.077   3.347  13.931 -0.8636  0.2337 -0.9916
 2959SOL     OW20509   3.609   2.631   7.588  0.3147 -0.0751 -0.0740
 2959SOL    HW120510   3.625   2.715   7.546 -2.2823  1.8360  2.7896
 2959SOL    HW220511   3.692   2.585   7.573 -0.7172 -2.5799  1.8318
 2960SOL     OW20512   4.425   1.550   3.953  0.3035  0.0532  0.0126
 2960SOL    HW120513   4.346   1.597   3.925  0.9070  1.5920  0.8957
 2960SOL    HW220514   4.391   1.461   3.957  0.5223 -0.0379 -0.2071
 2961SOL     OW20515   2.276   3.110   7.711  0.5698 -0.1994 -0.2608
 2961SOL    HW120516   2.266   3.070   7.798  1.0693  1.0756  0.3764
 2961SOL    HW220517   2.188   3.141   7.689 -0.1021 -0.5632  1.9131
 2962SOL     OW20518   2.123   0.724   2.259 -0.0276  0.3318 -0.0743
 2962SOL    HW120519   2.154   0.640   2.224 -0.7714  0.9451 -2.2114
 2962SOL    HW220520   2.162   0.729   2.346 -0.1547  1.2802 -0.0702
 2963SOL     OW20521   2.559   0.145   3.051 -0.4985  0.0257  0.6845
 2963SOL    HW120522   2.622   0.078   3.078 -0.9799 -1.3512 -1.5520
 2963SOL    HW220523   2.475   0.102   3.068  0.2032 -2.0137 -0.9964
 2964SOL     OW20524   2.804   4.253   0.141  0.0066 -0.3892 -0.6227
 2964SOL    HW120525   2.872   4.266   0.074 -0.2675  1.8387 -0.4689
 2964SOL    HW220526   2.831   4.312   0.211  0.0150 -1.6791  0.4567
 2965SOL     OW20527   2.136   3.194   2.249  0.2061  0.5054 -0.1141
 2965SOL    HW120528   2.107   3.151   2.329 -0.0666  0.7530 -0.0793
 2965SOL    HW220529   2.222   3.229   2.270 -0.1249  1.4975 -0.4232
 2966SOL     OW20530   4.586   0.086  14.774  0.2417 -0.4218  0.4798
 2966SOL    HW120531   4.596   0.155  14.709 -0.7994 -0.9016 -0.2015
 2966SOL    HW220532   4.620   0.019  14.714 -1.0527  0.4605 -1.2305
 2967SOL     OW20533   1.067   3.463   4.250  0.1339 -0.0617 -0.8903
 2967SOL    HW120534   1.050   3.499   4.163 -1.2845 -1.5570 -1.2315
 2967SOL    HW220535   1.136   3.516   4.290 -0.4870  0.5199 -0.5923
 2968SOL     OW20536   1.367   3.117  17.692  0.2913  0.1131 -0.9288
 2968SOL    HW120537   1.348   3.148  17.603 -0.3774  0.2233 -0.7420
 2968SOL    HW220538   1.329   3.029  17.700 -1.6033  0.9863 -0.4496
 2969SOL     OW20539   3.293   0.242   3.708  0.0937  0.0006  0.2718
 2969SOL    HW120540   3.236   0.214   3.780  1.0522 -0.2524  0.9267
 2969SOL    HW220541   3.240   0.226   3.630 -1.1036 -1.7177  1.4290
 2970SOL     OW20542   3.235   4.344   9.637  0.1748 -0.5656  0.2977
 2970SOL    HW120543   3.320   4.374   9.669 -0.7018  0.8475  1.3113
 2970SOL    HW220544   3.175   4.379   9.703  1.4705  0.3459  0.9869
 2971SOL     OW20545   3.649   2.333   6.864 -0.2199 -0.2289 -0.5439
 2971SOL    HW120546   3.568   2.375   6.894 -1.0534 -1.7557 -0.6838
 2971SOL    HW220547   3.690   2.406   6.817 -0.8887  0.6881  0.3024
 2972SOL     OW20548   3.034   2.721   3.394  0.4756 -0.2473 -0.1577
 2972SOL    HW120549   3.127   2.711   3.373  0.1491 -0.6334 -1.4097
 2972SOL    HW220550   3.023   2.814   3.375  0.2451 -0.4808 -1.1444
 2973SOL     OW20551   3.692   2.724   5.540 -0.1758 -0.0700  0.1388
 2973SOL    HW120552   3.698   2.737   5.635 -0.0912  4.7073 -0.4859
 2973SOL    HW220553   3.612   2.773   5.523 -0.8797 -1.3707 -0.2465
 2974SOL     OW20554   0.560   1.654   0.002 -0.6925  0.6201 -0.3129
 2974SOL    HW120555   0.530   1.693  17.657 -0.8761  0.8599 -0.1349
 2974SOL    HW220556   0.520   1.708   0.071  1.8715  0.1199  1.5542
 2975SOL     OW20557   0.713   3.742   9.766  0.0674  0.0524  0.4868
 2975SOL    HW120558   0.730   3.803   9.838  1.1435  2.6298 -1.9562
 2975SOL    HW220559   0.618   3.737   9.773 -0.0918  0.0821 -1.9368
 2976SOL     OW20560   2.340   2.497   7.473  0.3857  0.1863  0.5287
 2976SOL    HW120561   2.348   2.445   7.553 -0.7633 -0.1342  0.4354
 2976SOL    HW220562   2.248   2.483   7.452  0.6734 -1.4959  0.3990
 2977SOL     OW20563   2.262   2.988   0.449 -0.0062 -0.2725  0.3683
 2977SOL    HW120564   2.286   3.077   0.473 -0.2676  0.0600 -0.5908
 2977SOL    HW220565   2.327   2.973   0.380 -1.8442 -3.5090 -0.6540
 2978SOL     OW20566   3.036   3.777   8.898  0.1032 -0.1790  0.0172
 2978SOL    HW120567   3.072   3.715   8.962 -3.0507 -0.9331  1.0323
 2978SOL    HW220568   2.947   3.792   8.929 -0.0892  2.6158 -1.8894
 2979SOL     OW20569   2.515   3.114   6.816  0.5077  0.4129 -0.4799
 2979SOL    HW120570   2.554   3.195   6.847 -0.7524  1.6002 -2.0273
 2979SOL    HW220571   2.500   3.060   6.894  3.0816 -0.9020 -0.8689
 2980SOL     OW20572   3.782   0.466  12.621  0.3245 -1.0449 -0.6589
 2980SOL    HW120573   3.816   0.522  12.551  0.9501 -0.2320  0.3000
 2980SOL    HW220574   3.689   0.449  12.604 -0.4018  1.3411  0.8368
 2981SOL     OW20575   4.328   4.209  17.061 -0.3260 -0.1378 -0.0856
 2981SOL    HW120576   4.267   4.142  17.029  1.7807  0.1155 -4.6379
 2981SOL    HW220577   4.329   4.274  16.991 -1.5337  2.0322  1.8984
 2982SOL     OW20578   3.572   1.369   8.861 -0.6475 -0.3642  0.0964
 2982SOL    HW120579   3.640   1.437   8.860 -1.8040  0.7636 -1.7562
 2982SOL    HW220580   3.584   1.330   8.948  0.4750  0.2164  0.2127
 2983SOL     OW20581   1.609   2.809  11.091  0.1314 -0.0580  0.3190
 2983SOL    HW120582   1.575   2.720  11.096  0.5501 -0.3034 -1.3719
 2983SOL    HW220583   1.697   2.779  11.070  0.5530  2.6262 -1.6987
 2984SOL     OW20584   3.090   4.482   6.288 -0.1128 -0.3611  0.3699
 2984SOL    HW120585   3.080   4.430   6.208  0.7435 -3.2381  2.1411
 2984SOL    HW220586   3.158   4.431   6.331  0.8471 -1.9003 -2.9381
 2985SOL     OW20587   3.799   4.720   3.225 -0.3562 -0.4245 -0.0133
 2985SOL    HW120588   3.713   0.026   3.230 -1.8105 -3.5118 -0.0202
 2985SOL    HW220589   3.846   0.047   3.168  1.3075 -1.7815 -0.1119
 2986SOL     OW20590   4.621   0.483  16.541  0.3401  0.2576 -0.3080
 2986SOL    HW120591   4.700   0.438  16.570 -0.7229 -0.2143  1.8599
 2986SOL    HW220592   4.586   0.523  16.621 -0.7938  1.9188 -1.6277
 2987SOL     OW20593   2.903   3.363   8.885  0.3989  0.3190 -0.5573
 2987SOL    HW120594   2.874   3.308   8.812  3.8831 -3.0209  0.6108
 2987SOL    HW220595   2.820   3.385   8.927 -1.6940 -1.6646 -3.5948
 2988SOL     OW20596   3.686   0.900   4.143 -0.5788 -0.4096 -0.5789
 2988SOL    HW120597   3.731   0.960   4.203  1.8287 -2.0886 -0.6767
 2988SOL    HW220598   3.599   0.896   4.182 -0.1593 -1.6447  0.2050
 2989SOL     OW20599   3.646   3.620  10.635 -0.4232 -0.1655  0.0839
 2989SOL    HW120600   3.616   3.601  10.547 -2.7894  0.1764  0.8095
 2989SOL    HW220601   3.601   3.557  10.692 -1.6722 -0.5556 -1.3270
 2990SOL     OW20602   4.574   0.011   3.236 -0.4892 -0.7084  0.1973
 2990SOL    HW120603   4.509   0.079   3.217  0.9344  0.3260 -0.9330
 2990SOL    HW220604   4.653   0.052   3.201 -1.9566 -0.1071 -2.3629
 2991SOL     OW20605   0.517   1.794   3.628  0.1525  0.1662 -0.9407
 2991SOL    HW120606   0.549   1.804   3.717  0.1187  1.2474 -1.0509
 2991SOL    HW220607   0.544   1.707   3.598  0.2125 -0.2111  0.2403
 2992SOL     OW20608   0.005   3.296   8.658  0.3426 -0.1228  0.1178
 2992SOL    HW120609   0.098   3.299   8.683  0.2061  0.8771  0.5058
 2992SOL    HW220610   0.006   3.210   8.616  0.8025 -0.7266  1.3585
 2993SOL     OW20611   2.711   0.414   4.741 -0.3802  0.3585  0.2371
 2993SOL    HW120612   2.800   0.400   4.709 -0.1440  0.5909  0.7949
 2993SOL    HW220613   2.666   0.349   4.687 -1.6105  0.5133  1.0818
 2994SOL     OW20614   1.207   3.940  10.280  0.0007 -0.5662  0.3942
 2994SOL    HW120615   1.254   4.019  10.308 -0.4206 -0.7705  1.6788
 2994SOL    HW220616   1.288   3.889  10.290  1.4766  1.4851 -1.1424
 2995SOL     OW20617   1.533   2.657  17.472  0.0049 -0.5072  0.4090
 2995SOL    HW120618   1.573   2.585  17.522 -0.1664 -1.3706 -0.7097
 2995SOL    HW220619   1.607   2.716  17.486 -0.3936 -0.1962  1.2066
 2996SOL     OW20620   0.669   0.640  17.440 -0.1129  0.1442 -0.0592
 2996SOL    HW120621   0.582   0.653  17.478 -0.3816 -0.2962 -0.5305
 2996SOL    HW220622   0.732   0.701  17.479  1.7136 -1.1580 -0.9788
 2997SOL     OW20623   1.941   3.333   2.705 -0.1665 -0.4554  0.3211
 2997SOL    HW120624   1.978   3.418   2.681 -1.7417  0.2151  0.3035
 2997SOL    HW220625   1.856   3.338   2.661  0.1392  0.8613 -0.1264
 2998SOL     OW20626   0.863   3.473   6.524 -0.5514  0.4083 -0.0435
 2998SOL    HW120627   0.914   3.553   6.514  0.2751 -0.1106  0.0966
 2998SOL    HW220628   0.807   3.489   6.600 -3.4317  2.1996 -2.5478
 2999SOL     OW20629   3.093   3.958   5.564 -0.6679 -0.2911  0.2276
 2999SOL    HW120630   3.089   3.916   5.650 -1.6752  0.0895  0.3610
 2999SOL    HW220631   3.102   4.050   5.587  0.5081 -0.5544  0.8135
 3000SOL     OW20632   3.941   4.314   1.771  0.2830  0.0102  0.0303
 3000SOL    HW120633   3.910   4.240   1.719 -1.6995  1.1003 -0.3474
 3000SOL    HW220634   3.912   4.390   1.720 -1.6548 -1.1992 -0.6572
 3001SOL     OW20635   2.098   0.124  12.471  0.0888  0.5861  0.0347
 3001SOL    HW120636   2.180   0.076  12.461 -1.0800 -1.6850  1.1928
 3001SOL    HW220637   2.123   0.205  12.515  0.7845  0.0807  0.5656
 3002SOL     OW20638   2.493   3.803  14.425  0.2474  0.2219 -0.0596
 3002SOL    HW120639   2.510   3.762  14.510 -0.5483 -2.0614 -0.9882
 3002SOL    HW220640   2.410   3.849  14.438  0.0055 -0.4331  0.7067
 3003SOL     OW20641   1.831   4.479  12.036  0.0094 -0.5450 -0.5607
 3003SOL    HW120642   1.767   4.528  12.088 -0.9930 -1.3819 -1.0191
 3003SOL    HW220643   1.784   4.471  11.954 -1.8065  1.7645  0.2549
 3004SOL     OW20644   3.403   2.095   5.150  0.1822  0.1367  0.1714
 3004SOL    HW120645   3.468   2.066   5.214  0.9585 -0.6645 -0.9849
 3004SOL    HW220646   3.340   2.023   5.153  0.3890 -0.0664 -0.2870
 3005SOL     OW20647   2.851   3.632  10.963 -0.7557 -0.1496 -0.5348
 3005SOL    HW120648   2.910   3.632  11.039  0.1019  1.5906 -1.1856
 3005SOL    HW220649   2.779   3.569  10.965  0.1278 -1.1799 -1.2028
 3006SOL     OW20650   0.423   3.396  17.035  0.2000  0.0127 -0.3917
 3006SOL    HW120651   0.489   3.400  17.104  0.2993  0.1232 -0.4939
 3006SOL    HW220652   0.377   3.311  17.037  0.1269  0.0272 -1.4489
 3007SOL     OW20653   1.877   4.344   9.136 -0.3283  0.1826 -0.6939
 3007SOL    HW120654   1.919   4.412   9.188 -1.0153 -0.4505  0.6837
 3007SOL    HW220655   1.912   4.371   9.051 -1.2093  1.2346 -0.7286
 3008SOL     OW20656   3.200   3.866   2.152  0.6222  0.1358 -0.0091
 3008SOL    HW120657   3.105   3.864   2.164  0.7426 -1.0010  0.7388
 3008SOL    HW220658   3.218   3.784   2.107  1.6867  1.1530 -1.4306
 3009SOL     OW20659   3.408   3.256   7.399  0.3468 -0.2326  0.2511
 3009SOL    HW120660   3.439   3.166   7.407  0.0460 -0.5737 -2.6533
 3009SOL    HW220661   3.315   3.240   7.387  0.3203  1.5618 -1.8058
 3010SOL     OW20662   4.146   1.414   1.056 -0.5988 -0.0873 -0.4665
 3010SOL    HW120663   4.080   1.427   0.987 -0.6112  3.4956  0.1801
 3010SOL    HW220664   4.115   1.344   1.113 -1.9931 -0.0478 -1.1753
 3011SOL     OW20665   2.700   3.442  16.064  0.5566  0.2287  0.8758
 3011SOL    HW120666   2.717   3.363  16.117 -0.1614 -1.0271 -0.7908
 3011SOL    HW220667   2.689   3.509  16.132 -1.0528  0.7691  0.0739
 3012SOL     OW20668   0.409   2.978   2.605  0.1279  0.1814 -1.1313
 3012SOL    HW120669   0.468   2.908   2.633 -0.1218  1.2354  1.9765
 3012SOL    HW220670   0.444   2.995   2.518  1.6980 -0.6274 -0.6616
 3013SOL     OW20671   1.651   0.758   3.738  0.1682 -0.3534 -0.1138
 3013SOL    HW120672   1.667   0.832   3.797  3.6869 -0.9700 -0.2584
 3013SOL    HW220673   1.726   0.766   3.678  0.2416  0.1266  0.0467
 3014SOL     OW20674   3.279   2.131  17.691  0.4801  0.0993  0.4824
 3014SOL    HW120675   3.239   2.109  17.607 -0.1160  0.0158  0.7889
 3014SOL    HW220676   3.324   2.048  17.705  0.7065  0.0325 -0.6244
 3015SOL     OW20677   1.144   1.480   9.260 -0.1098  0.0350 -0.1347
 3015SOL    HW120678   1.224   1.475   9.208  1.3585 -0.6353  2.2432
 3015SOL    HW220679   1.134   1.574   9.245 -2.7218  0.0936  2.1265
 3016SOL     OW20680   1.075   0.474   9.181  0.3389  0.0207 -0.3532
 3016SOL    HW120681   1.045   0.542   9.121 -3.0671 -0.6702  0.6068
 3016SOL    HW220682   1.067   0.524   9.262 -1.2688  2.0537 -1.7675
 3017SOL     OW20683   0.693   0.541  16.236  0.0799 -0.0122 -0.6522
 3017SOL    HW120684   0.631   0.500  16.297  0.9764 -0.6859 -0.2101
 3017SOL    HW220685   0.716   0.622  16.281  0.6137 -0.2098 -0.5696
 3018SOL     OW20686   3.111   0.877   7.144  0.2000  0.4776 -0.0664
 3018SOL    HW120687   3.026   0.839   7.166  1.0382 -1.3746 -0.0047
 3018SOL    HW220688   3.144   0.907   7.229 -0.6824  1.9194 -0.2361
 3019SOL     OW20689   2.190   1.400  12.715 -0.6034  0.2163 -0.4885
 3019SOL    HW120690   2.244   1.383  12.792 -1.0154  0.3094 -0.1791
 3019SOL    HW220691   2.168   1.312  12.684  3.2918 -0.0653 -2.4676
 3020SOL     OW20692   4.197   0.362   1.777 -0.0224 -0.3591 -0.5252
 3020SOL    HW120693   4.131   0.300   1.743 -0.1908  0.2671 -1.3269
 3020SOL    HW220694   4.152   0.433   1.823  0.7048 -0.5007  0.4159
 3021SOL     OW20695   0.655   3.439   5.514  0.5047  0.0815  0.0545
 3021SOL    HW120696   0.673   3.348   5.490 -1.9815 -0.0475 -1.2459
 3021SOL    HW220697   0.602   3.438   5.594  2.6637 -0.4948  1.4801
 3022SOL     OW20698   3.549   2.095   1.176 -0.6627 -0.0394  0.1816
 3022SOL    HW120699   3.563   2.130   1.088  0.4521 -1.9888 -0.4068
 3022SOL    HW220700   3.601   2.015   1.171  1.6333  1.4658  0.1315
 3023SOL     OW20701   4.248   1.108   6.491 -0.3415 -0.0531  0.3595
 3023SOL    HW120702   4.185   1.137   6.557 -0.6600 -3.8637  1.7588
 3023SOL    HW220703   4.292   1.036   6.536 -1.1213 -0.0879  1.0610
 3024SOL     OW20704   4.469   3.312   3.451  0.0454  0.1037  0.1888
 3024SOL    HW120705   4.550   3.317   3.401 -1.2161 -0.4486 -1.9395
 3024SOL    HW220706   4.503   3.292   3.538  2.0033  1.1381 -0.3399
 3025SOL     OW20707   1.626   4.200   6.377  0.0983 -0.7406  0.1292
 3025SOL    HW120708   1.648   4.250   6.455  2.2928  1.1159 -1.6892
 3025SOL    HW220709   1.699   4.139   6.385  0.2726 -0.5075  0.3171
 3026SOL     OW20710   3.493   3.378   6.518  0.5384  0.0133 -0.2818
 3026SOL    HW120711   3.551   3.389   6.593  1.8045  1.7446 -1.5477
 3026SOL    HW220712   3.453   3.292   6.534 -1.5314  0.9774 -0.2376
 3027SOL     OW20713   4.520   3.989  12.206  0.8387 -0.2490  0.0177
 3027SOL    HW120714   4.470   4.004  12.286  0.2899 -1.9440 -0.0124
 3027SOL    HW220715   4.591   4.053  12.216 -0.2694  1.0222 -0.2078
 3028SOL     OW20716   3.087   0.226   3.040 -0.7049 -0.3458 -0.0480
 3028SOL    HW120717   3.084   0.231   2.944  2.0323 -0.0974 -0.1035
 3028SOL    HW220718   3.180   0.204   3.044 -0.7094 -0.3145  0.2053
 3029SOL     OW20719   0.434   0.860   0.868 -0.1454 -0.2711  0.2077
 3029SOL    HW120720   0.383   0.900   0.797 -0.8940 -1.0166  0.3258
 3029SOL    HW220721   0.421   0.767   0.850  2.0949 -0.3243 -1.1584
 3030SOL     OW20722   1.611   3.684   5.198 -0.9373  0.5713  0.4904
 3030SOL    HW120723   1.523   3.660   5.170 -0.7494  1.1050 -0.5846
 3030SOL    HW220724   1.607   3.773   5.163  1.6286  1.1138  1.5903
 3031SOL     OW20725   4.251   1.170  17.146  0.6542 -0.2716 -0.1826
 3031SOL    HW120726   4.307   1.194  17.073 -0.4033  2.6864 -0.0247
 3031SOL    HW220727   4.242   1.075  17.134  1.4659 -0.6317  1.9728
 3032SOL     OW20728   4.581   2.267   1.417  0.4195  0.2693  0.5750
 3032SOL    HW120729   4.596   2.309   1.332  3.2898 -2.8172 -0.4596
 3032SOL    HW220730   4.671   2.246   1.441  1.1267 -0.4519 -2.7835
 3033SOL     OW20731   3.923   3.209   2.103 -0.1761 -0.5485  0.2202
 3033SOL    HW120732   3.887   3.253   2.026  0.4691 -0.4593 -0.0334
 3033SOL    HW220733   4.016   3.227   2.088 -0.2221  0.2252  0.8420
 3034SOL     OW20734   1.640   4.523   3.819  0.0823 -0.2847  0.0923
 3034SOL    HW120735   1.674   4.438   3.848  1.1990 -0.2597 -1.1329
 3034SOL    HW220736   1.546   4.510   3.824 -0.3774  2.0399 -2.3989
 3035SOL     OW20737   1.153   4.410   9.448  0.3293 -0.2250  0.2945
 3035SOL    HW120738   1.101   4.331   9.437 -0.0551 -0.1564  1.6330
 3035SOL    HW220739   1.110   4.461   9.378  0.4289 -0.4478  0.0732
 3036SOL     OW20740   2.967   3.516  10.724 -0.2287  0.2789  0.2721
 3036SOL    HW120741   2.921   3.573  10.786 -0.2416  0.8626 -0.2814
 3036SOL    HW220742   2.910   3.440  10.738 -0.7230  0.5160 -0.4550
 3037SOL     OW20743   1.960   4.134   3.860 -0.1145  0.1329 -0.6049
 3037SOL    HW120744   1.868   4.134   3.835 -0.2963 -1.0103  0.0484
 3037SOL    HW220745   1.994   4.215   3.824  0.0449  1.3244  2.2143
 3038SOL     OW20746   4.734   0.646   6.739 -0.2231 -0.3531 -0.2712
 3038SOL    HW120747   0.061   0.712   6.705 -0.8241  0.0081 -0.6657
 3038SOL    HW220748   4.707   0.674   6.827 -1.4018 -0.5622 -0.5632
 3039SOL     OW20749   0.476   3.386   6.730  0.0282 -0.1217 -0.2217
 3039SOL    HW120750   0.496   3.479   6.724 -0.8175  0.0739  0.0165
 3039SOL    HW220751   0.512   3.364   6.816 -0.8814  1.6235  0.5951
 3040SOL     OW20752   0.406   0.640   2.190 -0.4115  0.3223  0.2183
 3040SOL    HW120753   0.401   0.697   2.267  0.8497 -0.1647  0.6548
 3040SOL    HW220754   0.444   0.701   2.126  0.2395 -0.3832 -0.0662
 3041SOL     OW20755   2.514   4.056   3.321  0.2429 -0.1308  0.0700
 3041SOL    HW120756   2.512   4.151   3.332  2.7382 -0.0819  0.0447
 3041SOL    HW220757   2.523   4.040   3.228  0.0736  2.9685 -0.4710
 3042SOL     OW20758   1.049   4.045   9.200 -0.3633 -0.1965 -0.0052
 3042SOL    HW120759   1.014   3.976   9.144 -1.7436 -1.1855  2.0740
 3042SOL    HW220760   1.112   3.987   9.244  1.5955  2.1621  0.2663
 3043SOL     OW20761   3.941   3.781   1.235  0.3561  0.1905  0.0242
 3043SOL    HW120762   4.021   3.833   1.231  1.7127 -2.1357 -2.5097
 3043SOL    HW220763   3.921   3.794   1.328 -1.3770  1.3817 -0.4963
 3044SOL     OW20764   0.187   3.947   9.985 -0.6126 -0.0578  0.2256
 3044SOL    HW120765   0.210   4.019  10.043 -0.2281  0.2658 -0.3318
 3044SOL    HW220766   0.166   3.887  10.056 -2.9361  0.2876 -0.1593
 3045SOL     OW20767   2.502   0.922  10.607  0.6155  0.0581  0.2874
 3045SOL    HW120768   2.512   0.907  10.701 -0.3611  0.5019  0.4602
 3045SOL    HW220769   2.443   0.997  10.606 -0.2331 -0.6492 -2.5574
 3046SOL     OW20770   3.061   2.866  16.782  0.0837 -0.1573  0.4462
 3046SOL    HW120771   3.135   2.925  16.766 -0.0115  0.1590  1.1484
 3046SOL    HW220772   2.998   2.936  16.798  0.6555  0.1276  1.4596
 3047SOL     OW20773   0.209   4.637   6.763  0.0666 -0.3737  0.6084
 3047SOL    HW120774   0.249   4.723   6.774  0.6357 -0.7710  1.6184
 3047SOL    HW220775   0.122   4.664   6.795 -0.2897  1.9833 -2.4233
 3048SOL     OW20776   1.569   0.954   0.710  0.0079  0.0376 -0.0995
 3048SOL    HW120777   1.547   0.934   0.801  2.3955  0.4496  0.5908
 3048SOL    HW220778   1.599   1.044   0.707 -1.2637  0.4337 -0.7347
 3049SOL     OW20779   4.093   4.306   2.181 -0.3295  0.5632 -0.1629
 3049SOL    HW120780   4.128   4.318   2.269  0.2430  0.1999 -0.3404
 3049SOL    HW220781   4.132   4.383   2.139 -3.1400  1.0463 -1.9575
 3050SOL     OW20782   1.266   2.606   1.528 -0.5222  0.4370  0.0261
 3050SOL    HW120783   1.171   2.619   1.522 -0.3469  1.9065  0.4280
 3050SOL    HW220784   1.299   2.624   1.440 -1.5476 -1.0368 -0.6527
 3051SOL     OW20785   2.386   0.317   7.890  0.3412 -0.5245 -0.2595
 3051SOL    HW120786   2.319   0.385   7.887  0.5650 -0.3008 -0.1754
 3051SOL    HW220787   2.448   0.356   7.952  0.2848 -2.0029  0.7296
 3052SOL     OW20788   2.531   1.067  14.224  0.0878 -0.2496  0.5908
 3052SOL    HW120789   2.505   1.004  14.156 -1.1238  1.7689 -0.8173
 3052SOL    HW220790   2.541   1.005  14.296 -2.2512 -0.0106  1.0991
 3053SOL     OW20791   3.381   3.442   3.076  0.2821 -0.3901  0.1948
 3053SOL    HW120792   3.314   3.406   3.133  0.2989 -1.2697 -0.3341
 3053SOL    HW220793   3.364   3.535   3.092  0.7243 -0.2486 -0.1528
 3054SOL     OW20794   0.737   4.313   9.615  0.5480 -0.5019  0.3780
 3054SOL    HW120795   0.797   4.287   9.544  0.4463 -1.8457  0.7768
 3054SOL    HW220796   0.761   4.402   9.639 -3.9984  0.4088  1.5943
 3055SOL     OW20797   0.979   0.322   4.457 -0.3450 -0.4104  0.1398
 3055SOL    HW120798   0.994   0.230   4.477 -0.3213 -1.0012 -2.6061
 3055SOL    HW220799   1.053   0.370   4.493 -1.2234 -0.2646  1.7614
 3056SOL     OW20800   1.694   3.259   7.035 -0.1929 -0.1471 -0.4156
 3056SOL    HW120801   1.731   3.309   6.962 -0.4229 -2.3097 -2.0211
 3056SOL    HW220802   1.758   3.211   7.088  1.5076  2.8740  0.2851
 3057SOL     OW20803   0.216   3.693   4.699 -0.4614 -0.6572 -0.0961
 3057SOL    HW120804   0.303   3.655   4.710 -0.2192  0.2862  1.2561
 3057SOL    HW220805   0.169   3.640   4.764 -1.7430 -0.3665 -0.7766
 3058SOL     OW20806   4.054   0.198   3.628 -0.1710  0.4062 -0.4023
 3058SOL    HW120807   4.149   0.200   3.619 -0.0697 -2.0987  0.0610
 3058SOL    HW220808   4.041   0.127   3.690  4.2300 -0.6180 -0.6372
 3059SOL     OW20809   2.037   1.833   8.838  0.3164  0.6096  0.1054
 3059SOL    HW120810   2.033   1.738   8.842 -1.1927  0.6647  0.1266
 3059SOL    HW220811   1.965   1.851   8.777  0.0099  0.4191  0.4131
 3060SOL     OW20812   0.481   0.853  17.737  0.6130  0.7866  0.1192
 3060SOL    HW120813   0.548   0.908   0.041  0.1367  0.2814  1.5642
 3060SOL    HW220814   0.412   0.851   0.067 -1.0568 -1.0661 -1.6372
 3061SOL     OW20815   4.604   1.686   6.724  0.1657 -0.5508 -0.2822
 3061SOL    HW120816   4.610   1.769   6.771 -0.5019 -0.0518 -1.0772
 3061SOL    HW220817   4.526   1.645   6.760  0.7758 -1.3588  0.1206
 3062SOL     OW20818   0.945   1.691   2.639  0.0282 -0.2195 -0.2120
 3062SOL    HW120819   0.872   1.740   2.601  0.2309  1.6929  1.8699
 3062SOL    HW220820   1.008   1.728   2.578  1.0290 -4.3214 -1.6446
 3063SOL     OW20821   3.414   3.658   8.915  0.3886 -0.3587  0.5516
 3063SOL    HW120822   3.345   3.607   8.958 -1.6654  2.8876  1.0922
 3063SOL    HW220823   3.369   3.740   8.896  1.3562 -0.7953 -3.6063
 3064SOL     OW20824   2.402   4.092   3.598  0.3322 -0.3480  0.5390
 3064SOL    HW120825   2.484   4.056   3.564  0.3176  1.3139 -1.2766
 3064SOL    HW220826   2.408   4.091   3.694 -1.5171 -1.6945  0.6334
 3065SOL     OW20827   4.117   2.281   7.895 -0.3141 -0.0420 -0.0671
 3065SOL    HW120828   4.137   2.371   7.922 -1.7449 -0.0828  1.1142
 3065SOL    HW220829   4.026   2.298   7.872 -0.9905 -3.1070  0.2902
 3066SOL     OW20830   3.281   3.029   2.712 -0.0225  0.2589  0.3286
 3066SOL    HW120831   3.290   3.086   2.788 -3.4719 -0.3370  1.1783
 3066SOL    HW220832   3.245   2.951   2.756 -1.9687  0.3443 -1.1173
 3067SOL     OW20833   2.603   4.019   0.682  0.0636  0.1597  0.0344
 3067SOL    HW120834   2.580   3.950   0.620  1.7560  0.1428 -0.5790
 3067SOL    HW220835   2.517   4.040   0.719  0.1881  3.7915 -1.6833
 3068SOL     OW20836   3.381   3.126   7.143 -0.4251  0.1693  0.1150
 3068SOL    HW120837   3.342   3.190   7.203  1.7412  1.1232  0.5097
 3068SOL    HW220838   3.310   3.103   7.083 -0.8134  1.6723 -0.0140
 3069SOL     OW20839   3.730   2.081  10.551 -0.1071 -0.1208 -0.4989
 3069SOL    HW120840   3.672   2.134  10.606 -0.5818  1.4497 -2.5411
 3069SOL    HW220841   3.675   2.003  10.557 -0.1562 -0.0361  0.1568
 3070SOL     OW20842   0.621   1.058  13.707 -0.3405  0.0766 -0.0440
 3070SOL    HW120843   0.623   1.053  13.803 -0.8310  0.3996 -0.0133
 3070SOL    HW220844   0.534   1.021  13.692 -0.8265  0.5909  1.4277
 3071SOL     OW20845   1.218   2.038   0.185  0.1728 -0.1803  0.2247
 3071SOL    HW120846   1.265   1.958   0.209  1.4777  0.6765  0.4837
 3071SOL    HW220847   1.136   2.015   0.229 -1.2018  4.0004 -0.1814
 3072SOL     OW20848   3.426   4.431   7.794  0.0755  0.3025  0.0043
 3072SOL    HW120849   3.467   4.430   7.707  1.1702 -0.6832  0.5334
 3072SOL    HW220850   3.353   4.372   7.777 -0.5548  0.6569  1.5693
 3073SOL     OW20851   1.322   0.966   4.287 -0.3116  0.7745 -0.8169
 3073SOL    HW120852   1.245   0.939   4.237 -0.8776  0.3193  0.2911
 3073SOL    HW220853   1.330   1.053   4.247  1.6530  1.0689  0.2155
 3074SOL     OW20854   4.221   1.471  14.039  0.1291 -0.4890 -0.6236
 3074SOL    HW120855   4.272   1.431  13.969  0.7112  0.9093 -1.0011
 3074SOL    HW220856   4.131   1.454  14.011 -0.8474 -0.1165  2.2808
 3075SOL     OW20857   4.732   2.914   4.591 -0.0250  0.2275  0.7543
 3075SOL    HW120858   4.653   2.874   4.628  0.6459 -0.7127  1.1614
 3075SOL    HW220859   4.696   3.001   4.572 -2.2630 -0.7912  0.3248
 3076SOL     OW20860   0.188   1.721   7.308 -0.2146 -0.5014  0.1779
 3076SOL    HW120861   0.133   1.786   7.264 -1.6993 -1.1337  1.0620
 3076SOL    HW220862   0.272   1.747   7.272  0.0772 -1.4370  0.2147
 3077SOL     OW20863   2.337   1.277   4.863 -0.0358 -0.5709  0.2742
 3077SOL    HW120864   2.273   1.332   4.819  0.7228 -1.7638 -2.2823
 3077SOL    HW220865   2.310   1.195   4.822 -0.5918 -1.3355  2.1414
 3078SOL     OW20866   1.241   0.282   4.093  0.3143  0.6552 -0.0969
 3078SOL    HW120867   1.299   0.237   4.155  0.8572 -1.6824 -2.3050
 3078SOL    HW220868   1.300   0.349   4.061  1.7739 -0.6898 -0.2234
 3079SOL     OW20869   0.616   0.133  15.821  0.0037 -0.0912  0.0851
 3079SOL    HW120870   0.640   0.109  15.911  0.2493  1.1094  0.3324
 3079SOL    HW220871   0.687   0.194  15.802 -0.8468  0.7084 -0.5279
 3080SOL     OW20872   3.494   3.456  11.140 -0.1071  0.2687  0.3733
 3080SOL    HW120873   3.461   3.395  11.206  1.8062 -0.5908  0.5389
 3080SOL    HW220874   3.520   3.524  11.202  3.1164 -1.5042  0.9496
 3081SOL     OW20875   3.286   1.244   8.948 -0.5497 -0.1785  0.4374
 3081SOL    HW120876   3.294   1.230   8.853  0.9555  2.5189  0.1690
 3081SOL    HW220877   3.376   1.219   8.969 -0.5002 -0.8657 -0.5700
 3082SOL     OW20878   2.379   4.274   2.257 -0.2664  0.2433 -0.1241
 3082SOL    HW120879   2.316   4.225   2.310 -0.6225 -0.3899 -1.1369
 3082SOL    HW220880   2.399   4.217   2.184 -0.0478  0.8065 -0.5058
 3083SOL     OW20881   1.948   1.440  12.501  0.7467  0.5701  0.1454
 3083SOL    HW120882   1.934   1.372  12.435  0.3834 -1.1366  1.9835
 3083SOL    HW220883   1.929   1.382  12.575 -1.5983  1.5975  0.3469
 3084SOL     OW20884   0.607   4.150   7.326  0.0255  0.3070 -0.0493
 3084SOL    HW120885   0.656   4.071   7.350  2.1288  1.2831 -1.1401
 3084SOL    HW220886   0.562   4.166   7.409  1.1031  0.4895  0.5016
 3085SOL     OW20887   4.020   1.095  16.781 -0.3425  0.0614  0.1445
 3085SOL    HW120888   4.095   1.118  16.726 -2.4921 -1.0170 -3.2026
 3085SOL    HW220889   3.951   1.061  16.724  0.1516  0.3917 -0.6564
 3086SOL     OW20890   3.941   0.025   1.473 -0.1476  0.2787 -0.7941
 3086SOL    HW120891   3.969   4.730   1.386  2.3468  2.5971 -0.7580
 3086SOL    HW220892   3.888   0.103   1.457 -1.8622 -1.0253 -1.4806
 3087SOL     OW20893   4.451   0.048   8.878 -0.4158  0.3511 -0.3760
 3087SOL    HW120894   4.398   0.125   8.859  0.1463  0.8677  0.1660
 3087SOL    HW220895   4.523   0.087   8.927 -0.5528 -0.6999  0.6454
 3088SOL     OW20896   0.381   3.537   9.899  0.5825  0.3659  0.2123
 3088SOL    HW120897   0.326   3.498   9.967 -1.4409  0.9504 -1.1158
 3088SOL    HW220898   0.365   3.482   9.822  1.1867  0.9525 -0.3346
 3089SOL     OW20899   1.441   2.377  16.634 -0.2469  0.1604  0.3795
 3089SOL    HW120900   1.401   2.348  16.552 -0.7294 -1.1115  1.0698
 3089SOL    HW220901   1.532   2.363  16.607 -0.9559  1.5280 -2.6982
 3090SOL     OW20902   1.928   0.236   8.467  0.1360  0.3811 -0.6424
 3090SOL    HW120903   2.008   0.186   8.482 -0.7682 -0.8458  0.0739
 3090SOL    HW220904   1.912   0.216   8.375 -2.1289 -0.2675 -0.1253
 3091SOL     OW20905   4.334   0.350  14.487 -0.2219  0.0573  0.4649
 3091SOL    HW120906   4.243   0.326  14.506  0.1713 -1.2993  0.6848
 3091SOL    HW220907   4.336   0.445  14.492 -1.0811  0.0552  0.8783
 3092SOL     OW20908   1.381   2.861   4.222  0.4391  0.2415  0.3217
 3092SOL    HW120909   1.413   2.784   4.268  1.0524  0.0321 -0.4635
 3092SOL    HW220910   1.357   2.818   4.140 -0.2366  1.8093 -0.3046
 3093SOL     OW20911   2.494   4.124   6.993 -0.4167 -0.2357 -0.6046
 3093SOL    HW120912   2.578   4.131   6.948  0.1360  0.0914  0.4799
 3093SOL    HW220913   2.478   4.217   7.007 -2.8962 -0.7102 -0.1931
 3094SOL     OW20914   2.104   1.385   0.440 -0.1521 -0.3310 -0.4763
 3094SOL    HW120915   2.071   1.454   0.496  0.6474 -1.6409  1.6067
 3094SOL    HW220916   2.081   1.404   0.349  1.3607 -1.2633 -1.0603
 3095SOL     OW20917   3.828   3.981   4.176 -0.1259  0.3794 -0.1283
 3095SOL    HW120918   3.874   3.996   4.093 -0.4670 -0.5990 -0.5016
 3095SOL    HW220919   3.735   3.983   4.155 -0.0487 -0.4819 -0.5840
 3096SOL     OW20920   2.065   0.318  16.496 -0.2359 -0.4432  0.0938
 3096SOL    HW120921   2.155   0.333  16.526  1.0493 -2.9959 -2.4649
 3096SOL    HW220922   2.076   0.231  16.458 -0.3249 -1.0676  1.5174
 3097SOL     OW20923   3.326   2.360   7.873 -0.4215 -0.4087 -0.0560
 3097SOL    HW120924   3.294   2.439   7.829  0.2306  1.4962  2.8944
 3097SOL    HW220925   3.258   2.294   7.856 -1.2792  0.8410 -1.4444
 3098SOL     OW20926   2.433   1.050   4.221  0.2202  0.5829  0.3471
 3098SOL    HW120927   2.410   0.960   4.198  0.0045  1.0882 -1.4300
 3098SOL    HW220928   2.463   1.035   4.311 -0.1141  1.6092  0.6308
 3099SOL     OW20929   0.904   3.306   4.836 -0.2046  0.2103 -0.5015
 3099SOL    HW120930   0.919   3.251   4.759  0.6925 -0.3706  0.0932
 3099SOL    HW220931   0.812   3.283   4.852 -0.5624  3.3088  1.9647
 3100SOL     OW20932   3.274   0.821   6.685 -0.0374 -0.1418  0.3324
 3100SOL    HW120933   3.183   0.833   6.713  0.1725  1.3686  0.3434
 3100SOL    HW220934   3.318   0.905   6.679  2.0141 -1.2613 -0.2749
 3101SOL     OW20935   4.365   3.807   0.752 -0.1933  0.0168  0.0219
 3101SOL    HW120936   4.426   3.734   0.754 -1.0162 -0.5301  4.6756
 3101SOL    HW220937   4.346   3.810   0.658  0.8156 -0.0066 -0.1806
 3102SOL     OW20938   1.896   1.710   7.191 -0.5460 -0.2422 -0.1912
 3102SOL    HW120939   1.817   1.682   7.238 -0.5432 -0.0983 -0.1024
 3102SOL    HW220940   1.856   1.734   7.107  0.8988  0.1626 -0.7512
 3103SOL     OW20941   0.346   2.508   1.739  0.0165  0.1123 -0.2848
 3103SOL    HW120942   0.257   2.475   1.732  1.0111 -2.4913 -0.3747
 3103SOL    HW220943   0.370   2.492   1.648 -0.6876  1.8673 -0.7835
 3104SOL     OW20944   3.084   1.098   1.610 -0.1617  0.0662  0.1639
 3104SOL    HW120945   3.054   1.097   1.519  0.0930 -0.7288  0.0912
 3104SOL    HW220946   3.021   1.037   1.647 -1.3951  0.9138 -0.5402
 3105SOL     OW20947   0.034   1.623   5.694  0.1428  0.0657 -1.0313
 3105SOL    HW120948   4.714   1.568   5.638 -1.1833 -0.3766  0.7002
 3105SOL    HW220949   0.119   1.580   5.684  2.3633  3.7968  1.7712
 3106SOL     OW20950   1.640   1.034  17.215  0.5055  0.0035 -0.0170
 3106SOL    HW120951   1.574   1.033  17.284 -0.6846  2.3225 -1.1233
 3106SOL    HW220952   1.676   1.123  17.220  0.9685 -0.1713 -0.2190
 3107SOL     OW20953   2.181   2.596   6.013 -0.5859 -0.0739 -0.0528
 3107SOL    HW120954   2.113   2.549   6.062  0.7150  0.5740  2.3742
 3107SOL    HW220955   2.256   2.570   6.066 -1.4171 -0.5311  0.9026
 3108SOL     OW20956   3.282   0.933   3.576  0.2944  0.1086 -0.1663
 3108SOL    HW120957   3.337   0.900   3.647  0.4588  1.5539  0.3878
 3108SOL    HW220958   3.242   1.011   3.615 -3.0493 -1.5555 -0.2530
 3109SOL     OW20959   3.081   1.470  11.158  0.3571  0.0794  0.1947
 3109SOL    HW120960   3.004   1.525  11.144  0.4300  0.7120  2.2020
 3109SOL    HW220961   3.160   1.516  11.133 -0.0621  0.1969 -0.8954
 3110SOL     OW20962   4.467   0.698   7.344 -0.3240  0.3007 -0.6205
 3110SOL    HW120963   4.435   0.608   7.348  0.9975 -0.1481 -0.2129
 3110SOL    HW220964   4.405   0.743   7.402  0.2593 -0.9511  0.9730
 3111SOL     OW20965   3.580   1.429   4.872 -0.3863  0.2621 -0.4700
 3111SOL    HW120966   3.674   1.415   4.886 -0.2927  1.5721  0.1769
 3111SOL    HW220967   3.576   1.440   4.777 -0.1328  1.2497 -0.3657
 3112SOL     OW20968   0.746   4.056   9.074  0.2175  0.3483 -0.2653
 3112SOL    HW120969   0.758   3.968   9.038  1.1237  0.4822 -0.2876
 3112SOL    HW220970   0.831   4.061   9.116  1.2107 -2.2696 -1.9676
 3113SOL     OW20971   3.067   1.871   1.682  0.0269  0.2199  0.0981
 3113SOL    HW120972   3.041   1.810   1.750  0.9122 -1.3463 -0.9626
 3113SOL    HW220973   3.121   1.938   1.724  0.3511  1.1548 -1.8057
 3114SOL     OW20974   4.397   0.548   3.797 -0.1301  0.0896 -0.6773
 3114SOL    HW120975   4.416   0.579   3.885  1.7123  0.8823 -1.3420
 3114SOL    HW220976   4.303   0.562   3.805 -0.0438  0.3321 -0.0946
 3115SOL     OW20977   3.959   2.886   6.022  0.0440  0.1287  0.0390
 3115SOL    HW120978   3.924   2.813   6.073 -1.4639  0.4974 -0.4746
 3115SOL    HW220979   4.049   2.857   6.004 -0.0491 -1.2505  1.8109
 3116SOL     OW20980   4.715   3.768   5.792  0.4172  0.0467 -0.0238
 3116SOL    HW120981   4.673   3.683   5.803  2.4763 -0.9963 -0.1775
 3116SOL    HW220982   4.682   3.796   5.707  0.1190 -0.0559  0.0575
 3117SOL     OW20983   1.624   2.911   8.351 -0.2093  0.3983  0.1576
 3117SOL    HW120984   1.561   2.842   8.331 -0.9881  0.5909  1.8547
 3117SOL    HW220985   1.707   2.868   8.369 -0.1222  1.4101  2.3024
 3118SOL     OW20986   4.049   3.158   8.043 -0.4306 -0.1954 -0.4460
 3118SOL    HW120987   3.988   3.131   8.112 -0.5805  0.4963 -0.3000
 3118SOL    HW220988   4.089   3.235   8.083  1.3503 -1.1995 -0.2990
 3119SOL     OW20989   1.694   0.106  14.126  0.2212  0.4756 -0.1966
 3119SOL    HW120990   1.681   0.156  14.046  0.8479  0.2239 -0.4552
 3119SOL    HW220991   1.689   0.025  14.076 -4.6823  0.4888  0.2784
 3120SOL     OW20992   0.737   1.739  17.133  0.1175 -0.1513  0.3987
 3120SOL    HW120993   0.756   1.751  17.226 -2.5078 -1.5552  1.1164
 3120SOL    HW220994   0.819   1.693  17.116  1.0671  1.2679  1.1642
 3121SOL     OW20995   2.245   1.998   8.815  0.5207  0.1715 -0.1603
 3121SOL    HW120996   2.187   1.923   8.798  1.5228 -0.6506  0.0848
 3121SOL    HW220997   2.287   1.966   8.895  0.1837 -0.8477 -0.3871
 3122SOL     OW20998   3.795   3.747   7.481 -0.3034  0.6819  0.4879
 3122SOL    HW120999   3.869   3.700   7.443 -0.1160  0.9418  0.5277
 3122SOL    HW221000   3.721   3.720   7.426  1.0816  0.3644 -1.1939
 3123SOL     OW21001   2.311   2.321   5.047  0.5758  0.7354  0.2074
 3123SOL    HW121002   2.237   2.334   5.107  0.2477  0.1626 -0.0675
 3123SOL    HW221003   2.270   2.276   4.973 -0.8105  1.0216  0.8001
 3124SOL     OW21004   2.811   2.278   9.527  0.3427 -0.6805  0.1674
 3124SOL    HW121005   2.768   2.317   9.603  1.5375 -0.4113  0.7052
 3124SOL    HW221006   2.781   2.190   9.551 -0.5687 -1.1059 -2.5690
 3125SOL     OW21007   0.604   0.666   6.197  0.1816  0.2252  0.1904
 3125SOL    HW121008   0.593   0.746   6.146  2.5049  0.0806 -0.5317
 3125SOL    HW221009   0.515   0.631   6.204  0.1594  0.0828 -0.7961
 3126SOL     OW21010   3.233   3.879   6.490  0.0351  0.8942  0.1318
 3126SOL    HW121011   3.281   3.811   6.538  1.4992  0.9518 -1.2271
 3126SOL    HW221012   3.296   3.940   6.451  0.2441  0.3572 -0.3705
 3127SOL     OW21013   1.088   1.325   3.980 -0.2565 -0.0886 -0.3727
 3127SOL    HW121014   1.052   1.302   4.065  0.7266 -0.1982  0.0161
 3127SOL    HW221015   1.023   1.275   3.931  2.0938 -2.0566 -1.4673
 3128SOL     OW21016   3.718   1.966  10.860  0.4384 -0.0156 -0.1301
 3128SOL    HW121017   3.776   2.037  10.835 -0.8327  1.1638  0.3057
 3128SOL    HW221018   3.727   1.902  10.789  0.7523 -1.1502  0.9394
 3129SOL     OW21019   3.075   4.005   4.523  0.1920  0.2432 -0.5872
 3129SOL    HW121020   2.998   4.015   4.578  1.4339 -1.4262  1.4550
 3129SOL    HW221021   3.113   3.925   4.559  0.0486  0.7060  0.6097
 3130SOL     OW21022   1.731   3.993   3.356  0.3006  0.1255  0.1035
 3130SOL    HW121023   1.780   4.021   3.279  0.1626  1.2348  0.4099
 3130SOL    HW221024   1.657   4.052   3.342  2.3079  2.7067  0.4778
 3131SOL     OW21025   0.064   0.008   7.973 -0.3710  0.1065  0.3524
 3131SOL    HW121026   4.733   0.071   7.944 -0.8723 -0.8014 -0.5090
 3131SOL    HW221027   0.086   0.022   8.065 -0.3894 -1.3204  0.5785
 3132SOL     OW21028   1.588   2.177   4.550  0.1331  0.3414 -0.5208
 3132SOL    HW121029   1.676   2.216   4.551 -0.3989  1.5244  0.3135
 3132SOL    HW221030   1.533   2.254   4.567 -0.4343  0.5151 -3.1091
 3133SOL     OW21031   3.133   1.171   2.792 -0.4611  0.3045 -0.0343
 3133SOL    HW121032   3.170   1.147   2.877  2.7538 -0.0280 -1.5151
 3133SOL    HW221033   3.045   1.135   2.800 -0.4708 -0.0070 -1.4286
 3134SOL     OW21034   4.437   0.239   3.249  0.0378 -0.3710  0.2939
 3134SOL    HW121035   4.473   0.315   3.295 -0.8465  0.6358 -0.6580
 3134SOL    HW221036   4.354   0.269   3.212 -0.1808  1.2965  2.1867
 3135SOL     OW21037   0.143   1.763   0.082 -0.2463  0.1516 -0.2484
 3135SOL    HW121038   0.132   1.858   0.091  0.5610 -0.0666  2.7452
 3135SOL    HW221039   0.150   1.758  17.724 -0.9448 -1.6378 -0.1948
 3136SOL     OW21040   0.564   2.661  11.495  0.6004  0.4286 -0.2366
 3136SOL    HW121041   0.489   2.609  11.464  0.6681 -0.3783  0.9544
 3136SOL    HW221042   0.568   2.636  11.587  1.1536 -2.1287 -0.9410
 3137SOL     OW21043   0.649   3.681   8.353 -0.3211  0.5362 -0.4363
 3137SOL    HW121044   0.605   3.741   8.414 -0.1705 -0.0006  0.1947
 3137SOL    HW221045   0.662   3.603   8.406  0.9749  0.4205 -0.9159
 3138SOL     OW21046   3.170   0.971  17.694  1.0004 -0.1642 -0.0504
 3138SOL    HW121047   3.251   1.005  17.656  0.1237  0.7144 -1.1490
 3138SOL    HW221048   3.178   0.876  17.683 -2.3677 -0.3849 -0.8229
 3139SOL     OW21049   1.759   2.406   1.876  0.1802 -0.6038 -0.3639
 3139SOL    HW121050   1.693   2.474   1.865 -1.5173 -2.8607 -4.1911
 3139SOL    HW221051   1.812   2.411   1.796  1.4740  1.1840  0.6221
 3140SOL     OW21052   4.370   4.154  10.492 -0.1699  0.0724  0.3029
 3140SOL    HW121053   4.454   4.109  10.504  1.1266  1.8696 -2.0841
 3140SOL    HW221054   4.325   4.086  10.441 -1.5208 -1.2332  3.2103
 3141SOL     OW21055   3.686   1.736  17.704 -0.4588  0.4752  0.1936
 3141SOL    HW121056   3.614   1.681  17.736  0.4506 -1.8220 -1.7193
 3141SOL    HW221057   3.757   1.722   0.029 -0.3264 -0.4820 -0.1653
 3142SOL     OW21058   0.504   4.402  14.268  0.3948  0.1278 -0.0216
 3142SOL    HW121059   0.425   4.456  14.260 -1.1621 -2.4742 -2.0060
 3142SOL    HW221060   0.559   4.437  14.198  1.5671 -1.8802 -0.1043
 3143SOL     OW21061   3.885   2.479   6.429  0.1738  0.8838 -0.4173
 3143SOL    HW121062   3.977   2.505   6.437  0.8829 -1.3322 -1.2425
 3143SOL    HW221063   3.895   2.384   6.438  1.3277  1.1644  1.2036
 3144SOL     OW21064   3.075   2.778   3.946  0.4250  0.5362 -0.1071
 3144SOL    HW121065   3.050   2.717   4.015 -1.2354  1.1225 -0.1969
 3144SOL    HW221066   3.058   2.723   3.870  0.8599 -0.0337  0.2066
 3145SOL     OW21067   4.600   2.903  17.677  0.0368 -0.1958 -0.2404
 3145SOL    HW121068   4.638   2.990  17.669  0.6828 -0.5030 -0.4809
 3145SOL    HW221069   4.644   2.868   0.017 -1.5209 -2.5838 -0.4456
 3146SOL     OW21070   0.305   1.343   4.494  0.2617  0.3278  0.1414
 3146SOL    HW121071   0.281   1.288   4.568 -2.8040  1.3432 -0.1140
 3146SOL    HW221072   0.355   1.417   4.528 -0.7927 -0.1521  2.6666
 3147SOL     OW21073   0.113   3.003   5.261 -1.0925  0.0084  0.2710
 3147SOL    HW121074   0.051   3.076   5.272  0.2129  1.2112 -0.3265
 3147SOL    HW221075   0.122   2.979   5.353 -0.7325  1.0694  0.5188
 3148SOL     OW21076   0.412   3.256   1.643  0.6923  1.0842 -0.3258
 3148SOL    HW121077   0.402   3.240   1.549 -0.2693  1.8885 -0.3639
 3148SOL    HW221078   0.435   3.170   1.677 -0.7859  1.0876  0.6908
 3149SOL     OW21079   4.064   0.400   6.702  0.1411 -0.9581 -0.1377
 3149SOL    HW121080   4.068   0.432   6.792  1.4181  2.4111 -1.3811
 3149SOL    HW221081   3.999   0.462   6.669  1.6487 -1.1120 -3.4237
 3150SOL     OW21082   2.182   0.507  16.209  0.0256  0.3959 -0.5992
 3150SOL    HW121083   2.192   0.412  16.212 -1.6139  0.2330 -0.5208
 3150SOL    HW221084   2.124   0.521  16.135 -0.2053  3.8442  0.1907
 3151SOL     OW21085   3.035   4.124  17.230  0.1790  0.2914  0.6481
 3151SOL    HW121086   3.111   4.084  17.187  0.5578  0.3625  1.2431
 3151SOL    HW221087   2.975   4.105  17.158 -0.1776  1.8859  0.5369
 3152SOL     OW21088   2.121   3.196   3.818  0.6333 -0.0655 -0.3240
 3152SOL    HW121089   2.215   3.182   3.812  0.8015  0.7195  0.5303
 3152SOL    HW221090   2.117   3.289   3.837  1.4344 -0.4579  1.8116
 3153SOL     OW21091   1.588   2.641   9.617 -0.4842 -0.2110 -0.2183
 3153SOL    HW121092   1.670   2.608   9.653 -0.2427  0.3614 -0.2430
 3153SOL    HW221093   1.535   2.655   9.695  0.3821  1.9965 -0.0208
 3154SOL     OW21094   1.579   2.751   5.749  0.5259 -0.4378 -0.4171
 3154SOL    HW121095   1.644   2.821   5.755  0.1032 -0.0004 -0.8970
 3154SOL    HW221096   1.509   2.803   5.709  1.1469  2.0929  1.7543
 3155SOL     OW21097   1.682   0.082  11.410  0.0541  0.0948 -0.6473
 3155SOL    HW121098   1.704   0.163  11.363  2.1541 -1.5082 -2.4030
 3155SOL    HW221099   1.634   0.034  11.343  1.8198 -1.9395 -0.4564
 3156SOL     OW21100   1.437   1.876   3.521 -0.6018  0.3071 -0.6140
 3156SOL    HW121101   1.514   1.901   3.572 -0.2481 -1.0062 -0.5019
 3156SOL    HW221102   1.439   1.781   3.534 -0.8640  0.5096  0.9394
 3157SOL     OW21103   1.856   0.103  14.351 -0.2464  0.0819 -0.2447
 3157SOL    HW121104   1.853   0.195  14.324 -1.1528  0.2647  0.4696
 3157SOL    HW221105   1.809   0.068  14.276 -1.4996 -0.1659  0.6451
 3158SOL     OW21106   0.820   4.685   7.062 -0.2187  0.4480  0.4805
 3158SOL    HW121107   0.842   0.030   7.110  1.2871 -0.1975  0.8632
 3158SOL    HW221108   0.890   4.685   6.997 -0.0947  0.0993  0.6151
 3159SOL     OW21109   4.645   3.378  14.447  0.5560 -0.4245  0.0981
 3159SOL    HW121110   0.001   3.384  14.416  0.1979  2.5725 -0.3390
 3159SOL    HW221111   4.619   3.337  14.365  2.0826 -0.1131 -0.5531
 3160SOL     OW21112   0.029   2.612  13.671 -0.1426  0.3902 -0.0011
 3160SOL    HW121113   0.001   2.660  13.593 -2.0541 -1.7317 -0.6076
 3160SOL    HW221114   4.683   2.561  13.676 -1.6053  2.6846 -0.2021
 3161SOL     OW21115   2.536   3.730  11.973 -0.0890  0.3173 -0.1145
 3161SOL    HW121116   2.583   3.658  12.015  0.0465 -0.6129 -1.8379
 3161SOL    HW221117   2.467   3.684  11.926 -0.9031  2.0442 -0.6057
 3162SOL     OW21118   1.204   1.138   5.340 -0.5497 -0.1789 -0.5975
 3162SOL    HW121119   1.278   1.132   5.281 -0.3891 -0.6438 -0.3521
 3162SOL    HW221120   1.245   1.132   5.427 -0.2326 -2.0649 -0.8646
 3163SOL     OW21121   3.972   3.621  11.654  0.1966 -0.5175 -0.4283
 3163SOL    HW121122   4.042   3.621  11.720 -2.0938 -0.3628  1.9958
 3163SOL    HW221123   3.977   3.713  11.629 -0.0953 -0.1158  0.9820
 3164SOL     OW21124   3.598   1.806   5.042 -0.1414 -0.0705 -0.4230
 3164SOL    HW121125   3.506   1.786   5.024  0.0301 -1.8008  0.6211
 3164SOL    HW221126   3.602   1.790   5.136 -1.2178  1.4217 -0.1248
 3165SOL     OW21127   3.588   4.551   1.462 -0.8802 -0.2158  0.6948
 3165SOL    HW121128   3.537   4.550   1.542  1.3064  1.3467  2.1006
 3165SOL    HW221129   3.678   4.538   1.491 -0.8727 -2.7009 -0.4361
 3166SOL     OW21130   4.255   4.079  12.497  0.0143 -0.0315  0.7601
 3166SOL    HW121131   4.263   4.155  12.440 -1.9690  0.6563  1.3882
 3166SOL    HW221132   4.325   4.020  12.471  0.0787  1.1875 -1.8295
 3167SOL     OW21133   2.947   0.281   7.328 -0.2829  0.0805  0.3274
 3167SOL    HW121134   2.852   0.289   7.316 -0.4371 -1.1896  0.6918
 3167SOL    HW221135   2.953   0.185   7.323 -1.3419  0.0457 -0.4430
 3168SOL     OW21136   0.641   3.214  16.903  0.2599  0.3147  0.0438
 3168SOL    HW121137   0.564   3.263  16.875 -0.3845 -0.9816 -0.4987
 3168SOL    HW221138   0.617   3.122  16.886 -1.3627  0.3083  2.2990
 3169SOL     OW21139   1.676   1.228   2.493 -0.2067 -0.0043  0.5251
 3169SOL    HW121140   1.612   1.226   2.421 -0.3783 -1.9976  0.7423
 3169SOL    HW221141   1.755   1.208   2.443 -1.0545 -0.8353 -0.5005
 3170SOL     OW21142   4.390   0.513  10.772  0.6550  0.0156  0.0307
 3170SOL    HW121143   4.382   0.592  10.826  2.7956  0.1720  0.1176
 3170SOL    HW221144   4.443   0.544  10.699  0.7462 -3.9237 -1.5350
 3171SOL     OW21145   0.549   2.099   2.343  0.2938  0.0009  0.1140
 3171SOL    HW121146   0.536   2.118   2.437 -1.2840 -0.0777 -0.0787
 3171SOL    HW221147   0.517   2.180   2.303  1.0793  0.2300 -0.0424
 3172SOL     OW21148   4.304   2.455   3.670  0.2274 -0.1205  0.0734
 3172SOL    HW121149   4.330   2.522   3.733  4.9737 -1.0752 -0.8808
 3172SOL    HW221150   4.296   2.375   3.723 -1.3041 -1.8066 -2.7448
 3173SOL     OW21151   3.033   3.059  17.654  0.4408  0.1416 -0.5491
 3173SOL    HW121152   2.972   3.132  17.649  1.3082  0.9421  0.6063
 3173SOL    HW221153   2.984   2.988  17.612 -1.6059  2.2476 -1.7312
 3174SOL     OW21154   0.642   1.773   7.055 -0.4567 -0.1505 -0.0786
 3174SOL    HW121155   0.616   1.832   7.126  0.5838 -0.3875  0.5131
 3174SOL    HW221156   0.595   1.810   6.981 -0.3286  1.1920  0.5035
 3175SOL     OW21157   1.888   4.498   6.192 -0.4289 -0.1184  0.4369
 3175SOL    HW121158   1.887   4.402   6.188 -1.0750 -0.1862  2.2861
 3175SOL    HW221159   1.958   4.527   6.251 -1.3229  0.1337  1.3757
 3176SOL     OW21160   1.239   1.808   9.452 -0.9063 -0.1207  1.2226
 3176SOL    HW121161   1.187   1.888   9.453 -0.1039  0.4243 -0.4550
 3176SOL    HW221162   1.257   1.805   9.546  0.7808 -0.5800  0.8977
 3177SOL     OW21163   3.130   4.061   3.234  0.3892  0.0137 -0.2243
 3177SOL    HW121164   3.141   4.140   3.288  0.3657  0.2694 -0.5938
 3177SOL    HW221165   3.219   4.026   3.240  0.7899  0.7147 -2.0777
 3178SOL     OW21166   0.487   2.420   6.125 -0.2531  0.5039 -0.4009
 3178SOL    HW121167   0.468   2.434   6.217  1.6472  1.5607 -0.1625
 3178SOL    HW221168   0.408   2.378   6.093  0.2208 -0.4293 -0.3489
 3179SOL     OW21169   0.412   3.808   9.803  0.5981 -0.8208 -0.1457
 3179SOL    HW121170   0.364   3.732   9.836 -1.1166  1.5038  2.6056
 3179SOL    HW221171   0.362   3.883   9.835  3.5914  0.3139  1.7991
 3180SOL     OW21172   0.224   1.900   2.488  0.2246  0.3236 -0.0230
 3180SOL    HW121173   0.278   1.827   2.456 -0.7894 -0.9652  1.2251
 3180SOL    HW221174   0.204   1.878   2.579  0.4218 -2.4514 -0.6466
 3181SOL     OW21175   1.942   3.015   1.012  0.0516 -0.7795  0.7502
 3181SOL    HW121176   1.861   3.051   1.046 -0.6730  1.1464 -2.9679
 3181SOL    HW221177   2.008   3.038   1.077  1.2863 -1.4747 -0.2629
 3182SOL     OW21178   1.851   1.797   1.714 -0.0585  0.7068  0.1672
 3182SOL    HW121179   1.873   1.849   1.792  1.7122 -0.7956  0.6818
 3182SOL    HW221180   1.784   1.742   1.756  2.0692 -2.7582 -1.0699
 3183SOL     OW21181   4.660   2.938   3.567 -0.0536 -0.4462  0.4894
 3183SOL    HW121182   4.598   2.913   3.499  1.3496 -1.0394 -0.5659
 3183SOL    HW221183   4.609   2.998   3.622  0.7816 -0.9827  1.8639
 3184SOL     OW21184   3.831   2.483   7.478 -0.1758  0.3076  0.0691
 3184SOL    HW121185   3.821   2.432   7.398 -2.3194  1.0277 -0.1353
 3184SOL    HW221186   3.807   2.416   7.541  0.7457 -0.9770 -0.9456
 3185SOL     OW21187   4.569   4.637  14.284 -0.0121 -0.1709  0.4582
 3185SOL    HW121188   4.665   4.640  14.276 -0.0152  1.1221  0.9429
 3185SOL    HW221189   4.536   4.726  14.294  2.0090  0.5457  0.7672
 3186SOL     OW21190   3.160   1.418   7.620  0.2668 -0.2091 -0.0278
 3186SOL    HW121191   3.221   1.411   7.547  0.0574  3.5437 -0.5480
 3186SOL    HW221192   3.076   1.445   7.582 -0.2455 -1.9345 -0.1216
 3187SOL     OW21193   3.975   4.437   9.808 -0.3050 -0.0216 -0.5941
 3187SOL    HW121194   4.017   4.481   9.735  1.4865  2.5546  1.9817
 3187SOL    HW221195   4.039   4.442   9.879 -1.7237  2.0192  0.5448
 3188SOL     OW21196   2.715   3.815  13.524  0.5417  0.0043  0.3251
 3188SOL    HW121197   2.770   3.817  13.446  0.9823  0.6355  0.6484
 3188SOL    HW221198   2.685   3.726  13.507  3.4151 -0.8093 -0.6110
 3189SOL     OW21199   2.548   4.069   2.098  0.4686  0.3735 -0.4479
 3189SOL    HW121200   2.613   4.003   2.120 -1.3840 -0.9526  0.9935
 3189SOL    HW221201   2.471   4.018   2.072  1.2475 -1.8798  1.7409
 3190SOL     OW21202   1.945   3.425   4.312 -0.2419 -0.6647  0.0940
 3190SOL    HW121203   1.972   3.499   4.366  1.1710 -0.5400 -0.7727
 3190SOL    HW221204   2.025   3.402   4.264 -0.1199  0.5240 -0.2861
 3191SOL     OW21205   2.744   1.851   2.511  0.0860  0.1855 -0.2472
 3191SOL    HW121206   2.815   1.801   2.470 -1.1866  0.8240 -3.2473
 3191SOL    HW221207   2.785   1.885   2.590  0.1484  0.9887 -0.6304
 3192SOL     OW21208   3.206   1.950   7.026 -0.4580  0.2815 -0.0541
 3192SOL    HW121209   3.269   1.995   7.082  0.2531 -0.0661 -0.5722
 3192SOL    HW221210   3.221   1.861   7.059 -1.0149  0.5224  0.8485
 3193SOL     OW21211   1.742   4.577  11.795 -0.0647 -0.2786 -1.1451
 3193SOL    HW121212   1.796   4.569  11.716 -0.3590  1.6187 -1.5229
 3193SOL    HW221213   1.683   4.647  11.768 -1.1328 -1.2451 -1.2813
 3194SOL     OW21214   3.349   2.130   6.533  0.1322  0.2981 -0.1707
 3194SOL    HW121215   3.258   2.108   6.511 -0.3177 -1.1866  3.1897
 3194SOL    HW221216   3.398   2.048   6.534  0.8077  0.6732 -1.9124
 3195SOL     OW21217   3.529   1.575   7.843  0.2032 -0.2052  0.2516
 3195SOL    HW121218   3.594   1.564   7.913 -1.2261 -1.9803  1.3074
 3195SOL    HW221219   3.489   1.657   7.872  1.2904  1.3529 -2.6470
 3196SOL     OW21220   4.630   3.168   5.531  0.4532 -0.0870  0.0495
 3196SOL    HW121221   4.725   3.166   5.537  0.6064  0.8674 -2.1881
 3196SOL    HW221222   4.616   3.226   5.456 -0.7710  1.3613  1.3942
 3197SOL     OW21223   2.954   0.378  11.014 -0.3598  0.4329  0.4422
 3197SOL    HW121224   3.016   0.372  11.087  0.2035 -0.7618 -0.1341
 3197SOL    HW221225   2.981   0.304  10.959  0.0093 -0.1113  1.3639
 3198SOL     OW21226   4.082   2.143   3.751 -0.0546  0.5721  0.5003
 3198SOL    HW121227   4.147   2.137   3.821  1.8535 -2.0708 -1.5052
 3198SOL    HW221228   4.044   2.055   3.754  0.8136  0.2009  0.8023
 3199SOL     OW21229   3.020   2.025   5.365  0.4222  0.2949 -0.2349
 3199SOL    HW121230   2.978   2.104   5.398 -0.2847 -0.8422  1.5616
 3199SOL    HW221231   3.031   2.065   5.279  1.2531  2.2536  0.7987
 3200SOL     OW21232   4.159   3.419   2.624 -0.5591  0.5454 -0.6963
 3200SOL    HW121233   4.245   3.398   2.587 -0.2434  1.5881 -0.5743
 3200SOL    HW221234   4.108   3.431   2.544  1.2008  2.1698 -1.5775
 3201SOL     OW21235   2.916   2.069   8.050  0.2764  0.1793  0.6836
 3201SOL    HW121236   2.951   2.079   7.962  0.8975 -2.4058  0.6619
 3201SOL    HW221237   2.909   1.975   8.068  0.5511 -0.5331 -3.0679
 3202SOL     OW21238   1.438   2.414   2.744 -0.0177  0.9349  0.2529
 3202SOL    HW121239   1.472   2.397   2.832  1.3680 -2.2986 -0.9098
 3202SOL    HW221240   1.519   2.443   2.703  0.4314  1.1060  1.2418
 3203SOL     OW21241   1.745   0.668   6.886  0.2450 -0.1388 -0.6941
 3203SOL    HW121242   1.739   0.751   6.933  2.0696 -0.1789 -0.4089
 3203SOL    HW221243   1.715   0.609   6.955  1.0541 -1.6487 -1.6226
 3204SOL     OW21244   3.347   1.711   7.088 -0.3182  0.7123 -0.4376
 3204SOL    HW121245   3.302   1.646   7.034 -1.6603 -0.5690  2.2252
 3204SOL    HW221246   3.360   1.657   7.167  1.1571  2.6485  0.6325
 3205SOL     OW21247   4.425   1.966  15.511  0.9789 -0.1263 -0.4744
 3205SOL    HW121248   4.405   1.944  15.420 -1.5650  0.2332 -0.0002
 3205SOL    HW221249   4.337   1.986  15.543  1.2486  0.9824 -0.4557
 3206SOL     OW21250   1.669   4.342   1.920  0.0097  0.8016  0.0413
 3206SOL    HW121251   1.720   4.317   1.843 -0.6881  0.9439 -0.4655
 3206SOL    HW221252   1.726   4.298   1.983  2.5412  1.9908 -1.4255
 3207SOL     OW21253   0.833   3.691   4.243  0.4789 -0.9505 -0.1494
 3207SOL    HW121254   0.820   3.626   4.173 -0.3435 -0.4875 -0.4161
 3207SOL    HW221255   0.929   3.697   4.238  0.5011 -3.3600 -2.7121
 3208SOL     OW21256   0.230   2.606   2.791  0.1981 -0.2148 -0.3621
 3208SOL    HW121257   0.186   2.598   2.875  0.2988 -0.0449 -0.2945
 3208SOL    HW221258   0.321   2.605   2.820  0.0243 -0.0164  0.1819
 3209SOL     OW21259   1.223   2.715   5.200 -0.3771 -0.0667  0.5526
 3209SOL    HW121260   1.239   2.794   5.148  3.0865 -1.2856 -0.1770
 3209SOL    HW221261   1.203   2.652   5.130 -2.3070  0.6132  0.4728
 3210SOL     OW21262   3.759   4.309   2.999  0.0773  0.7795 -0.1026
 3210SOL    HW121263   3.747   4.216   3.014  3.1014  0.4589  0.2673
 3210SOL    HW221264   3.847   4.309   2.961 -0.3486  0.9232 -1.0840
 3211SOL     OW21265   4.042   0.884  10.273  0.9722  0.5770  0.2569
 3211SOL    HW121266   4.115   0.824  10.290 -0.8323 -1.6572  0.1025
 3211SOL    HW221267   4.059   0.899  10.180 -2.1055  0.2155 -0.3608
 3212SOL     OW21268   4.520   3.379   8.852 -0.0141 -0.1466 -0.2932
 3212SOL    HW121269   4.583   3.442   8.819 -1.6162  1.5873 -0.0243
 3212SOL    HW221270   4.565   3.294   8.859 -0.7174 -0.3472  1.9648
 3213SOL     OW21271   0.674   3.035   9.704 -0.0701 -0.0448 -0.3782
 3213SOL    HW121272   0.607   3.077   9.650 -1.9067 -0.0779  1.8498
 3213SOL    HW221273   0.625   3.013   9.783  1.3851 -2.2914 -0.0940
 3214SOL     OW21274   4.419   4.474  15.097  0.0660  0.8584 -0.1176
 3214SOL    HW121275   4.499   4.460  15.047 -0.2516  2.6090 -1.1050
 3214SOL    HW221276   4.446   4.563  15.122 -1.0007  0.7969  1.2259
 3215SOL     OW21277   3.418   3.428   3.849  0.3616  0.8705  0.0079
 3215SOL    HW121278   3.383   3.340   3.862 -1.0131  1.1550 -1.7580
 3215SOL    HW221279   3.380   3.464   3.929  0.1883  0.6097  0.0433
 3216SOL     OW21280   4.444   2.617   6.494  0.2116  0.0840  0.4437
 3216SOL    HW121281   4.535   2.643   6.482 -0.4764  1.5542 -1.6483
 3216SOL    HW221282   4.438   2.550   6.426 -0.4056 -0.2921  0.8681
 3217SOL     OW21283   1.308   4.272   3.005  0.4315  0.1236 -0.4660
 3217SOL    HW121284   1.237   4.299   3.064 -1.0677 -2.5243 -1.0557
 3217SOL    HW221285   1.267   4.194   2.966 -1.5090  1.0497 -0.3166
 3218SOL     OW21286   0.598   3.835  11.081 -0.2774  0.5274 -0.5952
 3218SOL    HW121287   0.687   3.810  11.060 -0.3699  1.7007 -2.3307
 3218SOL    HW221288   0.582   3.903  11.015 -1.0710  1.1396  0.2194
 3219SOL     OW21289   3.849   2.139  15.590  0.0573  0.1893  0.1234
 3219SOL    HW121290   3.940   2.165  15.580  0.1499  0.4792  1.6955
 3219SOL    HW221291   3.814   2.194  15.520  0.3913 -2.2651 -1.9882
 3220SOL     OW21292   1.806   1.956  10.922  0.7918 -0.2274  0.7047
 3220SOL    HW121293   1.873   1.905  10.877  0.1764 -0.4540  0.0483
 3220SOL    HW221294   1.861   2.023  10.963 -0.7266  1.4969 -0.1109
 3221SOL     OW21295   0.425   2.076  17.422  0.9531  0.1877  0.3046
 3221SOL    HW121296   0.358   2.137  17.392 -0.1069 -0.3126  1.6621
 3221SOL    HW221297   0.450   2.036  17.338  0.6997  0.8139 -0.0687
 3222SOL     OW21298   1.182   3.661  13.160 -0.1235 -0.0515 -0.8551
 3222SOL    HW121299   1.177   3.757  13.161 -0.6670 -0.0923  1.4146
 3222SOL    HW221300   1.211   3.645  13.250 -0.9151 -0.3178 -0.6512
 3223SOL     OW21301   0.998   0.351  14.488  0.0826  0.0646  0.4121
 3223SOL    HW121302   0.992   0.388  14.576 -0.1400 -2.6400  1.5421
 3223SOL    HW221303   0.996   0.255  14.492 -0.2497  0.2095  3.7406
 3224SOL     OW21304   2.596   4.321   2.014  0.3868 -0.3401 -0.3701
 3224SOL    HW121305   2.578   4.243   2.067  0.5967  0.6261  1.1433
 3224SOL    HW221306   2.687   4.337   2.039  1.2688 -0.9246 -3.2395
 3225SOL     OW21307   0.289   0.430  16.701 -0.1866 -1.2816 -0.3953
 3225SOL    HW121308   0.369   0.473  16.671 -1.3565  0.4739 -0.9970
 3225SOL    HW221309   0.240   0.499  16.746  0.7467 -1.3817  0.7495
 3226SOL     OW21310   4.482   3.011  12.613  0.2328  0.1342  0.4984
 3226SOL    HW121311   4.556   2.951  12.613  0.1104 -0.0206  0.1780
 3226SOL    HW221312   4.498   3.077  12.681 -0.4529  0.9546 -0.1280
 3227SOL     OW21313   2.700   0.084   1.702 -0.5163 -0.2881  0.3395
 3227SOL    HW121314   2.659   0.096   1.616 -0.2253 -0.5471  0.1607
 3227SOL    HW221315   2.704   0.176   1.729  0.6138  0.4336 -2.2679
 3228SOL     OW21316   3.157   1.573   0.826  0.1144  0.4049  0.2575
 3228SOL    HW121317   3.174   1.665   0.803  1.3459  0.5511  1.7244
 3228SOL    HW221318   3.224   1.543   0.888 -0.3925  0.6137  0.9040
 3229SOL     OW21319   3.717   3.004   8.883 -0.1065  0.2444  0.3651
 3229SOL    HW121320   3.789   3.066   8.897 -0.5570  0.8596 -0.0001
 3229SOL    HW221321   3.680   3.011   8.971 -2.7688  0.2596 -0.7447
 3230SOL     OW21322   0.782   0.592  15.678  0.4940 -0.4217  0.2672
 3230SOL    HW121323   0.698   0.579  15.723 -0.5431  1.9327 -1.0096
 3230SOL    HW221324   0.823   0.506  15.684 -0.5572 -0.9074  0.5960
 3231SOL     OW21325   1.349   4.693   1.832 -0.4404  0.5046  0.2256
 3231SOL    HW121326   1.333   4.721   1.922 -0.7774  0.1191  0.2845
 3231SOL    HW221327   1.259   4.678   1.803 -0.6595  2.4374 -0.1454
 3232SOL     OW21328   3.382   0.240   0.452 -0.0888  0.5431 -0.2934
 3232SOL    HW121329   3.477   0.238   0.464 -0.0549 -1.5870 -1.0741
 3232SOL    HW221330   3.388   0.188   0.372  0.6555  0.6772 -0.3231
 3233SOL     OW21331   3.601   4.025  10.554 -0.9388  0.3874 -0.1294
 3233SOL    HW121332   3.583   4.054  10.465  0.2525 -0.3061 -0.5898
 3233SOL    HW221333   3.569   4.095  10.611  0.6575  0.8911  0.1605
 3234SOL     OW21334   1.007   1.007   3.454 -0.0719 -0.2044 -0.7276
 3234SOL    HW121335   0.962   0.998   3.370  2.0419  0.7973 -1.9834
 3234SOL    HW221336   0.944   0.982   3.521  1.9382 -1.9426  0.5254
 3235SOL     OW21337   4.488   1.245   9.091  0.2184 -0.1932  0.6211
 3235SOL    HW121338   4.502   1.217   9.000 -0.5857  0.1228  0.3940
 3235SOL    HW221339   4.403   1.291   9.086  0.5144  0.5076  2.0862
 3236SOL     OW21340   3.539   0.665   2.042  0.4913 -0.3493  0.1678
 3236SOL    HW121341   3.507   0.584   2.082  1.3832  0.0619  1.7131
 3236SOL    HW221342   3.460   0.719   2.032  0.7088 -0.1080 -0.2325
 3237SOL     OW21343   0.476   2.501  14.340 -0.0246  0.5159  0.3289
 3237SOL    HW121344   0.437   2.587  14.326  0.0698  0.9740  2.7763
 3237SOL    HW221345   0.419   2.481  14.415 -0.1989 -3.7662 -0.9363
 3238SOL     OW21346   3.296   1.191   5.456  0.5236  0.4149  0.4545
 3238SOL    HW121347   3.241   1.120   5.488 -1.8526  1.3949 -1.4349
 3238SOL    HW221348   3.285   1.190   5.361  0.0947 -0.9175  0.5254
 3239SOL     OW21349   3.749   0.565   5.822 -0.1678 -0.0100  0.5814
 3239SOL    HW121350   3.670   0.579   5.770  1.4076 -1.4441 -2.1764
 3239SOL    HW221351   3.715   0.562   5.912 -0.4014  0.7301  0.5201
 3240SOL     OW21352   3.262   0.925   0.751  0.2075 -0.2270  0.6865
 3240SOL    HW121353   3.267   0.839   0.710 -0.2856  0.1664 -0.1937
 3240SOL    HW221354   3.281   0.991   0.684  0.3520  0.3708  1.3121
 3241SOL     OW21355   1.333   3.659  16.021 -0.3580 -0.0783  0.7268
 3241SOL    HW121356   1.251   3.619  16.049 -0.3146 -0.6695 -0.0125
 3241SOL    HW221357   1.339   3.646  15.927 -1.6179 -3.8453  1.1864
 3242SOL     OW21358   2.626   2.453   4.684 -0.3301  0.1866 -0.4912
 3242SOL    HW121359   2.627   2.481   4.592  1.9186 -1.7686 -1.0693
 3242SOL    HW221360   2.569   2.376   4.682  0.8285 -0.7318  2.2621
 3243SOL     OW21361   2.454   4.199   7.583 -0.2806 -0.3942 -0.0015
 3243SOL    HW121362   2.377   4.142   7.581  0.1718 -0.8799 -3.0906
 3243SOL    HW221363   2.488   4.179   7.496 -1.1713  1.2433 -0.7367
 3244SOL     OW21364   3.739   2.991  12.635 -0.4322  0.2937  0.7256
 3244SOL    HW121365   3.801   2.940  12.687  0.5971  0.6253 -0.1663
 3244SOL    HW221366   3.665   2.938  12.664 -0.0094 -0.4339  0.4647
 3245SOL     OW21367   2.253   1.585  17.265 -0.3723  0.2479 -0.0866
 3245SOL    HW121368   2.194   1.583  17.340 -0.7797 -1.3052 -0.4553
 3245SOL    HW221369   2.320   1.650  17.287 -0.7112  0.7119 -0.4276
 3246SOL     OW21370   2.829   0.003   6.237 -0.1330  0.4627  0.3376
 3246SOL    HW121371   2.799   4.684   6.164 -0.3942 -0.0712  0.8333
 3246SOL    HW221372   2.750   0.049   6.266  0.4231  0.6616  1.5466
 3247SOL     OW21373   3.513   1.208   1.975  0.7160 -0.1685 -0.4288
 3247SOL    HW121374   3.583   1.221   1.910 -0.6656  1.4348 -1.5964
 3247SOL    HW221375   3.463   1.138   1.932  1.9762 -2.0971  1.2715
 3248SOL     OW21376   1.988   0.509  16.986  0.4309 -0.3195  0.2988
 3248SOL    HW121377   1.995   0.415  17.004  1.6150 -0.6304 -1.7723
 3248SOL    HW221378   2.053   0.519  16.917 -0.2179 -0.3434 -0.3111
 3249SOL     OW21379   0.267   4.313  14.590  0.0284 -0.1904 -0.5341
 3249SOL    HW121380   0.285   4.405  14.575  0.8603 -0.6381 -2.2429
 3249SOL    HW221381   0.232   4.320  14.679 -0.0081  1.1859 -0.6696
 3250SOL     OW21382   0.192   0.103   0.120 -0.6546  0.0120 -0.3148
 3250SOL    HW121383   0.189   0.196   0.099 -0.0035 -0.1189 -0.9952
 3250SOL    HW221384   0.192   0.061   0.034 -1.0998 -0.4448 -0.0871
 3251SOL     OW21385   0.524   0.196   0.080  0.0790  0.4338 -0.4237
 3251SOL    HW121386   0.496   0.226  17.731 -0.2993 -0.6983 -0.6910
 3251SOL    HW221387   0.453   0.223   0.139 -0.2038  1.9897 -1.4823
 3252SOL     OW21388   0.121   3.867   7.292  0.3351  0.6541  0.1692
 3252SOL    HW121389   0.122   3.851   7.386 -0.6711  0.5487  0.1546
 3252SOL    HW221390   0.091   3.957   7.298 -1.9140  0.0627 -2.0194
 3253SOL     OW21391   4.281   3.988   9.144 -0.0981 -0.5692  0.0990
 3253SOL    HW121392   4.368   3.949   9.145  0.0421 -0.2228  1.2251
 3253SOL    HW221393   4.241   3.935   9.075 -0.8090 -1.5077  1.2394
 3254SOL     OW21394   2.865   3.730   2.894  0.1541 -0.6809 -0.3812
 3254SOL    HW121395   2.942   3.770   2.853  0.4468 -0.4304  0.4008
 3254SOL    HW221396   2.893   3.730   2.985  0.7159 -2.5086 -0.5597
 3255SOL     OW21397   4.681   1.517   2.265 -0.2947 -0.2198 -0.2503
 3255SOL    HW121398   0.018   1.513   2.328  1.2080 -1.7508 -2.0457
 3255SOL    HW221399   4.654   1.602   2.300  0.6968  0.0339 -0.0850
 3256SOL     OW21400   4.116   1.585   2.045  0.0795  0.0776 -0.0014
 3256SOL    HW121401   4.103   1.604   2.138 -0.4751 -0.2673 -0.0117
 3256SOL    HW221402   4.080   1.497   2.039 -0.1496  0.2100 -0.5517
 3257SOL     OW21403   2.206   0.822   4.563 -0.2286 -0.2363 -0.6253
 3257SOL    HW121404   2.142   0.756   4.591  0.0729 -1.3791 -2.6354
 3257SOL    HW221405   2.284   0.771   4.541 -1.6917 -2.4798 -0.5348
 3258SOL     OW21406   0.529   0.921  17.236  0.0892 -0.0887 -0.0325
 3258SOL    HW121407   0.475   0.894  17.311  1.5747 -0.4634  0.9076
 3258SOL    HW221408   0.459   0.952  17.179 -0.9992  0.1373  1.4356
 3259SOL     OW21409   2.559   2.748   6.339 -0.5082  0.6199 -0.4885
 3259SOL    HW121410   2.612   2.676   6.373 -1.5338  0.5949  1.0477
 3259SOL    HW221411   2.469   2.729   6.368 -0.5525 -0.0481 -1.0516
 3260SOL     OW21412   4.667   2.263   9.241 -0.4181 -0.6175 -0.7276
 3260SOL    HW121413   0.011   2.265   9.186  0.6137 -2.0546  0.7156
 3260SOL    HW221414   4.612   2.314   9.181 -3.1489 -2.3479  0.2667
 3261SOL     OW21415   4.259   3.969  14.280 -0.6034 -0.2701  0.2011
 3261SOL    HW121416   4.259   3.962  14.184  1.9719 -2.0591  0.3307
 3261SOL    HW221417   4.353   3.969  14.299 -0.8675  0.0978  1.5125
 3262SOL     OW21418   3.543   4.417  14.881 -0.0436  0.0931  0.3006
 3262SOL    HW121419   3.510   4.395  14.794  0.5409 -0.9497  0.3354
 3262SOL    HW221420   3.594   4.496  14.865 -2.4794  1.8141  1.0542
 3263SOL     OW21421   3.077   4.272  14.520 -0.3675  0.1342 -0.4211
 3263SOL    HW121422   3.145   4.320  14.566  0.0859 -1.1901  0.2992
 3263SOL    HW221423   3.057   4.203  14.583 -0.1792 -0.0171 -0.5232
 3264SOL     OW21424   0.446   0.025  17.443  0.3917  0.3295 -0.3358
 3264SOL    HW121425   0.447   0.063  17.355 -0.0980  1.5001  0.1545
 3264SOL    HW221426   0.442   0.099  17.505 -0.7262  0.4037 -0.4983
 3265SOL     OW21427   2.565   0.011   4.126 -0.6570 -0.2655 -0.0640
 3265SOL    HW121428   2.515   0.044   4.052 -0.8739 -2.6391 -0.9577
 3265SOL    HW221429   2.522   4.663   4.145 -2.1945  0.3386 -0.9772
 3266SOL     OW21430   4.249   2.415  14.002  0.3936  0.5237  0.1389
 3266SOL    HW121431   4.331   2.406  14.052  0.3607 -0.7832 -0.0356
 3266SOL    HW221432   4.256   2.345  13.937 -2.5227 -0.2668  0.6743
 3267SOL     OW21433   3.371   2.054  10.378  0.3638  0.4064  0.2846
 3267SOL    HW121434   3.358   1.971  10.424 -2.5219 -0.4002 -2.0092
 3267SOL    HW221435   3.330   2.038  10.293 -2.4037 -0.0807  1.6914
 3268SOL     OW21436   4.137   3.977   2.918  0.6244  0.1278  0.1040
 3268SOL    HW121437   4.175   4.040   2.978  1.1991  1.5241 -1.7514
 3268SOL    HW221438   4.091   3.910   2.969  0.1600 -0.1381 -0.6563
 3269SOL     OW21439   4.494   1.061   8.201 -0.0142 -0.3718  0.0474
 3269SOL    HW121440   4.479   1.031   8.112  0.3206 -3.7437  1.1276
 3269SOL    HW221441   4.589   1.056   8.202  0.0351  0.4303 -0.8199
 3270SOL     OW21442   0.658   2.303  16.408  0.1292 -0.6691 -0.3494
 3270SOL    HW121443   0.740   2.296  16.457 -0.7047  1.4842  1.3594
 3270SOL    HW221444   0.692   2.343  16.327  0.6280 -0.7036 -0.1600
 3271SOL     OW21445   1.070   0.328   0.771  0.5320  0.1217  0.3827
 3271SOL    HW121446   1.077   0.273   0.849 -0.5811  1.0141  1.1130
 3271SOL    HW221447   1.048   0.268   0.700  0.7357 -0.8712  1.1632
 3272SOL     OW21448   0.624   3.595  13.432  0.1608 -0.0186 -0.1643
 3272SOL    HW121449   0.546   3.578  13.485  0.5254 -2.2277 -0.3394
 3272SOL    HW221450   0.587   3.580  13.345 -0.9603  0.3319  0.2478
 3273SOL     OW21451   0.953   1.089  13.877 -0.5846  0.4531 -1.1136
 3273SOL    HW121452   1.028   1.055  13.828  1.1796  0.0017  1.9008
 3273SOL    HW221453   0.957   1.183  13.863  0.0422  0.5984  0.1103
 3274SOL     OW21454   0.047   4.677   5.095  0.0850  0.8064 -0.0355
 3274SOL    HW121455   4.720   4.662   5.024 -1.3543 -1.1546  1.6315
 3274SOL    HW221456   0.037   0.032   5.125  0.3146  1.1544 -0.9957
 3275SOL     OW21457   2.817   3.414   8.062  0.2731  0.2096 -0.6180
 3275SOL    HW121458   2.801   3.499   8.103 -0.5105 -1.1618  1.9288
 3275SOL    HW221459   2.739   3.364   8.085  1.5379 -2.0475 -1.2397
 3276SOL     OW21460   2.107   0.055   5.109 -0.1035 -0.1189 -1.0159
 3276SOL    HW121461   2.097   0.046   5.203  0.1931 -0.2595 -0.9962
 3276SOL    HW221462   2.193   0.099   5.113  0.9233 -2.3224  0.6757
 3277SOL     OW21463   3.103   0.688   1.536 -0.1101 -0.1269  0.0622
 3277SOL    HW121464   3.056   0.658   1.458 -2.0370  0.7811  0.8757
 3277SOL    HW221465   3.114   0.777   1.501 -0.0191 -0.1976 -0.0937
 3278SOL     OW21466   4.453   3.976  13.841 -0.2212 -0.0910  0.1401
 3278SOL    HW121467   4.516   4.036  13.880 -1.9570  1.1798  1.0161
 3278SOL    HW221468   4.465   3.897  13.894 -2.0916  0.9769  2.1781
 3279SOL     OW21469   1.787   3.288  11.597  0.3700  0.2524  0.4745
 3279SOL    HW121470   1.880   3.278  11.615  0.3299 -2.0092 -0.5691
 3279SOL    HW221471   1.771   3.371  11.641  1.5445  0.9299 -0.3878
 3280SOL     OW21472   1.172   1.837  14.667 -0.1376 -0.2772 -0.0089
 3280SOL    HW121473   1.114   1.780  14.716  0.0030  0.5404  1.1148
 3280SOL    HW221474   1.254   1.792  14.647 -0.6695 -0.5141 -1.6042
 3281SOL     OW21475   4.233   1.749   8.506  0.0875 -0.2525 -0.1982
 3281SOL    HW121476   4.171   1.821   8.505 -0.7077 -0.9451 -0.5550
 3281SOL    HW221477   4.175   1.699   8.449  1.8583 -1.8315 -0.6397
 3282SOL     OW21478   1.656   4.730   5.650 -0.2265  0.1443 -0.2000
 3282SOL    HW121479   1.571   0.028   5.681 -0.1735  0.0406  0.0568
 3282SOL    HW221480   1.699   4.727   5.735  1.0713  1.6832 -0.7932
 3283SOL     OW21481   2.677   4.173   4.305  0.0381  0.0284  0.2457
 3283SOL    HW121482   2.762   4.129   4.297  0.6154  1.6765 -2.7103
 3283SOL    HW221483   2.621   4.103   4.338 -1.5276  0.7789 -0.8240
 3284SOL     OW21484   4.692   2.137  14.304 -0.1487  0.1918 -0.5257
 3284SOL    HW121485   4.700   2.096  14.218 -0.6771 -1.4998  0.2512
 3284SOL    HW221486   0.018   2.210  14.292  0.8056 -0.3020  1.2518
 3285SOL     OW21487   3.979   4.088   3.262 -0.0285  0.0802  0.1652
 3285SOL    HW121488   3.928   4.156   3.307 -0.9968 -1.2219  1.0317
 3285SOL    HW221489   4.060   4.131   3.234 -0.7275  0.7319 -0.8822
 3286SOL     OW21490   4.582   0.550  10.581  0.3698  0.0241 -0.6189
 3286SOL    HW121491   4.635   0.496  10.522  0.3290  0.2815 -0.8935
 3286SOL    HW221492   4.611   0.641  10.572 -2.3622  0.9579 -0.0971
 3287SOL     OW21493   3.749   1.261   9.342  0.0922  0.4478 -0.4558
 3287SOL    HW121494   3.701   1.182   9.316  2.1924 -0.9892  0.0511
 3287SOL    HW221495   3.803   1.229   9.414 -0.8160  0.2388  0.1385
 3288SOL     OW21496   2.831   3.678   8.717  0.4081 -0.3904 -0.0713
 3288SOL    HW121497   2.815   3.592   8.755 -0.3960  0.1422  0.7745
 3288SOL    HW221498   2.756   3.701   8.662  0.6468  0.5344 -0.0201
 3289SOL     OW21499   3.525   3.900   7.997  0.4253 -0.0996  0.2892
 3289SOL    HW121500   3.509   3.830   7.934  0.5497 -0.2337  0.4068
 3289SOL    HW221501   3.621   3.890   7.998  0.4655  0.4536  1.2593
 3290SOL     OW21502   0.979   3.593   4.024  0.4717  0.1168  1.0346
 3290SOL    HW121503   0.934   3.653   3.965 -0.4824 -2.0869 -0.4867
 3290SOL    HW221504   1.019   3.536   3.958 -0.7553  1.2640 -0.7065
 3291SOL     OW21505   3.689   2.046   7.089  0.8441  0.2605  0.0335
 3291SOL    HW121506   3.721   2.135   7.104  1.3668 -0.1259  1.1750
 3291SOL    HW221507   3.700   2.035   6.995 -0.4661  1.5078 -0.2813
 3292SOL     OW21508   2.054   0.218   6.677  0.0724 -0.1939 -0.1860
 3292SOL    HW121509   2.033   0.223   6.771 -0.7430  0.8187 -0.4156
 3292SOL    HW221510   2.145   0.247   6.677  0.2115 -0.5508  3.4394
 3293SOL     OW21511   3.736   1.891  15.518  0.1917  0.0752 -0.1009
 3293SOL    HW121512   3.657   1.920  15.563  0.6913 -0.7405  1.3066
 3293SOL    HW221513   3.785   1.973  15.525 -2.5907  1.5875  1.4937
 3294SOL     OW21514   3.752   3.857   2.770  0.3908  0.1834  0.2400
 3294SOL    HW121515   3.721   3.810   2.848 -1.9172 -3.1313 -2.7195
 3294SOL    HW221516   3.831   3.901   2.801  0.0483  1.0235 -0.0794
 3295SOL     OW21517   0.127   3.576   8.181 -0.9008 -0.5251 -0.4691
 3295SOL    HW121518   0.186   3.506   8.156  0.3411 -0.1732  1.5312
 3295SOL    HW221519   0.094   3.567   8.271 -0.0309 -2.2182 -0.3265
 3296SOL     OW21520   1.550   1.902   7.394  0.2607 -0.2889  0.3556
 3296SOL    HW121521   1.523   1.970   7.457  1.5275  0.4784  0.0620
 3296SOL    HW221522   1.630   1.952   7.377 -0.3383  0.0639 -1.4032
 3297SOL     OW21523   1.114   4.062   8.380  0.8296  0.3418 -0.4106
 3297SOL    HW121524   1.178   4.011   8.331  1.9266  3.5570 -2.3689
 3297SOL    HW221525   1.050   3.993   8.395  1.7562  0.0163  2.1522
 3298SOL     OW21526   0.860   2.969   4.223 -0.2288 -0.1409 -0.0808
 3298SOL    HW121527   0.770   3.001   4.228 -0.3911 -0.5326 -0.4729
 3298SOL    HW221528   0.891   2.993   4.136 -2.0368 -0.6809 -0.8796
 3299SOL     OW21529   4.457   3.964  13.167 -0.0785  0.0387 -0.6756
 3299SOL    HW121530   4.377   4.015  13.155  0.7707  1.4760 -0.2465
 3299SOL    HW221531   4.502   4.005  13.094  1.9190  0.3562  0.7402
 3300SOL     OW21532   1.621   3.283   3.302 -0.1091  0.6945  0.5455
 3300SOL    HW121533   1.573   3.275   3.220  1.0464  0.8316 -0.1552
 3300SOL    HW221534   1.707   3.287   3.259  0.6178  0.9549  2.0221
 3301SOL     OW21535   3.651   2.492   2.741  0.1094  0.1720  0.3611
 3301SOL    HW121536   3.564   2.477   2.703 -0.2553  0.8879  0.9011
 3301SOL    HW221537   3.699   2.414   2.715 -1.4700 -0.5990 -0.2436
 3302SOL     OW21538   3.455   2.076   1.691  0.0087 -0.0331 -0.3128
 3302SOL    HW121539   3.466   1.989   1.729  1.3510  0.1551 -0.2544
 3302SOL    HW221540   3.404   2.131   1.749  1.5187  0.5313  0.4762
 3303SOL     OW21541   0.859   0.790   0.136  0.4491 -0.1278 -0.3729
 3303SOL    HW121542   0.866   0.882   0.163 -1.9115 -0.6534  2.0467
 3303SOL    HW221543   0.823   0.744   0.212  0.5055 -2.4582 -1.7444
 3304SOL     OW21544   0.697   2.084   8.074  0.3056 -0.0305  0.3425
 3304SOL    HW121545   0.760   2.074   8.003  0.3003 -0.5838  0.4175
 3304SOL    HW221546   0.757   2.126   8.137  1.2817 -0.2983 -0.4038
 3305SOL     OW21547   4.130   1.520  15.098 -0.4008  0.1011  0.1998
 3305SOL    HW121548   4.065   1.563  15.154  0.8412  1.9963  0.2027
 3305SOL    HW221549   4.148   1.437  15.141  0.0916 -0.4359 -1.0595
 3306SOL     OW21550   2.068   4.708   8.951 -0.2302  0.2143  0.0115
 3306SOL    HW121551   2.003   4.733   8.886 -1.0701 -2.8036 -0.3191
 3306SOL    HW221552   2.049   0.046   9.010 -0.8133  0.1850 -0.1389
 3307SOL     OW21553   3.408   3.188   0.225 -0.0298 -0.0029 -0.5828
 3307SOL    HW121554   3.442   3.200   0.136 -0.1318  2.9187 -0.2263
 3307SOL    HW221555   3.359   3.107   0.208  0.6983 -0.4341 -0.6791
 3308SOL     OW21556   3.110   0.594   2.294  0.2554  0.0306 -0.5511
 3308SOL    HW121557   3.109   0.542   2.214 -2.6837 -0.2097 -0.3871
 3308SOL    HW221558   3.044   0.659   2.271  2.1769  2.0768 -0.2226
 3309SOL     OW21559   0.934   0.535   2.319 -0.2281  0.1788 -0.3286
 3309SOL    HW121560   0.845   0.499   2.324  0.5519 -1.5882  0.8335
 3309SOL    HW221561   0.982   0.457   2.291  1.6244  1.1575  0.1636
 3310SOL     OW21562   2.690   2.358  13.643  0.2295 -0.7921 -0.7446
 3310SOL    HW121563   2.721   2.269  13.661  1.5906  0.3910  2.8830
 3310SOL    HW221564   2.769   2.405  13.672 -2.3981  2.5287  0.9850
 3311SOL     OW21565   4.475   2.949  16.192 -0.3537 -0.2112 -0.1506
 3311SOL    HW121566   4.493   3.011  16.121  0.0845 -1.4589 -1.1313
 3311SOL    HW221567   4.481   3.005  16.269  0.6532  0.2887 -0.5911
 3312SOL     OW21568   3.856   3.321   3.264  0.1040 -0.2173 -0.0825
 3312SOL    HW121569   3.763   3.300   3.271 -0.5685  2.7158  0.0736
 3312SOL    HW221570   3.850   3.355   3.175  0.3953  0.4832  0.1658
 3313SOL     OW21571   2.221   4.398   1.122 -0.8065  0.2296  0.0121
 3313SOL    HW121572   2.270   4.477   1.099 -0.9777  1.0023  2.2772
 3313SOL    HW221573   2.238   4.394   1.216  0.4698  1.7091 -0.1430
 3314SOL     OW21574   3.715   4.283  10.361  0.2779  0.0135 -0.4976
 3314SOL    HW121575   3.635   4.247  10.322 -0.6199 -0.7210  1.9888
 3314SOL    HW221576   3.712   4.364  10.310  0.2418  0.3986  0.1210
 3315SOL     OW21577   4.675   1.938   6.397 -0.6419 -0.3133  0.2813
 3315SOL    HW121578   4.654   1.847   6.419 -1.8595 -0.3442 -1.0757
 3315SOL    HW221579   4.708   1.921   6.309 -1.3286  1.1550 -0.2563
 3316SOL     OW21580   2.237   3.497  12.391  0.1396 -0.4278 -0.5891
 3316SOL    HW121581   2.320   3.525  12.352 -0.7306  0.3944 -1.8590
 3316SOL    HW221582   2.213   3.569  12.450 -0.9672 -1.9791  0.8468
 3317SOL     OW21583   1.112   4.499   6.488 -0.2000  0.6866  0.0418
 3317SOL    HW121584   1.207   4.506   6.498  0.1021 -1.4079 -1.2626
 3317SOL    HW221585   1.088   4.538   6.404 -2.8986 -1.1937 -0.0313
 3318SOL     OW21586   4.237   2.635   0.962  0.2516  0.3893 -0.2450
 3318SOL    HW121587   4.302   2.576   0.925  2.7091  3.6990 -1.2022
 3318SOL    HW221588   4.240   2.701   0.893 -1.2887  0.3847 -0.3287
 3319SOL     OW21589   1.103   2.877   9.649 -0.6933  0.6350  0.1442
 3319SOL    HW121590   1.143   2.962   9.666 -0.3941  0.9737 -2.3399
 3319SOL    HW221591   1.022   2.901   9.604 -2.3414  0.6404  3.0577
 3320SOL     OW21592   0.929   3.784   5.657 -0.0501 -0.3629  0.4715
 3320SOL    HW121593   0.836   3.772   5.638 -0.0372  1.6210 -0.8814
 3320SOL    HW221594   0.920   3.878   5.674  0.3625 -0.2950  0.3082
 3321SOL     OW21595   3.915   3.391   7.934  0.1096  0.5996 -0.4144
 3321SOL    HW121596   3.915   3.348   8.020  0.2742  0.3720 -0.5273
 3321SOL    HW221597   3.829   3.368   7.897 -0.7368  1.8053  0.8165
 3322SOL     OW21598   2.544   1.119   3.059  0.9310 -0.0932 -0.0194
 3322SOL    HW121599   2.474   1.179   3.084 -0.5669 -2.4353  1.4286
 3322SOL    HW221600   2.513   1.043   3.108  3.2633 -1.6446 -0.9365
 3323SOL     OW21601   2.898   3.122   4.138 -0.3249  0.0932 -0.3506
 3323SOL    HW121602   2.951   3.128   4.059 -0.4188 -0.2849 -0.4395
 3323SOL    HW221603   2.921   3.033   4.164 -0.0145  0.1354 -0.4740
 3324SOL     OW21604   0.295   1.358   8.166  0.3037  0.2860  0.6536
 3324SOL    HW121605   0.214   1.392   8.204  1.3796 -0.1057  3.2776
 3324SOL    HW221606   0.268   1.376   8.076 -1.4951  0.2920  1.1870
 3325SOL     OW21607   0.483   2.422   8.345  0.3271  0.3938 -0.0699
 3325SOL    HW121608   0.426   2.454   8.275 -0.9055 -0.3475  0.5798
 3325SOL    HW221609   0.543   2.370   8.292 -3.2762 -0.9906 -2.7816
 3326SOL     OW21610   0.897   2.900   1.409  0.5996  0.1648 -0.0123
 3326SOL    HW121611   0.812   2.940   1.391  0.8087  0.8187  0.4389
 3326SOL    HW221612   0.896   2.822   1.354 -1.1299 -0.2266  0.5845
 3327SOL     OW21613   3.349   0.988  11.226 -0.4812  0.1142  0.4470
 3327SOL    HW121614   3.443   1.005  11.219 -0.5486  1.1516  2.1141
 3327SOL    HW221615   3.333   1.037  11.306 -0.1074 -1.5715  1.5679
 3328SOL     OW21616   0.779   0.933   4.519  0.2313 -0.2145  0.3281
 3328SOL    HW121617   0.772   1.028   4.531  2.0322  0.0804 -0.8774
 3328SOL    HW221618   0.733   0.930   4.435  0.7850  0.0136  0.0127
 3329SOL     OW21619   2.666   0.034   9.394 -0.0013 -0.3813 -0.2025
 3329SOL    HW121620   2.736   4.711   9.426 -0.5596  0.1635  1.9893
 3329SOL    HW221621   2.684   0.030   9.300 -2.0342 -3.0618 -0.4758
 3330SOL     OW21622   0.956   1.134  16.753 -0.4900 -0.2609 -0.2291
 3330SOL    HW121623   0.866   1.156  16.731 -0.7862 -3.3899 -2.1978
 3330SOL    HW221624   0.944   1.075  16.828  0.9608  0.4477  0.5699
 3331SOL     OW21625   0.914   0.910  10.876 -0.1987 -0.2424 -0.3414
 3331SOL    HW121626   0.880   0.911  10.965  0.8326 -0.7619  0.0561
 3331SOL    HW221627   0.994   0.963  10.885  0.3284 -1.2915  1.1256
 3332SOL     OW21628   3.065   2.980   6.073  0.4330 -0.3230  0.3242
 3332SOL    HW121629   3.158   2.999   6.063 -0.1300  2.1930  0.0915
 3332SOL    HW221630   3.031   3.067   6.054  0.1950 -0.9252 -1.9819
 3333SOL     OW21631   4.085   1.147   9.213 -0.1006 -0.1388 -0.1002
 3333SOL    HW121632   4.065   1.054   9.217  0.7501 -0.4412 -2.5478
 3333SOL    HW221633   4.018   1.184   9.156 -1.5627 -0.3559  1.4825
 3334SOL     OW21634   3.187   0.282   1.526  0.2019  0.0875  0.0315
 3334SOL    HW121635   3.137   0.215   1.479 -0.3385 -0.9534  2.0748
 3334SOL    HW221636   3.127   0.283   1.601 -1.2808 -1.7433 -1.1208
 3335SOL     OW21637   4.603   4.114   5.625 -0.3616 -0.0668  0.5152
 3335SOL    HW121638   4.603   4.019   5.640  1.3559  0.0957  1.5468
 3335SOL    HW221639   4.697   4.130   5.627 -0.5779  1.2952 -0.4948
 3336SOL     OW21640   0.089   2.631   4.230  1.0445 -0.2847  0.0505
 3336SOL    HW121641   0.082   2.725   4.243 -2.3388 -0.7527  1.5202
 3336SOL    HW221642   0.181   2.618   4.207  0.1128  0.0687 -3.9388
 3337SOL     OW21643   2.987   0.739   6.118 -0.3788 -0.0858  0.0547
 3337SOL    HW121644   2.896   0.725   6.148  0.2307  0.7703  2.3291
 3337SOL    HW221645   3.009   0.789   6.196  1.5313  2.1231 -1.9259
 3338SOL     OW21646   1.848   4.243  15.270 -0.0806 -0.0799  0.5598
 3338SOL    HW121647   1.928   4.248  15.217 -0.7746  1.5177 -0.3649
 3338SOL    HW221648   1.790   4.183  15.224 -1.6557  2.2262 -0.4890
 3339SOL     OW21649   3.442   3.428   1.188 -0.5822  0.1303  0.5500
 3339SOL    HW121650   3.502   3.461   1.254 -0.2143  0.5572 -0.0092
 3339SOL    HW221651   3.504   3.372   1.141  0.2080  0.8886  0.7072
 3340SOL     OW21652   0.350   0.641   4.189  0.3341 -0.2253  0.0665
 3340SOL    HW121653   0.418   0.642   4.122 -0.1192  2.5391 -0.3464
 3340SOL    HW221654   0.352   0.547   4.208 -0.7450  0.1999  2.3152
 3341SOL     OW21655   3.056   4.275   6.062  0.3008  0.2181  0.0421
 3341SOL    HW121656   3.024   4.210   6.125  0.6497  0.5365  0.5424
 3341SOL    HW221657   2.998   4.257   5.987 -1.4476  1.8291  1.0142
 3342SOL     OW21658   4.315   3.349   4.086 -0.2990 -0.5506  0.4058
 3342SOL    HW121659   4.222   3.329   4.074  0.2764 -2.9707 -0.0606
 3342SOL    HW221660   4.305   3.440   4.058 -0.4482 -1.0193 -1.0532
 3343SOL     OW21661   3.062   0.060  16.445  0.0885  0.1743 -0.3257
 3343SOL    HW121662   3.047   0.049  16.351  0.0462 -2.4859 -0.0017
 3343SOL    HW221663   3.067   0.156  16.449  0.6905  0.3178 -4.1898
 3344SOL     OW21664   0.155   0.070   6.326 -0.5753  0.3036  0.5101
 3344SOL    HW121665   0.129   0.040   6.413  1.8216 -0.9962  0.7750
 3344SOL    HW221666   0.143   0.165   6.337 -2.1501  0.2931 -1.1605
 3345SOL     OW21667   4.500   0.533   2.833 -0.1180 -0.2446 -0.2501
 3345SOL    HW121668   4.423   0.565   2.880 -0.1670 -1.2817  0.3806
 3345SOL    HW221669   4.486   0.556   2.741 -0.0115 -1.6172 -0.6041
 3346SOL     OW21670   4.468   2.019   1.964  0.4797  0.3094 -0.7620
 3346SOL    HW121671   4.417   2.051   2.039 -0.9219 -0.8304 -1.2317
 3346SOL    HW221672   4.551   2.063   1.979  0.5280 -0.8113  2.3140
 3347SOL     OW21673   1.547   1.424   3.090 -0.1010 -0.1526  0.1594
 3347SOL    HW121674   1.586   1.419   3.003  0.6808  0.6039  0.4586
 3347SOL    HW221675   1.618   1.392   3.147 -0.1807  0.7667  0.7643
 3348SOL     OW21676   0.651   0.071   8.603 -0.5324 -0.1746 -0.2904
 3348SOL    HW121677   0.568   0.102   8.566  0.4455  3.2629  0.3482
 3348SOL    HW221678   0.654   4.712   8.581 -0.3000  0.5034 -3.2326
 3349SOL     OW21679   0.454   3.739  10.084  0.1004  0.6627  0.4765
 3349SOL    HW121680   0.402   3.683  10.026  2.0498 -0.5701 -0.0911
 3349SOL    HW221681   0.535   3.687  10.083  1.1625  2.3530 -3.0959
 3350SOL     OW21682   2.435   4.018   2.567  0.1863  0.1421  0.0841
 3350SOL    HW121683   2.399   3.954   2.629 -0.8342 -0.1187 -0.7764
 3350SOL    HW221684   2.522   3.979   2.557  0.1803 -0.3223  1.8358
 3351SOL     OW21685   0.219   0.393   1.749 -0.3338  0.0435 -0.3284
 3351SOL    HW121686   0.195   0.486   1.747  0.8792  0.3465 -0.9143
 3351SOL    HW221687   0.288   0.397   1.814 -0.9655  0.0163  0.3414
 3352SOL     OW21688   1.681   1.792   1.349 -0.1505  0.0840 -0.5464
 3352SOL    HW121689   1.596   1.815   1.388  0.4930  0.9787  0.3209
 3352SOL    HW221690   1.667   1.763   1.259 -0.8504 -0.9243 -0.1217
 3353SOL     OW21691   2.813   0.887   5.919 -0.0282 -0.0811  0.5424
 3353SOL    HW121692   2.793   0.804   5.962  2.6894 -2.1557 -2.1704
 3353SOL    HW221693   2.905   0.903   5.936  0.1347 -1.5842  1.1149
 3354SOL     OW21694   2.358   3.749   2.623  0.0342  0.2685  0.2250
 3354SOL    HW121695   2.271   3.764   2.587 -0.8394  1.7372  2.8762
 3354SOL    HW221696   2.381   3.670   2.574 -1.6383 -0.9906  1.4897
 3355SOL     OW21697   1.172   1.513  11.365 -0.4100  1.0729  0.0926
 3355SOL    HW121698   1.208   1.536  11.279 -0.4385 -3.2174 -1.0301
 3355SOL    HW221699   1.218   1.583  11.413 -0.5657  2.8145 -2.3147
 3356SOL     OW21700   0.140   1.929   3.708  0.5055  0.3134  0.7016
 3356SOL    HW121701   0.056   1.903   3.670  0.6923  2.4899 -1.2364
 3356SOL    HW221702   0.142   1.894   3.797 -1.1789 -3.8219 -0.8606
 3357SOL     OW21703   3.615   3.816   4.595  0.5137  0.0071  0.4447
 3357SOL    HW121704   3.611   3.846   4.504 -1.6103 -1.1801  0.1342
 3357SOL    HW221705   3.557   3.880   4.637  1.0930  1.5433 -1.0726
 3358SOL     OW21706   1.725   1.884   9.001 -0.2579 -0.5350  0.6491
 3358SOL    HW121707   1.781   1.850   9.071 -1.5307 -2.9714  0.4859
 3358SOL    HW221708   1.769   1.964   8.971  0.2588 -0.5213  1.4241
 3359SOL     OW21709   1.489   4.175  16.320  0.4966  0.0139  0.1785
 3359SOL    HW121710   1.418   4.149  16.379  0.3134 -1.1594 -0.5512
 3359SOL    HW221711   1.438   4.142  16.246 -0.4979 -0.1846  0.9676
 3360SOL     OW21712   0.643   2.198  12.453 -0.5480 -0.4459  0.2550
 3360SOL    HW121713   0.648   2.116  12.502 -0.7581 -1.8071 -2.0106
 3360SOL    HW221714   0.611   2.171  12.367  1.2999  1.3353 -0.9998
 3361SOL     OW21715   0.502   0.387   2.841  0.3014  0.7821 -0.3680
 3361SOL    HW121716   0.572   0.322   2.848 -0.6328 -0.4304 -2.2678
 3361SOL    HW221717   0.458   0.368   2.924 -0.1795  3.9770  0.1157
 3362SOL     OW21718   2.617   4.236   7.772  0.2175  0.6363  0.2240
 3362SOL    HW121719   2.678   4.162   7.771 -0.4295  0.0921  1.6856
 3362SOL    HW221720   2.552   4.224   7.702  1.1268 -1.6132 -0.2408
 3363SOL     OW21721   3.993   1.984   6.229 -0.6163 -0.2118 -0.6901
 3363SOL    HW121722   3.937   1.923   6.277 -0.3293  0.0366 -0.0415
 3363SOL    HW221723   4.050   1.916   6.192 -0.0691  0.1203 -0.4675
 3364SOL     OW21724   1.115   1.333   3.606 -0.6565 -0.2094  0.0600
 3364SOL    HW121725   1.144   1.283   3.529  1.8758 -1.4335  1.8003
 3364SOL    HW221726   1.110   1.417   3.561  1.1770 -0.6459 -0.9857
 3365SOL     OW21727   1.054   2.840   8.898  0.1069  0.1682 -0.1956
 3365SOL    HW121728   1.143   2.873   8.885 -0.1374  0.4683 -1.0844
 3365SOL    HW221729   1.001   2.902   8.848 -0.4113 -1.1722 -1.2897
 3366SOL     OW21730   0.182   1.294   7.516  0.0763 -0.3387  0.0830
 3366SOL    HW121731   0.254   1.317   7.458 -0.1871  0.9114  0.2452
 3366SOL    HW221732   0.127   1.366   7.484 -0.3019 -1.3104 -1.4209
 3367SOL     OW21733   0.550   4.550   4.817  0.0490  0.3758  0.1208
 3367SOL    HW121734   0.484   4.602   4.861 -0.7452  0.7500 -1.5227
 3367SOL    HW221735   0.503   4.467   4.815  1.4657 -0.4515  1.4103
 3368SOL     OW21736   0.258   3.279   8.687 -0.3019 -0.0227  0.1951
 3368SOL    HW121737   0.256   3.219   8.762  1.5405  0.0357  0.3039
 3368SOL    HW221738   0.340   3.328   8.697 -1.3499  1.8050 -0.2572
 3369SOL     OW21739   2.636   1.246  14.616  0.1010  0.0794 -0.3025
 3369SOL    HW121740   2.713   1.260  14.560  1.5027 -1.0324  1.3459
 3369SOL    HW221741   2.671   1.270  14.702  2.2248  0.4149 -1.2351
 3370SOL     OW21742   0.720   3.626  10.843  0.2140 -0.1823  0.0794
 3370SOL    HW121743   0.744   3.670  10.761 -0.3011 -0.1539 -0.0608
 3370SOL    HW221744   0.747   3.687  10.912  0.3261  0.0492 -0.1678
 3371SOL     OW21745   1.880   0.709   2.133 -0.5819 -0.4537 -0.0048
 3371SOL    HW121746   1.957   0.730   2.185  0.4709 -1.8120 -1.0365
 3371SOL    HW221747   1.829   0.652   2.190  2.4486 -1.2432  1.9136
 3372SOL     OW21748   3.702   0.382   8.131  0.7194 -0.6805  0.5285
 3372SOL    HW121749   3.653   0.423   8.202 -1.3600  2.5609 -2.7830
 3372SOL    HW221750   3.706   0.291   8.159  0.2018 -0.6631  0.6592
 3373SOL     OW21751   0.898   3.506  14.420  0.5574 -0.4985 -0.1453
 3373SOL    HW121752   0.891   3.597  14.390  1.3232 -0.7393 -1.0474
 3373SOL    HW221753   0.950   3.512  14.501 -0.4197 -1.5289  0.5595
 3374SOL     OW21754   0.350   0.440   3.959 -0.1508 -0.3836  0.3480
 3374SOL    HW121755   0.332   0.381   3.885  0.4017 -1.3320  0.9732
 3374SOL    HW221756   0.354   0.380   4.033  0.9872  1.6130  1.9063
 3375SOL     OW21757   0.681   2.889   6.528 -0.1944 -0.2659 -0.6001
 3375SOL    HW121758   0.770   2.905   6.559 -0.4681 -0.7046  0.4137
 3375SOL    HW221759   0.679   2.793   6.530 -4.6420 -0.1720 -1.0364
 3376SOL     OW21760   1.830   3.202   9.107 -0.1200 -0.4119  0.2799
 3376SOL    HW121761   1.774   3.177   9.181 -0.6861 -0.1602 -0.0648
 3376SOL    HW221762   1.905   3.143   9.113  0.1818 -0.1926 -1.3673
 3377SOL     OW21763   4.050   1.062   8.683  1.0542  0.2901 -0.1235
 3377SOL    HW121764   3.996   1.128   8.639  1.5259  0.3136 -0.6556
 3377SOL    HW221765   4.091   1.017   8.610 -2.2733  0.0681 -1.8823
 3378SOL     OW21766   0.994   2.409   5.187  0.0584  0.1326  0.5708
 3378SOL    HW121767   1.054   2.475   5.151  0.0391 -1.9780 -3.3546
 3378SOL    HW221768   0.906   2.434   5.159  0.4228 -0.0279 -0.7393
 3379SOL     OW21769   2.668   1.987   8.830  0.0584  0.2104  0.3205
 3379SOL    HW121770   2.751   2.027   8.855  0.4558 -1.1251  1.1073
 3379SOL    HW221771   2.653   1.922   8.898  0.3337 -0.8136 -0.5796
 3380SOL     OW21772   4.661   3.349   6.753 -0.2041  0.4151  0.0797
 3380SOL    HW121773   4.726   3.416   6.772 -0.9983  1.0379  0.6445
 3380SOL    HW221774   4.619   3.342   6.839  1.1846  0.1200  0.7290
 3381SOL     OW21775   2.385   3.754  11.166 -0.6532  0.5080 -0.6162
 3381SOL    HW121776   2.460   3.695  11.176 -0.1792  1.4593  1.4361
 3381SOL    HW221777   2.419   3.807  11.094  0.9322 -0.0475 -0.2860
 3382SOL     OW21778   1.424   4.283   9.180  0.1619 -0.1948 -0.7306
 3382SOL    HW121779   1.343   4.302   9.134  1.3566  1.5639 -2.1141
 3382SOL    HW221780   1.452   4.201   9.139  0.6086 -1.2952  1.7426
 3383SOL     OW21781   4.566   1.767   7.844 -0.4364  0.0250  0.2624
 3383SOL    HW121782   4.539   1.850   7.884 -0.4744  0.8084 -1.3584
 3383SOL    HW221783   4.481   1.725   7.853  0.2648 -1.0979  1.5965
 3384SOL     OW21784   1.856   2.876   5.777 -0.1913  0.0449  0.1920
 3384SOL    HW121785   1.879   2.941   5.710  1.1587 -0.1750  0.4495
 3384SOL    HW221786   1.876   2.793   5.733 -1.5623  0.3930 -1.0977
 3385SOL     OW21787   3.652   3.626   7.021 -0.3734  0.3915 -0.2808
 3385SOL    HW121788   3.701   3.624   6.939 -0.4789  1.8084 -0.3876
 3385SOL    HW221789   3.712   3.679   7.074 -2.3408  0.8919  1.4716
 3386SOL     OW21790   3.079   3.882   2.793 -0.6579 -0.6239  0.3361
 3386SOL    HW121791   3.051   3.963   2.751  1.2566 -0.3920 -0.4685
 3386SOL    HW221792   3.173   3.891   2.781 -0.8819 -1.0688 -1.6871
 3387SOL     OW21793   2.511   1.096   6.738 -0.3892  0.2826  0.1459
 3387SOL    HW121794   2.466   1.178   6.718 -2.9146 -0.6344  2.1603
 3387SOL    HW221795   2.474   1.031   6.678  0.5912 -1.1529  1.0918
 3388SOL     OW21796   1.999   0.759  15.800  0.1023 -0.1101 -0.2707
 3388SOL    HW121797   2.076   0.816  15.801 -0.7068  1.0164 -2.2425
 3388SOL    HW221798   1.936   0.815  15.846 -0.6022 -0.8762 -0.3026
 3389SOL     OW21799   2.181   3.804   9.032  0.0129  0.0869  0.1849
 3389SOL    HW121800   2.211   3.851   9.110  2.1291 -0.2314 -0.4570
 3389SOL    HW221801   2.121   3.865   8.989  0.9369 -0.8257 -2.4035
 3390SOL     OW21802   2.645   4.508   3.800 -0.1769  0.7160 -0.4991
 3390SOL    HW121803   2.710   4.526   3.732  0.4084  0.1589 -0.0914
 3390SOL    HW221804   2.693   4.503   3.883  0.9953 -0.1527 -1.2155
 3391SOL     OW21805   1.452   0.273   3.158 -0.3170  0.4643  0.1536
 3391SOL    HW121806   1.477   0.352   3.111  0.5380 -0.1731 -0.4544
 3391SOL    HW221807   1.536   0.229   3.170  0.5468  1.6430 -1.4919
 3392SOL     OW21808   3.546   3.861   1.120 -0.8504  0.6575  0.2139
 3392SOL    HW121809   3.500   3.859   1.204 -0.0816 -0.9461  0.6042
 3392SOL    HW221810   3.534   3.772   1.087 -2.7861  0.4748  1.3904
 3393SOL     OW21811   0.714   0.448  16.001  0.0287  0.0575  0.4048
 3393SOL    HW121812   0.662   0.492  15.933  1.2937 -0.7595 -1.0990
 3393SOL    HW221813   0.705   0.493  16.085 -0.0594 -1.3714  1.1492
 3394SOL     OW21814   1.654   2.146   3.603 -0.3436  0.2694  0.3179
 3394SOL    HW121815   1.694   2.077   3.549  0.8348  1.0649  0.1689
 3394SOL    HW221816   1.632   2.083   3.672  0.5135  0.9404  1.1917
 3395SOL     OW21817   3.673   0.487   7.748  0.2741 -0.2679  0.5456
 3395SOL    HW121818   3.699   0.400   7.778 -2.9596 -1.7483 -0.9746
 3395SOL    HW221819   3.579   0.470   7.755  0.5643 -2.8622 -1.6965
 3396SOL     OW21820   3.370   4.353   3.207 -0.1116  0.2550  0.7339
 3396SOL    HW121821   3.386   4.289   3.138  0.8819  2.0542 -0.6849
 3396SOL    HW221822   3.411   4.426   3.162  3.8031 -1.9376  0.6535
 3397SOL     OW21823   3.200   2.667   2.400 -0.1148  0.1564 -0.3946
 3397SOL    HW121824   3.125   2.609   2.412  1.7716 -2.5807 -1.7839
 3397SOL    HW221825   3.157   2.753   2.398 -1.1235 -0.3101  1.3631
 3398SOL     OW21826   4.620   0.606  13.908  0.3997  0.1854  0.2823
 3398SOL    HW121827   4.555   0.621  13.840  1.2109 -1.1430 -0.8003
 3398SOL    HW221828   4.693   0.657  13.870  1.9438 -1.5835  0.8748
 3399SOL     OW21829   3.509   0.927   5.547 -1.1629 -0.0121 -0.6655
 3399SOL    HW121830   3.440   0.939   5.482  0.4444  0.5216 -2.2809
 3399SOL    HW221831   3.558   0.861   5.498 -0.4676 -0.1812  0.2575
 3400SOL     OW21832   0.291   2.683  11.608 -0.1369 -0.0537 -0.4127
 3400SOL    HW121833   0.230   2.714  11.676 -1.7315 -0.8116 -1.4987
 3400SOL    HW221834   0.230   2.654  11.541  1.3377  1.7466 -2.5315
 3401SOL     OW21835   0.491   2.487   5.423 -0.0024  0.3481 -0.3250
 3401SOL    HW121836   0.583   2.460   5.425 -0.8361 -2.2629  1.7878
 3401SOL    HW221837   0.509   2.579   5.442 -0.5056 -0.2930  3.2254
 3402SOL     OW21838   4.077   4.036  12.873 -0.3919 -0.1720 -0.2553
 3402SOL    HW121839   4.018   4.029  12.948  0.7317  2.3567  0.8719
 3402SOL    HW221840   4.115   4.122  12.892  1.5552 -1.1710  0.4391
 3403SOL     OW21841   4.638   3.275   8.089  0.0328  0.1381 -0.9056
 3403SOL    HW121842   4.621   3.348   8.030  0.4639  0.4323 -0.6615
 3403SOL    HW221843   4.611   3.305   8.176  4.2811 -0.7393  0.7012
 3404SOL     OW21844   4.163   2.973   7.653 -0.1975  0.1643 -0.1907
 3404SOL    HW121845   4.137   3.056   7.692 -0.1024 -0.2206  0.6736
 3404SOL    HW221846   4.214   3.011   7.581 -0.4881  1.3056  0.2113
 3405SOL     OW21847   1.049   0.719   4.022 -0.1527  0.4986 -0.4621
 3405SOL    HW121848   1.100   0.700   3.943  0.2179  2.1250 -0.6047
 3405SOL    HW221849   1.032   0.643   4.077  0.0312  0.7846 -0.0126
 3406SOL     OW21850   3.657   3.106  13.368  0.0116  0.0596 -0.3860
 3406SOL    HW121851   3.743   3.115  13.409  1.2716 -1.6022 -2.6374
 3406SOL    HW221852   3.598   3.160  13.420  0.6203  1.5824 -1.2513
 3407SOL     OW21853   3.802   4.720   0.703 -0.0616  0.0418 -0.4574
 3407SOL    HW121854   3.709   0.010   0.712 -0.8478 -3.3252  0.6962
 3407SOL    HW221855   3.817   4.643   0.758  0.3309 -0.2383 -0.9627
 3408SOL     OW21856   2.495   4.648   6.436 -0.2701  0.1832  0.2231
 3408SOL    HW121857   2.414   4.654   6.386  0.0686  0.7316 -0.2529
 3408SOL    HW221858   2.501   4.553   6.445  0.4799 -0.0468 -2.8902
 3409SOL     OW21859   2.986   3.781  15.456  0.2827  0.4348  0.2294
 3409SOL    HW121860   2.927   3.733  15.397  1.0729 -0.9288  0.5503
 3409SOL    HW221861   3.059   3.722  15.437 -0.1291 -0.0101  0.0256
 3410SOL     OW21862   2.058   1.712   5.839  0.1425 -0.0087 -0.4702
 3410SOL    HW121863   1.999   1.639   5.820  0.7391 -0.2666 -1.3553
 3410SOL    HW221864   2.067   1.766   5.760 -2.1698 -0.8481 -1.3015
 3411SOL     OW21865   3.323   2.495   4.034 -0.3604  0.6057 -0.1552
 3411SOL    HW121866   3.364   2.458   3.956  0.0820 -0.8774  0.7679
 3411SOL    HW221867   3.390   2.561   4.054  0.7433 -0.5479 -0.0536
 3412SOL     OW21868   3.601   0.806  12.137  0.4525 -0.3321  0.1455
 3412SOL    HW121869   3.563   0.738  12.193  2.1273 -2.6845 -1.6201
 3412SOL    HW221870   3.674   0.832  12.193 -0.2325  2.3222 -0.1899
 3413SOL     OW21871   3.671   2.412  16.991  0.1642 -0.4455  0.9476
 3413SOL    HW121872   3.670   2.319  17.014 -1.3128 -1.4066 -3.0277
 3413SOL    HW221873   3.591   2.443  17.035  0.5205  0.1455  1.1753
 3414SOL     OW21874   3.318   0.538   4.883 -0.3630 -0.6892 -0.6585
 3414SOL    HW121875   3.264   0.549   4.962  0.5321  0.3145 -0.1747
 3414SOL    HW221876   3.383   0.600   4.916 -0.7590 -0.8619  0.4571
 3415SOL     OW21877   3.450   1.809   5.685 -0.2115  0.2843  0.0402
 3415SOL    HW121878   3.398   1.839   5.611 -0.5128  0.0611  0.1604
 3415SOL    HW221879   3.467   1.892   5.730  0.1275  0.5147 -0.5181
 3416SOL     OW21880   2.502   4.141   7.334 -0.1749  0.1128 -0.7093
 3416SOL    HW121881   2.577   4.090   7.303  0.5265  0.6098  0.1901
 3416SOL    HW221882   2.523   4.225   7.295 -0.9439  0.8040  0.3694
 3417SOL     OW21883   1.493   0.816   5.479  0.2552 -0.0116 -0.1045
 3417SOL    HW121884   1.471   0.899   5.522  2.1228  0.1492  0.5581
 3417SOL    HW221885   1.428   0.803   5.410 -1.8630 -0.4598  1.9650
 3418SOL     OW21886   1.820   3.979   7.800  0.2791  0.4838 -0.1382
 3418SOL    HW121887   1.874   3.974   7.879 -0.2719 -2.1271  0.0919
 3418SOL    HW221888   1.866   3.922   7.738  1.4572  0.3164  0.8847
 3419SOL     OW21889   3.797   2.350  11.983  0.7350 -0.3687 -0.3355
 3419SOL    HW121890   3.842   2.415  12.037  1.1375 -0.2274 -0.8416
 3419SOL    HW221891   3.840   2.366  11.899  1.2401 -1.2999 -0.2504
 3420SOL     OW21892   1.733   4.317   8.574 -0.2654 -0.2613 -0.4090
 3420SOL    HW121893   1.646   4.357   8.579  0.0159  0.2294  0.4573
 3420SOL    HW221894   1.715   4.228   8.545 -2.6195  0.5243 -1.3507
 3421SOL     OW21895   2.788   4.572  10.963 -0.2362  0.1914 -0.0222
 3421SOL    HW121896   2.734   4.590  10.886  2.9011 -0.8909 -2.5018
 3421SOL    HW221897   2.819   4.656  10.997 -1.2645  0.4766  0.2027
 3422SOL     OW21898   2.191   4.393   3.446  0.3809  0.3435 -0.5505
 3422SOL    HW121899   2.114   4.442   3.476 -0.4071 -0.7385 -0.8383
 3422SOL    HW221900   2.183   4.304   3.480  0.2934 -0.0802 -1.6689
 3423SOL     OW21901   2.158   0.326  17.652  0.5180  0.1247 -0.1965
 3423SOL    HW121902   2.155   0.246  17.705  0.3086 -0.5532 -1.2371
 3423SOL    HW221903   2.170   0.394  17.719 -1.5463  2.3876 -2.1238
 3424SOL     OW21904   1.566   3.231   8.512 -0.2343 -0.0048  0.0417
 3424SOL    HW121905   1.523   3.147   8.530  1.0330 -0.6526  0.1197
 3424SOL    HW221906   1.564   3.264   8.602  1.1038 -0.1114  0.1130
 3425SOL     OW21907   0.722   0.331   0.971 -0.0482 -0.4325  0.1054
 3425SOL    HW121908   0.703   0.394   0.901 -0.9640  0.8810  1.5496
 3425SOL    HW221909   0.729   0.249   0.922  0.1627 -0.9633  1.0300
 3426SOL     OW21910   0.412   2.747   6.164  0.2322  0.1540  0.4014
 3426SOL    HW121911   0.370   2.662   6.149  1.3954 -0.6766  1.9854
 3426SOL    HW221912   0.496   2.720   6.199  0.6331 -1.0093 -1.4403
 3427SOL     OW21913   3.091   0.113   8.203 -0.3403  0.4936 -0.1512
 3427SOL    HW121914   3.179   0.110   8.165 -0.2015 -0.0049  0.2150
 3427SOL    HW221915   3.106   0.067   8.286  1.1997 -0.2951 -0.8812
 3428SOL     OW21916   1.930   4.109  14.120  0.4942 -0.1872 -0.1242
 3428SOL    HW121917   1.930   4.071  14.032  0.5065  0.0649 -0.2312
 3428SOL    HW221918   1.839   4.141  14.118  0.8205  0.6490 -1.4816
 3429SOL     OW21919   3.364   1.347  17.115 -0.0165  0.4488  0.2819
 3429SOL    HW121920   3.333   1.320  17.029  2.0058  1.2104 -0.6834
 3429SOL    HW221921   3.458   1.356  17.101  0.2423  1.2099  2.4374
 3430SOL     OW21922   3.352   1.540   1.007 -0.3873 -0.3786 -0.5425
 3430SOL    HW121923   3.407   1.588   0.946 -0.0650 -0.9673 -0.7177
 3430SOL    HW221924   3.363   1.602   1.079 -1.2605 -0.8399  0.0046
 3431SOL     OW21925   0.541   2.994   3.121 -0.3652 -0.6070 -0.0397
 3431SOL    HW121926   0.547   2.899   3.125  0.4943 -0.5556 -0.0545
 3431SOL    HW221927   0.481   3.011   3.048  1.9601  3.9893 -0.8743
 3432SOL     OW21928   2.956   2.732   5.957 -0.1905 -0.2839  0.1172
 3432SOL    HW121929   3.008   2.805   5.990  1.7255 -0.9163 -1.5803
 3432SOL    HW221930   2.877   2.785   5.947  0.0154 -0.5180 -2.5844
 3433SOL     OW21931   3.465   3.447   3.381  0.3240 -0.4737 -0.2061
 3433SOL    HW121932   3.398   3.418   3.442  0.4230  0.6198  0.4255
 3433SOL    HW221933   3.478   3.364   3.335  1.0825 -0.0385 -0.7897
 3434SOL     OW21934   3.651   2.430   3.038 -0.0914 -0.2096  0.2163
 3434SOL    HW121935   3.577   2.413   2.979 -0.9124 -0.9285  1.4761
 3434SOL    HW221936   3.690   2.498   2.983 -0.6573  0.7311  0.9795
 3435SOL     OW21937   1.957   1.962  13.706 -0.1643  0.2218 -0.2409
 3435SOL    HW121938   1.985   1.903  13.776 -1.3080  1.8808  1.6029
 3435SOL    HW221939   1.916   2.034  13.754 -0.4718  1.3291 -2.1477
 3436SOL     OW21940   2.556   0.476   5.709  0.0905  0.3399  0.1216
 3436SOL    HW121941   2.536   0.425   5.631 -1.8568  1.3167 -0.0387
 3436SOL    HW221942   2.619   0.423   5.756 -1.6824  0.6923  2.9174
 3437SOL     OW21943   2.634   1.935   6.472  0.2473  0.0394 -0.1757
 3437SOL    HW121944   2.572   1.862   6.471  1.0733 -0.6763  0.8033
 3437SOL    HW221945   2.624   1.978   6.557 -1.5076 -1.0866  0.1844
 3438SOL     OW21946   2.780   1.718   7.899  0.3647  0.4963 -0.1276
 3438SOL    HW121947   2.869   1.726   7.934  0.0459  1.1493  0.5503
 3438SOL    HW221948   2.734   1.680   7.975 -0.2635  0.1800 -0.6626
 3439SOL     OW21949   4.271   0.266  14.086  0.1894  0.4533  0.0417
 3439SOL    HW121950   4.365   0.269  14.071  0.0430  0.0040 -0.9524
 3439SOL    HW221951   4.266   0.237  14.177  0.0975  0.9152  0.1851
 3440SOL     OW21952   2.262   4.478   5.836  0.0980  0.5562 -0.8195
 3440SOL    HW121953   2.311   4.457   5.915 -1.5242 -1.8342 -0.4786
 3440SOL    HW221954   2.204   4.551   5.858 -0.5891  0.0490 -0.9692
 3441SOL     OW21955   2.335   1.781   1.512 -0.0549 -0.3013  0.2940
 3441SOL    HW121956   2.341   1.856   1.453  0.9009 -0.8852 -0.3483
 3441SOL    HW221957   2.411   1.793   1.568 -0.4668 -0.4786  0.8918
 3442SOL     OW21958   3.425   0.397   2.891  0.1767  0.0611  0.1579
 3442SOL    HW121959   3.435   0.349   2.973 -1.3718 -0.1602  0.2289
 3442SOL    HW221960   3.461   0.337   2.825  1.5029  0.8893  0.1527
 3443SOL     OW21961   2.647   1.597   8.110  0.1565  0.4511 -0.0511
 3443SOL    HW121962   2.651   1.553   8.195 -0.4003  1.3789  0.4577
 3443SOL    HW221963   2.609   1.525   8.060 -0.8018 -0.4415  1.9758
 3444SOL     OW21964   3.923   0.722   0.525  0.3939 -0.4044  0.0853
 3444SOL    HW121965   4.017   0.709   0.535  0.1006 -0.9975  2.1771
 3444SOL    HW221966   3.910   0.679   0.440  0.1400  0.7557 -0.4540
 3445SOL     OW21967   4.556   1.860  10.337  0.6608  0.1592 -0.3451
 3445SOL    HW121968   4.609   1.780  10.339  1.3397  0.6278  0.2295
 3445SOL    HW221969   4.559   1.879  10.431  0.4527  0.9054 -0.4950
 3446SOL     OW21970   3.824   2.282   2.668 -0.2402 -0.1104 -0.0645
 3446SOL    HW121971   3.799   2.263   2.578 -0.4213 -0.2538  0.0160
 3446SOL    HW221972   3.910   2.241   2.669  1.0468  2.5805  0.6524
 3447SOL     OW21973   0.238   0.574   8.128 -0.1729 -0.3750 -0.4974
 3447SOL    HW121974   0.153   0.570   8.086 -1.3620  0.3841  1.8498
 3447SOL    HW221975   0.262   0.666   8.124 -0.4253 -0.2138  1.5871
 3448SOL     OW21976   0.203   2.313  13.249  0.2008  0.0119 -0.3070
 3448SOL    HW121977   0.241   2.248  13.308 -1.5624 -0.8385 -0.0862
 3448SOL    HW221978   0.279   2.369  13.243  0.9218 -0.7556  1.6492
 3449SOL     OW21979   1.692   3.393   4.287  0.0166 -0.1715  0.4045
 3449SOL    HW121980   1.695   3.312   4.236 -1.1191  0.6325 -0.9509
 3449SOL    HW221981   1.784   3.404   4.308 -0.4160  1.0542  1.6604
 3450SOL     OW21982   0.422   0.638  17.536 -0.0108 -0.6048 -0.6802
 3450SOL    HW121983   0.367   0.566  17.505 -1.1574  0.2464 -0.6181
 3450SOL    HW221984   0.359   0.710  17.535  1.3891  0.5991 -1.3417
 3451SOL     OW21985   3.622   0.394   2.339  0.0177 -0.5100 -0.4376
 3451SOL    HW121986   3.711   0.428   2.330 -0.1460 -0.3663 -1.5469
 3451SOL    HW221987   3.631   0.339   2.417 -1.5513  0.8545  0.7038
 3452SOL     OW21988   2.623   1.874   7.134  0.4294 -0.9045  0.0918
 3452SOL    HW121989   2.537   1.914   7.118  0.7037 -0.5895 -0.5756
 3452SOL    HW221990   2.637   1.893   7.227  3.9508  0.9295 -0.8340
 3453SOL     OW21991   3.848   2.091   0.224  0.3958 -0.0651 -0.1883
 3453SOL    HW121992   3.791   2.084   0.147  1.5437  1.8829 -1.2117
 3453SOL    HW221993   3.781   2.131   0.279 -0.2479 -1.1075 -0.2029
 3454SOL     OW21994   3.696   3.670  13.238 -0.2821  0.6253  0.2154
 3454SOL    HW121995   3.781   3.690  13.279  0.1318  0.9319 -0.7976
 3454SOL    HW221996   3.654   3.604  13.293  1.4282  0.7991  1.7616
 3455SOL     OW21997   1.321   0.005   2.119 -0.6229  0.2768  0.4484
 3455SOL    HW121998   1.252   0.028   2.182 -1.0306 -0.1285  0.1469
 3455SOL    HW221999   1.399   0.040   2.162 -0.2211  0.4290 -0.4053
 3456SOL     OW22000   3.753   1.355   7.533 -0.0031 -0.0680  0.4827
 3456SOL    HW122001   3.832   1.408   7.523  1.4391 -2.3364 -0.0671
 3456SOL    HW222002   3.700   1.417   7.584  0.4689  0.5621  0.2155
 3457SOL     OW22003   4.664   0.869   5.104  0.6677  0.4879  0.3261
 3457SOL    HW122004   4.707   0.830   5.028 -1.0475  2.8803 -1.8919
 3457SOL    HW222005   4.673   0.800   5.170 -1.0980 -2.3696 -2.4293
 3458SOL     OW22006   2.820   1.483   5.452 -0.4288  0.4205  0.4284
 3458SOL    HW122007   2.887   1.416   5.465 -0.3368 -0.3639 -4.3427
 3458SOL    HW222008   2.840   1.500   5.360 -0.2491 -1.7417  0.0646
 3459SOL     OW22009   0.339   4.012   8.513  0.1866  0.3051 -0.4919
 3459SOL    HW122010   0.331   4.079   8.445 -1.7908  1.4763  0.9231
 3459SOL    HW222011   0.413   4.046   8.564  0.6153  0.4412 -1.1922
 3460SOL     OW22012   3.926   3.944  14.878 -0.0405 -0.0790 -0.1069
 3460SOL    HW122013   3.902   4.030  14.914  1.7105  0.0593  0.7429
 3460SOL    HW222014   3.971   3.975  14.799 -2.6504  0.0930 -1.5164
 3461SOL     OW22015   1.243   2.040   7.094  0.3054 -0.1699  0.4121
 3461SOL    HW122016   1.296   2.059   7.017  1.2744  1.2343  1.4249
 3461SOL    HW222017   1.187   1.970   7.060 -1.6699  1.9578 -0.7265
 3462SOL     OW22018   1.066   3.736   7.172 -0.2214  0.4291 -0.1708
 3462SOL    HW122019   1.069   3.723   7.077 -0.9303 -0.8371 -0.0210
 3462SOL    HW222020   1.126   3.810   7.172  1.4260 -0.8913  0.0036
 3463SOL     OW22021   3.636   3.806   5.397 -0.1263  0.3810  0.0427
 3463SOL    HW122022   3.604   3.783   5.310  1.8085  0.9813 -0.8382
 3463SOL    HW222023   3.623   3.724   5.444  0.4595 -0.7118 -1.7026
 3464SOL     OW22024   0.642   1.318  13.677 -0.2404  0.0514  0.1511
 3464SOL    HW122025   0.658   1.333  13.770  0.0943  0.3805  0.0379
 3464SOL    HW222026   0.608   1.229  13.683 -0.3532  0.0475 -0.5214
 3465SOL     OW22027   3.195   1.367   3.099 -0.3719  0.4084 -0.1617
 3465SOL    HW122028   3.237   1.283   3.081 -2.1106  0.0924 -2.6525
 3465SOL    HW222029   3.106   1.339   3.119 -0.1664 -2.0455 -2.6691
 3466SOL     OW22030   3.661   1.607   3.930  0.0141  0.5598 -0.6307
 3466SOL    HW122031   3.654   1.700   3.912  1.7988  0.7359 -0.4441
 3466SOL    HW222032   3.710   1.604   4.012  1.2754  0.0952 -1.4042
 3467SOL     OW22033   4.130   2.808   9.629  0.6079 -0.1278  0.0056
 3467SOL    HW122034   4.140   2.744   9.559  0.9932  2.3703 -2.2466
 3467SOL    HW222035   4.198   2.861   9.587 -1.4592  1.2525 -1.5752
 3468SOL     OW22036   2.445   3.169   8.358  0.0458  0.1539 -0.5222
 3468SOL    HW122037   2.398   3.096   8.399  0.0277  0.2491 -0.3731
 3468SOL    HW222038   2.400   3.239   8.406 -2.0485 -1.6232  0.1451
 3469SOL     OW22039   1.250   2.786   4.546  0.3476 -0.0212 -0.5960
 3469SOL    HW122040   1.241   2.773   4.641  1.4612  0.5830 -0.4074
 3469SOL    HW222041   1.308   2.712   4.527 -1.1298 -1.0895 -0.9647
 3470SOL     OW22042   3.992   0.724  15.589  0.6012 -0.2517  0.3121
 3470SOL    HW122043   4.030   0.811  15.573 -1.0562  0.3933 -0.1107
 3470SOL    HW222044   4.049   0.673  15.531 -1.3455 -0.1995 -1.6225
 3471SOL     OW22045   0.245   3.532   7.447 -0.0280  0.2358 -0.2404
 3471SOL    HW122046   0.192   3.608   7.470  0.5778  0.6263 -0.1150
 3471SOL    HW222047   0.326   3.543   7.497  0.5263  1.9688 -1.4829
 3472SOL     OW22048   1.268   1.099   3.709  0.4108 -0.2527 -0.2087
 3472SOL    HW122049   1.360   1.124   3.694 -0.3523  0.9737 -2.8421
 3472SOL    HW222050   1.212   1.176   3.701 -0.7072 -1.1413 -0.9136
 3473SOL     OW22051   0.099   0.176   8.195  0.2131 -0.0186 -0.1757
 3473SOL    HW122052   0.188   0.146   8.214  0.0217 -1.8409 -2.0501
 3473SOL    HW222053   0.104   0.260   8.240 -0.8073 -1.1608  2.0469
 3474SOL     OW22054   1.096   4.235   7.470  0.2068 -0.3635 -0.5595
 3474SOL    HW122055   1.022   4.292   7.491 -0.1988 -0.9984 -0.2433
 3474SOL    HW222056   1.136   4.286   7.400 -1.9060 -1.0118 -2.2387
 3475SOL     OW22057   1.466   1.992   2.603 -0.0574 -0.4312  0.2317
 3475SOL    HW122058   1.512   1.930   2.547 -0.5204 -1.0183  0.5004
 3475SOL    HW222059   1.397   1.941   2.646 -0.1849  1.1639  1.9467
 3476SOL     OW22060   2.798   0.338   8.495  0.2780 -0.2924 -0.5988
 3476SOL    HW122061   2.886   0.303   8.510 -0.4010 -1.1464  1.3007
 3476SOL    HW222062   2.798   0.364   8.403 -2.2572 -4.4106 -1.7592
 3477SOL     OW22063   0.607   2.947   8.900  0.0593  0.0331  0.3743
 3477SOL    HW122064   0.645   2.914   8.818 -0.4001  0.7624 -0.1320
 3477SOL    HW222065   0.624   2.870   8.955  0.9115  0.8732  1.2773
 3478SOL     OW22066   4.002   0.934  10.570  0.2654  0.1730 -0.1645
 3478SOL    HW122067   3.986   1.021  10.608  1.1390  0.1169  0.3210
 3478SOL    HW222068   4.001   0.951  10.476 -0.6990  0.8829 -0.0313
 3479SOL     OW22069   3.448   2.510  14.831  0.4294 -0.0342  0.1057
 3479SOL    HW122070   3.363   2.488  14.795  0.9144 -0.4614 -0.7768
 3479SOL    HW222071   3.465   2.427  14.877 -2.3277  0.1684  1.4734
 3480SOL     OW22072   3.633   0.202   7.184 -0.3863  0.5209 -0.3552
 3480SOL    HW122073   3.565   0.207   7.251  1.2054  0.6263  1.2490
 3480SOL    HW222074   3.681   0.140   7.239 -0.6690  1.5060  0.9914
 3481SOL     OW22075   2.125   4.719   0.878 -0.3854 -0.4515 -0.6646
 3481SOL    HW122076   2.182   0.028   0.815  1.4875 -1.9698 -0.0498
 3481SOL    HW222077   2.189   4.673   0.934 -0.3562  1.0010  0.5009
 3482SOL     OW22078   4.564   2.589   3.527 -0.1049  0.2316 -0.4890
 3482SOL    HW122079   4.554   2.598   3.622 -1.1246  0.4998 -0.6252
 3482SOL    HW222080   4.484   2.637   3.505  0.4185  0.3792 -2.0216
 3483SOL     OW22081   3.587   1.019   1.664  0.3264  0.1592 -0.1053
 3483SOL    HW122082   3.676   1.004   1.632  0.1317 -2.1620  0.5054
 3483SOL    HW222083   3.590   0.956   1.736  1.4687  0.7517  0.3747
 3484SOL     OW22084   2.679   0.843  11.943  0.0206  0.1853  0.2683
 3484SOL    HW122085   2.682   0.938  11.930 -0.0907  0.4554  2.2171
 3484SOL    HW222086   2.685   0.804  11.855  0.9687 -1.2334  0.9640
 3485SOL     OW22087   2.365   3.443   4.838 -0.0649 -0.7295 -0.2039
 3485SOL    HW122088   2.350   3.426   4.746  0.5138 -2.9736  0.1175
 3485SOL    HW222089   2.369   3.354   4.873 -0.4676 -0.7546 -0.2265
 3486SOL     OW22090   4.502   1.117   3.708  0.4709 -0.7843 -0.0213
 3486SOL    HW122091   4.502   1.034   3.755 -0.2096 -0.6986  0.1327
 3486SOL    HW222092   4.555   1.162   3.774 -0.7355  1.4885 -0.6069
 3487SOL     OW22093   3.650   2.612   3.839  0.6107 -0.7874 -0.6158
 3487SOL    HW122094   3.692   2.567   3.766  1.9027  2.6064 -1.9625
 3487SOL    HW222095   3.712   2.613   3.912  0.2579  2.5336 -0.3612
 3488SOL     OW22096   3.990   1.027   2.539  0.1897  0.8019  0.5282
 3488SOL    HW122097   4.055   0.999   2.603  0.8475 -3.6852 -2.1736
 3488SOL    HW222098   4.010   0.951   2.486  0.1741  1.1955 -0.0437
 3489SOL     OW22099   1.926   0.028   4.926 -0.6070 -0.1281 -0.1379
 3489SOL    HW122100   1.844   0.019   4.974  0.7813  0.4000  2.3346
 3489SOL    HW222101   1.999   0.031   4.987 -1.4292 -1.0888  0.8890
 3490SOL     OW22102   4.104   0.057   3.341  0.1744  0.2387 -0.0446
 3490SOL    HW122103   4.114   0.052   3.246  2.3596 -1.8021  0.2759
 3490SOL    HW222104   4.182   0.010   3.370 -0.1013  1.5163  2.7404
 3491SOL     OW22105   3.161   1.979   8.316  0.4890 -0.2691  0.1662
 3491SOL    HW122106   3.194   1.907   8.262  2.3931  0.0158  0.9240
 3491SOL    HW222107   3.198   1.964   8.403  2.9377 -1.1883 -1.0351
 3492SOL     OW22108   2.238   0.831   3.835  0.9578 -0.0358 -0.0351
 3492SOL    HW122109   2.147   0.804   3.820  1.2801 -0.6050 -0.9716
 3492SOL    HW222110   2.243   0.882   3.916 -1.0231 -2.1585  1.4439
 3493SOL     OW22111   3.016   1.072  12.921  0.6992 -0.4290 -0.0107
 3493SOL    HW122112   2.960   1.055  12.845 -0.3528 -1.1827  0.9353
 3493SOL    HW222113   3.061   1.152  12.895  1.8589 -0.8202  0.7402
 3494SOL     OW22114   0.945   0.028   7.842  0.4595 -0.0377  0.1737
 3494SOL    HW122115   0.991   4.722   7.769 -0.6389  1.4426 -1.3360
 3494SOL    HW222116   0.859   4.726   7.821  0.6080  0.6363 -1.5844
 3495SOL     OW22117   3.946   4.101   7.088 -0.0230 -0.1155 -0.1031
 3495SOL    HW122118   4.028   4.128   7.129 -1.5308  2.6945  0.9850
 3495SOL    HW222119   3.988   4.077   7.005 -1.7506  0.5941 -1.1742
 3496SOL     OW22120   0.873   4.625   5.745  0.1142 -0.0463 -0.4603
 3496SOL    HW122121   0.855   4.650   5.835 -2.1082 -1.4256 -0.5251
 3496SOL    HW222122   0.828   4.688   5.688  1.2588  2.0046  0.8600
 3497SOL     OW22123   3.815   3.936   8.993  0.4918 -0.1058 -0.9009
 3497SOL    HW122124   3.799   3.846   8.963 -0.7307  0.4994 -2.0563
 3497SOL    HW222125   3.887   3.973   8.942  0.4274  2.0018  0.5455
 3498SOL     OW22126   3.314   2.360  16.366 -0.5917 -0.1347  0.4105
 3498SOL    HW122127   3.372   2.308  16.309  1.3975  2.7698 -0.2173
 3498SOL    HW222128   3.379   2.399  16.424 -1.2562 -2.0085  2.3897
 3499SOL     OW22129   4.651   0.458   6.053  0.4789 -0.7426 -0.5567
 3499SOL    HW122130   4.598   0.379   6.067 -0.1951 -0.3788 -1.0548
 3499SOL    HW222131   4.569   0.506   6.043  1.2170 -0.0799 -3.4432
 3500SOL     OW22132   3.085   1.559  12.921  0.2493  0.0716 -0.2777
 3500SOL    HW122133   3.069   1.527  12.833 -0.8523 -0.2100  0.0299
 3500SOL    HW222134   3.125   1.482  12.963 -0.0986  0.8023  1.4059
 3501SOL     OW22135   1.573   1.322  12.837  0.3901  0.0532 -0.7451
 3501SOL    HW122136   1.603   1.260  12.770  0.3389 -0.6195 -0.1412
 3501SOL    HW222137   1.647   1.340  12.895  1.0821  0.5373 -1.7734
 3502SOL     OW22138   2.400   0.612   3.789  0.2583 -0.3214 -0.2398
 3502SOL    HW122139   2.478   0.633   3.841  0.0880 -0.5053  0.0854
 3502SOL    HW222140   2.337   0.680   3.812  1.9789  1.0950  0.3481
 3503SOL     OW22141   1.053   2.928  17.631 -0.6830 -0.2997 -0.0432
 3503SOL    HW122142   1.052   2.923  17.535 -0.0281 -0.3937 -0.0443
 3503SOL    HW222143   1.142   2.898  17.652 -1.0191 -0.5002  1.0597
 3504SOL     OW22144   4.379   1.604   6.836  0.2636  0.6473 -0.1118
 3504SOL    HW122145   4.312   1.625   6.771  0.4638  0.0889 -0.4953
 3504SOL    HW222146   4.326   1.604   6.916  2.5023  3.0325  1.3898
 3505SOL     OW22147   3.137   1.461   5.098  0.8385 -0.1318  0.3146
 3505SOL    HW122148   3.099   1.380   5.133  0.4670  0.0025  0.2248
 3505SOL    HW222149   3.231   1.457   5.110  1.0025  1.7811 -0.1807
 3506SOL     OW22150   4.240   2.288  10.649  0.1689  0.0440  0.3513
 3506SOL    HW122151   4.328   2.307  10.616 -0.5597 -0.3437 -1.7887
 3506SOL    HW222152   4.256   2.203  10.690  0.2456 -0.3782 -0.5647
 3507SOL     OW22153   3.496   2.920   6.076 -0.0134  0.8177  0.0506
 3507SOL    HW122154   3.517   2.958   6.161 -0.5182 -0.6528  0.8207
 3507SOL    HW222155   3.449   2.842   6.105 -0.6695  1.2855  0.2378
 3508SOL     OW22156   1.130   0.829   8.757 -0.6066  0.6725 -0.0518
 3508SOL    HW122157   1.172   0.912   8.776  1.1197 -0.3809  0.7199
 3508SOL    HW222158   1.049   0.837   8.808  1.1997  0.6895  2.7907
 3509SOL     OW22159   3.862   0.175   0.076  0.5741 -0.2954 -0.0468
 3509SOL    HW122160   3.893   0.264   0.088  1.6691 -0.4256 -1.9143
 3509SOL    HW222161   3.769   0.195   0.091  0.7826  2.7654 -2.9451
 3510SOL     OW22162   4.630   2.369   3.851  0.2805  0.5716 -0.5219
 3510SOL    HW122163   4.632   2.463   3.835  1.6639  0.8356  1.1547
 3510SOL    HW222164   4.695   2.375   3.921  0.0932  0.3102 -0.3231
 3511SOL     OW22165   0.989   4.638  13.478 -0.0251 -0.5566 -0.6770
 3511SOL    HW122166   0.993   4.687  13.560 -0.7191 -1.1748 -0.2698
 3511SOL    HW222167   0.999   4.710  13.415 -0.5512 -1.0418 -1.3192
 3512SOL     OW22168   1.136   2.787   2.372  0.1719 -0.3292 -0.4302
 3512SOL    HW122169   1.226   2.764   2.348  0.7689  1.9251 -0.3504
 3512SOL    HW222170   1.110   2.804   2.281  2.1386 -1.8197 -1.2907
 3513SOL     OW22171   4.733   0.518  17.610 -0.5737 -0.0947  0.1596
 3513SOL    HW122172   4.649   0.488  17.645 -0.6738  0.9134  0.7639
 3513SOL    HW222173   4.699   0.546  17.525  0.4429  1.4115  0.2566
 3514SOL     OW22174   3.275   2.742   5.753  0.0628 -0.3167 -0.7059
 3514SOL    HW122175   3.205   2.682   5.778  1.2927 -0.2242  3.0256
 3514SOL    HW222176   3.231   2.820   5.719  0.9633  0.3420 -0.3789
 3515SOL     OW22177   0.076   2.012  12.025  0.3866 -0.8254  0.1014
 3515SOL    HW122178   0.026   1.949  11.973  0.2677 -1.8062  1.4131
 3515SOL    HW222179   0.122   1.953  12.085  1.9450  0.4241  0.1309
 3516SOL     OW22180   1.650   0.288  13.918  0.1168  0.0956  0.4967
 3516SOL    HW122181   1.697   0.371  13.909 -0.6654  0.4964  0.0927
 3516SOL    HW222182   1.642   0.259  13.827 -1.2332  0.5946  0.4581
 3517SOL     OW22183   0.078   3.947   3.605  0.3433 -0.5776 -0.0146
 3517SOL    HW122184   4.731   3.931   3.556  1.3660 -0.4959 -1.7273
 3517SOL    HW222185   0.131   3.899   3.541 -1.6469 -1.3845 -1.0633
 3518SOL     OW22186   1.943   2.490  13.695  0.0009 -0.6660 -0.3195
 3518SOL    HW122187   2.032   2.470  13.665 -0.3356 -1.2291 -0.9234
 3518SOL    HW222188   1.956   2.528  13.782 -0.9878  0.2087 -0.5580
 3519SOL     OW22189   4.132   2.793   9.898 -0.4220  0.0221 -0.3143
 3519SOL    HW122190   4.118   2.702   9.869 -0.5505 -0.7887  2.2510
 3519SOL    HW222191   4.156   2.834   9.815 -1.2907  1.7458  0.2896
 3520SOL     OW22192   4.724   2.234   2.880 -0.3219  0.7658 -0.3114
 3520SOL    HW122193   4.684   2.217   2.965  0.8433  0.7540  0.2295
 3520SOL    HW222194   0.009   2.142   2.867 -0.8639  0.3130  2.0499
 3521SOL     OW22195   2.893   0.223   8.815 -0.0076  0.0048 -0.0389
 3521SOL    HW122196   2.875   0.139   8.772 -0.2079  0.5518 -1.0303
 3521SOL    HW222197   2.804   0.258   8.823  0.1530  0.3990 -0.0148
 3522SOL     OW22198   1.760   1.590   3.392  0.1534 -0.7799  0.2105
 3522SOL    HW122199   1.852   1.610   3.404 -0.0591  1.0492 -1.3490
 3522SOL    HW222200   1.730   1.636   3.314 -0.2874  0.7914  1.3067
 3523SOL     OW22201   4.424   2.427  12.941 -0.1277  0.3351  0.0397
 3523SOL    HW122202   4.356   2.468  12.994 -0.3070 -2.4572  1.9785
 3523SOL    HW222203   4.483   2.400  13.011  0.6808  1.6866 -0.1301
 3524SOL     OW22204   1.769   2.719   6.019  0.1464  0.1832 -0.2618
 3524SOL    HW122205   1.792   2.793   5.963  1.5784 -0.1189 -0.0876
 3524SOL    HW222206   1.676   2.731   6.036  0.5458  1.9118  0.7118
 3525SOL     OW22207   1.629   0.413   3.836 -0.0954  0.4686 -0.4733
 3525SOL    HW122208   1.647   0.493   3.787 -1.7817  1.2983  0.2960
 3525SOL    HW222209   1.692   0.351   3.798  1.5144  0.6798  1.8809
 3526SOL     OW22210   2.232   4.372   7.025 -0.5235 -0.4894  0.6082
 3526SOL    HW122211   2.281   4.446   6.990  0.5119 -0.5326  1.9984
 3526SOL    HW222212   2.274   4.290   6.998  2.9858  1.1429  1.0854
 3527SOL     OW22213   2.389   1.759   6.548  0.1433 -0.2187 -0.0295
 3527SOL    HW122214   2.329   1.689   6.523 -2.3912  2.2773 -0.9085
 3527SOL    HW222215   2.336   1.825   6.593  0.9811  1.2760 -1.2232
 3528SOL     OW22216   1.673   1.718  14.369 -0.9113  0.1968  0.0548
 3528SOL    HW122217   1.630   1.752  14.290 -0.1747  4.0044  1.2892
 3528SOL    HW222218   1.720   1.644  14.329  0.9732  0.3622  1.9611
 3529SOL     OW22219   2.384   4.324   8.208 -0.8818 -0.4881  0.5282
 3529SOL    HW122220   2.424   4.285   8.130 -1.2586 -0.8600  0.5233
 3529SOL    HW222221   2.405   4.260   8.277  0.8004  1.7292  2.0854
 3530SOL     OW22222   1.111   1.649   4.639  0.0228  0.0880 -0.5178
 3530SOL    HW122223   1.130   1.740   4.660 -2.6390  0.4108  0.4985
 3530SOL    HW222224   1.115   1.656   4.544  0.7451  3.6558 -0.2031
 3531SOL     OW22225   0.503   2.767   5.247  0.2448  0.0765 -0.1376
 3531SOL    HW122226   0.466   2.789   5.333 -1.2223 -2.0456 -0.2092
 3531SOL    HW222227   0.590   2.746   5.281 -0.3693 -0.3293  1.1773
 3532SOL     OW22228   4.213   2.927  16.150 -0.0695 -0.3566 -0.1402
 3532SOL    HW122229   4.185   3.014  16.177 -1.5189 -0.4503 -1.3262
 3532SOL    HW222230   4.307   2.934  16.165  0.2730 -1.5011 -1.6858
 3533SOL     OW22231   1.067   3.045   6.001 -0.0447  0.1324  0.4021
 3533SOL    HW122232   1.032   3.077   6.084 -0.3128 -0.7721  0.6304
 3533SOL    HW222233   1.019   2.962   5.996 -1.4736  0.9936 -0.2780
 3534SOL     OW22234   4.456   3.490   2.078  0.2655  0.1094 -0.2109
 3534SOL    HW122235   4.456   3.399   2.107 -0.1317 -0.2893 -1.4563
 3534SOL    HW222236   4.377   3.529   2.116  0.3622 -0.2025  0.3203
 3535SOL     OW22237   3.141   1.215   9.348  0.4676  0.3697  0.7714
 3535SOL    HW122238   3.075   1.151   9.321  0.7686  0.0544  0.7764
 3535SOL    HW222239   3.115   1.238   9.437 -1.6287 -1.8364  0.7069
 3536SOL     OW22240   0.472   4.248   1.228  0.0479 -0.0744  0.2107
 3536SOL    HW122241   0.472   4.172   1.169 -1.7613  1.8191 -2.1857
 3536SOL    HW222242   0.434   4.211   1.308 -1.7417  0.9014 -0.1942
 3537SOL     OW22243   2.472   3.977   6.608 -0.5793  0.6158 -0.2334
 3537SOL    HW122244   2.557   4.019   6.616 -0.7634  0.9675 -0.1274
 3537SOL    HW222245   2.456   3.939   6.694 -0.5842 -0.2410 -0.6097
 3538SOL     OW22246   3.950   0.758   7.206 -0.4357  0.4803 -0.5706
 3538SOL    HW122247   3.955   0.758   7.301  2.7842  2.3859 -0.7555
 3538SOL    HW222248   3.908   0.672   7.199  0.1477 -0.0047  2.1206
 3539SOL     OW22249   3.756   4.499   2.118 -0.2752 -0.4160 -0.2755
 3539SOL    HW122250   3.784   4.565   2.182  0.5646 -0.6152 -0.4454
 3539SOL    HW222251   3.829   4.515   2.058  0.6217 -1.0589  0.6432
 3540SOL     OW22252   1.339   0.949   2.710  0.1550  0.6872 -0.6039
 3540SOL    HW122253   1.365   1.019   2.771  1.7886 -1.6845  1.4368
 3540SOL    HW222254   1.273   0.908   2.766  0.3709 -2.4604 -2.6774
 3541SOL     OW22255   1.517   2.593  10.028 -0.8708 -0.5257 -0.2018
 3541SOL    HW122256   1.477   2.657   9.968 -0.2733  1.9674  2.0689
 3541SOL    HW222257   1.450   2.554  10.084  0.2329 -0.0151  1.4799
 3542SOL     OW22258   2.964   4.607   5.407 -0.2757  0.4486 -0.0929
 3542SOL    HW122259   3.030   4.540   5.389 -3.9873 -2.8522 -1.3095
 3542SOL    HW222260   3.008   4.684   5.371  0.7463  0.5557  1.3993
 3543SOL     OW22261   2.617   0.118   3.351  0.2351 -0.2689  0.7841
 3543SOL    HW122262   2.542   0.162   3.392 -0.3608 -1.2036  0.6866
 3543SOL    HW222263   2.560   0.100   3.277 -0.7794  1.6726  1.0991
 3544SOL     OW22264   4.577   2.230   5.526 -0.1711 -0.0085 -0.5490
 3544SOL    HW122265   4.663   2.253   5.491  1.2607 -1.7637  1.7928
 3544SOL    HW222266   4.517   2.292   5.484 -0.5109 -0.5043 -0.7828
 3545SOL     OW22267   1.787   1.804   2.951  0.0476  0.3636  0.8832
 3545SOL    HW122268   1.859   1.805   2.887 -1.6461 -2.3142 -1.0718
 3545SOL    HW222269   1.768   1.898   2.954  0.1776  0.4340 -0.3376
 3546SOL     OW22270   2.604   0.605  16.735  0.2267 -0.3071  0.4765
 3546SOL    HW122271   2.530   0.656  16.703  0.0089 -0.6067  0.5089
 3546SOL    HW222272   2.671   0.673  16.743 -1.3722  1.6493 -3.0178
 3547SOL     OW22273   2.288   2.727   6.420 -0.2386 -0.1035 -0.0876
 3547SOL    HW122274   2.291   2.820   6.443 -3.1468  0.4402 -1.8751
 3547SOL    HW222275   2.266   2.681   6.501 -0.7378 -1.2308 -0.8576
 3548SOL     OW22276   0.988   3.161   7.290 -0.1758  0.1644  0.5958
 3548SOL    HW122277   1.059   3.097   7.295 -0.8218 -0.4285  2.1346
 3548SOL    HW222278   1.045   3.235   7.313  0.6978  0.3215 -2.0417
 3549SOL     OW22279   2.855   4.498   9.703 -0.6388  0.4500  0.0261
 3549SOL    HW122280   2.900   4.422   9.741 -0.1850  0.3627 -0.6862
 3549SOL    HW222281   2.774   4.455   9.676 -0.0537 -0.0223 -0.9989
 3550SOL     OW22282   1.908   0.589   9.009 -0.4541 -0.0089 -0.2861
 3550SOL    HW122283   1.884   0.619   9.097  0.3139 -0.0118 -0.0725
 3550SOL    HW222284   1.830   0.537   8.989 -3.1254  3.4747  1.0698
 3551SOL     OW22285   1.693   0.209   6.918  0.0738  0.4227 -0.6135
 3551SOL    HW122286   1.755   0.235   6.851  1.3157  1.9528  1.1308
 3551SOL    HW222287   1.748   0.143   6.962  0.7787  2.3937  1.4556
 3552SOL     OW22288   1.714   3.187  14.177  0.5072 -0.1318  0.3254
 3552SOL    HW122289   1.677   3.250  14.115 -2.1198 -2.0675 -0.1114
 3552SOL    HW222290   1.706   3.241  14.255 -2.2945  0.6392 -0.4667
 3553SOL     OW22291   3.296   1.940  11.979 -0.3254  0.2809 -0.4379
 3553SOL    HW122292   3.352   1.948  12.057 -1.2806  1.7838  0.0937
 3553SOL    HW222293   3.285   2.033  11.962 -0.3500  0.2260 -0.7218
 3554SOL     OW22294   2.507   3.155   7.880 -0.5866 -0.1238 -0.1178
 3554SOL    HW122295   2.524   3.062   7.862 -0.1552 -0.0780  0.0455
 3554SOL    HW222296   2.452   3.169   7.803 -0.2010 -0.3668 -0.4448
 3555SOL     OW22297   0.545   3.423  17.733  0.2522 -0.6019  0.4168
 3555SOL    HW122298   0.557   3.332   0.025 -1.3367 -0.8598  0.2636
 3555SOL    HW222299   0.639   3.445  17.733 -0.6955  3.3615  0.1802
 3556SOL     OW22300   1.719   3.076   1.617  0.0994  0.3667 -0.0894
 3556SOL    HW122301   1.698   3.039   1.531 -0.8678 -1.9864  1.1588
 3556SOL    HW222302   1.758   3.158   1.589 -2.0305  1.8765  1.3921
 3557SOL     OW22303   3.911   2.925  10.429 -0.6545  0.0878 -0.2835
 3557SOL    HW122304   3.900   2.945  10.336  2.0980  1.1904 -0.3827
 3557SOL    HW222305   3.905   2.830  10.433 -0.5278  0.2139  2.4989
 3558SOL     OW22306   3.820   0.058  17.564 -0.2585 -0.4769 -0.1564
 3558SOL    HW122307   3.863   0.090  17.643 -0.1187 -1.0875  0.0138
 3558SOL    HW222308   3.743   0.115  17.559 -0.6200 -0.9355  0.1954
 3559SOL     OW22309   0.829   3.380   8.222 -0.0945 -0.3668 -0.4143
 3559SOL    HW122310   0.787   3.368   8.136  1.0577  1.8873 -1.2915
 3559SOL    HW222311   0.799   3.305   8.272  0.3649  2.1171  3.5620
 3560SOL     OW22312   0.401   4.678  11.890 -0.5720  0.5839  0.1652
 3560SOL    HW122313   0.339   0.012  11.866  0.5191  1.4439 -0.1890
 3560SOL    HW222314   0.418   4.693  11.983 -0.4583  1.2171  0.0379
 3561SOL     OW22315   1.857   2.450   5.171 -0.6537  0.2590  0.5524
 3561SOL    HW122316   1.906   2.524   5.206 -2.0419  0.8677  1.2218
 3561SOL    HW222317   1.852   2.385   5.241 -0.3201 -1.4933 -1.0691
 3562SOL     OW22318   3.645   2.283   0.204 -0.1688  0.0101 -0.3842
 3562SOL    HW122319   3.636   2.248   0.293 -0.7936  1.7366  0.2295
 3562SOL    HW222320   3.696   2.362   0.220 -0.5095  0.1025  0.2381
 3563SOL     OW22321   2.436   2.768   9.195  0.3608 -0.0978 -0.1100
 3563SOL    HW122322   2.407   2.721   9.117  1.7857 -2.5196  0.8313
 3563SOL    HW222323   2.347   2.785   9.227  0.3140 -0.1092 -0.2329
 3564SOL     OW22324   2.761   1.788   9.000 -0.6720  0.5296  0.3633
 3564SOL    HW122325   2.739   1.753   9.086  1.2156 -0.1035  0.5825
 3564SOL    HW222326   2.801   1.707   8.971  0.2200  1.2269 -0.3637
 3565SOL     OW22327   0.504   1.704  10.704 -0.1187  0.3530 -0.2200
 3565SOL    HW122328   0.579   1.734  10.756 -0.2979  1.3939 -0.5669
 3565SOL    HW222329   0.465   1.789  10.684 -0.6022  0.2803  0.4141
 3566SOL     OW22330   1.438   3.575   6.961 -0.9668 -0.3277 -0.2461
 3566SOL    HW122331   1.523   3.617   6.946 -0.3793 -0.9405  1.3602
 3566SOL    HW222332   1.386   3.652   6.940  2.2214  1.7790 -0.3767
 3567SOL     OW22333   2.417   3.859   3.761 -0.4986 -0.2754  0.0881
 3567SOL    HW122334   2.453   3.828   3.678 -0.0296  2.0066 -0.5622
 3567SOL    HW222335   2.339   3.897   3.722  0.3439  1.1993 -0.1382
 3568SOL     OW22336   3.571   3.518   8.050 -0.0372  0.2363 -0.2673
 3568SOL    HW122337   3.617   3.448   8.003 -0.0159 -0.3101  0.5650
 3568SOL    HW222338   3.484   3.485   8.072 -0.6597  1.7748 -0.4486
 3569SOL     OW22339   2.469   2.789   2.441  0.6645  0.0140 -0.4666
 3569SOL    HW122340   2.563   2.800   2.431  0.6623 -0.7157 -1.2648
 3569SOL    HW222341   2.433   2.833   2.364 -0.4555  0.0909  0.0994
 3570SOL     OW22342   3.970   2.674   3.653  0.1220 -0.6672 -0.4513
 3570SOL    HW122343   3.936   2.763   3.648  1.4986 -0.0497  0.9778
 3570SOL    HW222344   3.991   2.664   3.746 -0.0399  1.5781 -0.1694
 3571SOL     OW22345   1.805   2.027  10.083  0.2768  0.4750  0.1821
 3571SOL    HW122346   1.793   2.045  10.176  0.7363  1.9629 -0.0467
 3571SOL    HW222347   1.864   2.097  10.056  1.2754 -1.5583 -3.0040
 3572SOL     OW22348   3.611   1.069   5.168 -0.6737  0.4515  0.0832
 3572SOL    HW122349   3.552   1.115   5.108 -0.2012  0.3897 -0.4323
 3572SOL    HW222350   3.645   1.149   5.208  0.6026  0.0124 -0.1091
 3573SOL     OW22351   2.732   2.152  14.602 -0.0847  0.1088 -0.1945
 3573SOL    HW122352   2.656   2.180  14.653  0.7413  0.9058  0.5981
 3573SOL    HW222353   2.722   2.200  14.519 -1.2272  0.0619 -0.0794
 3574SOL     OW22354   1.077   0.829   8.105  0.2525  0.7364 -0.2766
 3574SOL    HW122355   0.988   0.814   8.074  1.5908 -2.6423 -2.5740
 3574SOL    HW222356   1.061   0.866   8.192 -0.7209 -1.8988  0.6710
 3575SOL     OW22357   2.263   3.251   3.007 -0.0212  0.1270  0.2119
 3575SOL    HW122358   2.333   3.261   3.071 -0.3270  2.7041  0.1345
 3575SOL    HW222359   2.303   3.186   2.949  0.4642 -2.1484  3.0616
 3576SOL     OW22360   3.001   4.631  12.657  0.3014  0.0086  0.3303
 3576SOL    HW122361   2.953   4.552  12.682  0.8236 -0.5677 -0.4857
 3576SOL    HW222362   3.031   4.610  12.569 -2.0172 -1.6341 -0.0697
 3577SOL     OW22363   4.525   4.728  16.899  0.0255 -0.1460  0.2031
 3577SOL    HW122364   4.438   4.692  16.884  0.1618 -0.8162  1.0377
 3577SOL    HW222365   4.569   4.656  16.944 -1.2328 -0.4774  0.9084
 3578SOL     OW22366   2.176   0.483   7.880  0.0574  0.6809 -0.4268
 3578SOL    HW122367   2.148   0.574   7.890  0.1693  0.7996 -1.1966
 3578SOL    HW222368   2.149   0.449   7.795 -2.4877 -2.4586  1.6525
 3579SOL     OW22369   0.841   4.447   0.758 -0.2314  0.1059 -0.1446
 3579SOL    HW122370   0.862   4.518   0.820 -0.9778 -1.0760  1.4436
 3579SOL    HW222371   0.920   4.434   0.706 -0.3735  2.1768 -0.8911
 3580SOL     OW22372   1.722   2.575   2.344  0.1752  0.3084  0.6699
 3580SOL    HW122373   1.761   2.511   2.284 -0.1807 -0.3977  1.1901
 3580SOL    HW222374   1.634   2.568   2.308  0.6143 -3.5097  0.3784
 3581SOL     OW22375   3.972   4.497   5.387 -0.2120  0.0226  0.7515
 3581SOL    HW122376   3.997   4.412   5.351  1.1356  0.7308  0.0241
 3581SOL    HW222377   3.917   4.470   5.461  2.5375 -1.2344  2.3509
 3582SOL     OW22378   2.775   3.153   2.150 -0.7349  0.3384  0.5383
 3582SOL    HW122379   2.816   3.155   2.236 -1.9407  0.6363  1.0946
 3582SOL    HW222380   2.735   3.239   2.141 -1.6572  0.0728  2.1776
 3583SOL     OW22381   0.014   4.446   8.486  0.1424 -0.7929 -0.7060
 3583SOL    HW122382   4.662   4.465   8.449 -0.2445 -0.2123  0.5099
 3583SOL    HW222383   0.053   4.527   8.454 -2.2597  0.5348 -0.2884
 3584SOL     OW22384   3.385   4.507  11.671  0.4023 -0.3824  0.0772
 3584SOL    HW122385   3.379   4.525  11.765  1.5061 -1.6653  0.3842
 3584SOL    HW222386   3.330   4.580  11.642 -1.2866 -2.2338 -1.3303
 3585SOL     OW22387   3.437   1.903   1.906 -0.6537  0.0560 -0.5554
 3585SOL    HW122388   3.517   1.851   1.909 -1.0101 -0.4448  0.6251
 3585SOL    HW222389   3.443   1.974   1.970 -0.5769  0.6206 -1.1853
 3586SOL     OW22390   1.000   3.458   3.312  0.2659  0.6212 -0.3009
 3586SOL    HW122391   1.060   3.433   3.242 -0.0081 -0.2147 -0.2326
 3586SOL    HW222392   1.028   3.398   3.380 -2.4952  0.7150  0.9468
 3587SOL     OW22393   0.871   2.010   5.175 -0.0568 -0.0496  0.0759
 3587SOL    HW122394   0.840   1.943   5.114 -0.5151  0.2478 -0.0098
 3587SOL    HW222395   0.800   2.073   5.169 -1.0732 -1.3782 -1.9759
 3588SOL     OW22396   4.234   0.611   2.383 -0.1004  0.2928  0.4887
 3588SOL    HW122397   4.147   0.641   2.358 -0.2435 -0.7725 -0.2806
 3588SOL    HW222398   4.280   0.628   2.301 -0.0415  1.0895  0.6895
 3589SOL     OW22399   1.433   1.735   3.927  0.4022 -0.3620 -0.0176
 3589SOL    HW122400   1.380   1.757   4.004  1.3185 -3.1960  1.4486
 3589SOL    HW222401   1.389   1.660   3.887  0.6968 -0.4682 -0.1393
 3590SOL     OW22402   3.540   1.369   3.924  0.6761  0.4151 -0.0212
 3590SOL    HW122403   3.595   1.443   3.899 -2.1438  2.2263 -0.8261
 3590SOL    HW222404   3.454   1.393   3.890  0.6136  0.5646  0.2418
 3591SOL     OW22405   0.475   3.000  10.270  0.3828  0.3388  0.1795
 3591SOL    HW122406   0.492   3.080  10.320  0.6607  0.5099 -0.1846
 3591SOL    HW222407   0.381   2.997  10.257  0.7573  0.4988 -2.5342
 3592SOL     OW22408   2.239   3.481  16.872 -0.4982 -0.3157 -0.6443
 3592SOL    HW122409   2.156   3.443  16.842  1.5459 -2.3736 -3.7790
 3592SOL    HW222410   2.259   3.445  16.958  0.9672  0.0633 -0.8225
 3593SOL     OW22411   0.944   1.588   7.862 -1.0108 -0.0034  0.0290
 3593SOL    HW122412   0.967   1.680   7.877 -0.5626  0.1039 -1.3171
 3593SOL    HW222413   0.849   1.585   7.877 -0.8031 -0.8392  1.1714
 3594SOL     OW22414   3.078   2.570   6.221 -0.3214  0.1254  0.0870
 3594SOL    HW122415   3.059   2.485   6.262  0.4842 -0.1858 -0.1763
 3594SOL    HW222416   3.023   2.563   6.143 -1.9774  0.8898  1.1963
 3595SOL     OW22417   4.583   4.142  10.945 -0.3211 -0.1467 -0.1963
 3595SOL    HW122418   4.592   4.154  10.850  0.2655 -0.5954 -0.1998
 3595SOL    HW222419   4.671   4.117  10.972 -0.0687  0.5668 -0.3454
 3596SOL     OW22420   3.822   2.676   6.173  0.2269  0.4346 -0.1134
 3596SOL    HW122421   3.749   2.721   6.216  2.1130  1.7809  1.6103
 3596SOL    HW222422   3.834   2.593   6.220 -1.0161 -0.5253 -1.4643
 3597SOL     OW22423   0.802   1.874  11.415 -0.0230  0.5966  0.1279
 3597SOL    HW122424   0.785   1.820  11.338 -2.1702  0.7152  0.5239
 3597SOL    HW222425   0.898   1.867  11.415  0.0035  1.0504 -1.1158
 3598SOL     OW22426   4.664   4.141  15.463 -0.1189 -0.5556  0.2449
 3598SOL    HW122427   4.628   4.229  15.450 -1.7220 -1.0916  0.9790
 3598SOL    HW222428   0.017   4.159  15.497  0.3118 -0.2865 -1.0282
 3599SOL     OW22429   3.572   1.832   7.292  0.1692 -0.6448  0.3036
 3599SOL    HW122430   3.577   1.881   7.209  0.0618 -1.4641 -0.1831
 3599SOL    HW222431   3.665   1.810   7.302  0.0605 -1.0076  0.4998
 3600SOL     OW22432   1.120   0.289   1.057 -0.2318 -0.2412  0.0307
 3600SOL    HW122433   1.090   0.379   1.042 -1.7698 -1.3398 -3.6897
 3600SOL    HW222434   1.082   0.267   1.142 -1.6765  1.5490 -0.1486
 3601SOL     OW22435   3.242   3.443   9.961  0.5248 -0.0374  0.2832
 3601SOL    HW122436   3.327   3.408   9.937 -1.1250 -3.3940 -0.6933
 3601SOL    HW222437   3.174   3.375   9.962 -0.0642  0.5440  0.0654
 3602SOL     OW22438   4.507   2.418   4.958 -0.2262 -0.3592 -0.0943
 3602SOL    HW122439   4.592   2.376   4.973  0.5875  0.6082 -1.9854
 3602SOL    HW222440   4.484   2.388   4.870 -0.7725 -0.4150  0.0717
 3603SOL     OW22441   2.418   3.094   2.839  0.3025  0.0252  0.4425
 3603SOL    HW122442   2.468   3.144   2.775  1.1384 -1.4680 -0.0678
 3603SOL    HW222443   2.466   3.014   2.819 -0.3760 -0.0775 -0.8341
 3604SOL     OW22444   4.153   0.729  14.824  0.7401  0.1421  0.0186
 3604SOL    HW122445   4.117   0.811  14.857 -0.9347 -0.5732 -0.0335
 3604SOL    HW222446   4.079   0.688  14.779 -0.5382  1.7685  0.6417
 3605SOL     OW22447   2.229   4.151   4.404 -0.5771 -0.2562 -0.2549
 3605SOL    HW122448   2.136   4.162   4.424 -0.1232 -0.1302  1.7826
 3605SOL    HW222449   2.232   4.201   4.322  0.1258  0.0163 -0.0565
 3606SOL     OW22450   0.201   0.628  16.835 -0.0036  0.5466  0.0012
 3606SOL    HW122451   0.165   0.717  16.839 -0.6406  0.3706 -2.1215
 3606SOL    HW222452   0.193   0.599  16.926 -2.9173 -0.1117 -0.4710
 3607SOL     OW22453   2.274   4.471   5.456 -0.3606 -0.2102  0.3582
 3607SOL    HW122454   2.220   4.415   5.512  1.4862 -0.4439  1.9302
 3607SOL    HW222455   2.272   4.413   5.380 -1.8800 -0.1553  0.3571
 3608SOL     OW22456   0.864   1.782   3.940 -0.3412  0.0611 -0.6605
 3608SOL    HW122457   0.869   1.705   3.996  0.9866 -1.1302 -2.4022
 3608SOL    HW222458   0.958   1.804   3.938  0.0936 -1.9290 -1.6720
 3609SOL     OW22459   0.341   2.696  12.533  0.0144  0.5134  0.1334
 3609SOL    HW122460   0.313   2.781  12.500 -0.3119 -0.1794 -1.4058
 3609SOL    HW222461   0.406   2.679  12.465 -0.1813 -3.1728  0.8703
 3610SOL     OW22462   2.229   2.552  10.232  0.0771  0.9026 -0.2603
 3610SOL    HW122463   2.216   2.519  10.143  0.5075 -2.9850  1.1108
 3610SOL    HW222464   2.143   2.536  10.272  0.1091  3.1231  0.6871
 3611SOL     OW22465   2.875   2.796   7.235  0.2206 -0.0278  0.2897
 3611SOL    HW122466   2.912   2.802   7.323  2.6633 -1.4739 -0.6212
 3611SOL    HW222467   2.786   2.825   7.253  0.9053  2.4606 -0.2596
 3612SOL     OW22468   3.790   1.918   4.238 -0.0024 -0.8076  0.9540
 3612SOL    HW122469   3.790   2.007   4.203 -0.2102 -0.9114  0.6860
 3612SOL    HW222470   3.873   1.878   4.209 -0.5536 -0.3352 -1.3020
 3613SOL     OW22471   1.130   4.475   6.741 -0.4634  0.0452 -0.9190
 3613SOL    HW122472   1.225   4.476   6.729 -0.3748  1.7005  0.0152
 3613SOL    HW222473   1.100   4.489   6.651  1.1117 -0.5264 -1.5372
 3614SOL     OW22474   0.215   4.048   8.049  0.0031  0.6138 -1.0575
 3614SOL    HW122475   0.259   4.124   8.013 -0.7843  0.7314 -1.7806
 3614SOL    HW222476   0.148   4.080   8.109 -1.2523 -1.3436 -1.4034
 3615SOL     OW22477   0.325   0.551   5.176 -0.2311 -0.6810 -0.2523
 3615SOL    HW122478   0.418   0.573   5.166  0.1665 -1.3310  2.0185
 3615SOL    HW222479   0.273   0.624   5.143 -0.5981 -0.4863  0.7807
 3616SOL     OW22480   1.831   4.732   4.447  0.1731  0.1190 -0.1445
 3616SOL    HW122481   1.806   0.001   4.355 -0.1994 -0.2257 -0.0557
 3616SOL    HW222482   1.781   0.065   4.493 -0.0257  0.5272 -0.9576
 3617SOL     OW22483   2.084   0.364   6.922 -0.0741  0.0179  0.1168
 3617SOL    HW122484   2.141   0.439   6.906  1.8596 -1.4965 -0.0368
 3617SOL    HW222485   2.015   0.400   6.978  1.5206 -0.2458  2.2654
 3618SOL     OW22486   1.227   0.335  16.643  0.2799  0.3104 -0.2853
 3618SOL    HW122487   1.221   0.414  16.697 -0.6799  0.1487 -0.1698
 3618SOL    HW222488   1.165   0.376  16.583  0.1633  0.1941 -0.2429
 3619SOL     OW22489   4.701   4.213   9.156 -0.6415 -0.4402 -0.0248
 3619SOL    HW122490   0.016   4.143   9.199 -0.3718 -0.5806 -0.5641
 3619SOL    HW222491   4.615   4.210   9.199 -0.6665  3.3734  0.2319
 3620SOL     OW22492   0.224   4.595   3.332  0.0978  0.2951 -0.4736
 3620SOL    HW122493   0.214   4.513   3.380  1.6240  0.5986  0.3610
 3620SOL    HW222494   0.231   4.562   3.242 -1.8432 -0.8445 -0.2007
 3621SOL     OW22495   0.095   1.809   3.975  0.3533 -0.4851  0.3212
 3621SOL    HW122496   0.168   1.758   4.012  2.4424  0.6666 -2.2249
 3621SOL    HW222497   0.029   1.746   3.950 -0.1716  0.1361  0.1471
 3622SOL     OW22498   3.517   3.328  15.708 -0.4360  0.5330 -0.2834
 3622SOL    HW122499   3.507   3.345  15.802 -0.9550  1.7589 -0.5602
 3622SOL    HW222500   3.607   3.356  15.694  0.4046 -2.1740 -0.2868
 3623SOL     OW22501   3.410   2.536  16.056 -0.1971  0.4161 -0.4757
 3623SOL    HW122502   3.422   2.560  16.148  1.1944  1.6451 -0.9730
 3623SOL    HW222503   3.499   2.505  16.037  0.4046  0.8293  1.6321
 3624SOL     OW22504   4.542   3.952  14.332 -0.2387 -0.1588 -0.1730
 3624SOL    HW122505   4.636   3.936  14.320 -0.0903  1.3507 -0.9884
 3624SOL    HW222506   4.509   3.865  14.353 -1.2139  0.0758 -0.7359
 3625SOL     OW22507   2.984   2.666   0.790  0.2853  0.2724  0.1419
 3625SOL    HW122508   3.015   2.751   0.821 -1.3185  1.0794 -0.4816
 3625SOL    HW222509   3.036   2.651   0.711 -0.8950  1.1564 -0.8096
 3626SOL     OW22510   4.328   2.590  13.166  0.8293 -0.1457  0.8172
 3626SOL    HW122511   4.293   2.530  13.232  0.9416 -1.7113 -0.5306
 3626SOL    HW222512   4.259   2.651  13.140  1.0194 -0.1561  0.2904
 3627SOL     OW22513   2.868   4.375  11.574 -0.3959 -0.1738  0.1162
 3627SOL    HW122514   2.951   4.423  11.565 -0.6598  0.3569  0.5292
 3627SOL    HW222515   2.899   4.285  11.576 -0.6578 -0.2336  1.1072
 3628SOL     OW22516   0.755   1.247   5.811 -0.3884 -0.0936 -0.1932
 3628SOL    HW122517   0.743   1.334   5.772 -0.8318 -0.0937 -0.0499
 3628SOL    HW222518   0.689   1.193   5.769  0.0632 -0.0291 -1.0018
 3629SOL     OW22519   0.642   0.964   3.922 -0.0291 -0.5766 -0.2085
 3629SOL    HW122520   0.709   0.918   3.870 -0.3574 -0.1656 -0.9989
 3629SOL    HW222521   0.575   0.991   3.859  1.3887  1.2425 -0.9138
 3630SOL     OW22522   2.395   0.789  16.718  0.4175  0.2516  0.9197
 3630SOL    HW122523   2.303   0.782  16.695  0.7338 -2.7002  0.5216
 3630SOL    HW222524   2.384   0.793  16.813  1.1282 -2.4888  1.1075
 3631SOL     OW22525   0.012   3.820   2.823  0.2166 -0.1813 -0.4509
 3631SOL    HW122526   0.005   3.745   2.882  0.7180 -1.1140 -1.5816
 3631SOL    HW222527   4.654   3.837   2.806  0.2884  1.0834  0.3937
 3632SOL     OW22528   2.326   3.183  17.721 -0.2969 -0.2587 -0.1894
 3632SOL    HW122529   2.233   3.197  17.701 -0.1487 -1.3709 -1.7046
 3632SOL    HW222530   2.337   3.243   0.057  1.3617  0.5120 -1.0502
 3633SOL     OW22531   2.094   2.219   1.935  0.6461  0.1342 -0.1990
 3633SOL    HW122532   2.104   2.284   1.864  1.4279  0.0534 -0.1652
 3633SOL    HW222533   2.145   2.148   1.897 -0.3748  0.0438 -1.3943
 3634SOL     OW22534   2.082   3.055   8.479  0.6050  0.7730  0.1352
 3634SOL    HW122535   2.010   3.016   8.530 -0.7540 -0.6198 -2.8336
 3634SOL    HW222536   2.076   3.146   8.506 -0.1675  0.7819 -0.0699
 3635SOL     OW22537   2.900   1.586  17.485 -0.8472 -0.4510 -0.2266
 3635SOL    HW122538   2.982   1.550  17.517 -0.4407  0.2002 -0.5465
 3635SOL    HW222539   2.844   1.549  17.554 -2.6206  1.2970 -0.7148
 3636SOL     OW22540   4.696   3.229   3.927 -0.3847  0.2067 -0.1104
 3636SOL    HW122541   4.696   3.220   4.022 -0.4741 -1.7608 -0.3071
 3636SOL    HW222542   0.001   3.316   3.923  3.8873 -1.5331  3.7764
 3637SOL     OW22543   1.835   2.088  15.924  0.3018  0.5439  0.0994
 3637SOL    HW122544   1.913   2.100  15.870  0.2117 -0.6975 -0.2991
 3637SOL    HW222545   1.850   1.995  15.937  0.3785  0.8606  2.2454
 3638SOL     OW22546   3.612   1.129   4.427  0.2748  0.0642 -0.2601
 3638SOL    HW122547   3.595   1.174   4.344  0.7189  0.8151  0.0536
 3638SOL    HW222548   3.674   1.194   4.462  0.9640 -0.8518  0.2372
 3639SOL     OW22549   0.600   3.471   3.014  0.6197  0.1722  0.2837
 3639SOL    HW122550   0.629   3.408   2.948  3.2641  0.6150  1.0032
 3639SOL    HW222551   0.599   3.411   3.088 -1.3254 -1.0048 -0.6943
 3640SOL     OW22552   4.170   2.003  15.623  0.3697  0.1797 -0.0053
 3640SOL    HW122553   4.144   1.997  15.715 -0.0962  1.2979 -0.0591
 3640SOL    HW222554   4.160   2.097  15.608  2.8680  0.3262 -0.7809
 3641SOL     OW22555   4.200   3.446   6.242  0.1020 -0.2145 -0.7948
 3641SOL    HW122556   4.123   3.414   6.289  2.8544 -1.5032  2.7828
 3641SOL    HW222557   4.157   3.442   6.157 -2.1448  1.3568  0.2470
 3642SOL     OW22558   2.511   0.500  11.401 -0.1189  0.1611  0.1408
 3642SOL    HW122559   2.592   0.462  11.434 -0.8708 -0.5447  1.1883
 3642SOL    HW222560   2.542   0.590  11.393 -1.4867  0.6309  0.1909
 3643SOL     OW22561   1.808   2.592   6.269  0.7176  0.1423 -0.2645
 3643SOL    HW122562   1.816   2.604   6.175  1.0572 -1.7023 -0.4851
 3643SOL    HW222563   1.771   2.678   6.286  1.3120  0.2767  0.3715
 3644SOL     OW22564   0.735   3.628  17.051  0.1812  0.2703  0.3058
 3644SOL    HW122565   0.660   3.636  16.992 -0.3337  0.1124  0.9349
 3644SOL    HW222566   0.734   3.715  17.089  1.5464 -0.2376  1.4893
 3645SOL     OW22567   0.571   4.398  15.521 -0.2861  0.2107 -0.2063
 3645SOL    HW122568   0.548   4.491  15.521 -0.8062  0.0851  1.1276
 3645SOL    HW222569   0.573   4.371  15.613 -0.6861 -0.0025 -0.2598
 3646SOL     OW22570   3.035   1.224   1.183 -0.4006 -0.2547 -0.5823
 3646SOL    HW122571   3.095   1.175   1.239  0.2385  0.3260 -0.7543
 3646SOL    HW222572   3.083   1.307   1.175  0.1974 -0.8548 -3.0820
 3647SOL     OW22573   3.045   3.364   4.189  0.0201 -0.2569 -0.1918
 3647SOL    HW122574   2.994   3.399   4.261  0.8313 -1.1830  0.8208
 3647SOL    HW222575   3.005   3.279   4.173  1.0561 -1.4166  3.4580
 3648SOL     OW22576   1.653   1.569   6.188  0.5143  0.6329  0.1712
 3648SOL    HW122577   1.728   1.528   6.145  1.7429  1.5759  1.4180
 3648SOL    HW222578   1.671   1.661   6.172  0.3922  0.6083 -0.1073
 3649SOL     OW22579   4.649   4.723   4.530 -0.1014  0.3937 -0.1384
 3649SOL    HW122580   4.675   4.674   4.609 -1.2101  0.1895  0.0920
 3649SOL    HW222581   4.733   4.730   4.483  1.2860  2.7029  2.6825
 3650SOL     OW22582   4.369   1.384  17.463 -0.0966  0.0323 -0.2941
 3650SOL    HW122583   4.378   1.314  17.399  0.1675  1.1468 -1.4825
 3650SOL    HW222584   4.304   1.347  17.523  0.3132 -0.7236 -0.3208
 3651SOL     OW22585   2.320   2.693  11.711  0.3918  0.4429  0.1205
 3651SOL    HW122586   2.346   2.781  11.739 -2.7996  2.2395 -2.4919
 3651SOL    HW222587   2.231   2.717  11.684 -0.7695 -2.8648  1.0107
 3652SOL     OW22588   0.473   3.605  16.898  0.7555 -0.1515  0.3284
 3652SOL    HW122589   0.442   3.525  16.940 -2.2336 -1.0529 -3.6428
 3652SOL    HW222590   0.438   3.661  16.968 -0.9211 -0.1083 -0.5609
 3653SOL     OW22591   2.875   2.126  11.216  0.6764 -0.3941 -0.1000
 3653SOL    HW122592   2.842   2.188  11.281  0.2192 -1.5489  0.7731
 3653SOL    HW222593   2.970   2.126  11.232 -0.0746 -1.2198  4.5970
 3654SOL     OW22594   2.700   1.896   8.422 -0.4497 -0.0909 -0.7328
 3654SOL    HW122595   2.772   1.956   8.406  0.1314 -0.8583 -0.9846
 3654SOL    HW222596   2.666   1.895   8.332 -0.0330 -2.2207 -0.8813
 3655SOL     OW22597   2.004   4.466   4.264  0.2022  0.3926 -0.0640
 3655SOL    HW122598   2.049   4.391   4.224  1.9505  1.3141  0.2097
 3655SOL    HW222599   2.061   4.507   4.329  1.1545 -1.7076  0.4223
 3656SOL     OW22600   2.755   0.912   4.661 -0.0289  0.4979  0.9791
 3656SOL    HW122601   2.674   0.938   4.705 -1.3740  0.4722 -1.4902
 3656SOL    HW222602   2.796   0.839   4.708 -0.9668 -0.2114  0.6804
 3657SOL     OW22603   0.783   0.537   6.357  0.1605  0.3331 -0.3777
 3657SOL    HW122604   0.738   0.577   6.282 -1.1025 -1.8009 -0.7402
 3657SOL    HW222605   0.723   0.555   6.430  1.8604 -0.4651  1.2278
 3658SOL     OW22606   2.183   3.642   6.719  0.6509  0.2447 -0.4993
 3658SOL    HW122607   2.269   3.650   6.679  0.9786 -1.5797 -0.1771
 3658SOL    HW222608   2.197   3.571   6.782  3.8260  2.6623  1.4839
 3659SOL     OW22609   0.401   1.188   6.146 -0.0099 -0.0762 -0.5338
 3659SOL    HW122610   0.473   1.250   6.155  0.3609 -0.6448  0.4098
 3659SOL    HW222611   0.376   1.169   6.236 -2.2158  0.5258 -1.0113
 3660SOL     OW22612   2.446   0.425   3.073  0.5680 -0.2487  0.0751
 3660SOL    HW122613   2.522   0.367   3.071 -0.9916 -2.2943  0.1326
 3660SOL    HW222614   2.423   0.438   3.165 -1.7944 -0.0205 -0.5516
 3661SOL     OW22615   2.833   3.596   6.877  0.5732 -0.2153  0.4276
 3661SOL    HW122616   2.896   3.527   6.900  1.3361  0.0358 -0.9378
 3661SOL    HW222617   2.813   3.588   6.784  0.6517 -2.5030  0.5961
 3662SOL     OW22618   1.281   4.315   5.912 -0.2673  0.3354 -0.7251
 3662SOL    HW122619   1.282   4.220   5.902 -0.3051  0.2006  0.5501
 3662SOL    HW222620   1.276   4.325   6.007 -1.1349 -2.3160 -0.5114
 3663SOL     OW22621   4.661   4.691   1.771 -0.2844 -0.0051 -0.0334
 3663SOL    HW122622   4.676   4.662   1.861  0.0040  0.6414  0.1282
 3663SOL    HW222623   4.719   0.032   1.770 -0.4690  0.1896  4.0980
 3664SOL     OW22624   0.186   2.547   7.057 -0.3242  0.2589 -0.0607
 3664SOL    HW122625   0.178   2.640   7.077 -1.2373 -0.2421  1.9566
 3664SOL    HW222626   0.280   2.533   7.072 -0.5160 -0.2644  0.6962
 3665SOL     OW22627   2.977   1.047   3.412 -0.8213  0.5524  0.8930
 3665SOL    HW122628   2.930   0.965   3.427  1.2444 -0.1870  3.3335
 3665SOL    HW222629   2.942   1.103   3.482  1.1035  1.5087  1.0931
 3666SOL     OW22630   0.122   3.827   9.443 -0.5743 -0.3482  0.0437
 3666SOL    HW122631   0.119   3.732   9.452 -2.2515 -0.2553  0.3823
 3666SOL    HW222632   0.134   3.851   9.535 -0.7683  2.6752 -0.7468
 3667SOL     OW22633   0.126   0.894   6.635 -0.0094 -0.3171 -0.2226
 3667SOL    HW122634   0.090   0.859   6.553  2.8836 -0.6995 -1.3272
 3667SOL    HW222635   0.100   0.986   6.622 -2.3459 -0.9444  0.0233
 3668SOL     OW22636   0.239   2.617   2.528 -0.6270  0.0240 -0.0573
 3668SOL    HW122637   0.253   2.711   2.518  1.0559 -0.1994  0.1689
 3668SOL    HW222638   0.214   2.620   2.620  1.8944  0.3861  0.6335
 3669SOL     OW22639   3.191   4.547   8.604 -0.3505  0.5030 -0.2565
 3669SOL    HW122640   3.184   4.458   8.639  1.4968  0.2489 -0.5671
 3669SOL    HW222641   3.282   4.574   8.614 -0.4570  0.4854  0.8119
 3670SOL     OW22642   4.558   2.123  15.231  0.1137 -0.2434  0.6601
 3670SOL    HW122643   4.488   2.145  15.168  1.5486 -1.1215 -1.2388
 3670SOL    HW222644   4.520   2.172  15.304 -1.9770  0.3288 -0.8104
 3671SOL     OW22645   3.370   3.684   6.980  0.0180  0.0257  0.2839
 3671SOL    HW122646   3.365   3.617   6.912 -1.9340  1.3918 -0.9279
 3671SOL    HW222647   3.464   3.674   6.995  0.0886 -1.0027 -0.8351
 3672SOL     OW22648   4.643   2.202  10.171 -0.6460 -0.3017  0.3144
 3672SOL    HW122649   4.654   2.288  10.129 -0.2730  0.2067  1.4464
 3672SOL    HW222650   4.633   2.146  10.094 -0.9702 -0.5685  0.5548
 3673SOL     OW22651   3.150   1.683   1.515  0.1938  0.7425  0.5446
 3673SOL    HW122652   3.245   1.688   1.510  0.1523  1.2953  0.3176
 3673SOL    HW222653   3.137   1.741   1.590 -1.4161 -0.1364  0.9467
 3674SOL     OW22654   0.982   1.793   8.048 -0.2319  0.1649  0.1782
 3674SOL    HW122655   1.011   1.845   8.123 -1.5471  0.9401  0.1407
 3674SOL    HW222656   0.917   1.849   8.006 -0.9332 -1.5566 -1.0647
 3675SOL     OW22657   0.488   4.461   9.805  0.5026  0.0216 -0.5166
 3675SOL    HW122658   0.435   4.429   9.877  0.6688 -0.8183 -0.7748
 3675SOL    HW222659   0.418   4.489   9.745 -0.9916 -0.0438  1.2122
 3676SOL     OW22660   4.244   3.662   2.875 -0.0350  0.2426 -0.4615
 3676SOL    HW122661   4.168   3.715   2.850 -2.7029 -3.1214  0.4887
 3676SOL    HW222662   4.247   3.592   2.810  1.4338  0.8842 -1.0694
 3677SOL     OW22663   0.951   0.448  12.619  0.9097  0.0474  0.2984
 3677SOL    HW122664   0.873   0.411  12.577  0.7988  0.8668 -0.2188
 3677SOL    HW222665   1.006   0.459  12.542 -1.1504  3.3163 -0.7178
 3678SOL     OW22666   1.031   2.299   4.794 -0.3563  0.8206 -0.1613
 3678SOL    HW122667   0.982   2.229   4.837  2.0572 -0.1371  1.0131
 3678SOL    HW222668   1.040   2.361   4.866  0.6241  1.7246 -1.0754
 3679SOL     OW22669   0.790   0.650   1.835 -0.0827 -0.1195  0.5490
 3679SOL    HW122670   0.854   0.695   1.891 -2.3106  3.5476  0.1851
 3679SOL    HW222671   0.720   0.714   1.825 -0.7073 -0.9810 -0.4832
 3680SOL     OW22672   1.949   4.215  12.485  0.1551  0.4562  0.0170
 3680SOL    HW122673   1.971   4.212  12.578  0.4770  3.0126  0.0301
 3680SOL    HW222674   1.918   4.125  12.472  2.6089 -0.3921  0.1487
 3681SOL     OW22675   2.370   1.772   4.443 -0.1424  0.0109  0.1971
 3681SOL    HW122676   2.436   1.736   4.384 -0.4763 -0.7274  0.2767
 3681SOL    HW222677   2.301   1.795   4.380 -0.5720 -1.9726 -0.0497
 3682SOL     OW22678   2.955   2.292  13.889  0.0196  0.2573  0.1228
 3682SOL    HW122679   2.946   2.343  13.808 -1.5737  0.3903  0.3729
 3682SOL    HW222680   3.049   2.286  13.904  0.3132  1.9223 -1.0706
 3683SOL     OW22681   2.854   2.982   8.555  0.3375  0.0442  0.0899
 3683SOL    HW122682   2.903   2.906   8.525 -2.1030 -2.0789  1.4129
 3683SOL    HW222683   2.765   2.947   8.567 -0.0105  0.8889 -0.0606
 3684SOL     OW22684   2.424   3.828  10.344 -0.3403 -0.5477 -0.2078
 3684SOL    HW122685   2.519   3.829  10.335 -0.6445  1.0396 -3.1874
 3684SOL    HW222686   2.402   3.919  10.325  0.2851  0.1674  2.4926
 3685SOL     OW22687   0.224   2.090   5.833  0.1351 -0.2115 -0.5105
 3685SOL    HW122688   0.151   2.089   5.771 -0.3939  2.4766  0.0379
 3685SOL    HW222689   0.252   1.999   5.826  0.1273 -0.3369  1.0483
 3686SOL     OW22690   1.602   3.937   5.035 -0.1979  0.4544 -0.1427
 3686SOL    HW122691   1.511   3.960   5.018 -0.1077 -0.1300 -1.4011
 3686SOL    HW222692   1.627   4.021   5.073 -0.7811  0.8996 -0.7599
 3687SOL     OW22693   0.182   3.605   7.110 -0.1072  0.0898 -0.2801
 3687SOL    HW122694   0.143   3.523   7.079 -0.7092  0.5417 -0.7067
 3687SOL    HW222695   0.173   3.621   7.204 -0.7511 -2.0674  0.0272
 3688SOL     OW22696   0.972   3.040  10.623  0.1589  0.3430 -0.2582
 3688SOL    HW122697   1.054   3.026  10.672  0.4930  0.0107 -0.9102
 3688SOL    HW222698   0.997   3.090  10.545  1.9182  0.6722  0.5123
 3689SOL     OW22699   3.842   3.109   6.313 -0.2174  0.2949 -0.1821
 3689SOL    HW122700   3.895   3.032   6.334  0.6102  0.3659 -1.9747
 3689SOL    HW222701   3.756   3.069   6.315 -0.8544  1.7072  0.6726
 3690SOL     OW22702   1.481   0.112   7.069  0.0680  0.6740  0.1429
 3690SOL    HW122703   1.501   0.139   7.159  1.0839  0.3136  0.0314
 3690SOL    HW222704   1.541   0.166   7.018 -0.3223 -0.7326 -1.8039
 3691SOL     OW22705   4.548   1.387   6.487 -0.1006  0.1140 -0.3946
 3691SOL    HW122706   4.484   1.362   6.421 -1.3724  1.0938  0.4764
 3691SOL    HW222707   4.496   1.372   6.565 -1.4565 -0.6586 -1.4491
 3692SOL     OW22708   2.984   1.803   8.123 -0.0574 -0.0460  0.3063
 3692SOL    HW122709   3.017   1.755   8.199 -0.9568  0.9830  1.3311
 3692SOL    HW222710   3.064   1.844   8.091  0.8501 -1.6404  0.5036
 3693SOL     OW22711   0.571   0.094   5.157 -0.1302  0.1424  0.5042
 3693SOL    HW122712   0.581   0.177   5.202 -2.0912  0.6748 -0.0620
 3693SOL    HW222713   0.657   0.077   5.117 -1.0642 -2.1873 -0.5018
 3694SOL     OW22714   3.123   0.236  11.824  0.2388  0.3958  0.1250
 3694SOL    HW122715   3.077   0.161  11.861  0.7962 -0.0598 -0.1179
 3694SOL    HW222716   3.082   0.246  11.737 -0.3828 -2.7825  0.0590
 3695SOL     OW22717   4.154   0.733  10.797 -0.0740  0.2076  0.3194
 3695SOL    HW122718   4.250   0.732  10.807 -0.2300 -1.0321  1.7807
 3695SOL    HW222719   4.137   0.826  10.811 -2.0538  0.2124 -2.3708
 3696SOL     OW22720   1.153   1.876  12.584  0.3827  1.4052 -0.6239
 3696SOL    HW122721   1.090   1.942  12.611 -1.4556 -0.8278  0.5887
 3696SOL    HW222722   1.239   1.918  12.579  1.7309 -1.2604 -0.1350
 3697SOL     OW22723   3.322   1.882   2.374 -0.3063  0.3356  0.2879
 3697SOL    HW122724   3.323   1.789   2.355  0.2737  0.2353  0.8180
 3697SOL    HW222725   3.290   1.909   2.288 -1.8927 -0.9946  0.4589
 3698SOL     OW22726   1.244   0.517   3.617  0.3162 -0.0519 -0.2423
 3698SOL    HW122727   1.324   0.545   3.573  0.8904 -1.4137 -0.0879
 3698SOL    HW222728   1.231   0.593   3.674  0.6373  1.3859 -2.1199
 3699SOL     OW22729   4.077   0.754   3.175 -0.3428  0.4605 -0.0259
 3699SOL    HW122730   4.035   0.794   3.252  1.9534  1.5415  0.6559
 3699SOL    HW222731   4.075   0.663   3.204  1.0422 -0.0022 -1.4132
 3700SOL     OW22732   2.921   3.270   5.155  0.6757  0.0154  0.0272
 3700SOL    HW122733   2.891   3.360   5.144 -4.0866 -1.8506 -2.4037
 3700SOL    HW222734   2.866   3.235   5.225 -0.4853  0.4303 -0.6780
 3701SOL     OW22735   1.863   2.394  13.398 -0.3464  0.0046  0.6181
 3701SOL    HW122736   1.833   2.431  13.480  0.4360 -0.1890  0.9921
 3701SOL    HW222737   1.932   2.337  13.433  0.4765  1.0860  0.7538
 3702SOL     OW22738   3.350   1.207  17.479  0.3124 -0.1520  0.1563
 3702SOL    HW122739   3.298   1.271  17.430  0.5085  0.8653  1.2547
 3702SOL    HW222740   3.401   1.167  17.409 -1.2260 -0.8590 -0.5409
 3703SOL     OW22741   4.365   0.066   4.745 -0.4095  0.1157 -0.7221
 3703SOL    HW122742   4.406   0.047   4.660  0.0955 -0.0093 -0.4496
 3703SOL    HW222743   4.385   0.160   4.744 -2.3082  0.4803 -2.7947
 3704SOL     OW22744   0.052   2.090   6.649  0.2175  0.2489  0.2248
 3704SOL    HW122745   0.012   2.154   6.589 -1.0061 -0.7023  0.0156
 3704SOL    HW222746   4.713   2.063   6.705  0.9313  1.6578  1.8354
 3705SOL     OW22747   2.961   2.135   3.963 -0.6362 -0.3077 -0.4085
 3705SOL    HW122748   2.992   2.093   4.043 -1.6777  0.8011  0.5743
 3705SOL    HW222749   3.008   2.089   3.893 -3.3171  0.6416 -2.8316
 3706SOL     OW22750   1.177   2.665   8.143  0.3903 -0.0154 -0.3063
 3706SOL    HW122751   1.266   2.700   8.151  1.2669 -2.1690 -0.6728
 3706SOL    HW222752   1.172   2.667   8.047  0.5336 -2.3328 -0.3590
 3707SOL     OW22753   4.088   1.036   8.149  0.1314  0.3227 -0.0030
 3707SOL    HW122754   4.105   0.989   8.067 -0.2669  0.9004 -0.4154
 3707SOL    HW222755   4.158   1.102   8.150  1.1125 -0.7099 -0.0486
 3708SOL     OW22756   0.498   1.301  15.132  0.2307 -0.0102 -0.3707
 3708SOL    HW122757   0.424   1.316  15.073 -0.7631 -3.1005  0.0654
 3708SOL    HW222758   0.477   1.345  15.214  0.7444  0.3684 -0.4419
 3709SOL     OW22759   0.417   4.388   8.472 -0.3576  0.2886  0.1633
 3709SOL    HW122760   0.375   4.376   8.557  1.9673 -1.4223  1.0504
 3709SOL    HW222761   0.419   4.484   8.476 -2.8794  0.4882 -3.0623
 3710SOL     OW22762   0.331   2.031   2.972 -0.4484  0.1457  0.6114
 3710SOL    HW122763   0.333   2.117   2.929 -1.2555 -0.0668  0.1594
 3710SOL    HW222764   0.238   2.009   2.979 -0.5587  0.7890  1.1557
 3711SOL     OW22765   1.428   3.114   6.973  0.2463  0.2241  0.0282
 3711SOL    HW122766   1.521   3.126   6.991  0.6921 -0.9723 -1.4529
 3711SOL    HW222767   1.392   3.203   6.976 -2.1100 -0.7424  0.3232
 3712SOL     OW22768   2.495   1.867  10.579 -0.3638 -0.1241 -0.1774
 3712SOL    HW122769   2.508   1.938  10.642 -1.0158 -0.9597  0.9121
 3712SOL    HW222770   2.503   1.915  10.497  0.3070  0.7814  0.4190
 3713SOL     OW22771   4.653   2.179   4.230 -0.6848 -0.4349  0.3641
 3713SOL    HW122772   4.635   2.272   4.220  2.8776  0.2148 -0.0409
 3713SOL    HW222773   4.689   2.174   4.319 -0.6118 -0.2286  0.3450
 3714SOL     OW22774   1.266   3.818  16.240  0.1360  0.1148 -0.3597
 3714SOL    HW122775   1.306   3.766  16.171 -0.4495  0.3007 -0.8344
 3714SOL    HW222776   1.287   3.902  16.200  1.7393  0.2657  0.7796
 3715SOL     OW22777   1.070   0.183  14.770  0.4630  0.0709  0.0998
 3715SOL    HW122778   1.022   0.264  14.785 -0.3955 -0.6948  1.5456
 3715SOL    HW222779   1.153   0.215  14.736 -0.4349  1.2977 -0.9531
 3716SOL     OW22780   3.329   0.563   3.636  0.2516 -0.4842  0.4725
 3716SOL    HW122781   3.361   0.475   3.655 -3.5401 -2.2690 -1.5207
 3716SOL    HW222782   3.398   0.624   3.662 -2.3353  2.6720  0.0364
 3717SOL     OW22783   4.700   2.534  12.161 -0.1855 -0.3141  0.1007
 3717SOL    HW122784   4.660   2.621  12.167 -0.9148 -0.5070 -2.0382
 3717SOL    HW222785   4.649   2.496  12.089 -1.1940 -2.1984  1.8108
 3718SOL     OW22786   3.155   3.537   4.989 -0.0740 -0.1270 -0.1679
 3718SOL    HW122787   3.217   3.534   4.916  1.3230 -0.5835  1.0543
 3718SOL    HW222788   3.155   3.627   5.021 -0.1109  0.1232 -0.8834
 3719SOL     OW22789   4.028   3.355   5.161  0.3274 -0.4932 -0.3987
 3719SOL    HW122790   4.001   3.409   5.236  1.3573 -2.6103  1.5018
 3719SOL    HW222791   3.950   3.333   5.111 -0.5845  0.0893  0.7716
 3720SOL     OW22792   1.994   1.559   3.596 -0.4074  0.0503 -0.2816
 3720SOL    HW122793   2.014   1.629   3.534  1.2349 -1.2890 -1.2508
 3720SOL    HW222794   1.950   1.600   3.671 -0.7563  0.4843 -0.7254
 3721SOL     OW22795   1.983   2.386   4.143  0.5021  0.0660  0.0595
 3721SOL    HW122796   2.065   2.343   4.121 -0.4284 -1.9703  0.6269
 3721SOL    HW222797   1.982   2.473   4.102  0.3556  0.3601  0.6890
 3722SOL     OW22798   2.678   3.640  10.534 -0.2946 -0.0121  0.4335
 3722SOL    HW122799   2.768   3.611  10.523  0.0769  1.1009  0.4761
 3722SOL    HW222800   2.636   3.589  10.465 -2.3130  0.5477  1.2470
 3723SOL     OW22801   2.217   4.430  12.148 -0.6557 -0.0412 -0.1967
 3723SOL    HW122802   2.156   4.485  12.196 -1.1013 -0.5148 -0.2248
 3723SOL    HW222803   2.238   4.364  12.215  0.6253 -0.6338 -1.1760
 3724SOL     OW22804   1.687   2.860   0.416 -0.3040  0.4031 -0.3097
 3724SOL    HW122805   1.683   2.846   0.511 -1.2921  0.8474 -0.2947
 3724SOL    HW222806   1.675   2.954   0.404  1.5025  0.5383 -1.0917
 3725SOL     OW22807   2.986   3.230   5.721  0.3963 -1.3440 -0.6887
 3725SOL    HW122808   3.034   3.309   5.697  0.9274 -1.3550  0.3221
 3725SOL    HW222809   2.923   3.237   5.650  0.3739  1.7255 -0.3760
 3726SOL     OW22810   1.208   0.886   2.239  0.3611  0.2577  0.2160
 3726SOL    HW122811   1.118   0.859   2.223  0.2481  0.8782 -0.2035
 3726SOL    HW222812   1.199   0.916   2.330  1.5367  0.5899  0.2275
 3727SOL     OW22813   0.812   2.818   3.636 -0.0078  0.2196 -0.4715
 3727SOL    HW122814   0.746   2.773   3.583  0.3035  0.3974 -1.0048
 3727SOL    HW222815   0.799   2.789   3.727  0.6783 -0.8266 -0.7041
 3728SOL     OW22816   3.203   2.133   3.391  0.0972 -0.0045 -0.1907
 3728SOL    HW122817   3.187   2.050   3.345 -1.8265  2.2374 -3.4893
 3728SOL    HW222818   3.288   2.158   3.356 -0.9358  1.6772 -1.5034
 3729SOL     OW22819   2.164   3.229   6.159 -0.1091 -0.5786 -0.2380
 3729SOL    HW122820   2.116   3.171   6.100 -1.5512  1.1058 -0.7069
 3729SOL    HW222821   2.215   3.274   6.092  1.0444  0.1377  1.1225
 3730SOL     OW22822   3.150   3.423  16.175 -0.2699 -0.2097  0.6487
 3730SOL    HW122823   3.105   3.507  16.170 -0.1758 -0.3039 -1.6490
 3730SOL    HW222824   3.234   3.456  16.144 -0.4227 -1.7262 -1.3729
 3731SOL     OW22825   2.507   1.756   3.789  0.0559 -0.5161 -0.1440
 3731SOL    HW122826   2.536   1.694   3.856  0.7491  0.9423  0.9030
 3731SOL    HW222827   2.522   1.704   3.710 -2.1639  0.9757 -1.5533
 3732SOL     OW22828   1.068   0.922   7.467  0.1497  0.0215 -0.0083
 3732SOL    HW122829   0.979   0.915   7.432  0.3963  2.1279 -1.0388
 3732SOL    HW222830   1.049   0.964   7.551 -0.7745 -1.9173  0.7586
 3733SOL     OW22831   3.178   0.901   7.622 -0.2085  0.3105 -0.0956
 3733SOL    HW122832   3.130   0.820   7.638 -0.3131  0.2796 -0.5625
 3733SOL    HW222833   3.194   0.930   7.712 -0.7591  0.5713 -0.0807
 3734SOL     OW22834   3.684   3.781  11.854 -0.1080  0.5161 -0.7025
 3734SOL    HW122835   3.649   3.700  11.818 -1.3420  1.2511 -1.1473
 3734SOL    HW222836   3.769   3.753  11.889 -1.0744 -1.0530  0.3999
 3735SOL     OW22837   1.696   2.520  10.232  0.0455 -0.0031 -0.1219
 3735SOL    HW122838   1.672   2.579  10.161  0.6937  0.1758 -0.1948
 3735SOL    HW222839   1.612   2.498  10.272  0.3663  0.0682  0.5918
 3736SOL     OW22840   2.947   1.893   2.089  0.1332 -0.4164 -0.1277
 3736SOL    HW122841   2.860   1.917   2.121  0.7084 -0.9364  1.8534
 3736SOL    HW222842   2.926   1.861   2.001 -0.1553 -1.6277  0.3892
 3737SOL     OW22843   3.927   0.993  14.803 -0.4798 -0.2554 -0.4912
 3737SOL    HW122844   3.935   1.033  14.717  2.6421  0.5349  0.1435
 3737SOL    HW222845   3.892   1.069  14.850 -2.6017 -1.7433  0.3367
 3738SOL     OW22846   3.749   4.207   8.412 -0.0155 -0.5005 -0.3837
 3738SOL    HW122847   3.829   4.247   8.448  0.2930 -1.1873 -0.3023
 3738SOL    HW222848   3.765   4.115   8.430  0.0279 -0.7059 -1.4894
 3739SOL     OW22849   3.830   0.353   6.483 -0.0818 -0.1281 -0.1393
 3739SOL    HW122850   3.745   0.362   6.439 -0.4319 -0.7481  0.4067
 3739SOL    HW222851   3.882   0.430   6.459 -0.4956  0.6665  1.4996
 3740SOL     OW22852   2.705   2.054   3.928  0.1691 -0.3590  0.4424
 3740SOL    HW122853   2.688   2.019   4.015  3.6567 -2.2808  0.3053
 3740SOL    HW222854   2.789   2.097   3.942  0.9587 -2.0300  0.8708
 3741SOL     OW22855   3.865   3.079   7.291 -0.3342 -0.0561 -0.0605
 3741SOL    HW122856   3.826   3.129   7.364  2.1432  2.3909 -0.4404
 3741SOL    HW222857   3.954   3.065   7.322 -0.3760  1.1647  0.6254
 3742SOL     OW22858   2.931   1.821   4.474 -0.3982 -0.5313 -0.4157
 3742SOL    HW122859   3.002   1.782   4.526 -1.2848  0.0668  1.2546
 3742SOL    HW222860   2.980   1.817   4.392 -0.6459  0.8418 -0.6395
 3743SOL     OW22861   3.955   4.527   4.582 -0.6856 -0.4451  0.4281
 3743SOL    HW122862   3.862   4.536   4.561 -0.0790 -0.9196 -2.4043
 3743SOL    HW222863   3.989   4.617   4.587  0.8988 -0.9103 -1.8993
 3744SOL     OW22864   0.819   3.660  13.108  0.3611  0.0051  0.1204
 3744SOL    HW122865   0.874   3.593  13.066  0.4706  0.5651 -0.6337
 3744SOL    HW222866   0.854   3.659  13.197  1.1751 -3.1040 -0.2321
 3745SOL     OW22867   3.472   2.571   5.096 -0.0896 -0.8999 -0.0066
 3745SOL    HW122868   3.444   2.609   5.180 -0.3731 -1.0012 -0.0561
 3745SOL    HW222869   3.471   2.649   5.040  1.1550 -0.9709 -0.1356
 3746SOL     OW22870   4.085   4.540   6.031 -0.1571  0.2524  0.0739
 3746SOL    HW122871   4.037   4.553   6.113 -1.7484 -1.6156 -0.5497
 3746SOL    HW222872   4.137   4.460   6.041 -2.0342 -1.1836 -1.7188
 3747SOL     OW22873   4.188   1.452  13.669 -0.2038 -0.2994  0.0621
 3747SOL    HW122874   4.267   1.485  13.711 -0.7029  1.2771 -0.2367
 3747SOL    HW222875   4.182   1.512  13.594 -0.2473 -1.4444 -0.8392
 3748SOL     OW22876   4.053   1.992   8.506  0.5485  0.2396 -0.5240
 3748SOL    HW122877   4.116   2.051   8.466  1.4413 -0.2300  0.1887
 3748SOL    HW222878   3.992   2.052   8.550  0.2780  0.5195 -1.2929
 3749SOL     OW22879   3.686   1.010   4.747 -0.0564 -0.4482 -0.2625
 3749SOL    HW122880   3.676   0.945   4.677 -1.5908  0.1274 -0.5689
 3749SOL    HW222881   3.599   1.048   4.743 -0.4523 -1.2732  0.6224
 3750SOL     OW22882   1.812   0.977   8.530  0.4450  0.2996  0.9054
 3750SOL    HW122883   1.908   0.986   8.530  0.6730 -2.1204 -1.2304
 3750SOL    HW222884   1.794   0.885   8.512 -0.5436  0.9005 -1.1387
 3751SOL     OW22885   0.550   2.878  13.301 -0.2240  0.3231 -0.4975
 3751SOL    HW122886   0.495   2.893  13.223 -1.1572  1.6621  0.4198
 3751SOL    HW222887   0.487   2.842  13.363 -0.1793 -1.3329 -1.4079
 3752SOL     OW22888   2.740   3.311   6.421 -0.0240  0.8696 -0.0534
 3752SOL    HW122889   2.701   3.243   6.367  0.8849  0.1640  0.1900
 3752SOL    HW222890   2.831   3.300   6.392  0.2311  0.2813  0.9724
 3753SOL     OW22891   0.782   3.960   7.455  0.0102  0.1182 -0.7311
 3753SOL    HW122892   0.821   3.876   7.431 -1.3253 -0.6161 -0.3209
 3753SOL    HW222893   0.857   4.009   7.420  0.6394 -0.1409  0.2315
 3754SOL     OW22894   0.030   3.094   6.795  0.0341 -0.1291 -0.3101
 3754SOL    HW122895   4.730   3.069   6.881 -1.5686 -1.3022 -1.2771
 3754SOL    HW222896   0.016   3.188   6.790 -0.6357 -0.2828 -1.2233
 3755SOL     OW22897   1.826   3.313   8.823 -0.0615  0.3544 -0.5852
 3755SOL    HW122898   1.869   3.395   8.848  1.0921 -0.6093  0.5930
 3755SOL    HW222899   1.849   3.258   8.899 -1.8973  1.1225  0.5384
 3756SOL     OW22900   1.741   4.068   4.553  0.3424  0.6787 -0.1212
 3756SOL    HW122901   1.681   3.998   4.580  1.8239 -1.1388 -1.4899
 3756SOL    HW222902   1.675   4.133   4.531  0.5427  0.7363 -0.5463
 3757SOL     OW22903   2.167   0.641  13.138 -0.0163 -0.4065  0.1996
 3757SOL    HW122904   2.240   0.672  13.192 -0.1325 -0.5855  0.4574
 3757SOL    HW222905   2.190   0.550  13.120 -2.0952 -0.9583  0.3500
 3758SOL     OW22906   3.331   4.151   3.003 -0.3656  0.1956  0.2910
 3758SOL    HW122907   3.244   4.111   3.014 -0.2388 -0.6996 -1.8751
 3758SOL    HW222908   3.400   4.086   2.997 -2.1741 -1.6769 -0.3203
 3759SOL     OW22909   4.536   0.253  15.317  0.0005  0.4849  0.1318
 3759SOL    HW122910   4.621   0.284  15.285  0.0218 -0.7004 -0.9715
 3759SOL    HW222911   4.559   0.208  15.399  1.8918  0.6253 -0.3182
 3760SOL     OW22912   0.700   2.550   6.500  0.2044  0.4864 -0.2179
 3760SOL    HW122913   0.646   2.484   6.456 -2.2536  2.5039 -0.2035
 3760SOL    HW222914   0.749   2.585   6.425  1.6667  4.3622  2.5785
 3761SOL     OW22915   3.392   0.935  10.689  0.6623  0.0350 -0.1649
 3761SOL    HW122916   3.299   0.959  10.688  0.5027 -0.5229  1.7308
 3761SOL    HW222917   3.381   0.840  10.694 -0.8058  0.2434  0.5199
 3762SOL     OW22918   1.601   3.530  17.185  0.0290  0.3615  0.1718
 3762SOL    HW122919   1.553   3.569  17.258 -2.0202 -1.4672 -0.2115
 3762SOL    HW222920   1.601   3.596  17.115  1.9421 -0.7211 -0.8301
 3763SOL     OW22921   3.118   4.151  17.506 -0.5766 -0.6526  0.2361
 3763SOL    HW122922   3.099   4.124  17.416  0.3473  0.6184 -0.3290
 3763SOL    HW222923   3.111   4.245  17.492 -0.5543 -0.6209  0.4367
 3764SOL     OW22924   2.232   3.370   4.204 -0.0029 -0.5205  0.1615
 3764SOL    HW122925   2.310   3.425   4.216 -1.5015  1.9625 -1.5650
 3764SOL    HW222926   2.268   3.297   4.255  1.0534  0.2769  0.5749
 3765SOL     OW22927   4.650   0.296   0.866 -0.0577  0.3076  0.1865
 3765SOL    HW122928   4.613   0.247   0.940 -0.1411  1.1014  0.6740
 3765SOL    HW222929   4.642   0.226   0.801 -0.5378 -0.3919  0.9929
 3766SOL     OW22930   3.164   1.479   9.423 -0.1520 -0.4176  0.1312
 3766SOL    HW122931   3.139   1.415   9.357 -0.5699 -2.0653  1.8686
 3766SOL    HW222932   3.257   1.458   9.422  0.2695  1.5473 -0.1147
 3767SOL     OW22933   3.825   1.548   2.524 -0.2580  0.3011  0.3181
 3767SOL    HW122934   3.753   1.557   2.461 -0.6062 -0.6266  0.5927
 3767SOL    HW222935   3.875   1.469   2.507 -0.5193  0.2045 -0.0035
 3768SOL     OW22936   2.970   2.739  10.420  0.2533 -0.2076  0.1136
 3768SOL    HW122937   2.955   2.824  10.379 -2.3686  0.2236  1.9264
 3768SOL    HW222938   2.880   2.705  10.423  0.5979 -0.9707  1.6348
 3769SOL     OW22939   1.064   2.825   7.272  0.0469 -0.2446  0.0127
 3769SOL    HW122940   1.086   2.897   7.331 -0.5735 -0.3288  0.3474
 3769SOL    HW222941   1.078   2.860   7.185  0.7490  0.3857  0.3798
 3770SOL     OW22942   1.195   4.216   8.148 -0.5384 -0.7239  0.9673
 3770SOL    HW122943   1.234   4.300   8.126 -2.7482 -0.5207 -2.0870
 3770SOL    HW222944   1.147   4.229   8.230 -0.4059 -0.7238  1.0445
 3771SOL     OW22945   4.455   3.086   4.766  0.0225 -0.1221  0.1571
 3771SOL    HW122946   4.470   2.992   4.777  0.3028 -0.0154  0.7190
 3771SOL    HW222947   4.467   3.104   4.673  0.4668  1.9882  0.6116
 3772SOL     OW22948   3.425   3.794  10.178  0.2106  0.1891 -0.0738
 3772SOL    HW122949   3.450   3.779  10.087 -0.3443 -2.8428  0.2537
 3772SOL    HW222950   3.383   3.710  10.198  0.6200  0.0728  0.3094
 3773SOL     OW22951   4.322   2.139  17.507  0.1328  0.1836 -0.7697
 3773SOL    HW122952   4.242   2.170  17.465  0.2785 -0.4270 -1.5173
 3773SOL    HW222953   4.326   2.050  17.471  1.1709  0.5174 -1.4804
 3774SOL     OW22954   0.038   3.688   7.577 -0.6478 -0.5650 -0.7612
 3774SOL    HW122955   4.714   3.746   7.627 -0.7825 -2.2411  1.0561
 3774SOL    HW222956   0.004   3.602   7.602 -1.4878  0.0240  0.1458
 3775SOL     OW22957   3.141   3.057   7.029 -0.0978  0.4064 -0.4310
 3775SOL    HW122958   3.073   3.113   6.992 -0.6409  1.4146  2.0964
 3775SOL    HW222959   3.125   2.970   6.993 -0.2190 -0.1922  1.0571
 3776SOL     OW22960   2.133   1.988   8.536 -0.4193  0.6129  0.3855
 3776SOL    HW122961   2.194   1.918   8.512 -1.5227  0.3728 -1.7392
 3776SOL    HW222962   2.201   2.041   8.578 -1.6057  2.4015  0.0817
 3777SOL     OW22963   2.457   0.963  11.687 -0.4303 -0.0468  0.1454
 3777SOL    HW122964   2.518   0.901  11.647  1.2340  1.5237  0.2550
 3777SOL    HW222965   2.380   0.946  11.633  0.8087  1.9702 -2.2527
 3778SOL     OW22966   2.711   0.804   8.031 -0.8230  0.2612 -0.2423
 3778SOL    HW122967   2.688   0.828   7.941  0.7083  0.0132 -0.7050
 3778SOL    HW222968   2.805   0.822   8.038 -0.5255 -0.8973 -1.1552
 3779SOL     OW22969   3.792   3.246   4.075 -0.2893  0.1734 -0.2321
 3779SOL    HW122970   3.721   3.232   4.137 -1.3799  1.0094 -1.3024
 3779SOL    HW222971   3.800   3.163   4.028  1.4744  1.0670 -1.5243
 3780SOL     OW22972   0.617   2.329  10.502  0.2196  0.2328 -0.1378
 3780SOL    HW122973   0.634   2.348  10.594 -1.1351  0.3598  0.0837
 3780SOL    HW222974   0.522   2.322  10.503  0.1663  0.7630 -1.4717
 3781SOL     OW22975   3.976   0.803   2.880 -0.0718 -0.2820 -0.8355
 3781SOL    HW122976   4.022   0.774   2.959  1.0746  3.2140 -0.2479
 3781SOL    HW222977   4.048   0.852   2.840  0.2398 -0.5560 -0.6140
 3782SOL     OW22978   1.250   0.278  11.130  0.0943 -0.4896  0.5434
 3782SOL    HW122979   1.264   0.373  11.131 -0.6513 -0.3788  0.5257
 3782SOL    HW222980   1.178   0.272  11.193 -0.5499  0.8849 -0.0618
 3783SOL     OW22981   0.820   0.201  13.178 -0.4251 -0.3898 -0.0360
 3783SOL    HW122982   0.774   0.159  13.250 -1.6670  0.1211 -0.5296
 3783SOL    HW222983   0.843   0.116  13.140 -1.6455 -0.3925 -0.7743
 3784SOL     OW22984   3.055   2.355   3.019  0.1741  0.2265  0.5730
 3784SOL    HW122985   3.007   2.429   3.058  0.4606  0.5634  0.2813
 3784SOL    HW222986   3.021   2.291   3.082 -1.3509  0.3036 -0.1606
 3785SOL     OW22987   0.993   3.225  14.848 -0.1781 -0.1737 -0.1511
 3785SOL    HW122988   1.059   3.253  14.784 -0.4078 -0.8339 -0.6774
 3785SOL    HW222989   0.911   3.235  14.800 -0.7509  2.4302  1.3987
 3786SOL     OW22990   1.516   4.400   3.154  0.2061 -0.0839  0.5705
 3786SOL    HW122991   1.528   4.343   3.229  1.4260  1.8457  1.8512
 3786SOL    HW222992   1.440   4.370   3.104  0.3373  0.7101 -0.1119
 3787SOL     OW22993   3.475   1.298   0.927  0.1692  0.3680 -0.1874
 3787SOL    HW122994   3.447   1.386   0.952 -0.9129  0.1765 -0.7159
 3787SOL    HW222995   3.566   1.310   0.952  0.9931 -1.0239 -2.4325
 3788SOL     OW22996   0.398   0.932  17.478  0.3989  0.0456  0.2819
 3788SOL    HW122997   0.447   0.894  17.551  2.0062  0.3730 -0.6406
 3788SOL    HW222998   0.420   1.025  17.487 -1.6533  0.5326  0.2977
 3789SOL     OW22999   2.097   1.028   8.523 -0.5735  0.1451  0.3774
 3789SOL    HW123000   2.142   1.061   8.601  0.7171 -0.8163  0.0482
 3789SOL    HW223001   2.166   1.040   8.458  1.1689 -0.2513  2.1248
 3790SOL     OW23002   0.433   1.480   5.247 -0.2791  0.5846  0.4643
 3790SOL    HW123003   0.351   1.516   5.215  0.3715 -1.8139 -3.8751
 3790SOL    HW223004   0.477   1.443   5.171 -3.6387 -1.2743 -0.5853
 3791SOL     OW23005   0.184   3.722   3.415 -0.0452  0.2537 -0.0124
 3791SOL    HW123006   0.204   3.667   3.491 -0.3948  1.5914  1.0432
 3791SOL    HW223007   0.269   3.733   3.374  0.1389  0.2119  0.3598
 3792SOL     OW23008   0.988   0.712  13.784 -0.0042 -0.3104  0.5578
 3792SOL    HW123009   0.974   0.807  13.785 -2.8599 -0.7181  0.4795
 3792SOL    HW223010   0.997   0.688  13.692 -0.4462  1.5484  0.0296
 3793SOL     OW23011   0.010   0.158  10.768  0.0149  0.0060 -0.5136
 3793SOL    HW123012   0.104   0.147  10.786 -0.1810  1.5027  1.4070
 3793SOL    HW223013   4.720   0.202  10.849 -0.7702 -0.5144 -0.4698
 3794SOL     OW23014   2.726   4.364   8.079  0.2782  0.1545 -0.0246
 3794SOL    HW123015   2.654   4.302   8.091  0.2472  0.1072 -0.4310
 3794SOL    HW223016   2.683   4.435   8.030 -1.5071 -1.2620 -0.5497
 3795SOL     OW23017   4.625   4.410   0.299 -0.1981 -0.1802 -0.0259
 3795SOL    HW123018   4.588   4.343   0.357 -0.7712  2.3003  2.4485
 3795SOL    HW223019   4.715   4.388   0.324 -0.7256 -1.6603  0.6256
 3796SOL     OW23020   0.716   0.422   4.144  0.6251  0.0179  0.4107
 3796SOL    HW123021   0.677   0.339   4.172  0.3700 -0.2667 -0.7509
 3796SOL    HW223022   0.796   0.402   4.096  1.2109  1.1049  0.9453
 3797SOL     OW23023   3.240   2.305  13.771 -0.0761  0.1311 -0.5423
 3797SOL    HW123024   3.331   2.329  13.754  0.2826 -0.7696  0.1180
 3797SOL    HW223025   3.252   2.258  13.854 -2.7325 -1.4039 -1.0114
 3798SOL     OW23026   0.890   0.990   0.571  0.3979 -0.4478 -0.1022
 3798SOL    HW123027   0.866   1.074   0.608  0.5524 -0.4928  0.0976
 3798SOL    HW223028   0.984   0.992   0.590  0.6872 -0.3868 -1.5016
 3799SOL     OW23029   3.181   2.094  17.434  0.2416 -0.3307 -0.4729
 3799SOL    HW123030   3.218   2.044  17.361  2.4258  1.8031 -0.8434
 3799SOL    HW223031   3.093   2.067  17.410 -0.5081 -0.4547  2.5490
 3800SOL     OW23032   1.136   4.475   2.816  0.3576 -0.1912 -0.4522
 3800SOL    HW123033   1.194   4.484   2.891 -0.6174 -0.1289  0.2925
 3800SOL    HW223034   1.074   4.411   2.851  0.4242  0.7020  1.3054
 3801SOL     OW23035   3.695   4.708   9.233 -0.1489 -0.0779 -0.0163
 3801SOL    HW123036   3.605   4.721   9.261 -0.3161 -1.4196  0.0364
 3801SOL    HW223037   3.677   4.663   9.151 -0.9710 -0.1200  0.1878
 3802SOL     OW23038   3.132   2.163  11.323  0.0702  0.2006 -0.3592
 3802SOL    HW123039   3.161   2.084  11.368 -1.4926 -0.3624 -0.3151
 3802SOL    HW223040   3.216   2.191  11.288  0.7065  1.0316  1.8695
 3803SOL     OW23041   0.788   1.413   5.100  0.1289  0.3614 -0.8438
 3803SOL    HW123042   0.850   1.483   5.076  1.3948  1.0451  4.3718
 3803SOL    HW223043   0.834   1.376   5.175  0.7202  0.2788 -1.2486
 3804SOL     OW23044   3.761   2.866   4.600 -0.6011  0.1375  0.1835
 3804SOL    HW123045   3.722   2.953   4.588  0.5549  0.4786 -1.0920
 3804SOL    HW223046   3.839   2.870   4.544  0.6696  0.1760  1.9257
 3805SOL     OW23047   0.146   4.707   4.340 -0.2943 -0.5627  0.2058
 3805SOL    HW123048   0.205   4.640   4.306 -0.6530 -0.9859  0.4202
 3805SOL    HW223049   0.090   4.711   4.262 -0.6127 -0.7379  0.4222
 3806SOL     OW23050   2.558   3.195  11.045  0.0364  0.2515 -0.3043
 3806SOL    HW123051   2.476   3.232  11.012  1.5191  2.9993 -0.8965
 3806SOL    HW223052   2.539   3.170  11.136  2.4608 -0.7937 -0.0936
 3807SOL     OW23053   3.101   2.977   1.396 -0.4380 -0.4106  0.1157
 3807SOL    HW123054   3.118   2.937   1.481 -0.7595 -0.5322  0.1252
 3807SOL    HW223055   3.167   3.046   1.396 -1.0072  0.1307  1.2210
 3808SOL     OW23056   3.143   1.966  14.408 -0.5374 -0.2379  0.1980
 3808SOL    HW123057   3.162   1.876  14.382  0.1111  0.4046 -1.5379
 3808SOL    HW223058   3.054   1.955  14.442 -0.0898  0.9697  1.7452
 3809SOL     OW23059   1.383   1.862   7.855 -0.1095  0.4221 -0.7256
 3809SOL    HW123060   1.443   1.808   7.803 -0.6947  1.3125 -2.3366
 3809SOL    HW223061   1.329   1.788   7.881  0.6601 -0.2285 -0.9783
 3810SOL     OW23062   2.437   0.707   4.470  0.5594  0.3041  0.4272
 3810SOL    HW123063   2.482   0.645   4.527 -4.4004 -2.2397  1.5265
 3810SOL    HW223064   2.507   0.723   4.406  1.7656 -0.9280  1.4551
 3811SOL     OW23065   1.372   1.639   6.497 -0.1583 -0.3278 -0.2362
 3811SOL    HW123066   1.296   1.582   6.484 -0.4665  0.4080 -1.6423
 3811SOL    HW223067   1.407   1.580   6.564  1.1224  0.9854  0.2315
 3812SOL     OW23068   3.374   1.908   3.778 -0.2080  0.4092  0.1672
 3812SOL    HW123069   3.459   1.907   3.822  0.7718  0.6106 -1.7231
 3812SOL    HW223070   3.365   1.998   3.744 -1.0144  0.2900  0.0620
 3813SOL     OW23071   2.806   4.277  13.579 -0.0269 -0.1541  0.0334
 3813SOL    HW123072   2.840   4.292  13.667  0.9232  2.8010 -0.8577
 3813SOL    HW223073   2.885   4.235  13.545 -0.3528 -1.3142  0.6844
 3814SOL     OW23074   2.067   3.100   9.377 -0.3216  0.4444 -0.7638
 3814SOL    HW123075   2.051   3.115   9.470 -1.5880 -1.3787 -0.6887
 3814SOL    HW223076   2.075   3.189   9.342 -0.2168  0.8974  0.4228
 3815SOL     OW23077   2.303   0.814   8.707  0.1436 -0.0806  0.6650
 3815SOL    HW123078   2.317   0.881   8.774 -0.2806 -0.2307  0.8973
 3815SOL    HW223079   2.236   0.762   8.751  0.0901  0.0413  0.7283
 3816SOL     OW23080   2.841   2.672   7.008 -0.0401  0.1136 -0.4831
 3816SOL    HW123081   2.854   2.721   7.089 -0.1557  0.3144 -0.5842
 3816SOL    HW223082   2.856   2.580   7.028 -0.3096 -0.0883 -1.2091
 3817SOL     OW23083   3.346   3.379   8.622  0.4408  0.5465  0.4667
 3817SOL    HW123084   3.258   3.351   8.598 -0.3816 -1.2030  5.4618
 3817SOL    HW223085   3.342   3.359   8.716 -0.7388  1.0949  0.5344
 3818SOL     OW23086   4.487   4.285   7.638 -0.5772  0.1348 -0.0350
 3818SOL    HW123087   4.444   4.212   7.594 -1.7873  0.9633 -0.2153
 3818SOL    HW223088   4.463   4.279   7.731 -2.1508  0.7855 -0.4022
 3819SOL     OW23089   0.808   3.422   0.037  0.0267 -0.1505 -0.1629
 3819SOL    HW123090   0.879   3.366   0.005 -1.0481  0.7068 -3.9537
 3819SOL    HW223091   0.851   3.487   0.093  0.0541 -0.1352 -0.2018
 3820SOL     OW23092   3.811   3.820   7.136 -0.3804 -0.0399 -0.3841
 3820SOL    HW123093   3.832   3.911   7.118  0.9512 -0.4174 -0.7409
 3820SOL    HW223094   3.895   3.797   7.176  0.2007 -0.2618 -1.7153
 3821SOL     OW23095   2.951   2.219   6.801  0.1542 -0.0739 -0.3079
 3821SOL    HW123096   2.865   2.199   6.765 -0.3466  0.0820  0.8344
 3821SOL    HW223097   2.938   2.182   6.888 -1.0296 -0.5262 -0.6798
 3822SOL     OW23098   2.499   1.611   3.515 -0.0855  0.3154  1.0147
 3822SOL    HW123099   2.464   1.549   3.579 -0.6887  0.2235  0.5959
 3822SOL    HW223100   2.583   1.573   3.490 -1.0788  0.1869 -2.0527
 3823SOL     OW23101   4.717   0.291   4.220  0.0657 -0.3686 -0.1786
 3823SOL    HW123102   0.052   0.251   4.167 -0.4392  0.6430 -1.5840
 3823SOL    HW223103   4.724   0.384   4.199  2.5662 -0.4411  0.2398
 3824SOL     OW23104   0.337   4.121   9.711  0.0555 -0.6471 -0.3568
 3824SOL    HW123105   0.274   4.097   9.779 -1.7662  0.7045 -1.5633
 3824SOL    HW223106   0.282   4.194   9.683 -1.9729 -1.1852  2.1600
 3825SOL     OW23107   0.227   2.436  11.021  0.1489  0.5279  0.8700
 3825SOL    HW123108   0.227   2.391  11.106 -0.5668  0.0716  0.6346
 3825SOL    HW223109   0.155   2.499  11.021  0.6351  1.0923 -2.8050
 3826SOL     OW23110   0.490   3.971   5.584  0.3997 -0.2356 -0.2871
 3826SOL    HW123111   0.539   4.045   5.621 -1.1794  0.1700  0.9740
 3826SOL    HW223112   0.405   3.974   5.628  0.0286  0.2091 -1.0407
 3827SOL     OW23113   1.079   0.735  10.517  0.5584 -0.1649  0.0171
 3827SOL    HW123114   1.107   0.819  10.554  0.5759 -0.8592  1.6049
 3827SOL    HW223115   1.000   0.734  10.572  0.8291  0.9992  0.4291
 3828SOL     OW23116   3.242   3.170  16.150  1.1290  0.0757 -0.6839
 3828SOL    HW123117   3.210   3.260  16.147  0.2838 -0.3286 -3.4775
 3828SOL    HW223118   3.259   3.165  16.056  0.2736 -1.9232 -0.7252
 3829SOL     OW23119   1.137   2.632  13.299  0.0210  0.1943 -0.4758
 3829SOL    HW123120   1.178   2.714  13.269  0.8089 -0.0755 -0.1335
 3829SOL    HW223121   1.209   2.570  13.291 -0.3602 -0.1932 -0.8914
 3830SOL     OW23122   2.775   4.698  15.724 -0.0424  0.1916  0.2716
 3830SOL    HW123123   2.816   4.612  15.718  1.0809  0.7041  0.6640
 3830SOL    HW223124   2.791   0.002  15.638 -0.0066 -0.4746 -0.0243
 3831SOL     OW23125   3.024   1.186   7.178 -0.1941  0.0492 -0.3958
 3831SOL    HW123126   3.098   1.172   7.237  0.5676 -1.3193 -1.6618
 3831SOL    HW223127   2.954   1.222   7.232  0.7067  0.7823  0.2784
 3832SOL     OW23128   4.622   2.670   2.240 -0.3578 -0.0556 -0.5608
 3832SOL    HW123129   4.543   2.615   2.239 -0.6723  0.3714  0.1600
 3832SOL    HW223130   4.643   2.688   2.149 -0.7650  2.0350 -0.2409
 3833SOL     OW23131   2.579   1.917  14.498  0.1731  0.0114  0.0789
 3833SOL    HW123132   2.674   1.922  14.490 -0.0000 -0.6373 -2.3543
 3833SOL    HW223133   2.560   1.898  14.590 -0.9464  0.2349 -0.1025
 3834SOL     OW23134   3.187   0.138   4.283  0.4376 -0.6698 -0.1384
 3834SOL    HW123135   3.210   0.220   4.327  2.3420 -1.6274  0.6548
 3834SOL    HW223136   3.144   0.088   4.353  0.8950 -0.3580  0.3604
 3835SOL     OW23137   0.095   3.912  14.376 -0.5393  0.0006  0.9341
 3835SOL    HW123138   0.089   3.891  14.469  0.8352  0.6262  1.1805
 3835SOL    HW223139   0.190   3.915  14.364 -0.5855 -2.8970  0.0780
 3836SOL     OW23140   3.357   0.364  17.726  0.2859  0.0695 -0.6965
 3836SOL    HW123141   3.409   0.437   0.023  1.2055 -0.7480 -0.3283
 3836SOL    HW223142   3.317   0.329   0.069  1.2591 -2.4598 -1.3098
 3837SOL     OW23143   1.741   1.885   5.001  0.2872 -0.2248 -1.0083
 3837SOL    HW123144   1.716   1.793   5.003  0.0614 -0.1456  0.2305
 3837SOL    HW223145   1.685   1.927   4.936 -1.9348 -2.0084 -0.2509
 3838SOL     OW23146   0.697   2.307  10.122  0.1705  0.3855 -0.5180
 3838SOL    HW123147   0.684   2.238  10.057 -0.7089  1.4287 -1.4555
 3838SOL    HW223148   0.772   2.358  10.092  1.2586 -1.7721 -1.4747
 3839SOL     OW23149   3.951   2.444  17.263 -0.0304 -0.1862  0.4255
 3839SOL    HW123150   3.961   2.472  17.172 -4.2271 -0.5433 -0.1734
 3839SOL    HW223151   3.861   2.413  17.248  0.2928 -1.1735  0.5421
 3840SOL     OW23152   1.246   4.342  11.987  0.0325  0.1934 -0.7053
 3840SOL    HW123153   1.271   4.259  11.947  0.4486  0.6310 -1.3652
 3840SOL    HW223154   1.290   4.343  12.072 -2.3481  1.5231  0.4874
 3841SOL     OW23155   2.990   0.153   6.629 -0.2183  0.1688  0.3280
 3841SOL    HW123156   2.944   0.069   6.617  1.1841 -0.6557  0.7966
 3841SOL    HW223157   2.918   0.215   6.639 -1.9042 -1.2785 -2.9061
 3842SOL     OW23158   0.751   4.038  13.270 -0.1761 -0.0455  0.1659
 3842SOL    HW123159   0.719   3.996  13.190 -0.2221 -0.0860  0.2054
 3842SOL    HW223160   0.824   4.091  13.238 -0.9146 -0.2314 -1.8718
 3843SOL     OW23161   2.594   0.041   2.621 -0.8537  0.2401  0.7826
 3843SOL    HW123162   2.657   0.037   2.693 -1.4260  0.6030  1.3028
 3843SOL    HW223163   2.540   4.699   2.642  1.4192 -1.3314  0.8851
 3844SOL     OW23164   3.962   1.684  14.646 -0.0676 -0.4249 -0.1343
 3844SOL    HW123165   4.022   1.622  14.688 -0.1365  0.6614  1.5805
 3844SOL    HW223166   3.970   1.659  14.554  1.3424 -0.2472 -0.0736
 3845SOL     OW23167   1.444   4.691   1.362  0.3587  0.1504 -0.3512
 3845SOL    HW123168   1.424   0.040   1.320  2.0975  0.7242 -0.0564
 3845SOL    HW223169   1.369   4.670   1.417 -1.0180  2.5686 -1.3255
 3846SOL     OW23170   1.389   4.150  12.783 -0.0410 -0.1402 -0.6316
 3846SOL    HW123171   1.330   4.173  12.854 -1.3046 -0.4255 -1.5957
 3846SOL    HW223172   1.404   4.058  12.806 -0.6603  0.2023  1.1723
 3847SOL     OW23173   1.628   2.452  13.171 -0.0517 -0.3589 -0.4350
 3847SOL    HW123174   1.680   2.497  13.237  0.5765 -1.5769 -0.0943
 3847SOL    HW223175   1.693   2.397  13.127 -0.0705 -0.3990 -0.4132
 3848SOL     OW23176   0.641   2.880   7.830  0.1093  0.1369  0.1344
 3848SOL    HW123177   0.643   2.961   7.779  0.7377  1.0897  1.6576
 3848SOL    HW223178   0.608   2.918   7.911 -0.0321  0.8415 -0.2538
 3849SOL     OW23179   3.999   4.011   8.807  0.2522  0.4161 -0.1365
 3849SOL    HW123180   4.037   3.995   8.721  0.6110 -0.6555  0.2287
 3849SOL    HW223181   4.066   4.065   8.848 -0.0253  1.0687 -0.5397
 3850SOL     OW23182   2.157   0.481   0.149  0.6012  0.1985 -0.2648
 3850SOL    HW123183   2.069   0.488   0.184  0.9238  1.5321  0.3047
 3850SOL    HW223184   2.186   0.573   0.147  0.4564  0.2482 -0.0627
 3851SOL     OW23185   4.016   3.732   6.733 -0.0844 -0.0677  0.0171
 3851SOL    HW123186   4.025   3.688   6.818  2.3363 -1.3338 -0.8959
 3851SOL    HW223187   4.073   3.683   6.674  0.2953  0.6297 -0.1968
 3852SOL     OW23188   3.154   0.845   6.381  0.0367 -0.2303 -0.0632
 3852SOL    HW123189   3.171   0.920   6.324  1.5728 -0.8090 -0.3675
 3852SOL    HW223190   3.137   0.877   6.469 -0.2493  1.6827 -0.8227
 3853SOL     OW23191   0.405   2.813   6.962  0.4452  0.4475  0.7218
 3853SOL    HW123192   0.404   2.860   6.879 -1.0943  1.0418  1.0805
 3853SOL    HW223193   0.475   2.748   6.951  0.1200  0.3011 -0.5180
 3854SOL     OW23194   0.297   4.107   6.620  0.0318 -0.8457  0.3483
 3854SOL    HW123195   0.336   4.139   6.701  1.3377 -1.3013 -0.0981
 3854SOL    HW223196   0.357   4.148   6.558 -0.5488 -2.3514 -1.2289
 3855SOL     OW23197   1.726   4.674   8.086  0.4055  0.2409 -0.0461
 3855SOL    HW123198   1.768   4.702   8.004  1.7806  0.6630  0.7967
 3855SOL    HW223199   1.662   4.615   8.045  0.5748 -0.2458  0.4003
 3856SOL     OW23200   0.405   2.570  10.847 -0.1686 -0.2836  0.5547
 3856SOL    HW123201   0.390   2.646  10.903  0.5966  0.2213  0.0732
 3856SOL    HW223202   0.343   2.515  10.895  0.2896 -2.5607 -1.4887
 3857SOL     OW23203   3.321   3.871   8.778 -0.1714  0.0223  0.3349
 3857SOL    HW123204   3.315   3.943   8.715 -0.2712 -0.6962 -0.4704
 3857SOL    HW223205   3.229   3.848   8.785  0.0349 -0.9096 -0.0255
 3858SOL     OW23206   2.898   3.246   2.432  0.1168 -0.0127 -0.6235
 3858SOL    HW123207   2.941   3.309   2.374  0.5915 -1.5907 -1.9633
 3858SOL    HW223208   2.945   3.241   2.515 -2.4033 -1.3308  0.7179
 3859SOL     OW23209   2.767   0.989  13.570 -0.4282 -0.5299  0.5560
 3859SOL    HW123210   2.788   0.923  13.636  2.5724 -1.2576 -1.1213
 3859SOL    HW223211   2.837   1.052  13.583  0.3380 -0.7669 -2.3635
 3860SOL     OW23212   0.981   3.606  14.665 -0.3991  0.1845 -0.2460
 3860SOL    HW123213   1.006   3.690  14.627 -0.9405  0.4220 -0.0675
 3860SOL    HW223214   0.889   3.617  14.686 -0.7716  0.5006 -2.0641
 3861SOL     OW23215   3.783   2.526   6.737  0.1777  0.3461 -0.4583
 3861SOL    HW123216   3.850   2.582   6.775 -0.5612  0.5321  0.5825
 3861SOL    HW223217   3.788   2.544   6.643 -1.6676  0.3157 -0.5748
 3862SOL     OW23218   2.180   4.298   9.580 -0.1702  0.7683  0.4543
 3862SOL    HW123219   2.100   4.302   9.528  0.3286 -0.3335 -0.4214
 3862SOL    HW223220   2.149   4.346   9.657 -1.0000  1.1846 -0.1385
 3863SOL     OW23221   0.413   3.193   1.371 -0.5315 -0.9199 -0.6419
 3863SOL    HW123222   0.357   3.210   1.295 -1.0400 -1.6531 -0.4294
 3863SOL    HW223223   0.419   3.098   1.373  2.1800 -0.7695 -1.4615
 3864SOL     OW23224   4.082   4.248   5.343 -0.7269 -0.4538  0.3052
 3864SOL    HW123225   4.103   4.226   5.252 -1.5562  0.7272 -0.1676
 3864SOL    HW223226   4.024   4.177   5.371  0.7939 -1.7353  0.1899
 3865SOL     OW23227   2.925   2.241   7.278 -0.2677  0.0298 -0.2822
 3865SOL    HW123228   2.868   2.181   7.326 -0.3455  1.2084  1.0938
 3865SOL    HW223229   2.974   2.279   7.351  0.8524 -1.6306 -0.1536
 3866SOL     OW23230   3.954   1.214  17.037  0.2972 -0.1283  0.0163
 3866SOL    HW123231   3.982   1.167  16.958  1.0806 -1.3384  0.9974
 3866SOL    HW223232   4.026   1.208  17.100  0.5476  1.3464 -0.1287
 3867SOL     OW23233   2.114   1.227   9.349  0.5042  0.1520  0.0374
 3867SOL    HW123234   2.177   1.300   9.352 -1.5604  1.8258  3.0901
 3867SOL    HW223235   2.100   1.216   9.255  3.6517 -0.2071 -0.3797
 3868SOL     OW23236   2.413   4.282   4.590  0.5469  0.2149  0.5896
 3868SOL    HW123237   2.363   4.361   4.608  2.2113  1.7398 -1.4049
 3868SOL    HW223238   2.343   4.232   4.547  0.2684  0.1697  1.1080
 3869SOL     OW23239   2.782   3.019  10.010 -0.4213 -0.4048 -0.3576
 3869SOL    HW123240   2.821   2.935  10.032 -2.1047 -1.6230 -2.0774
 3869SOL    HW223241   2.791   3.066  10.093  3.0928  0.1972 -1.0808
 3870SOL     OW23242   0.630   1.655   2.481 -0.4719  0.5936  0.8897
 3870SOL    HW123243   0.637   1.563   2.456 -5.2874  0.4498  0.2487
 3870SOL    HW223244   0.627   1.651   2.576  1.2832  1.1009  0.9719
 3871SOL     OW23245   1.751   2.801  17.464 -0.5269 -0.2919 -0.2205
 3871SOL    HW123246   1.808   2.838  17.397 -1.0158  0.8324 -0.0100
 3871SOL    HW223247   1.795   2.831  17.544 -1.1069 -0.1877  0.0606
 3872SOL     OW23248   1.841   0.194   3.771  0.1409  0.3830 -0.3126
 3872SOL    HW123249   1.782   0.185   3.697  0.3049 -2.8907 -0.0331
 3872SOL    HW223250   1.826   0.110   3.814  1.1063  0.2512 -0.2291
 3873SOL     OW23251   3.413   1.849   6.630  0.0559  0.8229 -0.6419
 3873SOL    HW123252   3.370   1.763   6.634  1.8046 -0.0788 -1.2717
 3873SOL    HW223253   3.348   1.886   6.690  0.4012  1.7654 -0.8595
 3874SOL     OW23254   2.779   2.391   7.055 -0.2338  0.6157 -0.3769
 3874SOL    HW123255   2.738   2.421   7.136 -1.0832  1.1703 -1.0134
 3874SOL    HW223256   2.845   2.330   7.088 -1.4878 -1.2275 -1.2623
 3875SOL     OW23257   1.547   3.192   3.065  0.1479  0.0206  0.0546
 3875SOL    HW123258   1.567   3.231   2.980  0.1280  0.3806  0.2163
 3875SOL    HW223259   1.540   3.099   3.043  3.0013 -0.2789  0.5535
 3876SOL     OW23260   0.546   4.101   8.670 -0.4326 -0.4566 -0.1113
 3876SOL    HW123261   0.553   4.159   8.746 -0.3115 -0.1783 -0.3307
 3876SOL    HW223262   0.636   4.100   8.636 -0.7201  1.0672 -0.9322
 3877SOL     OW23263   3.261   2.863   3.574 -0.3882  0.7090 -0.0304
 3877SOL    HW123264   3.172   2.895   3.583 -1.0989 -1.4890  0.6427
 3877SOL    HW223265   3.287   2.861   3.666  1.8514 -0.7269 -0.6663
 3878SOL     OW23266   3.620   3.734   2.979  0.1759 -0.3018 -0.5389
 3878SOL    HW123267   3.655   3.652   2.945  2.9442  0.5817  0.1917
 3878SOL    HW223268   3.659   3.748   3.065 -0.3907 -0.1992 -0.3020
 3879SOL     OW23269   0.921   0.735  16.764  0.2412 -0.1730  0.0070
 3879SOL    HW123270   0.858   0.706  16.829 -0.4243 -0.1589 -0.6330
 3879SOL    HW223271   0.867   0.790  16.707  1.1467  0.2260 -0.4713
 3880SOL     OW23272   3.176   3.317   8.837 -0.0318 -0.4961  0.0226
 3880SOL    HW123273   3.094   3.357   8.866 -0.2682 -1.2360  0.3802
 3880SOL    HW223274   3.177   3.238   8.890  2.3570 -0.3992  0.1004
 3881SOL     OW23275   0.296   3.168   7.168 -0.2970 -0.2685  0.5930
 3881SOL    HW123276   0.357   3.220   7.220 -1.0167  0.5328  0.6276
 3881SOL    HW223277   0.346   3.131   7.095  0.8379 -0.3018  1.3843
 3882SOL     OW23278   2.444   2.063   8.251 -0.1149  0.4729 -0.3385
 3882SOL    HW123279   2.514   2.013   8.209  0.6868 -1.4639  3.2951
 3882SOL    HW223280   2.488   2.095   8.330 -0.5027 -1.3122  0.6062
 3883SOL     OW23281   4.366   2.475   7.331 -0.3543  0.2931  0.5516
 3883SOL    HW123282   4.352   2.570   7.327 -0.7437  0.1897 -0.5856
 3883SOL    HW223283   4.408   2.479   7.245 -1.7881  2.2015 -0.0597
 3884SOL     OW23284   4.225   0.289  13.261 -0.6287  0.0623 -1.0905
 3884SOL    HW123285   4.187   0.375  13.274 -0.9433 -0.3004  0.3760
 3884SOL    HW223286   4.283   0.300  13.186  0.7620  1.3682  0.1679
 3885SOL     OW23287   1.716   2.054   5.209  0.5728 -0.8921 -0.5399
 3885SOL    HW123288   1.652   2.125   5.202  1.8302  0.4588  1.4026
 3885SOL    HW223289   1.703   1.992   5.137 -0.1547 -0.1040 -1.0926
 3886SOL     OW23290   3.067   4.453   2.140 -0.4055 -0.1152  0.3801
 3886SOL    HW123291   3.034   4.504   2.066  0.2931 -0.7539 -0.3704
 3886SOL    HW223292   3.130   4.516   2.176 -0.4710 -0.2064  0.6610
 3887SOL     OW23293   1.484   2.563  11.120 -0.3287  0.1782 -0.3812
 3887SOL    HW123294   1.398   2.523  11.134  0.3537 -0.0940  2.9116
 3887SOL    HW223295   1.540   2.500  11.164 -0.6247 -1.0167 -1.7026
 3888SOL     OW23296   3.579   3.565   2.705  0.2057 -0.3312 -0.3187
 3888SOL    HW123297   3.654   3.532   2.655 -0.2389 -0.1172 -1.1067
 3888SOL    HW223298   3.589   3.659   2.687 -1.0141 -0.3234 -0.9043
 3889SOL     OW23299   3.151   0.670  10.850  0.0089  0.5569 -0.2543
 3889SOL    HW123300   3.224   0.656  10.789  0.2410  0.1271  0.1195
 3889SOL    HW223301   3.189   0.746  10.895 -1.8716  2.0327 -1.1923
 3890SOL     OW23302   0.096   0.789   2.307 -0.1678  0.2753  0.3445
 3890SOL    HW123303   0.108   0.701   2.272 -2.0612  0.0826  0.1478
 3890SOL    HW223304   0.007   0.807   2.275  0.0446  2.3878  0.9266
 3891SOL     OW23305   3.992   1.467   1.462  0.5813 -0.4354 -0.1372
 3891SOL    HW123306   4.003   1.522   1.384  0.8618  3.6769  2.8243
 3891SOL    HW223307   3.902   1.487   1.484  0.9253  0.5254  0.3814
 3892SOL     OW23308   4.130   2.258   5.207 -0.4138  1.0389  0.1701
 3892SOL    HW123309   4.159   2.244   5.297  0.6518 -2.8423 -0.8005
 3892SOL    HW223310   4.194   2.198   5.169 -0.8783 -0.1225  1.2478
 3893SOL     OW23311   4.384   3.016   2.884 -0.6730 -0.4812  0.2527
 3893SOL    HW123312   4.439   3.077   2.932  0.2003 -0.7710 -0.3871
 3893SOL    HW223313   4.321   2.996   2.954 -0.0285 -0.4607  0.8374
 3894SOL     OW23314   2.676   4.323  15.955 -0.0885 -0.6072 -0.2791
 3894SOL    HW123315   2.651   4.308  15.864  1.1625 -2.5412 -0.2974
 3894SOL    HW223316   2.590   4.345  15.991  0.0661 -1.0131  0.3442
 3895SOL     OW23317   3.267   2.543   9.903  0.7335 -0.0342  0.4890
 3895SOL    HW123318   3.274   2.456   9.943  3.1964  0.3392  0.8479
 3895SOL    HW223319   3.196   2.580   9.955 -0.9165  0.4397 -2.1029
 3896SOL     OW23320   2.174   2.911   9.809 -0.2378 -0.1290  0.1031
 3896SOL    HW123321   2.150   2.891   9.719 -1.0530  1.2585  0.0156
 3896SOL    HW223322   2.249   2.970   9.801 -1.2194  0.9823 -0.8130
 3897SOL     OW23323   2.071   3.681   9.316  0.5146 -0.0036 -0.1902
 3897SOL    HW123324   2.118   3.651   9.394  0.6461 -0.8372 -0.5872
 3897SOL    HW223325   2.131   3.749   9.287  0.7483  0.8406  2.2592
 3898SOL     OW23326   1.421   1.041   8.263 -0.2740  0.4010  0.2853
 3898SOL    HW123327   1.416   1.134   8.243 -1.2411  0.2625 -0.1398
 3898SOL    HW223328   1.476   1.009   8.191 -0.3365 -1.4405  1.0600
 3899SOL     OW23329   0.406   4.371   1.993  0.5883 -0.2836  0.0272
 3899SOL    HW123330   0.412   4.463   2.018 -1.0606 -0.3037  0.4842
 3899SOL    HW223331   0.481   4.330   2.035  0.5193  0.9258  1.3119
 3900SOL     OW23332   0.496   0.262   3.375 -0.2427  0.2704  0.2359
 3900SOL    HW123333   0.562   0.283   3.441  1.2725  0.0653 -1.2280
 3900SOL    HW223334   0.506   0.167   3.367 -1.6674  0.0250  1.3974
 3901SOL     OW23335   4.504   4.348   7.306  0.2175  0.1805  0.0970
 3901SOL    HW123336   4.457   4.273   7.342 -0.7713  0.1146 -1.3352
 3901SOL    HW223337   4.585   4.352   7.357 -0.2928 -0.4967  0.9561
 3902SOL     OW23338   1.560   0.771   2.272 -0.1029 -0.4290  0.3138
 3902SOL    HW123339   1.508   0.716   2.214 -1.8960  1.3948  0.1971
 3902SOL    HW223340   1.528   0.734   2.355  1.9467 -0.3364  1.1669
 3903SOL     OW23341   1.695   0.039   3.569  0.0005  0.5929 -0.2070
 3903SOL    HW123342   1.625   0.012   3.629 -1.0425  2.4964 -0.5764
 3903SOL    HW223343   1.675   4.721   3.493 -1.0717  1.7197 -0.6960
 3904SOL     OW23344   2.914   3.430   1.838  0.2212  0.3346  0.1572
 3904SOL    HW123345   2.821   3.452   1.847  0.1175  0.3222 -0.8452
 3904SOL    HW223346   2.930   3.384   1.920 -0.0590  0.4279  0.2648
 3905SOL     OW23347   3.999   3.619   4.208 -0.4573 -0.1122  0.0046
 3905SOL    HW123348   3.909   3.644   4.232 -0.5170 -1.7146  1.5399
 3905SOL    HW223349   3.996   3.626   4.113 -1.4625 -1.9942 -0.1000
 3906SOL     OW23350   0.349   1.094   8.267  0.4814  0.5581 -0.3646
 3906SOL    HW123351   0.339   1.172   8.213  2.2962  0.7203 -0.4711
 3906SOL    HW223352   0.399   1.138   8.336 -0.6484  0.7873  0.3123
 3907SOL     OW23353   2.940   3.540  12.800  0.2014 -0.2306 -0.0878
 3907SOL    HW123354   3.013   3.489  12.766  0.3168 -0.3115  0.2762
 3907SOL    HW223355   2.862   3.497  12.768 -2.1973  1.9979  2.7144
 3908SOL     OW23356   3.488   3.988   2.382 -0.1123 -0.0355  0.1710
 3908SOL    HW123357   3.523   3.911   2.428 -1.8601 -1.4089 -0.7943
 3908SOL    HW223358   3.394   3.982   2.396  0.5111 -3.7050  2.9109
 3909SOL     OW23359   1.700   3.782   3.530 -0.0925  0.2483 -0.3882
 3909SOL    HW123360   1.606   3.775   3.545  0.1932 -2.0884  0.2841
 3909SOL    HW223361   1.708   3.858   3.472 -1.5987  2.7578  2.6986
 3910SOL     OW23362   3.096   4.572   9.363  0.2202  0.1405 -0.4390
 3910SOL    HW123363   3.118   4.593   9.272  0.7163 -0.8825 -0.5456
 3910SOL    HW223364   3.098   4.477   9.372  0.8322  0.1782 -0.2077
 3911SOL     OW23365   3.001   2.954   6.331  0.1846 -0.2491 -0.0625
 3911SOL    HW123366   3.014   2.950   6.236 -2.5791 -1.5481 -0.3795
 3911SOL    HW223367   3.028   2.868   6.364 -0.5954 -1.1084 -1.6945
 3912SOL     OW23368   4.637   0.759  17.385 -0.3086  0.6247  0.0710
 3912SOL    HW123369   4.729   0.782  17.401  0.1044 -1.1466  0.1695
 3912SOL    HW223370   4.607   0.772  17.475 -2.2642  3.1305 -0.9503
 3913SOL     OW23371   3.022   0.654   5.020  0.2742  0.6629 -0.2099
 3913SOL    HW123372   2.931   0.632   5.038 -0.0312  1.4137 -0.7864
 3913SOL    HW223373   3.047   0.572   4.978 -0.4848 -0.0238  0.7167
 3914SOL     OW23374   4.416   1.860  10.090 -0.0857  0.7005 -0.4229
 3914SOL    HW123375   4.350   1.808  10.135  1.7471 -0.3214  1.1084
 3914SOL    HW223376   4.476   1.888  10.159 -1.6689 -0.7989  1.5531
 3915SOL     OW23377   4.673   1.238   2.358 -0.2029 -0.1614  0.1462
 3915SOL    HW123378   4.622   1.226   2.438 -0.4126  0.3255  0.0871
 3915SOL    HW223379   4.662   1.331   2.334 -1.3843 -0.6277 -1.0986
 3916SOL     OW23380   0.414   3.870   6.228  0.0660  0.0304 -0.2288
 3916SOL    HW123381   0.328   3.831   6.246 -0.4402  0.3430 -1.9822
 3916SOL    HW223382   0.401   3.961   6.255  0.0703 -0.3055  0.9105
 3917SOL     OW23383   0.479   1.010  16.690  0.4555  0.0715 -0.0857
 3917SOL    HW123384   0.386   0.994  16.707  1.0612 -0.2307  2.9981
 3917SOL    HW223385   0.481   1.084  16.630  3.0112  0.1074  0.0670
 3918SOL     OW23386   1.124   0.425   5.677  0.4698 -0.1317 -0.0983
 3918SOL    HW123387   1.164   0.358   5.621 -0.3470 -0.3165 -0.4586
 3918SOL    HW223388   1.099   0.370   5.752  1.7477  0.5757  0.8490
 3919SOL     OW23389   3.869   2.723   7.351 -0.1059 -0.2734  0.3369
 3919SOL    HW123390   3.868   2.643   7.403 -0.8818  0.1742  1.0141
 3919SOL    HW223391   3.889   2.785   7.421  2.7533 -1.9411  1.0280
 3920SOL     OW23392   4.126   2.488   0.087 -0.0962  0.1584 -0.5669
 3920SOL    HW123393   4.148   2.424   0.019 -0.7135  0.0717 -0.6902
 3920SOL    HW223394   4.201   2.547   0.094  0.0920 -0.2491  0.7854
 3921SOL     OW23395   0.997   2.052   5.836 -0.0664  0.4335  0.1560
 3921SOL    HW123396   1.050   2.060   5.757  1.5127  0.3059  1.2217
 3921SOL    HW223397   0.982   2.143   5.859  1.7339  0.6744  0.3113
 3922SOL     OW23398   1.118   2.294   3.059 -0.1954  0.1441 -0.0821
 3922SOL    HW123399   1.061   2.301   2.983 -1.6326  0.7365  1.0533
 3922SOL    HW223400   1.168   2.213   3.046 -1.4763 -0.6062 -0.4014
 3923SOL     OW23401   0.294   0.889   5.466  0.1555  0.1682 -0.5078
 3923SOL    HW123402   0.389   0.877   5.478  0.3076  0.0974 -1.8031
 3923SOL    HW223403   0.261   0.839   5.540 -1.2739  2.1859  0.2101
 3924SOL     OW23404   1.578   2.738   5.056 -0.2902  0.0255 -0.0434
 3924SOL    HW123405   1.658   2.705   5.097  0.0838 -0.3246 -1.0572
 3924SOL    HW223406   1.597   2.831   5.042 -1.0942  0.0695 -0.8259
 3925SOL     OW23407   0.059   0.195  14.162 -0.2505 -0.2281  0.4638
 3925SOL    HW123408   4.702   0.210  14.135 -0.8707 -1.0039  2.1228
 3925SOL    HW223409   0.083   0.283  14.190  0.4306 -0.1676 -0.3240
 3926SOL     OW23410   2.085   0.738   5.876 -0.3745  0.1989 -0.4677
 3926SOL    HW123411   2.041   0.821   5.892 -0.9939 -0.5119  1.5104
 3926SOL    HW223412   2.139   0.729   5.955 -1.1482 -1.8298 -0.1778
 3927SOL     OW23413   3.635   2.273   7.403  0.0957 -0.4963  0.5978
 3927SOL    HW123414   3.693   2.277   7.327 -0.9472 -0.1037 -0.1678
 3927SOL    HW223415   3.556   2.312   7.368 -0.1863 -0.6139  1.1004
 3928SOL     OW23416   3.339   1.415   6.361  1.0415  0.5146 -0.3449
 3928SOL    HW123417   3.400   1.485   6.383  0.0769  1.0334  0.6638
 3928SOL    HW223418   3.326   1.367   6.443  3.6552 -1.8833 -1.3171
 3929SOL     OW23419   2.486   2.671   7.098 -0.3833 -0.7292 -0.2551
 3929SOL    HW123420   2.455   2.688   7.187 -0.5676 -0.5468 -0.3536
 3929SOL    HW223421   2.509   2.756   7.063 -0.5747  0.3570  2.2215
 3930SOL     OW23422   3.034   4.686  12.328  0.5358  0.2446  0.0639
 3930SOL    HW123423   2.955   0.000  12.306  0.8483  0.6703 -0.1036
 3930SOL    HW223424   3.094   0.024  12.344 -0.8006  1.1397  0.9709
 3931SOL     OW23425   4.433   2.804  14.272  0.4811  0.2873 -0.1981
 3931SOL    HW123426   4.370   2.773  14.207 -0.1231  0.0097  0.5375
 3931SOL    HW223427   4.384   2.773  14.348  1.9405  0.8845  0.9868
 3932SOL     OW23428   2.040   0.715  11.428  0.3144 -0.1883  0.5970
 3932SOL    HW123429   1.962   0.707  11.483  0.0828  1.1810  0.4823
 3932SOL    HW223430   1.999   0.766  11.358  4.3478  0.2262 -1.4450
 3933SOL     OW23431   4.536   0.039   1.002 -0.1625  0.2431  0.0257
 3933SOL    HW123432   4.517   4.705   1.066  0.5314  2.4174  2.5429
 3933SOL    HW223433   4.485   0.009   0.927 -0.4694 -1.6430  1.0003
 3934SOL     OW23434   2.789   1.138  10.552 -0.3353 -0.0644  0.1175
 3934SOL    HW123435   2.855   1.128  10.620  0.1531 -3.9981 -0.9646
 3934SOL    HW223436   2.727   1.198  10.593  0.6470 -0.1401  1.7088
 3935SOL     OW23437   1.269   2.382   6.473 -0.2813 -0.0269  0.2896
 3935SOL    HW123438   1.182   2.413   6.449  0.1287  0.0722 -1.0517
 3935SOL    HW223439   1.308   2.452   6.525 -0.8610  0.0891  0.5687
 3936SOL     OW23440   4.066   1.047   6.297 -0.2766 -0.3456  0.6708
 3936SOL    HW123441   4.053   0.953   6.309 -0.6189 -0.3879 -0.0718
 3936SOL    HW223442   4.123   1.064   6.372 -0.9559  2.3404  0.5750
 3937SOL     OW23443   4.184   4.468   5.556 -0.0469  0.2558  0.9267
 3937SOL    HW123444   4.227   4.399   5.505 -0.6738  1.6880 -1.5225
 3937SOL    HW223445   4.101   4.486   5.511  1.2751 -0.7084 -1.8887
 3938SOL     OW23446   2.920   4.228   3.995 -0.2174 -0.2140  0.0805
 3938SOL    HW123447   3.014   4.242   3.979 -0.0481  0.4514  1.6389
 3938SOL    HW223448   2.919   4.135   3.972  1.1608 -0.5186  1.2494
 3939SOL     OW23449   0.576   3.465   2.435  0.2438 -0.4823 -0.0482
 3939SOL    HW123450   0.624   3.397   2.481 -0.4636 -0.8176  0.1875
 3939SOL    HW223451   0.627   3.475   2.355  0.2815 -1.8833 -0.1988
 3940SOL     OW23452   1.115   2.661  10.316  0.4356 -0.0778  0.3501
 3940SOL    HW123453   1.105   2.749  10.278  1.3823  0.4809  1.4115
 3940SOL    HW223454   1.086   2.682  10.404 -0.1720 -0.5888  0.2678
 3941SOL     OW23455   3.210   3.065   3.070 -0.4271  0.6350  0.0175
 3941SOL    HW123456   3.259   3.127   3.017  1.7005 -0.3486  0.8316
 3941SOL    HW223457   3.277   3.005   3.104  1.5844  1.1746 -3.0325
 3942SOL     OW23458   4.076   1.762   4.485  0.6281 -0.4965 -0.4085
 3942SOL    HW123459   4.081   1.675   4.524 -3.1892 -0.4257  0.2534
 3942SOL    HW223460   4.163   1.779   4.449  0.6454  0.9565  0.2870
 3943SOL     OW23461   0.248   2.526  13.538  0.0871 -0.0279 -0.1669
 3943SOL    HW123462   0.233   2.434  13.516 -0.0652  0.1812 -0.9456
 3943SOL    HW223463   0.167   2.544  13.585  0.7917  1.9764  0.2782
 3944SOL     OW23464   2.648   3.017  14.485  0.4481 -0.0988 -0.1149
 3944SOL    HW123465   2.660   3.002  14.391 -2.9922 -3.3429  0.0006
 3944SOL    HW223466   2.740   3.011  14.511 -0.2864 -0.4190  2.4249
 3945SOL     OW23467   4.657   0.835   0.284 -0.1529  0.0947  0.1534
 3945SOL    HW123468   4.721   0.899   0.255 -0.7908  1.1991  1.2129
 3945SOL    HW223469   4.577   0.885   0.299  0.3602  1.4475 -1.6202
 3946SOL     OW23470   2.068   4.575  12.351 -0.5642  0.9581 -0.3721
 3946SOL    HW123471   2.088   4.595  12.443 -2.5900  0.5302  0.1594
 3946SOL    HW223472   2.035   4.658  12.318  0.6215  2.0089  1.0506
 3947SOL     OW23473   4.161   3.089   7.054 -0.0291 -0.0267  0.2523
 3947SOL    HW123474   4.170   3.054   7.142  1.9935 -0.6700 -0.2270
 3947SOL    HW223475   4.230   3.042   7.007  0.0995  0.4227 -0.0125
 3948SOL     OW23476   2.584   1.189   7.683  0.1624 -0.0212 -0.0666
 3948SOL    HW123477   2.511   1.244   7.712  0.6943  2.4170 -3.2633
 3948SOL    HW223478   2.548   1.105   7.710  0.0427 -0.0607 -0.3531
 3949SOL     OW23479   2.935   1.101   7.835  0.6472 -0.1876  0.2243
 3949SOL    HW123480   2.905   1.092   7.745 -1.7380 -0.2156  1.0394
 3949SOL    HW223481   3.027   1.124   7.819 -0.1584  1.6656 -1.7014
 3950SOL     OW23482   3.341   2.096  13.490 -0.1551 -0.5443  0.7770
 3950SOL    HW123483   3.255   2.138  13.488 -0.4212 -1.1926 -1.0434
 3950SOL    HW223484   3.329   2.024  13.428  2.8667 -0.7224  0.4123
 3951SOL     OW23485   3.922   2.952   3.718  0.2459 -0.0176 -0.6439
 3951SOL    HW123486   3.856   2.952   3.788 -0.3952  3.6978 -1.2597
 3951SOL    HW223487   3.996   2.973   3.774  0.0781 -1.3761  0.0885
 3952SOL     OW23488   3.172   4.044   4.152  0.2898  0.0902 -0.5414
 3952SOL    HW123489   3.199   3.953   4.141 -2.5025 -0.9594  1.3977
 3952SOL    HW223490   3.188   4.074   4.062 -2.2866  1.0105 -0.6799
 3953SOL     OW23491   2.307   2.422   0.323 -0.7999  0.5061  0.2923
 3953SOL    HW123492   2.395   2.456   0.309  0.0975 -1.7920  0.3741
 3953SOL    HW223493   2.320   2.371   0.403  2.0044 -0.9792 -1.1230
 3954SOL     OW23494   4.314   3.111   7.463 -0.0399  0.2791  0.1754
 3954SOL    HW123495   4.390   3.080   7.414  0.5976 -0.8948  1.9168
 3954SOL    HW223496   4.355   3.178   7.518 -2.2866  2.7169 -1.1244
 3955SOL     OW23497   0.068   2.984  14.967 -0.9380 -0.2356 -0.1317
 3955SOL    HW123498   0.133   2.932  14.919 -2.2854 -0.7213 -1.4413
 3955SOL    HW223499   4.726   2.975  14.910 -1.7034  0.9308  0.7185
 3956SOL     OW23500   1.522   1.192  13.083 -0.1132  0.6805  0.4105
 3956SOL    HW123501   1.521   1.127  13.013 -1.8805  0.4352  0.6531
 3956SOL    HW223502   1.578   1.259  13.044 -0.0804  0.7139  0.5154
 3957SOL     OW23503   4.290   4.235   6.575  0.1931  0.2821  0.1499
 3957SOL    HW123504   4.342   4.162   6.611 -1.2570  0.6795  3.0471
 3957SOL    HW223505   4.200   4.209   6.558  0.8763 -0.4871 -2.3630
 3958SOL     OW23506   0.826   0.274   8.619  0.1603  0.2076  0.2773
 3958SOL    HW123507   0.742   0.230   8.607  0.6948 -1.3898  2.4659
 3958SOL    HW223508   0.872   0.246   8.541  0.9982  0.7808  0.5703
 3959SOL     OW23509   3.393   1.060   0.990  0.2386  0.4123  0.1061
 3959SOL    HW123510   3.405   1.149   0.957 -0.9216 -0.0641 -1.5956
 3959SOL    HW223511   3.384   1.010   0.909 -1.6644 -1.9075  1.7532
 3960SOL     OW23512   1.978   2.658   2.830 -0.4490  0.1996  0.5004
 3960SOL    HW123513   2.059   2.611   2.848 -0.7285  0.0497  1.3695
 3960SOL    HW223514   1.988   2.635   2.738 -1.3260  1.7084  0.0235
 3961SOL     OW23515   2.008   4.086  16.320 -0.0559 -0.3303 -0.5284
 3961SOL    HW123516   2.089   4.123  16.356 -1.0532  0.8150  0.5254
 3961SOL    HW223517   1.948   4.160  16.328 -2.1974 -1.8978 -2.2073
 3962SOL     OW23518   3.064   3.112  10.641  0.2837  0.1832 -0.3994
 3962SOL    HW123519   3.073   3.173  10.714 -0.7074 -1.7943  1.3739
 3962SOL    HW223520   3.119   3.154  10.575  1.7085  0.9222  1.2704
 3963SOL     OW23521   1.720   0.263   5.641  0.2662 -0.4097  0.5218
 3963SOL    HW123522   1.701   0.169   5.636 -1.7297  0.1619 -2.5962
 3963SOL    HW223523   1.797   0.249   5.697  1.4919  1.2464 -0.7686
 3964SOL     OW23524   1.109   2.518   6.125  0.6010  0.0737 -0.2594
 3964SOL    HW123525   1.156   2.569   6.190  1.3849 -1.5324  0.4467
 3964SOL    HW223526   1.182   2.456   6.128  1.5593  1.3236  1.5414
 3965SOL     OW23527   2.273   2.653   2.935  0.9212  0.3668 -0.1123
 3965SOL    HW123528   2.301   2.639   2.845 -2.0488  1.4937 -1.2176
 3965SOL    HW223529   2.290   2.747   2.932  1.8287  0.2401  1.4160
 3966SOL     OW23530   1.590   2.945   5.422  0.0900 -0.3257  0.7595
 3966SOL    HW123531   1.620   2.870   5.372 -3.0523 -0.5822 -0.7573
 3966SOL    HW223532   1.519   2.903   5.470  0.1548 -0.3489  0.8351
 3967SOL     OW23533   1.024   4.226   6.502 -0.5050 -0.1365 -0.3426
 3967SOL    HW123534   1.085   4.176   6.556 -0.8690  0.6308  0.7515
 3967SOL    HW223535   1.070   4.310   6.505  0.0899 -0.5747  2.0773
 3968SOL     OW23536   2.245   4.300   6.265 -0.0685 -0.2758  0.0887
 3968SOL    HW123537   2.165   4.309   6.318 -0.2117 -0.2375 -0.1353
 3968SOL    HW223538   2.205   4.296   6.178  0.8037  0.9048 -0.3604
 3969SOL     OW23539   1.723   0.282  13.122 -0.4309 -0.3277 -0.4532
 3969SOL    HW123540   1.709   0.375  13.138 -0.8600 -0.3550 -0.6715
 3969SOL    HW223541   1.631   0.257  13.116 -0.4502 -0.7165  1.3161
 3970SOL     OW23542   0.786   4.727   0.510  0.3398 -0.2503  0.2723
 3970SOL    HW123543   0.744   4.647   0.479  1.3062  0.5898 -3.2202
 3970SOL    HW223544   0.775   0.044   0.429  0.8814 -0.8091 -0.1578
 3971SOL     OW23545   4.438   3.624   8.325 -0.0017 -0.1073  0.0655
 3971SOL    HW123546   4.494   3.657   8.396 -0.0405  0.1928 -0.0422
 3971SOL    HW223547   4.350   3.647   8.354 -0.0767  2.0185 -1.8884
 3972SOL     OW23548   3.721   1.181   9.817 -0.0416 -0.0260 -0.5451
 3972SOL    HW123549   3.659   1.109   9.807 -2.8866  2.3727 -0.3939
 3972SOL    HW223550   3.794   1.142   9.866 -0.3023 -2.1595 -1.8766
 3973SOL     OW23551   4.382   2.177   7.030  0.1131  0.2668 -0.0333
 3973SOL    HW123552   4.372   2.200   7.123 -1.2578 -1.3456  0.2174
 3973SOL    HW223553   4.298   2.136   7.011 -0.6834  1.9749 -0.1819
 3974SOL     OW23554   1.031   2.197   0.033  0.3104  0.0101  0.1493
 3974SOL    HW123555   1.066   2.168  17.686 -0.0736 -1.8755  0.6522
 3974SOL    HW223556   1.099   2.155   0.086 -1.2890 -2.0586  0.5363
 3975SOL     OW23557   1.359   2.025   5.024  0.0017  0.2369  0.2820
 3975SOL    HW123558   1.435   2.063   4.981  0.9424  0.0775  1.7866
 3975SOL    HW223559   1.302   2.101   5.031  1.7923  1.6961 -1.1093
 3976SOL     OW23560   3.248   1.907   7.833 -0.0495 -0.2640  0.1018
 3976SOL    HW123561   3.259   1.960   7.754  1.1437 -0.3127  0.2305
 3976SOL    HW223562   3.225   1.823   7.793  1.6250 -0.6092 -0.1222
 3977SOL     OW23563   2.680   1.105   1.489 -0.2888 -0.6402  0.1061
 3977SOL    HW123564   2.729   1.177   1.450  0.6586 -0.3561  1.8092
 3977SOL    HW223565   2.664   1.125   1.581  2.3066 -1.4985  0.7605
 3978SOL     OW23566   3.132   4.469   5.898 -0.1562 -0.1199  0.9510
 3978SOL    HW123567   3.209   4.524   5.881 -0.3265  0.5118  2.1837
 3978SOL    HW223568   3.146   4.423   5.981 -1.7504  2.0708  2.4485
 3979SOL     OW23569   2.689   3.875  10.372 -0.0523 -0.4197  0.3111
 3979SOL    HW123570   2.781   3.872  10.347  0.0477  1.7465  0.4220
 3979SOL    HW223571   2.678   3.807  10.438 -0.9989 -0.6768 -0.0989
 3980SOL     OW23572   4.047   2.699   8.086  0.7114 -0.1825 -0.0928
 3980SOL    HW123573   4.073   2.789   8.065 -0.7840 -0.1727 -1.9191
 3980SOL    HW223574   3.954   2.712   8.065  0.5645 -2.4152 -0.7851
 3981SOL     OW23575   2.637   3.268   4.385  0.2493  0.0518  0.1387
 3981SOL    HW123576   2.725   3.289   4.355  0.2226  1.4366  1.0694
 3981SOL    HW223577   2.586   3.322   4.325 -0.0881 -1.8844 -1.3400
 3982SOL     OW23578   2.585   2.724   0.125 -0.2186 -0.5449 -0.5742
 3982SOL    HW123579   2.502   2.770   0.138  1.2185  1.9021 -0.0332
 3982SOL    HW223580   2.618   2.773   0.049  0.5782  0.0842  0.1652
 3983SOL     OW23581   3.030   3.666  16.170 -0.1946  0.4304 -0.1762
 3983SOL    HW123582   3.066   3.736  16.225  0.7792 -0.9003  0.8856
 3983SOL    HW223583   2.941   3.696  16.153 -0.5435  0.8766  2.3541
 3984SOL     OW23584   3.016   2.474   5.395 -0.0854  0.0694  0.0679
 3984SOL    HW123585   3.108   2.451   5.391  0.0527  0.8658 -1.4739
 3984SOL    HW223586   2.971   2.394   5.421  0.7899 -0.1034  1.0356
 3985SOL     OW23587   2.890   3.140   1.907  0.0228  0.1604 -0.1072
 3985SOL    HW123588   2.949   3.197   1.957 -1.7081  0.2675  1.8186
 3985SOL    HW223589   2.812   3.135   1.962  0.6618  0.8742  0.8650
 3986SOL     OW23590   1.465   1.300   2.321  0.1195 -0.3546 -0.2658
 3986SOL    HW123591   1.386   1.352   2.308  0.4604  0.6586  1.7872
 3986SOL    HW223592   1.447   1.228   2.260  1.1285 -1.5159  0.8055
 3987SOL     OW23593   3.630   2.206   3.530  0.2769  0.2976 -0.3620
 3987SOL    HW123594   3.670   2.196   3.443 -0.5124  0.8902 -0.7884
 3987SOL    HW223595   3.632   2.120   3.573 -0.7409  0.5401  0.1720
 3988SOL     OW23596   0.009   0.418  12.263  0.2338  0.0316 -0.0091
 3988SOL    HW123597   0.031   0.476  12.335  0.8765 -0.8250  0.4815
 3988SOL    HW223598   4.650   0.399  12.271 -0.0649  2.1295  1.4657
 3989SOL     OW23599   0.541   1.688  11.538  0.6645  0.4473  0.2846
 3989SOL    HW123600   0.604   1.637  11.487 -1.3424 -1.9207  0.1665
 3989SOL    HW223601   0.597   1.746  11.589 -0.7180  0.5940  1.6452
 3990SOL     OW23602   1.009   2.299   9.855  0.4287  0.0105 -0.0087
 3990SOL    HW123603   0.987   2.259   9.771 -0.1420  0.6864 -0.1793
 3990SOL    HW223604   0.947   2.372   9.851  0.8889  0.3568 -0.8341
 3991SOL     OW23605   2.548   2.334   9.368 -0.7683  0.6608  0.3988
 3991SOL    HW123606   2.464   2.373   9.342  0.1488  2.5961  0.3381
 3991SOL    HW223607   2.546   2.354   9.462 -0.6953 -2.4804  1.0701
 3992SOL     OW23608   2.166   3.465   3.149  0.5650  0.0113  0.5924
 3992SOL    HW123609   2.201   3.395   3.094 -1.1554  0.6538 -1.3009
 3992SOL    HW223610   2.139   3.526   3.081 -2.0443 -2.0184 -0.2027
 3993SOL     OW23611   1.607   0.445  12.467 -0.5194 -0.2478 -0.2099
 3993SOL    HW123612   1.677   0.403  12.516 -0.3942  0.8405  0.5416
 3993SOL    HW223613   1.552   0.477  12.539 -1.3177 -2.6831  0.2654
 3994SOL     OW23614   2.932   0.042   7.456  0.0573  0.0262 -0.3416
 3994SOL    HW123615   2.958   4.689   7.483 -1.3320 -0.6015 -1.0151
 3994SOL    HW223616   2.990   0.090   7.515 -1.0081  1.3621 -0.3625
 3995SOL     OW23617   2.261   1.089   8.339 -1.0804  0.2284 -0.0625
 3995SOL    HW123618   2.271   1.100   8.245  1.5648  0.2928  0.2246
 3995SOL    HW223619   2.350   1.106   8.371 -0.5316 -1.9756 -0.4204
 3996SOL     OW23620   3.156   2.283   4.359 -0.2297 -0.0137 -0.2250
 3996SOL    HW123621   3.214   2.320   4.426 -0.7026  2.7597 -1.3346
 3996SOL    HW223622   3.075   2.309   4.404  0.7293  1.8297  0.4480
 3997SOL     OW23623   0.153   4.676   8.705  0.2412 -0.1592 -0.9074
 3997SOL    HW123624   0.138   4.682   8.611  1.5549  0.6024 -1.0672
 3997SOL    HW223625   0.085   0.005   8.727  1.3816  1.7601 -2.9392
 3998SOL     OW23626   4.696   2.226   2.478  0.7856  0.1698 -0.3406
 3998SOL    HW123627   4.723   2.308   2.438 -0.1762  0.0708 -1.1974
 3998SOL    HW223628   4.648   2.249   2.557 -2.2741 -1.4372 -1.7191
 3999SOL     OW23629   1.050   4.621   6.190  0.2150 -0.2263 -0.4227
 3999SOL    HW123630   1.138   4.618   6.152  0.2715 -2.8413 -0.0486
 3999SOL    HW223631   0.999   4.641   6.111  0.9436 -1.9281 -1.3224
 4000SOL     OW23632   2.951   0.351   2.353 -0.2877  0.0132 -0.5138
 4000SOL    HW123633   2.859   0.376   2.358 -0.5755 -0.7443 -2.0621
 4000SOL    HW223634   2.991   0.426   2.308 -1.0307  1.1441  0.7092
 4001SOL     OW23635   2.703   3.973   2.541 -0.3650 -0.4001  0.2508
 4001SOL    HW123636   2.714   3.878   2.544  0.9585 -0.2107  1.4893
 4001SOL    HW223637   2.745   4.001   2.623 -1.3573 -0.1241  0.6687
 4002SOL     OW23638   2.128   3.042  13.844  0.3821  0.8771  0.5581
 4002SOL    HW123639   2.053   3.062  13.900 -1.3847  0.2002 -1.5187
 4002SOL    HW223640   2.154   2.952  13.862 -0.8622  0.1286 -1.3361
 4003SOL     OW23641   2.778   1.111  11.643 -0.0814  0.5006  0.1978
 4003SOL    HW123642   2.815   1.027  11.614  1.0182  0.9430  0.3202
 4003SOL    HW223643   2.685   1.093  11.659  0.2735 -1.5521 -0.0295
 4004SOL     OW23644   3.160   1.029   2.048  0.4864  0.0700 -0.0357
 4004SOL    HW123645   3.066   1.038   2.060  0.6167  1.0198  0.2793
 4004SOL    HW223646   3.184   1.122   2.052  2.6759 -0.5918  2.0202
 4005SOL     OW23647   3.298   1.781   8.183  0.3759 -0.1859 -0.1647
 4005SOL    HW123648   3.272   1.702   8.135  0.8591 -0.5560  0.1826
 4005SOL    HW223649   3.367   1.798   8.119  1.4903  0.8222  1.3088
 4006SOL     OW23650   2.644   3.078  17.464 -0.1667  0.3190 -0.6923
 4006SOL    HW123651   2.621   3.105  17.375 -0.3459 -1.0132 -1.0454
 4006SOL    HW223652   2.700   3.152  17.487 -0.7271  0.7819 -0.8146
 4007SOL     OW23653   0.265   0.792   6.258  0.1037  0.0475 -0.2624
 4007SOL    HW123654   0.261   0.827   6.347  1.6222 -0.1444 -0.1207
 4007SOL    HW223655   0.299   0.706   6.283  0.9315  0.3234 -0.4362
 4008SOL     OW23656   1.345   1.869   4.199  0.1499 -0.0844  0.0474
 4008SOL    HW123657   1.396   1.892   4.276 -0.0761  1.1994 -0.1886
 4008SOL    HW223658   1.305   1.954   4.184  0.1257 -0.1610 -0.3442
 4009SOL     OW23659   1.354   0.240   3.392  0.0623 -0.0916  0.6964
 4009SOL    HW123660   1.386   0.245   3.302 -1.5694 -0.6655  0.0911
 4009SOL    HW223661   1.429   0.284   3.432  2.9715 -2.6143 -1.9311
 4010SOL     OW23662   0.345   2.379   2.622 -0.2377  0.6883  0.2309
 4010SOL    HW123663   0.296   2.297   2.615  0.5245 -0.0235  3.3358
 4010SOL    HW223664   0.285   2.441   2.582 -1.2022 -2.3227 -2.9476
 4011SOL     OW23665   3.816   4.685   2.316 -0.8783 -0.1342 -0.5285
 4011SOL    HW123666   3.866   0.030   2.333  1.2917 -1.1519 -2.3013
 4011SOL    HW223667   3.772   4.680   2.401  1.3275 -1.4233  0.5205
 4012SOL     OW23668   0.763   0.544  13.119  0.7072 -0.5335  0.1197
 4012SOL    HW123669   0.823   0.581  13.055  0.1400  0.5426  0.1931
 4012SOL    HW223670   0.829   0.513  13.180  1.1096  3.5384  1.7493
 4013SOL     OW23671   1.110   2.960   5.506  0.2108 -0.1453 -0.6568
 4013SOL    HW123672   1.084   3.041   5.462 -2.1055  0.7352  2.3511
 4013SOL    HW223673   1.031   2.922   5.543 -1.6839  3.1183 -1.3837
 4014SOL     OW23674   2.621   0.600   8.574 -0.5217 -0.2321  0.1555
 4014SOL    HW123675   2.554   0.663   8.546  0.1372 -0.7572 -2.6365
 4014SOL    HW223676   2.687   0.608   8.505 -0.1705  0.8755  0.6253
 4015SOL     OW23677   4.611   4.331   8.033 -0.0000  0.0034  0.5282
 4015SOL    HW123678   4.627   4.265   8.101 -0.1506 -1.1384 -0.5510
 4015SOL    HW223679   4.683   4.309   7.974 -1.2307 -0.8288 -0.6581
 4016SOL     OW23680   0.745   4.697   1.633  0.1368 -0.1720  0.1027
 4016SOL    HW123681   0.685   4.626   1.658  0.5415 -0.7624 -0.5868
 4016SOL    HW223682   0.822   4.662   1.679 -0.3199  0.3054  1.2291
 4017SOL     OW23683   1.198   1.413   4.444 -0.5506  0.2335  0.2116
 4017SOL    HW123684   1.161   1.467   4.374 -0.0569 -0.9027 -0.9251
 4017SOL    HW223685   1.153   1.335   4.414 -0.3098  0.5103 -0.8660
 4018SOL     OW23686   1.252   2.217   2.268  0.1961  0.1293 -0.0910
 4018SOL    HW123687   1.309   2.213   2.346 -0.1238 -0.8373  0.0874
 4018SOL    HW223688   1.292   2.290   2.221  1.8056 -2.4743 -2.7333
 4019SOL     OW23689   0.177   0.412   8.355  0.0464 -0.4543  0.6811
 4019SOL    HW123690   0.205   0.480   8.294 -1.7803  0.6951  1.1337
 4019SOL    HW223691   0.215   0.448   8.435  0.8553 -0.5049  0.3234
 4020SOL     OW23692   1.296   2.862  17.733  0.5829  0.2526 -0.8448
 4020SOL    HW123693   1.305   2.781  17.683 -0.0698 -0.4803  0.2143
 4020SOL    HW223694   1.293   2.830   0.086  1.0017  1.6174 -0.3545
 4021SOL     OW23695   2.825   2.959   3.158  0.1704 -0.5507 -0.2441
 4021SOL    HW123696   2.778   2.938   3.239  0.2362  0.0249 -0.0530
 4021SOL    HW223697   2.907   2.991   3.197  0.7257 -1.1009 -0.9727
 4022SOL     OW23698   1.608   4.105   6.900  0.2204  0.0554 -0.1695
 4022SOL    HW123699   1.556   4.056   6.964 -1.2566  0.6450 -0.9202
 4022SOL    HW223700   1.695   4.066   6.912 -0.6827 -1.7545  0.4816
 4023SOL     OW23701   2.604   3.794   2.977 -0.1241  0.1348 -0.3280
 4023SOL    HW123702   2.686   3.767   2.935 -1.1740  0.6063 -2.6757
 4023SOL    HW223703   2.598   3.716   3.031 -0.4416 -0.2838 -0.9683
 4024SOL     OW23704   2.683   2.959   5.667 -0.0888  0.0653  0.1856
 4024SOL    HW123705   2.767   2.990   5.632  1.1059 -1.0642  2.0923
 4024SOL    HW223706   2.708   2.868   5.680 -0.2160 -0.3794 -2.7137
 4025SOL     OW23707   1.043   4.237   3.617  0.0183  0.1659 -0.2946
 4025SOL    HW123708   0.984   4.303   3.653 -0.7684 -0.7144  0.0669
 4025SOL    HW223709   1.040   4.167   3.683  2.9709  2.1775  1.9160
 4026SOL     OW23710   0.394   3.575   6.135  0.0216 -0.2876 -0.8401
 4026SOL    HW123711   0.468   3.522   6.166  1.5152  2.1567 -0.1932
 4026SOL    HW223712   0.435   3.661   6.120  0.8278 -0.4761  0.2482
 4027SOL     OW23713   3.155   4.206  16.798 -1.0163  0.0590  0.6193
 4027SOL    HW123714   3.061   4.186  16.799 -0.9665 -0.1425  1.5532
 4027SOL    HW223715   3.155   4.302  16.798 -1.2787  0.0600  0.7567
 4028SOL     OW23716   2.345   0.314   1.964  0.3719  0.0622  0.6418
 4028SOL    HW123717   2.287   0.282   2.034 -1.7907  0.8352 -0.7723
 4028SOL    HW223718   2.415   0.249   1.965  1.3920  1.1488  0.1316
 4029SOL     OW23719   3.326   1.044  17.069 -0.3912  0.2990  0.1616
 4029SOL    HW123720   3.360   1.101  17.138  2.0866 -0.4149 -0.4707
 4029SOL    HW223721   3.270   1.110  17.029 -0.6928  0.6571  1.1687
 4030SOL     OW23722   2.268   3.413   4.572 -0.3309 -0.4103  0.2888
 4030SOL    HW123723   2.265   3.472   4.497  3.1651 -4.0648 -2.6996
 4030SOL    HW223724   2.276   3.327   4.531  0.0474  0.4263 -1.3770
 4031SOL     OW23725   3.550   1.621  14.868 -0.2207 -0.7296  0.1787
 4031SOL    HW123726   3.628   1.566  14.861  0.1339  0.0987 -2.5443
 4031SOL    HW223727   3.523   1.629  14.776 -1.7897  1.3540  0.8291
 4032SOL     OW23728   1.111   1.468   0.047 -0.1326  0.0657 -0.0552
 4032SOL    HW123729   1.174   1.449  17.715  0.8690 -1.3200  1.2292
 4032SOL    HW223730   1.173   1.473   0.120  0.5654 -1.8538 -0.5165
 4033SOL     OW23731   1.820   4.559   9.602  0.5359 -0.1925 -0.5669
 4033SOL    HW123732   1.851   4.645   9.572  1.0042 -0.6703 -1.4724
 4033SOL    HW223733   1.755   4.555   9.531 -0.6836  0.0170  0.5394
 4034SOL     OW23734   1.746   0.885   2.767 -0.7508  0.6163 -0.5691
 4034SOL    HW123735   1.760   0.892   2.672 -1.2937  3.2069 -0.4475
 4034SOL    HW223736   1.685   0.956   2.784 -2.3378 -1.0770  0.8481
 4035SOL     OW23737   0.728   4.018   9.478  0.0857  0.1036  0.4147
 4035SOL    HW123738   0.682   4.023   9.562 -0.9841  0.8709 -0.2122
 4035SOL    HW223739   0.789   3.948   9.502 -0.0436  0.3251  1.4300
 4036SOL     OW23740   0.712   0.092   0.843  0.0736 -0.2423 -0.7134
 4036SOL    HW123741   0.725   0.103   0.749 -1.6029  1.7533 -0.7054
 4036SOL    HW223742   0.761   0.014   0.869 -1.2214 -0.5615  0.7472
 4037SOL     OW23743   3.031   4.717   9.723 -0.3040  0.2137 -0.4928
 4037SOL    HW123744   3.082   4.661   9.781  0.2414  2.2228  0.9710
 4037SOL    HW223745   2.954   4.660   9.723 -1.0681  1.2317  0.1589
 4038SOL     OW23746   3.263   2.099   8.053 -0.6945 -0.5860 -0.1561
 4038SOL    HW123747   3.228   2.057   8.132  1.1894 -0.9242  0.5021
 4038SOL    HW223748   3.245   2.044   7.976 -2.4371  0.3945 -0.4339
 4039SOL     OW23749   1.891   1.109   1.827  0.1824  0.5092 -0.3454
 4039SOL    HW123750   1.911   1.061   1.908 -1.7911  0.6235  0.2067
 4039SOL    HW223751   1.971   1.161   1.827  1.0870 -0.8878 -0.6538
 4040SOL     OW23752   2.217   3.015   7.437  0.4019  0.2483 -0.8551
 4040SOL    HW123753   2.235   3.029   7.530  1.3756  2.0229 -1.3177
 4040SOL    HW223754   2.127   2.981   7.443  0.9736 -1.4281 -1.6911
 4041SOL     OW23755   1.393   4.468   6.661 -0.2751 -0.2288 -0.8105
 4041SOL    HW123756   1.459   4.530   6.692 -0.2112 -0.9731  0.5211
 4041SOL    HW223757   1.428   4.380   6.674 -0.7919 -0.2634  0.3563
 4042SOL     OW23758   1.572   3.759   2.843 -0.3601  0.0706  0.2883
 4042SOL    HW123759   1.557   3.822   2.914  0.7796  0.0371  0.5619
 4042SOL    HW223760   1.513   3.691   2.874  0.7464 -0.9932  0.0490
 4043SOL     OW23761   4.675   0.689  11.917  0.3611 -0.0604  0.1016
 4043SOL    HW123762   0.014   0.745  11.945  0.9271 -0.1575 -1.1740
 4043SOL    HW223763   4.613   0.700  11.988 -1.7175 -0.5090 -1.6556
 4044SOL     OW23764   3.020   0.683   5.619  0.1856  0.4165 -0.0989
 4044SOL    HW123765   3.017   0.658   5.526 -1.0127  1.2610 -0.2925
 4044SOL    HW223766   2.925   0.683   5.620  0.1882 -1.0109  1.1371
 4045SOL     OW23767   1.341   0.634   5.954  0.7508 -0.0358  0.7010
 4045SOL    HW123768   1.363   0.628   5.861  2.1106  3.1002  0.8337
 4045SOL    HW223769   1.259   0.682   5.946  0.4591 -1.0774 -2.4427
 4046SOL     OW23770   2.047   4.619   2.982 -0.1093 -0.5518  0.0953
 4046SOL    HW123771   2.075   4.564   3.054 -1.0216 -2.0687 -0.7128
 4046SOL    HW223772   2.066   4.568   2.903  1.0310  1.9993 -1.3049
 4047SOL     OW23773   1.039   1.323   7.847  0.3115  0.3286  0.0645
 4047SOL    HW123774   0.944   1.316   7.848  0.5050 -2.1803  1.6777
 4047SOL    HW223775   1.038   1.407   7.894  3.1727  0.2859  0.2505
 4048SOL     OW23776   3.637   1.698   1.966  0.3414 -0.0497 -0.1760
 4048SOL    HW123777   3.705   1.632   1.955 -0.4238 -0.6204 -1.4505
 4048SOL    HW223778   3.686   1.765   2.015 -0.8913  0.0211  0.9444
 4049SOL     OW23779   0.349   0.474   2.627  0.6756 -0.1711 -0.3017
 4049SOL    HW123780   0.415   0.417   2.587  2.1209  1.0350  0.3450
 4049SOL    HW223781   0.385   0.460   2.714 -1.2946  2.0511  0.8746
 4050SOL     OW23782   1.520   4.625  16.396  0.0074 -0.4686  0.0656
 4050SOL    HW123783   1.544   4.650  16.485 -1.8525  1.5392  0.0281
 4050SOL    HW223784   1.436   4.671  16.388 -0.1390 -0.5522  1.1183
 4051SOL     OW23785   1.367   1.510   3.758 -0.2153 -0.0659 -0.8443
 4051SOL    HW123786   1.422   1.530   3.683  1.1320 -0.1636  0.1201
 4051SOL    HW223787   1.279   1.503   3.720  0.6281 -1.3692 -2.5593
 4052SOL     OW23788   3.164   3.003   5.731  0.6259 -0.1656  0.5217
 4052SOL    HW123789   3.105   3.076   5.751  0.4858  0.3413 -1.7111
 4052SOL    HW223790   3.228   3.008   5.802 -0.4106  0.3731  1.4159
 4053SOL     OW23791   1.451   0.708   3.568 -0.0988 -0.3467 -0.8622
 4053SOL    HW123792   1.513   0.743   3.632  1.2569 -3.6587 -0.4051
 4053SOL    HW223793   1.389   0.782   3.565  0.8241  0.4598 -0.0791
 4054SOL     OW23794   3.833   0.938  14.502 -0.4309 -1.0237 -0.0291
 4054SOL    HW123795   3.811   0.952  14.410 -0.4900 -1.4324 -0.0752
 4054SOL    HW223796   3.871   1.025  14.518  0.8769 -1.7452  0.8203
 4055SOL     OW23797   3.951   1.594   6.867  0.6719 -0.0345 -0.6727
 4055SOL    HW123798   3.944   1.688   6.854  1.1898 -0.1014 -1.4342
 4055SOL    HW223799   4.044   1.577   6.884  0.4318  0.5002  1.2057
 4056SOL     OW23800   2.336   1.899   9.074  0.0329 -0.2638  0.1617
 4056SOL    HW123801   2.286   1.945   9.142 -1.8404  0.1035 -1.4320
 4056SOL    HW223802   2.347   1.810   9.106 -1.9052 -0.7423 -0.4764
 4057SOL     OW23803   1.047   0.647  13.516 -0.0167 -0.2492  0.1469
 4057SOL    HW123804   0.974   0.593  13.485  0.7185 -1.3483  0.3224
 4057SOL    HW223805   1.046   0.716  13.450 -1.2749 -0.7942 -0.4163
 4058SOL     OW23806   2.941   2.053   0.628  0.1878 -0.3256 -0.0087
 4058SOL    HW123807   2.855   2.027   0.595 -0.8256  0.1946  2.1849
 4058SOL    HW223808   2.992   2.073   0.550 -2.0069 -2.2365 -1.9135
 4059SOL     OW23809   3.797   3.523   6.248  0.4736  0.4699 -0.2561
 4059SOL    HW123810   3.839   3.549   6.166 -1.1133  1.6341 -0.7051
 4059SOL    HW223811   3.859   3.453   6.267 -1.4656 -0.9418  0.8839
 4060SOL     OW23812   0.748   1.699   2.136 -0.0759  0.0239  0.0476
 4060SOL    HW123813   0.704   1.716   2.053  1.9899  1.7193 -0.6778
 4060SOL    HW223814   0.800   1.779   2.140  0.5492 -0.5960  4.4912
 4061SOL     OW23815   1.797   3.781  10.735  0.0390  0.4265 -0.0495
 4061SOL    HW123816   1.860   3.752  10.801 -2.5302 -3.0738  0.8894
 4061SOL    HW223817   1.857   3.786  10.661  1.2417  0.3474  0.9066
 4062SOL     OW23818   0.420   2.076   1.907 -0.4731 -0.7807  0.6828
 4062SOL    HW123819   0.402   2.017   1.980 -1.9063  1.4675  2.1287
 4062SOL    HW223820   0.464   2.150   1.949 -2.0545  0.2033  0.6071
 4063SOL     OW23821   1.295   2.292   8.492 -0.1075 -0.1457 -0.2405
 4063SOL    HW123822   1.320   2.208   8.532 -1.7385 -1.2284 -1.4623
 4063SOL    HW223823   1.381   2.334   8.497  0.3474 -0.6754 -3.7881
 4064SOL     OW23824   0.548   1.885   4.665  0.1424  0.0698  0.1267
 4064SOL    HW123825   0.573   1.966   4.620  0.6824 -0.1189  0.0790
 4064SOL    HW223826   0.457   1.908   4.680 -0.2324  0.8932 -3.3796
 4065SOL     OW23827   0.266   1.197   6.806 -0.2193 -0.4482  0.0160
 4065SOL    HW123828   0.282   1.287   6.834  0.8220 -0.6978  0.2292
 4065SOL    HW223829   0.255   1.165   6.895 -2.2389  1.2476  0.3550
 4066SOL     OW23830   4.144   0.979  14.307 -0.4856 -0.9029 -0.3832
 4066SOL    HW123831   4.112   1.027  14.383  0.7812 -0.1667 -0.3078
 4066SOL    HW223832   4.236   1.008  14.305 -0.3486 -1.1618  2.2466
 4067SOL     OW23833   2.523   0.931   8.184 -0.2883  0.1531  0.2846
 4067SOL    HW123834   2.452   0.869   8.205  0.2732 -0.4674  0.3447
 4067SOL    HW223835   2.575   0.877   8.125  0.0405  0.5195  0.2443
 4068SOL     OW23836   2.025   4.157  15.066 -0.2257 -0.1733  0.3007
 4068SOL    HW123837   1.995   4.066  15.061  2.0892 -0.9239  0.2790
 4068SOL    HW223838   2.118   4.147  15.084 -0.1313  1.1573  0.5449
 4069SOL     OW23839   0.318   0.124  16.957  0.8677 -0.2516  0.0581
 4069SOL    HW123840   0.293   0.089  16.871 -3.6828 -0.4009  1.4769
 4069SOL    HW223841   0.406   0.089  16.973  1.7264  1.9451  0.1487
 4070SOL     OW23842   1.996   2.113   3.731 -0.0047 -0.6835 -0.1205
 4070SOL    HW123843   2.014   2.160   3.650  0.2330  1.9129  1.4512
 4070SOL    HW223844   2.058   2.040   3.719  1.0626  0.2060 -0.0048
 4071SOL     OW23845   0.484   1.222   8.477 -0.0463  0.4798  0.2156
 4071SOL    HW123846   0.481   1.233   8.572 -0.0859  0.7472  0.1824
 4071SOL    HW223847   0.500   1.312   8.448 -1.3013  0.7839  0.4622
 4072SOL     OW23848   2.387   0.725   8.446  0.1722 -0.0389  0.3209
 4072SOL    HW123849   2.352   0.636   8.439  1.0570 -0.4966  1.6240
 4072SOL    HW223850   2.345   0.760   8.524  1.5595  0.1865  0.9679
 4073SOL     OW23851   0.432   4.473  16.177  0.1138 -0.4966  0.2455
 4073SOL    HW123852   0.490   4.396  16.174  0.8657  0.1146 -0.7325
 4073SOL    HW223853   0.470   4.505  16.259 -1.3203 -2.7887  1.8446
 4074SOL     OW23854   3.488   1.193   8.392 -0.0427 -0.0130  0.1575
 4074SOL    HW123855   3.479   1.203   8.487 -0.5875  2.3498 -0.1284
 4074SOL    HW223856   3.534   1.110   8.383 -1.0175 -0.1673 -3.2945
 4075SOL     OW23857   2.743   1.264   1.133 -0.0031  0.2227 -0.0799
 4075SOL    HW123858   2.787   1.222   1.206 -1.1743 -0.9636 -0.0629
 4075SOL    HW223859   2.651   1.241   1.144  0.3047 -1.5729 -1.2540
 4076SOL     OW23860   0.367   1.179  12.666 -0.0360  0.0836 -0.4704
 4076SOL    HW123861   0.355   1.195  12.760  0.0757 -1.2520 -0.2356
 4076SOL    HW223862   0.394   1.087  12.671 -0.1094  0.0261 -1.1299
 4077SOL     OW23863   2.451   1.554   8.802  0.2865  0.1506 -0.5024
 4077SOL    HW123864   2.499   1.635   8.786 -0.5137  0.4155 -1.6564
 4077SOL    HW223865   2.411   1.528   8.718 -0.7082 -1.6386  0.5376
 4078SOL     OW23866   2.178   3.338   9.318  0.1657 -0.0052  0.1346
 4078SOL    HW123867   2.160   3.360   9.409  0.5915 -0.9902  0.4586
 4078SOL    HW223868   2.198   3.425   9.284 -1.5577 -0.1793 -1.3468
 4079SOL     OW23869   2.311   4.704   3.663  0.0137  0.3621 -0.3753
 4079SOL    HW123870   2.227   4.718   3.706  0.1709 -1.1884  0.4193
 4079SOL    HW223871   2.308   4.612   3.637  0.1009  0.4274 -0.6233
 4080SOL     OW23872   1.809   0.330   5.026 -0.3803 -0.4775 -0.1202
 4080SOL    HW123873   1.797   0.410   4.976  2.4715  1.2004  1.8912
 4080SOL    HW223874   1.838   0.273   4.955  1.7571  1.1895 -0.5576
 4081SOL     OW23875   3.269   0.350   4.453  0.3563  0.0967 -0.1804
 4081SOL    HW123876   3.327   0.408   4.502  1.5326  0.2214 -1.7247
 4081SOL    HW223877   3.227   0.309   4.529 -0.8194  0.7218 -0.4948
 4082SOL     OW23878   2.031   1.939   9.102  0.1333  0.9414  0.0262
 4082SOL    HW123879   2.020   1.882   9.026  2.3647 -0.2328  0.5932
 4082SOL    HW223880   1.973   2.010   9.073  0.1539  0.6821 -0.6487
 4083SOL     OW23881   3.786   0.925   0.666  0.8993 -0.2373 -0.7555
 4083SOL    HW123882   3.840   0.862   0.619  1.2508 -0.7930  0.4277
 4083SOL    HW223883   3.699   0.889   0.645  2.1515 -2.9704 -1.2114
 4084SOL     OW23884   4.220   2.114   8.073  0.0773 -0.2237 -0.4909
 4084SOL    HW123885   4.162   2.168   8.021  0.4695 -0.2174 -0.9146
 4084SOL    HW223886   4.287   2.181   8.081 -0.7933  0.6352 -0.3847
 4085SOL     OW23887   4.464   4.171   3.843 -0.6136 -0.5120  0.0379
 4085SOL    HW123888   4.455   4.262   3.816  0.1442 -0.0627  1.3041
 4085SOL    HW223889   4.405   4.171   3.919 -1.8471  0.2706 -0.9278
 4086SOL     OW23890   0.072   0.817   9.648  0.2587  0.1278 -0.4702
 4086SOL    HW123891   0.058   0.806   9.742  1.1628  2.8562 -0.0246
 4086SOL    HW223892   0.135   0.746   9.633  2.1397  1.5232  0.9745
 4087SOL     OW23893   3.489   2.444  13.560  0.2843 -0.7619 -0.0287
 4087SOL    HW123894   3.524   2.503  13.627 -1.8420  0.3454  0.1271
 4087SOL    HW223895   3.414   2.495  13.528  1.7917  0.5653 -1.4263
 4088SOL     OW23896   3.958   0.201   7.980  0.1927  0.9903  0.5470
 4088SOL    HW123897   4.029   0.259   8.008  0.2448  1.9901 -1.6005
 4088SOL    HW223898   3.943   0.148   8.057 -0.3164  0.7769  0.2985
 4089SOL     OW23899   2.112   1.391   4.751  0.1301 -0.5385  0.2248
 4089SOL    HW123900   2.043   1.336   4.789  0.1647 -0.7947 -0.0858
 4089SOL    HW223901   2.100   1.473   4.800 -0.1573 -0.6067  0.2697
 4090SOL     OW23902   4.605   4.432   5.960 -0.4534 -0.2219 -0.3723
 4090SOL    HW123903   4.562   4.364   6.012 -2.8288  0.5424 -1.3619
 4090SOL    HW223904   4.536   4.496   5.941  0.2811  0.8538  0.6017
 4091SOL     OW23905   0.621   2.587   4.829 -0.2300  0.1944 -0.2453
 4091SOL    HW123906   0.592   2.497   4.811  0.1626 -0.3801  1.9299
 4091SOL    HW223907   0.531   2.620   4.835 -0.2084  0.0334  1.0216
 4092SOL     OW23908   1.002   2.374   1.715  0.7571 -0.0011 -1.0341
 4092SOL    HW123909   1.024   2.297   1.768  0.1750 -1.0312 -2.2961
 4092SOL    HW223910   0.909   2.390   1.730  0.4939 -0.8393 -1.7692
 4093SOL     OW23911   0.423   2.749   7.712 -0.1415 -0.3016 -0.3384
 4093SOL    HW123912   0.495   2.779   7.767 -2.0103  0.6854  1.5695
 4093SOL    HW223913   0.423   2.825   7.654 -0.4786  1.4778  2.0117
 4094SOL     OW23914   0.214   4.437  14.253  0.3039 -0.4984 -0.2276
 4094SOL    HW123915   0.208   4.344  14.274  3.1262 -0.6854 -0.2535
 4094SOL    HW223916   0.162   4.454  14.175  1.9662  0.5146 -1.1243
 4095SOL     OW23917   1.098   3.539   1.319  0.4668  0.2748 -0.0597
 4095SOL    HW123918   1.098   3.628   1.284 -4.5858  0.6224  0.8227
 4095SOL    HW223919   1.045   3.494   1.253 -0.5102 -0.0604  0.9550
 4096SOL     OW23920   3.562   2.228  13.419 -0.5547 -1.1792  0.4825
 4096SOL    HW123921   3.558   2.317  13.454 -0.6849 -0.9730 -0.0581
 4096SOL    HW223922   3.485   2.189  13.461  0.4436 -0.6394  2.7947
 4097SOL     OW23923   0.720   2.010   4.050 -0.0217  0.0126  0.6983
 4097SOL    HW123924   0.801   1.967   4.025 -0.9883 -1.1825 -0.3934
 4097SOL    HW223925   0.738   2.050   4.135  0.5959 -1.1233  1.0996
 4098SOL     OW23926   0.210   2.818   5.073 -0.1321  0.2691  0.0676
 4098SOL    HW123927   0.196   2.901   5.118 -1.4822 -0.3270  0.7294
 4098SOL    HW223928   0.228   2.757   5.144 -0.8048  1.0494  0.9076
 4099SOL     OW23929   4.342   2.282   4.496 -0.3483  0.7191 -0.4188
 4099SOL    HW123930   4.337   2.292   4.401 -1.6237  1.3795 -0.2750
 4099SOL    HW223931   4.286   2.205   4.506  2.0651 -0.9567  0.2758
 4100SOL     OW23932   3.693   3.688   2.340 -0.3612 -0.3433  0.5698
 4100SOL    HW123933   3.776   3.724   2.371  0.7533 -2.6289  0.2094
 4100SOL    HW223934   3.704   3.723   2.252  2.9633  2.4476  2.0482
 4101SOL     OW23935   1.609   1.946  12.168  0.3116 -0.1628  0.2671
 4101SOL    HW123936   1.540   1.881  12.183  0.1766 -0.2472 -0.7552
 4101SOL    HW223937   1.545   2.016  12.179 -0.9899 -1.1854 -0.7523
 4102SOL     OW23938   3.185   1.920   5.104  0.0419  0.1522  0.0462
 4102SOL    HW123939   3.098   1.905   5.141 -0.1956 -0.9983 -0.9877
 4102SOL    HW223940   3.168   1.984   5.035  4.2607  0.0990 -1.0448
 4103SOL     OW23941   4.510   1.161   2.591  0.3319 -0.0791 -0.0037
 4103SOL    HW123942   4.465   1.098   2.535  2.0895 -2.3841  1.1780
 4103SOL    HW223943   4.455   1.137   2.666  0.3916 -0.9124 -0.2288
 4104SOL     OW23944   1.513   3.978  15.840  0.1636 -0.0553 -0.0900
 4104SOL    HW123945   1.584   3.961  15.902  1.9641 -0.5048 -2.2692
 4104SOL    HW223946   1.529   3.924  15.763  0.9156  0.2313 -0.1343
 4105SOL     OW23947   4.273   1.854   0.904  0.2864 -0.8413  0.3830
 4105SOL    HW123948   4.194   1.908   0.916  2.0144  1.5864  0.8152
 4105SOL    HW223949   4.242   1.809   0.826  1.5327  0.6452 -0.9821
 4106SOL     OW23950   2.860   2.969  16.466 -0.2591 -0.2261  0.7607
 4106SOL    HW123951   2.945   2.954  16.423 -1.1685  0.7619 -1.3674
 4106SOL    HW223952   2.823   2.881  16.468 -3.1988  1.0065 -0.2989
 4107SOL     OW23953   2.245   2.879  10.127 -0.1700 -0.0422 -0.1521
 4107SOL    HW123954   2.163   2.928  10.124  0.3205  0.7690 -0.3833
 4107SOL    HW223955   2.255   2.858  10.034  0.2492  0.4308 -0.2114
 4108SOL     OW23956   2.077   2.647  13.100 -0.3524 -0.8325  0.1790
 4108SOL    HW123957   2.040   2.650  13.188 -1.0001 -0.5527 -0.1068
 4108SOL    HW223958   1.999   2.626  13.050 -1.1541  2.5973  0.0129
 4109SOL     OW23959   1.547   0.555   3.054 -0.0621 -0.0142 -0.2193
 4109SOL    HW123960   1.517   0.646   3.056 -1.6292 -0.5323 -0.2378
 4109SOL    HW223961   1.571   0.561   2.961 -5.6499  2.8776 -1.4905
 4110SOL     OW23962   3.813   0.876   9.623  0.1295  0.2978 -0.7200
 4110SOL    HW123963   3.755   0.801   9.614 -0.1563  0.4380 -0.0093
 4110SOL    HW223964   3.873   0.847   9.691  0.1579  0.0915 -0.8334
 4111SOL     OW23965   2.153   2.431  12.649 -0.4911 -0.0614  0.7669
 4111SOL    HW123966   2.246   2.445  12.668 -0.0180 -0.0128 -1.5805
 4111SOL    HW223967   2.146   2.336  12.655 -1.3360 -0.0901 -0.6652
 4112SOL     OW23968   2.728   4.733   4.746 -0.2778  0.2397 -0.4194
 4112SOL    HW123969   2.801   4.671   4.739 -0.7700 -0.2302 -1.4620
 4112SOL    HW223970   2.694   0.009   4.657 -0.3734 -2.7104 -0.7367
 4113SOL     OW23971   3.814   3.666   8.953  0.1226  0.1100 -0.1342
 4113SOL    HW123972   3.863   3.620   8.884  0.9339 -1.4113  1.4585
 4113SOL    HW223973   3.735   3.612   8.960  0.8110 -1.1024 -1.7491
 4114SOL     OW23974   3.488   4.567   8.608 -0.4336  0.0137  0.5712
 4114SOL    HW123975   3.532   4.644   8.644 -1.2621  0.5461  0.4632
 4114SOL    HW223976   3.515   4.499   8.670 -0.6245 -0.3656  0.2369
 4115SOL     OW23977   1.875   1.078  10.465 -0.3391  0.2668 -0.0260
 4115SOL    HW123978   1.967   1.057  10.445 -0.6279  0.8124 -1.9532
 4115SOL    HW223979   1.880   1.087  10.560 -0.2251  1.8481 -0.1689
 4116SOL     OW23980   4.074   0.109   8.564  0.2027 -0.1241  0.0521
 4116SOL    HW123981   4.099   0.095   8.656  0.3992  0.2359  0.0520
 4116SOL    HW223982   3.993   0.057   8.562  1.8477 -2.6385 -0.8392
 4117SOL     OW23983   0.564   1.290   6.402  0.0409 -0.1650  0.0077
 4117SOL    HW123984   0.638   1.235   6.424 -0.6061 -0.6799  0.9170
 4117SOL    HW223985   0.550   1.335   6.486 -3.4205 -0.1040 -0.5994
 4118SOL     OW23986   1.361   2.648  14.880  0.0245 -0.0235  0.6490
 4118SOL    HW123987   1.395   2.559  14.887  1.3551  0.5927  1.9542
 4118SOL    HW223988   1.287   2.652  14.941  0.2147  0.4358  0.8493
 4119SOL     OW23989   0.491   0.220   5.498  0.2544 -0.0417  0.5595
 4119SOL    HW123990   0.429   0.178   5.438  0.1113  0.7191  0.1736
 4119SOL    HW223991   0.434   0.264   5.562  1.3769 -0.6997  2.0135
 4120SOL     OW23992   1.391   0.203   1.244 -0.0512  0.3937 -0.2723
 4120SOL    HW123993   1.329   0.209   1.171  1.2730 -0.2428 -1.4576
 4120SOL    HW223994   1.377   0.285   1.291 -1.5336 -0.8371  1.4202
 4121SOL     OW23995   3.746   2.476   5.438 -0.2159 -0.3521 -0.3326
 4121SOL    HW123996   3.838   2.501   5.431 -0.2728 -0.4254 -1.3172
 4121SOL    HW223997   3.712   2.552   5.484 -3.1332 -1.3391 -0.8139
 4122SOL     OW23998   1.274   4.568  11.847 -0.1786  0.7552  0.1317
 4122SOL    HW123999   1.340   4.600  11.908 -0.9078  0.1398  1.2612
 4122SOL    HW224000   1.244   4.491  11.897 -0.4877  0.5586 -0.3557
 4123SOL     OW24001   0.906   2.295  16.470  0.1868 -0.1020  0.0898
 4123SOL    HW124002   0.962   2.371  16.484 -1.1310  1.0128 -0.7157
 4123SOL    HW224003   0.965   2.221  16.487 -0.9773 -1.2995 -1.1383
 4124SOL     OW24004   4.688   2.436  10.066 -0.3269 -0.3847 -0.5718
 4124SOL    HW124005   0.032   2.456  10.014 -0.3262 -1.2493 -0.9077
 4124SOL    HW224006   4.618   2.458  10.004  1.2944 -1.0808 -2.6567
 4125SOL     OW24007   1.176   3.636   8.254 -0.2156  0.0176 -0.5432
 4125SOL    HW124008   1.227   3.578   8.198  1.0301  1.2182 -0.6544
 4125SOL    HW224009   1.123   3.685   8.191 -0.3062 -0.8851 -1.1564
 4126SOL     OW24010   2.241   2.922   2.153 -0.1361 -0.0189 -0.2276
 4126SOL    HW124011   2.252   2.920   2.058  0.3927  0.2964 -0.1740
 4126SOL    HW224012   2.272   3.011   2.171 -2.3677  0.7735 -0.3727
 4127SOL     OW24013   2.747   0.893  12.758  0.0946 -0.2377 -0.0796
 4127SOL    HW124014   2.811   0.925  12.694  1.8627 -1.8789  0.8894
 4127SOL    HW224015   2.752   0.798  12.758 -0.2070 -0.2603 -1.8282
 4128SOL     OW24016   2.902   1.792  15.208  0.2155 -0.2568  0.3144
 4128SOL    HW124017   2.943   1.708  15.186  0.3985  0.1906 -1.0792
 4128SOL    HW224018   2.886   1.774  15.300 -0.2961 -3.2130 -0.3390
 4129SOL     OW24019   4.673   3.572   7.964  1.0001  0.0911 -0.6270
 4129SOL    HW124020   0.003   3.560   8.033 -1.1239 -0.4621  1.2792
 4129SOL    HW224021   4.705   3.516   7.893  1.8930 -1.1954  0.8003
 4130SOL     OW24022   3.314   2.897   4.843 -0.3998  0.0040 -0.1644
 4130SOL    HW124023   3.287   2.988   4.852  0.8643  0.0682  3.0697
 4130SOL    HW224024   3.345   2.886   4.933 -2.8030 -1.3027  0.5175
 4131SOL     OW24025   1.510   1.945   0.146  0.3567  0.6923 -0.0718
 4131SOL    HW124026   1.441   2.012   0.155  0.0961  0.5315 -0.8749
 4131SOL    HW224027   1.556   1.970   0.066 -0.7392 -0.1301 -0.9587
 4132SOL     OW24028   4.436   3.239   2.147 -0.2125 -0.3262 -0.0923
 4132SOL    HW124029   4.456   3.193   2.229 -1.5800  0.7181  0.8242
 4132SOL    HW224030   4.506   3.207   2.090  0.0040 -1.9059  1.0482
 4133SOL     OW24031   2.725   0.723   6.892  0.4364  0.0715  0.6707
 4133SOL    HW124032   2.722   0.628   6.906 -0.7083 -0.0462 -0.3081
 4133SOL    HW224033   2.818   0.743   6.900  0.8962 -0.8066 -2.5586
 4134SOL     OW24034   2.291   3.729   0.527 -0.5390  0.1174 -0.4668
 4134SOL    HW124035   2.387   3.730   0.523 -0.4456 -2.8478  0.4476
 4134SOL    HW224036   2.263   3.820   0.536  1.3802  0.5726  0.8813
 4135SOL     OW24037   3.270   2.619   5.305 -0.2689  0.1361  0.1371
 4135SOL    HW124038   3.187   2.639   5.262  1.6868  0.9108 -3.2748
 4135SOL    HW224039   3.285   2.535   5.261  2.7818 -0.8191  3.0192
 4136SOL     OW24040   3.406   1.732   1.198  0.2997 -0.2670  0.3988
 4136SOL    HW124041   3.328   1.788   1.201  2.0590  2.0681  2.2747
 4136SOL    HW224042   3.469   1.802   1.181  0.4160 -1.0917 -2.5829
 4137SOL     OW24043   4.470   0.044   2.058 -0.7460 -0.2523  0.2726
 4137SOL    HW124044   4.451   0.136   2.073 -1.6879 -0.2902 -0.7004
 4137SOL    HW224045   4.424   0.029   1.975  0.7230 -0.2381 -0.5394
 4138SOL     OW24046   2.241   0.350  14.661 -0.2418  0.4673  0.0198
 4138SOL    HW124047   2.319   0.299  14.684 -1.2767 -0.5589  1.2494
 4138SOL    HW224048   2.272   0.440  14.647  1.0487  0.0257  0.0676
 4139SOL     OW24049   0.462   2.585  12.745  0.0355 -0.0073 -0.0389
 4139SOL    HW124050   0.501   2.499  12.729  4.1246  1.8799 -0.3314
 4139SOL    HW224051   0.403   2.603  12.672 -0.7302 -1.5721  0.1935
 4140SOL     OW24052   0.010   1.627  12.468  0.6611  0.2507  0.3315
 4140SOL    HW124053   4.704   1.547  12.502  1.8608  0.1350  1.5128
 4140SOL    HW224054   0.049   1.598  12.386  0.7605 -0.0481  0.4871
 4141SOL     OW24055   2.054   2.380   7.532  0.2245  0.4030  0.7435
 4141SOL    HW124056   2.056   2.404   7.439  0.2423 -1.7988  0.1633
 4141SOL    HW224057   1.966   2.345   7.547  0.4966 -0.8043 -0.4463
 4142SOL     OW24058   1.749   1.376   8.369 -0.4961 -0.4020 -0.1245
 4142SOL    HW124059   1.725   1.351   8.459  1.6646 -0.3310  0.4747
 4142SOL    HW224060   1.691   1.451   8.362  0.2999 -0.0570 -2.8562
 4143SOL     OW24061   1.251   1.363   5.969  0.0299 -0.1810 -0.0420
 4143SOL    HW124062   1.251   1.268   5.983 -1.3929 -0.5200 -2.3720
 4143SOL    HW224063   1.177   1.377   5.910 -0.0453  0.4083  0.1918
 4144SOL     OW24064   3.985   1.055   4.572 -0.2526 -0.1215 -0.0614
 4144SOL    HW124065   4.073   1.086   4.549  0.3682 -1.4877  0.4742
 4144SOL    HW224066   3.996   0.980   4.630  3.1447  0.4035 -0.0209
 4145SOL     OW24067   4.545   4.610   4.902  0.2269  0.3519 -0.6260
 4145SOL    HW124068   4.547   4.518   4.873 -0.7541  0.3230 -0.5953
 4145SOL    HW224069   4.469   4.647   4.858 -0.7454 -2.0972 -1.0474
 4146SOL     OW24070   3.663   4.334  15.874  0.3531  0.2736  0.0096
 4146SOL    HW124071   3.607   4.402  15.838  2.5680  1.5855 -0.9899
 4146SOL    HW224072   3.744   4.386  15.867 -0.5065  1.5878 -0.1994
 4147SOL     OW24073   2.565   2.235   8.723  0.1854  0.0832  0.1685
 4147SOL    HW124074   2.632   2.263   8.661  0.6031 -1.0029  0.1146
 4147SOL    HW224075   2.607   2.152   8.748  0.7146 -0.2854 -1.8791
 4148SOL     OW24076   0.964   0.299   0.226 -0.4420 -0.4722  0.2810
 4148SOL    HW124077   0.968   0.377   0.170  0.1911 -1.3069 -0.8246
 4148SOL    HW224078   0.936   0.234   0.162 -0.9682  1.0831 -1.0753
 4149SOL     OW24079   2.283   4.604   8.634 -0.2619 -0.5907  0.2017
 4149SOL    HW124080   2.254   4.513   8.636 -1.6946 -0.1500 -0.5779
 4149SOL    HW224081   2.379   4.595   8.641 -0.2857 -0.6205  0.5164
 4150SOL     OW24082   1.141   3.309   2.575 -0.6122 -0.1121 -0.5550
 4150SOL    HW124083   1.099   3.343   2.495 -1.1766  0.1413 -0.1543
 4150SOL    HW224084   1.094   3.228   2.595 -1.7125  0.8791  0.9222
 4151SOL     OW24085   4.729   4.182   0.487 -0.2149  0.1792 -0.4373
 4151SOL    HW124086   4.723   4.116   0.419  2.1274 -0.8019  0.3094
 4151SOL    HW224087   0.065   4.236   0.451 -0.5902  0.3920 -0.8584
 4152SOL     OW24088   1.853   1.162   6.174 -0.4648 -0.1236 -0.6888
 4152SOL    HW124089   1.782   1.151   6.110 -0.7641  0.9689 -0.5419
 4152SOL    HW224090   1.821   1.096   6.236 -1.3290 -1.6776 -2.7761
 4153SOL     OW24091   4.030   0.657   7.792  0.2897  0.1754 -0.1943
 4153SOL    HW124092   3.950   0.623   7.834 -0.8852 -0.0649 -2.6321
 4153SOL    HW224093   4.003   0.748   7.778  0.1162 -0.1297 -1.8198
 4154SOL     OW24094   2.029   4.382   7.873  0.1883 -0.0224  0.5858
 4154SOL    HW124095   2.065   4.427   7.949 -0.5785 -1.1985  1.6388
 4154SOL    HW224096   2.060   4.449   7.812 -1.2673 -1.5148 -1.8160
 4155SOL     OW24097   0.178   1.361   3.250  0.4588 -0.3388  0.3332
 4155SOL    HW124098   0.134   1.284   3.286  2.3002 -0.5734  2.0671
 4155SOL    HW224099   0.194   1.412   3.330 -2.7122 -0.3246  0.9649
 4156SOL     OW24100   2.188   4.408   5.069  0.4160  0.3964  0.0095
 4156SOL    HW124101   2.143   4.363   4.997 -1.3926  2.1677  0.0218
 4156SOL    HW224102   2.121   4.416   5.137  1.9696 -0.1312  1.5759
 4157SOL     OW24103   0.036   1.296   9.976 -0.3724  0.0787  0.7485
 4157SOL    HW124104   0.015   1.387   9.995 -0.9875 -0.5404  3.0650
 4157SOL    HW224105   0.126   1.290   9.944 -1.5345 -1.6852 -2.1560
 4158SOL     OW24106   4.084   0.768  17.614  0.1276 -0.0371 -0.1732
 4158SOL    HW124107   4.126   0.700  17.561 -0.8220 -0.3711 -0.4996
 4158SOL    HW224108   4.160   0.806  17.658  1.5322 -2.4736 -0.4991
 4159SOL     OW24109   2.680   0.775  11.650 -0.4431  0.5329  0.1826
 4159SOL    HW124110   2.770   0.806  11.644  0.9230 -3.1938  1.3462
 4159SOL    HW224111   2.665   0.770  11.555 -0.2200 -0.7163  0.2100
 4160SOL     OW24112   4.352   2.568   3.136 -0.5641  0.5464  0.2729
 4160SOL    HW124113   4.423   2.631   3.132  0.1924 -0.2055  1.5868
 4160SOL    HW224114   4.342   2.559   3.231  0.8549 -0.4722  0.3310
 4161SOL     OW24115   0.166   4.210   4.701 -0.0824  0.0635 -0.1469
 4161SOL    HW124116   0.155   4.160   4.620 -0.8318  0.6377 -0.3944
 4161SOL    HW224117   0.120   4.160   4.769 -0.8078  0.4380 -0.3704
 4162SOL     OW24118   2.907   4.563   6.459 -0.3662 -0.0043  0.4331
 4162SOL    HW124119   2.984   4.549   6.404 -3.2018 -0.5681 -3.3866
 4162SOL    HW224120   2.851   4.616   6.402 -0.0057 -1.2085 -1.0468
 4163SOL     OW24121   3.591   1.687   3.444 -0.0301  0.2679 -0.0301
 4163SOL    HW124122   3.640   1.605   3.428  0.9948  0.9292 -0.3112
 4163SOL    HW224123   3.580   1.722   3.355  1.4723 -0.0588 -0.3589
 4164SOL     OW24124   0.390   4.685   2.029 -0.5923  0.2978 -0.6615
 4164SOL    HW124125   0.318   4.699   2.091  2.2937  1.7663  2.4013
 4164SOL    HW224126   0.433   0.035   2.018  2.0408 -0.7791  1.1788
 4165SOL     OW24127   3.151   3.941   6.075 -0.2520  0.0454  0.2639
 4165SOL    HW124128   3.058   3.945   6.097 -0.1404 -0.1334  0.7629
 4165SOL    HW224129   3.171   3.853   6.106  0.0988 -0.6892 -2.1143
 4166SOL     OW24130   1.266   2.454   1.779 -0.3207 -0.3706 -0.0216
 4166SOL    HW124131   1.176   2.434   1.754 -0.7167  1.9921 -0.4856
 4166SOL    HW224132   1.302   2.483   1.695 -0.5389 -2.2029 -0.7551
 4167SOL     OW24133   3.528   0.716  11.692  0.2563 -0.1187  0.3594
 4167SOL    HW124134   3.460   0.674  11.639 -0.3227  1.4226 -0.1133
 4167SOL    HW224135   3.516   0.800  11.648  4.2075  1.1277  1.6089
 4168SOL     OW24136   3.744   3.675   4.169  0.3882 -0.2082  0.0793
 4168SOL    HW124137   3.670   3.670   4.230 -1.1976  0.6432 -1.7896
 4168SOL    HW224138   3.698   3.646   4.090  1.1644  0.7075 -0.7140
 4169SOL     OW24139   3.873   3.518  15.930 -0.4872 -0.0495  0.8568
 4169SOL    HW124140   3.858   3.449  15.866  1.3215 -0.7201  1.1487
 4169SOL    HW224141   3.787   3.557  15.944  0.2450  1.6949  0.5399
 4170SOL     OW24142   2.084   4.301  13.982 -0.4871 -0.1883  0.0868
 4170SOL    HW124143   2.046   4.382  14.018 -0.0985 -0.3789  0.9199
 4170SOL    HW224144   2.011   4.240  13.992 -0.7092 -0.0339 -0.6330
 4171SOL     OW24145   4.402   1.628   6.165  0.1328  0.4715  0.0560
 4171SOL    HW124146   4.334   1.568   6.133  0.7023  1.2229 -2.5226
 4171SOL    HW224147   4.483   1.601   6.122  0.1963 -0.7019  0.8971
 4172SOL     OW24148   3.600   2.501   7.826  0.1411 -0.4537 -0.0035
 4172SOL    HW124149   3.580   2.489   7.733 -0.3858 -0.4537  0.1085
 4172SOL    HW224150   3.535   2.442   7.864  2.1010 -1.9705  0.9938
 4173SOL     OW24151   2.445   3.291   2.225  0.3205 -0.3372  0.1062
 4173SOL    HW124152   2.535   3.323   2.224 -0.2089  1.1250  0.0311
 4173SOL    HW224153   2.418   3.348   2.153  0.7238 -3.9881 -2.9132
 4174SOL     OW24154   2.983   3.992   6.901 -0.4067 -0.1786  0.2151
 4174SOL    HW124155   3.021   4.076   6.927 -2.0793  0.7423 -0.3007
 4174SOL    HW224156   2.944   3.961   6.983 -1.0598  1.8256  0.6679
 4175SOL     OW24157   4.623   3.710   9.683  0.4586 -0.8646 -0.2360
 4175SOL    HW124158   4.580   3.635   9.724 -1.5836 -0.2837 -1.3235
 4175SOL    HW224159   4.572   3.718   9.602 -0.4772 -0.5221  0.3927
 4176SOL     OW24160   1.253   1.120   4.872  0.4711  0.0814 -0.4008
 4176SOL    HW124161   1.243   1.191   4.935  1.9532  1.4231 -1.6929
 4176SOL    HW224162   1.255   1.044   4.930  1.5692  1.0269  0.7932
 4177SOL     OW24163   4.666   0.442   8.252  0.6032 -0.3456 -0.3449
 4177SOL    HW124164   4.693   0.514   8.195  0.4319  0.0222  0.0419
 4177SOL    HW224165   0.011   0.441   8.305 -0.5582 -1.7069  1.3747
 4178SOL     OW24166   0.196   2.244   4.355  0.1887  0.0017 -0.0696
 4178SOL    HW124167   0.168   2.309   4.420  0.3932  1.0813 -1.0689
 4178SOL    HW224168   0.292   2.253   4.354  0.1578  0.5994  1.1192
 4179SOL     OW24169   0.123   0.320  12.018  0.7708 -0.1489  0.1487
 4179SOL    HW124170   0.066   0.339  12.092  0.5105 -1.8565  0.3896
 4179SOL    HW224171   0.180   0.395  12.034 -1.3309  1.2717  0.8363
 4180SOL     OW24172   4.417   4.324  14.769  0.5377 -0.1838 -0.3320
 4180SOL    HW124173   4.455   4.380  14.701 -0.8063 -1.6103 -2.2743
 4180SOL    HW224174   4.494   4.304  14.820  0.1686 -2.4056 -0.6630
 4181SOL     OW24175   1.075   0.858  11.363  0.5115 -0.6397  0.3613
 4181SOL    HW124176   1.022   0.888  11.289  1.3876  0.3667  0.1417
 4181SOL    HW224177   1.070   0.938  11.415  3.1133 -1.3372  1.6756
 4182SOL     OW24178   3.661   3.460   8.342 -0.1070  0.1211 -0.5245
 4182SOL    HW124179   3.655   3.498   8.254 -1.2234  0.9717 -0.0738
 4182SOL    HW224180   3.663   3.541   8.392 -1.2771  0.1539 -0.5224
 4183SOL     OW24181   1.428   4.362  16.053  0.2565 -0.3323  0.0222
 4183SOL    HW124182   1.427   4.454  16.079  2.5527 -0.3388  0.1995
 4183SOL    HW224183   1.337   4.362  16.023 -0.1037 -0.2563  1.1007
 4184SOL     OW24184   3.222   2.919   7.361 -0.4504 -0.5980  0.4473
 4184SOL    HW124185   3.191   3.005   7.390  0.0178 -0.0501 -0.6687
 4184SOL    HW224186   3.164   2.916   7.285  1.3949 -3.0787 -0.8414
 4185SOL     OW24187   1.603   4.229   4.864 -0.1566 -0.0836 -0.1071
 4185SOL    HW124188   1.661   4.243   4.789  0.9237 -0.1588  0.7151
 4185SOL    HW224189   1.661   4.217   4.939 -0.9868 -2.6256  0.1153
 4186SOL     OW24190   3.885   0.201   3.013 -0.5223 -0.3793 -0.8269
 4186SOL    HW124191   3.844   0.201   2.926 -0.6683 -4.1956 -0.7540
 4186SOL    HW224192   3.824   0.263   3.053 -0.5364 -0.3762 -0.8530
 4187SOL     OW24193   1.516   2.301   5.080  0.5132 -0.3425 -0.6859
 4187SOL    HW124194   1.464   2.288   5.001  3.2009 -0.9551 -2.3620
 4187SOL    HW224195   1.562   2.377   5.045 -1.0085  0.6289 -0.5773
 4188SOL     OW24196   2.411   2.052   7.798  0.1267  0.6999 -0.0858
 4188SOL    HW124197   2.505   2.058   7.817 -0.0357 -0.7812  1.1717
 4188SOL    HW224198   2.399   2.104   7.718  1.2872  1.7028  0.3856
 4189SOL     OW24199   1.921   0.492   5.833 -0.1521  0.0271  0.2477
 4189SOL    HW124200   1.851   0.545   5.869 -0.5799  0.6774 -1.5395
 4189SOL    HW224201   1.997   0.547   5.852 -0.7978  1.0525 -0.1657
 4190SOL     OW24202   1.854   3.554   9.235  0.3756 -0.1871  0.0855
 4190SOL    HW124203   1.852   3.476   9.291  0.2918 -0.4895 -0.3344
 4190SOL    HW224204   1.942   3.578   9.263  0.1940  0.7031 -0.0976
 4191SOL     OW24205   4.592   2.701   5.729  0.1673 -0.5278 -0.1837
 4191SOL    HW124206   4.558   2.791   5.727  0.2957 -0.4804 -0.2094
 4191SOL    HW224207   4.561   2.681   5.640 -2.2504  0.0757  0.5169
 4192SOL     OW24208   4.348   0.981   0.183  0.2124  0.0265  0.2912
 4192SOL    HW124209   4.266   1.025   0.160 -0.5130 -1.7253 -0.5490
 4192SOL    HW224210   4.322   0.902   0.231  0.2471 -1.4041 -2.0162
 4193SOL     OW24211   0.290   2.671   3.256 -0.5417 -0.0764 -0.0728
 4193SOL    HW124212   0.240   2.598   3.294  0.4766 -1.4133 -1.2897
 4193SOL    HW224213   0.368   2.631   3.218 -0.9689 -1.0636  0.0755
 4194SOL     OW24214   2.238   1.361   7.070  0.2295  0.7513 -0.1031
 4194SOL    HW124215   2.313   1.383   7.015  1.3143  1.2166  1.5569
 4194SOL    HW224216   2.258   1.270   7.090  1.2365  1.2199  1.0677
 4195SOL     OW24217   2.649   1.287   6.949  0.0035 -0.5976  0.4007
 4195SOL    HW124218   2.710   1.229   6.996 -0.9101 -0.1012  2.1872
 4195SOL    HW224219   2.615   1.226   6.883  0.0028 -2.7306  2.3771
 4196SOL     OW24220   2.176   4.551   7.618  0.0123 -0.0881  0.0454
 4196SOL    HW124221   2.233   4.487   7.578  0.1714  0.2380 -0.2536
 4196SOL    HW224222   2.087   4.522   7.596  1.1486 -1.8890 -2.0757
 4197SOL     OW24223   4.390   1.026   4.330 -0.0104 -0.3952  0.4047
 4197SOL    HW124224   4.348   0.945   4.301 -1.6041  1.5682 -2.7046
 4197SOL    HW224225   4.437   0.999   4.409  0.7302  0.3697  0.2267
 4198SOL     OW24226   2.089   3.976   7.019 -0.0892  0.3557 -0.7577
 4198SOL    HW124227   2.118   4.007   7.104  0.4139 -2.0620 -0.0479
 4198SOL    HW224228   2.113   3.884   7.009  1.5070  0.8820 -1.7987
 4199SOL     OW24229   3.243   3.646   4.389 -0.0911 -0.3496  0.5184
 4199SOL    HW124230   3.152   3.634   4.417  0.0378 -2.0253  0.1931
 4199SOL    HW224231   3.273   3.698   4.464 -1.4078 -0.0568  0.8500
 4200SOL     OW24232   3.699   3.933  13.768 -0.5049 -0.0393 -0.0499
 4200SOL    HW124233   3.609   3.953  13.745  0.0218 -1.2737 -3.1313
 4200SOL    HW224234   3.709   3.975  13.854  1.8153  1.2155 -0.9078
 4201SOL     OW24235   1.756   4.444   4.548  0.8082 -0.8705 -0.3206
 4201SOL    HW124236   1.790   4.511   4.489 -0.8471 -1.1915 -1.6342
 4201SOL    HW224237   1.759   4.494   4.629 -1.6952  0.6043 -1.1428
 4202SOL     OW24238   0.775   2.006   4.428  0.3694 -0.5972 -0.2808
 4202SOL    HW124239   0.845   2.022   4.491 -1.0782  1.7136  0.7555
 4202SOL    HW224240   0.821   2.035   4.350  0.2687  1.6605  0.4891
 4203SOL     OW24241   1.790   0.580   1.089  0.2816  0.3792 -0.3403
 4203SOL    HW124242   1.858   0.622   1.036 -1.8455  0.6967 -2.8215
 4203SOL    HW224243   1.741   0.659   1.112 -0.3142 -0.0455 -0.1354
 4204SOL     OW24244   3.589   4.497  15.364 -0.0805  0.2566  0.3940
 4204SOL    HW124245   3.562   4.425  15.421  0.0243 -0.1018 -0.0051
 4204SOL    HW224246   3.537   4.478  15.286 -0.9315  0.9645  0.7933
 4205SOL     OW24247   4.361   1.450  12.359  0.0121  0.2927 -0.4377
 4205SOL    HW124248   4.452   1.421  12.362 -0.3694 -0.8346  0.6259
 4205SOL    HW224249   4.352   1.420  12.269  0.4122  2.3022 -1.1347
 4206SOL     OW24250   3.989   2.699   6.763 -0.0536 -0.4882  0.3680
 4206SOL    HW124251   4.029   2.644   6.696  1.9924  1.2928  0.1207
 4206SOL    HW224252   3.987   2.786   6.721  0.7404 -0.0500  1.2410
 4207SOL     OW24253   1.128   0.272   3.232  0.0248 -0.2466  0.2943
 4207SOL    HW124254   1.125   0.318   3.315 -0.0253  0.3534 -0.0395
 4207SOL    HW224255   1.209   0.222   3.240  0.6592  0.4251 -1.7647
 4208SOL     OW24256   0.625   4.210   1.762 -0.1880 -0.4185 -0.0564
 4208SOL    HW124257   0.611   4.215   1.857 -0.7389 -1.8501 -0.0498
 4208SOL    HW224258   0.590   4.291   1.726 -0.4664 -1.3149 -1.8008
 4209SOL     OW24259   0.209   1.438   8.633 -0.1766  0.0509 -0.3381
 4209SOL    HW124260   0.131   1.489   8.611 -0.9269 -0.6382  0.7310
 4209SOL    HW224261   0.251   1.508   8.682 -0.2233  0.7198 -1.2442
 4210SOL     OW24262   0.495   0.990   7.535  0.1465  0.2370  0.0964
 4210SOL    HW124263   0.433   0.996   7.462  1.8289  0.1898 -1.3529
 4210SOL    HW224264   0.551   0.918   7.504  0.4652  1.5419 -2.3732
 4211SOL     OW24265   1.002   0.625   7.118  0.1998 -0.3472 -0.7895
 4211SOL    HW124266   0.910   0.622   7.144  0.7789 -0.3657  1.2805
 4211SOL    HW224267   1.045   0.628   7.203 -0.2965  0.6375 -0.5750
 4212SOL     OW24268   0.007   0.245   5.131 -0.3469 -0.1184  0.1170
 4212SOL    HW124269   0.076   0.293   5.177 -1.1436 -0.2637  1.4689
 4212SOL    HW224270   0.032   0.255   5.039  0.1951  2.1795  0.5144
 4213SOL     OW24271   2.676   1.396   8.809 -0.1897  0.4780  0.1176
 4213SOL    HW124272   2.679   1.336   8.884 -0.0111  1.2475  0.7279
 4213SOL    HW224273   2.619   1.468   8.837 -2.3516 -1.2612  0.1619
 4214SOL     OW24274   1.393   1.209   1.206  0.8319  0.1205  0.2483
 4214SOL    HW124275   1.377   1.246   1.119 -0.3545 -0.2156  0.3281
 4214SOL    HW224276   1.306   1.222   1.243  0.8563  0.9281  0.0269
 4215SOL     OW24277   0.583   1.695   1.359 -0.0184 -0.3686 -0.2535
 4215SOL    HW124278   0.541   1.755   1.297 -1.0316 -1.1880 -0.3556
 4215SOL    HW224279   0.636   1.661   1.287  1.9671 -0.5119  1.2882
 4216SOL     OW24280   3.080   1.861  12.587 -0.9569  0.4701  0.4240
 4216SOL    HW124281   3.001   1.813  12.613 -1.4520  0.8446 -0.3717
 4216SOL    HW224282   3.052   1.920  12.517 -0.1945  2.4145  1.7370
 4217SOL     OW24283   3.330   4.184   2.654  0.2568  0.1390  0.3723
 4217SOL    HW124284   3.285   4.159   2.573  1.8470 -1.3922 -0.0591
 4217SOL    HW224285   3.359   4.100   2.691  1.4846  0.2502 -0.3315
 4218SOL     OW24286   0.827   2.760  12.906  0.5084 -0.7220 -0.8130
 4218SOL    HW124287   0.748   2.814  12.905  0.8422 -0.2038  0.0694
 4218SOL    HW224288   0.887   2.823  12.947 -0.2412 -0.8693  0.4915
 4219SOL     OW24289   0.473   2.606  12.308  0.2836 -0.4407  0.2004
 4219SOL    HW124290   0.521   2.533  12.346 -0.1599 -0.6276  0.4088
 4219SOL    HW224291   0.417   2.565  12.243  0.7438 -1.1911  0.2864
 4220SOL     OW24292   3.214   1.835   0.574 -0.2557  0.0242  0.0247
 4220SOL    HW124293   3.132   1.847   0.623 -0.9359  1.9107 -1.5285
 4220SOL    HW224294   3.189   1.822   0.482 -0.7959  2.3218 -0.1722
 4221SOL     OW24295   0.457   3.990   9.056 -0.3464  0.5274  0.1223
 4221SOL    HW124296   0.425   4.065   9.005  0.0504  0.4186 -0.2916
 4221SOL    HW224297   0.464   4.023   9.145 -0.8980  1.5014 -0.2019
 4222SOL     OW24298   2.346   2.254   6.176  0.3178  0.0261  0.2187
 4222SOL    HW124299   2.398   2.248   6.096 -0.1987 -0.4655 -0.0793
 4222SOL    HW224300   2.347   2.350   6.182  0.0898  0.0122  0.5254
 4223SOL     OW24301   4.350   3.757   3.291  0.2665 -0.3672 -0.3267
 4223SOL    HW124302   4.265   3.787   3.324  0.9514  1.4325 -0.1621
 4223SOL    HW224303   4.338   3.664   3.275  2.2553 -0.6758 -0.0068
 4224SOL     OW24304   2.135   3.137  15.332  0.1124 -0.0081 -0.1459
 4224SOL    HW124305   2.153   3.072  15.400  0.1596 -0.5418 -0.6644
 4224SOL    HW224306   2.169   3.221  15.361 -0.3963 -0.2852  1.2440
 4225SOL     OW24307   2.192   0.287  17.269 -0.1336  0.1890 -0.2985
 4225SOL    HW124308   2.129   0.249  17.208 -1.0224  0.2892  0.5546
 4225SOL    HW224309   2.273   0.260  17.225 -0.6867 -1.1016 -0.5232
 4226SOL     OW24310   3.272   4.436  15.365  0.1038  0.0139 -0.1786
 4226SOL    HW124311   3.228   4.513  15.329  0.5698 -0.6588 -2.1702
 4226SOL    HW224312   3.247   4.372  15.299 -0.6310  0.8719 -0.7274
 4227SOL     OW24313   0.407   1.844   7.242 -0.6764 -0.2273  0.3142
 4227SOL    HW124314   0.342   1.886   7.185  0.1788  1.6632  0.7197
 4227SOL    HW224315   0.473   1.909   7.266  1.1297 -1.6212 -0.8642
 4228SOL     OW24316   1.922   3.531   5.402  0.3354  0.1365  0.1289
 4228SOL    HW124317   2.004   3.538   5.450  0.6344 -0.6670 -0.2506
 4228SOL    HW224318   1.923   3.621   5.368  3.1842  0.0711  0.0112
 4229SOL     OW24319   1.224   2.350   5.815  0.4740 -0.5802  0.5802
 4229SOL    HW124320   1.129   2.346   5.806  0.0406  0.7565  4.1673
 4229SOL    HW224321   1.251   2.421   5.756  0.4069 -0.6318  0.4889
 4230SOL     OW24322   1.767   1.838   8.059 -0.2861 -0.5829  0.3247
 4230SOL    HW124323   1.841   1.851   7.999 -2.7786  2.2122 -2.2092
 4230SOL    HW224324   1.764   1.743   8.055  0.0421 -0.4644 -2.6365
 4231SOL     OW24325   1.334   0.672   4.461  0.0789 -0.2152 -0.0340
 4231SOL    HW124326   1.314   0.711   4.376  1.5282  0.7062  0.0559
 4231SOL    HW224327   1.256   0.641   4.507 -0.3094 -0.3135 -0.7588
 4232SOL     OW24328   0.022   0.391   6.627  0.4440  0.2500 -0.3763
 4232SOL    HW124329   0.018   0.483   6.653  1.5851  0.4486 -0.8790
 4232SOL    HW224330   4.669   0.377   6.591  0.0992 -2.6353  1.6018
 4233SOL     OW24331   1.205   1.571   2.354  1.0043 -0.0348  0.0466
 4233SOL    HW124332   1.162   1.643   2.400 -2.4951 -0.6205 -2.2339
 4233SOL    HW224333   1.154   1.496   2.383  1.5097  0.4143  2.0564
 4234SOL     OW24334   1.191   2.303  10.062  0.2810 -0.4452 -0.1975
 4234SOL    HW124335   1.239   2.291   9.980  0.2723 -2.3826  0.0950
 4234SOL    HW224336   1.102   2.319  10.029  0.9210  0.3536 -1.5491
 4235SOL     OW24337   0.217   2.945   7.857 -0.0222  0.2435  0.1813
 4235SOL    HW124338   0.211   2.873   7.920 -3.3065 -1.7269 -2.3914
 4235SOL    HW224339   0.310   2.952   7.834 -0.0884 -0.7192 -0.3822
 4236SOL     OW24340   0.318   3.132  11.399 -0.2391 -0.4654 -0.9110
 4236SOL    HW124341   0.363   3.069  11.454 -1.3143 -0.4647 -0.0325
 4236SOL    HW224342   0.254   3.169  11.459 -1.5455 -1.7156 -1.5446
 4237SOL     OW24343   1.000   3.116   2.275  0.1721  0.0784  0.0172
 4237SOL    HW124344   1.081   3.102   2.325 -0.3864 -2.0724  0.2750
 4237SOL    HW224345   0.934   3.067   2.324 -3.4491  0.8128 -4.2274
 4238SOL     OW24346   0.041   4.325   6.214  1.0392 -0.3984  0.9574
 4238SOL    HW124347   4.696   4.361   6.252 -0.4744 -0.8032 -1.7980
 4238SOL    HW224348   0.107   4.394   6.227  0.0248  0.5367  1.1590
 4239SOL     OW24349   0.731   3.122   7.027  0.2627  0.3529  0.4205
 4239SOL    HW124350   0.799   3.088   6.968  1.0989  1.8009  0.5317
 4239SOL    HW224351   0.653   3.096   6.978 -0.8265 -0.3367  2.5427
 4240SOL     OW24352   2.817   4.468   4.021  0.2131  0.2347 -0.1001
 4240SOL    HW124353   2.865   4.386   4.008  0.7567  0.2167  1.9489
 4240SOL    HW224354   2.882   4.532   4.051 -0.8353  1.3246 -0.1768
 4241SOL     OW24355   2.801   3.165   8.732 -0.3298 -0.2209  0.2164
 4241SOL    HW124356   2.834   3.114   8.658 -0.7979 -1.4500  0.8502
 4241SOL    HW224357   2.742   3.105   8.777 -0.3706  0.4317  1.0392
 4242SOL     OW24358   0.642   2.413  11.127  0.7274 -0.3966 -0.4745
 4242SOL    HW124359   0.624   2.416  11.033 -0.2162 -0.4643 -0.2912
 4242SOL    HW224360   0.678   2.325  11.135  1.5915 -0.1900 -2.0297
 4243SOL     OW24361   1.206   1.879   8.305 -0.0474  0.3708  0.3992
 4243SOL    HW124362   1.226   1.787   8.319  0.2255 -0.2659 -4.2090
 4243SOL    HW224363   1.292   1.917   8.286 -0.0929 -0.1681 -0.9119
 4244SOL     OW24364   3.705   1.640   0.658  0.2321  0.3653  0.3740
 4244SOL    HW124365   3.650   1.609   0.731  0.7109 -1.4568 -0.0242
 4244SOL    HW224366   3.629   1.662   0.605  1.4072  1.2631 -0.9271
 4245SOL     OW24367   3.913   2.609   5.112 -0.3694 -0.2732 -0.9126
 4245SOL    HW124368   3.896   2.564   5.194 -2.0895 -1.3753 -1.8873
 4245SOL    HW224369   3.990   2.654   5.148 -0.5706 -0.7509  0.1128
 4246SOL     OW24370   2.665   0.227   7.069  0.3015  0.0740 -0.2146
 4246SOL    HW124371   2.583   0.254   7.028 -0.2103  0.4005  1.0225
 4246SOL    HW224372   2.668   0.259   7.159  1.3308  0.3405 -0.3454
 4247SOL     OW24373   2.238   4.641  11.948 -0.2327  0.3275  0.0238
 4247SOL    HW124374   2.228   4.583  12.024  2.2726 -2.4693 -1.7607
 4247SOL    HW224375   2.166   4.604  11.897  0.9305 -0.8977 -0.7362
 4248SOL     OW24376   1.392   3.842   5.496  0.3929 -0.1207  0.0745
 4248SOL    HW124377   1.440   3.763   5.520  0.3163  0.1922  1.2292
 4248SOL    HW224378   1.303   3.817   5.523  1.1177  0.1364  2.6829
 4249SOL     OW24379   3.018   4.550   7.562  0.0631  0.5737 -0.3819
 4249SOL    HW124380   3.102   4.523   7.525 -0.0105 -0.4898  0.2044
 4249SOL    HW224381   3.008   4.493   7.638 -0.0123  0.4362 -0.4959
 4250SOL     OW24382   1.290   3.584   2.557  0.3425  0.0860 -0.0215
 4250SOL    HW124383   1.261   3.498   2.528 -0.0596  0.9007 -2.0211
 4250SOL    HW224384   1.318   3.570   2.648  1.2764  0.1729 -0.2989
 4251SOL     OW24385   2.469   1.790   7.457 -0.5161  0.4988 -0.0403
 4251SOL    HW124386   2.531   1.802   7.529 -0.5133  1.8725 -0.2752
 4251SOL    HW224387   2.395   1.753   7.505  0.5669  0.1955  1.3667
 4252SOL     OW24388   1.470   2.628   7.355  0.0446  0.2864 -0.3137
 4252SOL    HW124389   1.513   2.542   7.363  2.4981  1.3757 -2.0060
 4252SOL    HW224390   1.508   2.668   7.278  1.3768 -2.3633 -1.0195
 4253SOL     OW24391   0.979   1.231   7.520  0.5046 -0.2143 -0.5032
 4253SOL    HW124392   0.968   1.325   7.533  2.3639 -0.6771  4.5241
 4253SOL    HW224393   0.884   1.217   7.522  0.5803 -0.5458  0.9375
 4254SOL     OW24394   2.051   3.870  16.717  0.8619  0.2861  0.0901
 4254SOL    HW124395   2.012   3.865  16.804  1.5427 -1.3707  0.2893
 4254SOL    HW224396   2.112   3.796  16.717  0.5792  0.0502 -0.5609
 4255SOL     OW24397   4.243   4.319   2.407  0.3232 -0.1899 -0.0110
 4255SOL    HW124398   4.328   4.307   2.364  1.3109  3.8110  0.8668
 4255SOL    HW224399   4.254   4.270   2.489  0.4958 -0.7251 -0.3561
 4256SOL     OW24400   2.003   4.242   4.894  0.3753 -0.4248  0.6006
 4256SOL    HW124401   1.929   4.229   4.952 -0.5443  1.3834 -0.1676
 4256SOL    HW224402   2.024   4.153   4.868 -1.0257 -0.1291 -1.5544
 4257SOL     OW24403   3.151   0.758  11.638 -0.3955 -0.0057  0.0234
 4257SOL    HW124404   3.205   0.684  11.608 -1.2537 -1.0917  1.1532
 4257SOL    HW224405   3.212   0.818  11.681  0.8535  0.3088 -2.2042
 4258SOL     OW24406   2.936   0.183   5.593  0.1543 -0.0865 -0.0810
 4258SOL    HW124407   2.949   0.266   5.639 -1.3651  0.0670  0.0629
 4258SOL    HW224408   2.850   0.150   5.617 -0.2873  1.2182  0.1339
 4259SOL     OW24409   3.963   4.448  15.916  0.4905  0.1189 -0.5553
 4259SOL    HW124410   4.014   4.385  15.966  1.2209  0.8124 -0.4278
 4259SOL    HW224411   4.000   4.453  15.828 -1.3656  2.0187 -1.2299
 4260SOL     OW24412   1.924   3.739   2.997 -0.0557 -0.2627  0.5337
 4260SOL    HW124413   1.956   3.743   2.907  0.6444  1.4069  0.8468
 4260SOL    HW224414   1.898   3.651   3.023 -1.1681  0.0665  0.5330
 4261SOL     OW24415   3.865   3.387  17.087  0.6414  0.3154  0.6573
 4261SOL    HW124416   3.776   3.414  17.113  0.0573 -0.8719 -0.1530
 4261SOL    HW224417   3.923   3.461  17.108  0.7325 -0.2442  2.3502
 4262SOL     OW24418   2.251   0.099   0.272 -0.5388 -0.5574  0.1829
 4262SOL    HW124419   2.330   0.151   0.261  0.7323 -2.5108 -0.0152
 4262SOL    HW224420   2.193   0.173   0.289 -1.2648 -0.6304 -2.0417
 4263SOL     OW24421   3.676   4.444   2.635 -0.4278 -0.0346 -0.3084
 4263SOL    HW124422   3.701   4.361   2.595  0.4100 -0.3291  0.8258
 4263SOL    HW224423   3.631   4.426   2.718  0.9834 -2.9010 -0.1592
 4264SOL     OW24424   4.103   1.973  10.454 -0.1117  0.6795  0.1204
 4264SOL    HW124425   4.046   1.925  10.394  0.8943 -1.2131  0.6737
 4264SOL    HW224426   4.061   1.936  10.532 -0.7094  0.1189 -0.4648
 4265SOL     OW24427   0.839   2.798   8.091 -0.0361  0.0852  0.0823
 4265SOL    HW124428   0.750   2.763   8.080 -0.4229  0.3998  2.2209
 4265SOL    HW224429   0.883   2.723   8.051  0.1473 -0.3854  1.1578
 4266SOL     OW24430   2.694   0.756   3.244  0.0162 -0.1019 -0.3154
 4266SOL    HW124431   2.761   0.789   3.304 -1.5881 -0.7933  1.8709
 4266SOL    HW224432   2.669   0.685   3.304  0.0379 -0.2392 -0.4703
 4267SOL     OW24433   0.320   1.066   7.030  0.2252  0.5556 -0.0988
 4267SOL    HW124434   0.370   0.992   7.065 -1.4320  0.4358  2.0389
 4267SOL    HW224435   0.240   1.044   7.078  0.6449  0.1545  0.4122
 4268SOL     OW24436   1.508   2.626   3.757 -0.4313  0.6745  0.6331
 4268SOL    HW124437   1.517   2.716   3.725 -0.6379 -0.0852 -1.5402
 4268SOL    HW224438   1.597   2.594   3.765  0.5149  2.6780 -1.6728
 4269SOL     OW24439   0.259   3.102  10.013  0.9857 -0.1031  0.1166
 4269SOL    HW124440   0.351   3.077  10.003  1.1276  0.4595  0.0215
 4269SOL    HW224441   0.257   3.192  10.044  1.8496 -0.3427  0.8558
 4270SOL     OW24442   3.632   0.375  15.289 -0.0083  0.8762 -0.3512
 4270SOL    HW124443   3.548   0.421  15.289  1.3728  3.3972 -2.4829
 4270SOL    HW224444   3.641   0.384  15.194  0.5858 -0.6946 -0.4524
 4271SOL     OW24445   1.601   0.644   2.770 -0.4968  0.0719  0.1298
 4271SOL    HW124446   1.511   0.676   2.763 -0.5722 -0.3353 -0.7864
 4271SOL    HW224447   1.646   0.723   2.740 -1.3234  0.7297  0.6400
 4272SOL     OW24448   0.513   3.385   3.561 -0.4367 -0.5136  0.2591
 4272SOL    HW124449   0.567   3.383   3.482  0.6225  0.5862  0.9641
 4272SOL    HW224450   0.455   3.310   3.541 -0.5533 -0.9530  2.2215
 4273SOL     OW24451   4.347   1.142   3.498  0.3652 -0.3212  0.0930
 4273SOL    HW124452   4.414   1.149   3.565  0.6013 -0.2100 -0.1557
 4273SOL    HW224453   4.342   1.046   3.490 -0.6900 -0.1726 -1.1776
 4274SOL     OW24454   1.181   2.685   9.839 -0.0205  0.2181 -0.2469
 4274SOL    HW124455   1.100   2.661   9.885  1.1215 -1.9960  0.6107
 4274SOL    HW224456   1.148   2.764   9.796 -0.7977 -0.1102 -0.2574
 4275SOL     OW24457   4.168   2.639   4.540  0.2653 -0.4214  0.3622
 4275SOL    HW124458   4.198   2.605   4.624  0.4038 -0.4546  0.2996
 4275SOL    HW224459   4.109   2.565   4.524  1.3954 -0.7886 -2.1686
 4276SOL     OW24460   4.715   1.756   8.226  0.3379 -0.3380  0.4793
 4276SOL    HW124461   4.622   1.764   8.248  0.0796  1.0615 -1.1092
 4276SOL    HW224462   4.723   1.715   8.140  1.1113  1.3984 -0.2836
 4277SOL     OW24463   2.708   1.837   4.872  0.1120 -0.0096  0.3737
 4277SOL    HW124464   2.689   1.866   4.782 -2.7342 -0.7889  0.7156
 4277SOL    HW224465   2.638   1.878   4.923  0.8384  1.9912 -0.2330
 4278SOL     OW24466   1.500   2.335   5.386  0.3009  0.6980  0.7177
 4278SOL    HW124467   1.508   2.347   5.291 -1.5615 -2.0045  0.2232
 4278SOL    HW224468   1.567   2.394   5.422 -0.3816  0.8119  1.8113
 4279SOL     OW24469   4.427   1.012   7.958 -0.3386 -0.3579 -0.1599
 4279SOL    HW124470   4.439   1.057   7.875 -1.7718 -3.2095 -1.9254
 4279SOL    HW224471   4.332   1.000   7.971 -0.4240  0.4756  0.0237
 4280SOL     OW24472   1.531   3.124   6.463 -0.1908  0.3682 -0.0473
 4280SOL    HW124473   1.513   3.074   6.543 -0.9981  0.0748 -0.4027
 4280SOL    HW224474   1.574   3.058   6.408 -0.6188 -1.1407  1.4196
 4281SOL     OW24475   1.454   3.255  10.903  0.1398  0.4841 -0.5511
 4281SOL    HW124476   1.372   3.212  10.926  1.4463 -1.7343 -0.0470
 4281SOL    HW224477   1.520   3.212  10.958  1.6638  1.4866 -1.5785
 4282SOL     OW24478   2.030   1.497  10.966  0.6435 -0.1690 -0.1979
 4282SOL    HW124479   2.034   1.567  11.031 -0.2770  1.7532 -2.2136
 4282SOL    HW224480   2.119   1.462  10.970  0.9792  0.5791 -1.2069
 4283SOL     OW24481   1.083   2.489  16.530 -0.1590  0.1388 -0.6466
 4283SOL    HW124482   1.165   2.441  16.514  0.5370  1.0689  0.1442
 4283SOL    HW224483   1.096   2.576  16.494  0.8444  0.7910  1.3245
 4284SOL     OW24484   3.917   0.288   7.458 -0.2179 -0.9483 -0.9300
 4284SOL    HW124485   3.943   0.309   7.548 -0.1768 -1.5983 -0.7855
 4284SOL    HW224486   3.845   0.227   7.475 -0.8077  0.0470  0.1030
 4285SOL     OW24487   4.151   2.498   2.964  0.2361  0.1354 -0.2652
 4285SOL    HW124488   4.128   2.406   2.980  1.1987  0.1513  1.2845
 4285SOL    HW224489   4.228   2.525   3.015 -0.2890  0.4431  0.3770
 4286SOL     OW24490   4.300   3.623  11.087 -0.1381  0.0381 -0.6325
 4286SOL    HW124491   4.248   3.613  11.007 -0.4195  3.2163 -0.8644
 4286SOL    HW224492   4.265   3.551  11.140  0.6483 -0.0541 -0.2437
 4287SOL     OW24493   4.648   0.722   5.915  0.5832  0.0798 -0.4192
 4287SOL    HW124494   4.689   0.637   5.928 -0.5565 -0.3193  0.4784
 4287SOL    HW224495   4.712   0.776   5.963 -0.5696 -0.6974  1.9654
 4288SOL     OW24496   1.331   0.700   4.142  0.4915  0.4079 -0.2289
 4288SOL    HW124497   1.324   0.610   4.107  2.4989 -0.7292  2.3320
 4288SOL    HW224498   1.305   0.755   4.068  2.0372  1.6411  0.1558
 4289SOL     OW24499   4.399   3.083   5.032  0.1681 -0.4140  0.5688
 4289SOL    HW124500   4.344   3.154   5.066 -1.2310 -1.5670  0.7049
 4289SOL    HW224501   4.369   3.087   4.942  1.4442 -1.0248  0.1235
 4290SOL     OW24502   2.465   3.561   3.535 -0.1119  0.6943 -0.0792
 4290SOL    HW124503   2.424   3.499   3.474  2.2156 -0.6701 -0.2490
 4290SOL    HW224504   2.474   3.642   3.484 -1.4607  1.0245  0.2109
 4291SOL     OW24505   4.495   4.492   1.636  0.3240  0.4561  0.2849
 4291SOL    HW124506   4.530   4.580   1.652 -0.6846  0.6126  1.6304
 4291SOL    HW224507   4.406   4.509   1.606 -0.1230 -0.3957  1.1467
 4292SOL     OW24508   2.390   0.363   0.570 -0.1151 -1.0498  0.4401
 4292SOL    HW124509   2.356   0.282   0.607 -0.1682 -0.3969  1.8075
 4292SOL    HW224510   2.355   0.362   0.481 -0.9536 -2.8275  0.7875
 4293SOL     OW24511   3.964   4.028   5.437 -0.1780  0.3626 -0.2213
 4293SOL    HW124512   3.955   3.936   5.412 -1.3294  0.5189 -0.4004
 4293SOL    HW224513   3.882   4.028   5.486 -0.9935 -0.4923 -1.5817
 4294SOL     OW24514   0.130   0.268   2.676 -0.2049 -0.1226 -0.6396
 4294SOL    HW124515   0.105   0.324   2.602 -0.0261 -0.0101 -0.6153
 4294SOL    HW224516   0.225   0.282   2.679 -0.3737  0.1588  2.5802
 4295SOL     OW24517   3.432   4.693   9.329  0.2638  0.2669  0.1130
 4295SOL    HW124518   3.369   4.654   9.390  0.6968  2.0764  1.7065
 4295SOL    HW224519   3.380   4.689   9.249  0.5255  2.8237 -0.1817
 4296SOL     OW24520   3.824   1.196   3.023 -0.1332 -0.1914  0.0448
 4296SOL    HW124521   3.847   1.164   2.935 -1.3854 -1.0475  0.0335
 4296SOL    HW224522   3.729   1.207   3.018 -0.0478 -0.0923 -1.3757
 4297SOL     OW24523   4.274   3.658   2.186 -0.6063  0.2716 -0.3605
 4297SOL    HW124524   4.282   3.725   2.254  1.4090 -0.0522 -0.2832
 4297SOL    HW224525   4.256   3.713   2.110 -0.1446  1.2279  0.2103
 4298SOL     OW24526   0.225   1.111  15.201 -0.2561 -0.0921  0.3912
 4298SOL    HW124527   0.231   1.179  15.134  0.9126 -4.1567 -3.6842
 4298SOL    HW224528   0.307   1.120  15.250 -0.6760  1.8037  0.7175
 4299SOL     OW24529   2.887   1.256  17.488 -0.3730 -0.2185 -0.2864
 4299SOL    HW124530   2.864   1.334  17.437 -1.2926  0.2051  0.7794
 4299SOL    HW224531   2.947   1.214  17.427 -1.8238 -1.8812 -0.5601
 4300SOL     OW24532   2.381   1.532   8.549 -0.4127  0.0514 -1.0054
 4300SOL    HW124533   2.359   1.480   8.472 -0.5562  1.6474 -2.0479
 4300SOL    HW224534   2.476   1.538   8.542 -0.4128 -0.4618 -1.4306
 4301SOL     OW24535   3.506   4.148  16.869  0.5441  0.5278 -0.4773
 4301SOL    HW124536   3.449   4.194  16.930  0.3386 -0.7613  0.2894
 4301SOL    HW224537   3.507   4.059  16.901 -0.4614 -0.0534 -2.0389
 4302SOL     OW24538   0.271   3.428   6.416  0.3982  0.5148  0.5184
 4302SOL    HW124539   0.304   3.512   6.446 -1.7368  1.8270 -0.8210
 4302SOL    HW224540   0.234   3.459   6.333  0.3927 -1.3651 -0.1878
 4303SOL     OW24541   3.507   2.662   4.632 -0.3746 -0.3158  0.5495
 4303SOL    HW124542   3.466   2.662   4.718 -0.3438 -2.2504  0.5733
 4303SOL    HW224543   3.513   2.754   4.607 -1.7881 -0.6041 -0.9254
 4304SOL     OW24544   2.112   0.693   8.863  0.1110  0.1357 -0.4328
 4304SOL    HW124545   2.081   0.649   8.784 -1.2441  0.5923 -0.1463
 4304SOL    HW224546   2.049   0.656   8.924  0.1908  0.2500 -0.2815
 4305SOL     OW24547   0.131   3.201   4.607 -0.3265  0.1548 -0.0131
 4305SOL    HW124548   0.195   3.216   4.538 -0.7375  0.8473 -0.2431
 4305SOL    HW224549   0.053   3.186   4.553  0.3643 -0.5376 -0.8259
 4306SOL     OW24550   1.465   3.321   4.715  0.2066  0.1675 -0.4267
 4306SOL    HW124551   1.424   3.294   4.632  0.4835 -0.2043 -0.4415
 4306SOL    HW224552   1.535   3.261   4.737 -0.2036 -0.7092 -1.4912
 4307SOL     OW24553   0.203   2.997  10.253  0.0095  0.4986  0.1833
 4307SOL    HW124554   0.235   3.009  10.164  2.3708 -1.5442  0.7632
 4307SOL    HW224555   0.128   3.057  10.257  0.8630  1.4611  1.8417
 4308SOL     OW24556   3.389   0.348  11.850  0.7810  0.0942 -0.1861
 4308SOL    HW124557   3.384   0.360  11.755 -0.8207  0.2336 -0.0910
 4308SOL    HW224558   3.312   0.294  11.868  1.5878 -1.1449 -0.5413
 4309SOL     OW24559   4.247   4.283   1.526 -0.9302 -0.3977 -0.2973
 4309SOL    HW124560   4.292   4.245   1.602  0.8589 -0.6441 -1.4879
 4309SOL    HW224561   4.259   4.210   1.465 -0.5247  0.7509 -1.5643
 4310SOL     OW24562   3.222   2.845   8.744 -0.1364 -0.2532  0.0730
 4310SOL    HW124563   3.130   2.830   8.766  0.1788 -1.8828  0.3086
 4310SOL    HW224564   3.261   2.837   8.831  3.6522  3.2790 -1.2665
 4311SOL     OW24565   2.975   0.644   1.216 -0.0312  0.0499 -0.8772
 4311SOL    HW124566   2.930   0.722   1.184  1.2183  0.4898 -1.5682
 4311SOL    HW224567   2.919   0.579   1.173 -0.6659  1.3278 -1.9763
 4312SOL     OW24568   2.636   4.274  17.539 -0.5240 -0.5259  0.0828
 4312SOL    HW124569   2.571   4.317  17.484  1.4188  1.9562 -0.2617
 4312SOL    HW224570   2.664   4.346  17.595 -3.0190  1.2026 -0.9065
 4313SOL     OW24571   1.190   0.849  15.417 -0.1315 -0.3537  0.0138
 4313SOL    HW124572   1.213   0.868  15.508 -0.5955  0.7070 -0.0948
 4313SOL    HW224573   1.138   0.928  15.399  0.6039  0.0878 -0.2058
 4314SOL     OW24574   3.004   2.041   6.165 -0.1661  0.1274 -0.4205
 4314SOL    HW124575   2.923   2.002   6.196  0.9613 -1.5257  0.4638
 4314SOL    HW224576   2.979   2.060   6.075  0.5274  1.3410 -0.3584
 4315SOL     OW24577   3.054   0.298   8.473 -0.2232  0.1682  0.5140
 4315SOL    HW124578   3.092   0.307   8.386 -0.6426 -0.0627  0.3062
 4315SOL    HW224579   3.053   0.202   8.481 -0.6466  0.1267 -0.0107
 4316SOL     OW24580   0.903   3.511   9.279 -0.1296  0.0404 -0.3107
 4316SOL    HW124581   0.972   3.577   9.269  1.0197 -0.8413  1.8344
 4316SOL    HW224582   0.865   3.522   9.366  0.0045  0.3607 -0.2908
 4317SOL     OW24583   2.814   4.150   5.888 -0.5460 -0.5036 -0.6042
 4317SOL    HW124584   2.770   4.066   5.894  0.6817 -0.9725  1.7142
 4317SOL    HW224585   2.753   4.198   5.944  1.0498 -0.5109  1.1526
 4318SOL     OW24586   2.726   3.887   5.837  0.3192 -0.4085 -0.2686
 4318SOL    HW124587   2.642   3.856   5.871  1.1650  0.6983  2.7858
 4318SOL    HW224588   2.712   3.886   5.742  1.7912 -1.7323 -0.4729
 4319SOL     OW24589   4.541   0.432   2.370 -0.0050  0.2279 -0.7390
 4319SOL    HW124590   4.512   0.496   2.434  0.3645 -0.3111 -0.0332
 4319SOL    HW224591   4.626   0.405   2.405 -1.0631 -0.3302  1.4217
 4320SOL     OW24592   4.546   0.741   0.594  0.3025  0.6190  0.0511
 4320SOL    HW124593   4.551   0.684   0.671 -1.5977 -0.0323 -0.3054
 4320SOL    HW224594   4.596   0.682   0.537  1.7398 -1.7284  3.7680
 4321SOL     OW24595   0.898   4.467   7.969 -0.3578  0.0810 -0.0266
 4321SOL    HW124596   0.961   4.540   7.967 -0.2388 -0.0756 -2.0484
 4321SOL    HW224597   0.941   4.402   7.914 -0.7143  1.8156 -2.3442
 4322SOL     OW24598   2.997   1.252   5.195 -0.3350  0.1132  0.7346
 4322SOL    HW124599   2.919   1.301   5.219 -0.2916  0.6660 -0.2406
 4322SOL    HW224600   2.953   1.170   5.174 -3.9047  1.9352  1.2189
 4323SOL     OW24601   0.507   0.821   2.007 -0.3525  0.0314  0.2005
 4323SOL    HW124602   0.454   0.771   1.945 -1.7377  2.0395 -0.2406
 4323SOL    HW224603   0.561   0.862   1.941  0.2362 -0.1332  0.5805
 4324SOL     OW24604   2.469   0.898   0.591  0.1326 -0.1189 -0.0498
 4324SOL    HW124605   2.533   0.919   0.523 -0.7748 -0.0647 -0.8820
 4324SOL    HW224606   2.507   0.823   0.637 -0.1194  0.8029  1.6417
 4325SOL     OW24607   4.622   3.930   6.895 -0.4438  0.1972  0.0241
 4325SOL    HW124608   4.582   3.945   6.980 -0.1042 -2.0465  0.5695
 4325SOL    HW224609   4.710   3.901   6.918 -0.8824 -1.0137  0.1411
 4326SOL     OW24610   1.629   2.567   0.865  0.2545  0.7318  0.1622
 4326SOL    HW124611   1.723   2.579   0.878  0.6112 -1.4877 -0.3431
 4326SOL    HW224612   1.603   2.546   0.954 -1.9277 -1.8766 -1.0752
 4327SOL     OW24613   4.036   2.503   8.367  0.1166 -0.1725 -0.0287
 4327SOL    HW124614   3.994   2.511   8.282 -1.5255 -0.0487  0.7964
 4327SOL    HW224615   4.085   2.586   8.361 -1.5819  0.8682  0.4420
 4328SOL     OW24616   4.328   3.540   5.033  0.0213 -0.5475  0.8625
 4328SOL    HW124617   4.367   3.476   4.975 -2.3585  0.4269 -1.8078
 4328SOL    HW224618   4.321   3.495   5.117  2.9771 -0.1738  1.2978
 4329SOL     OW24619   3.482   4.356   4.239  0.3058 -0.1011  0.6152
 4329SOL    HW124620   3.493   4.286   4.175 -0.5244  1.2855 -1.0244
 4329SOL    HW224621   3.522   4.310   4.313  1.8397  0.1688 -0.0439
 4330SOL     OW24622   1.227   2.053   6.180 -0.4280  0.1938 -0.5968
 4330SOL    HW124623   1.237   2.019   6.092  1.8930  4.1381 -1.8477
 4330SOL    HW224624   1.285   1.994   6.229 -1.6733 -1.9725 -1.7317
 4331SOL     OW24625   0.420   2.132   5.531  0.5325  0.2265 -0.2654
 4331SOL    HW124626   0.354   2.067   5.509  1.2241  0.3104 -2.4988
 4331SOL    HW224627   0.476   2.085   5.593  0.1608  0.7395  0.4607
 4332SOL     OW24628   0.925   1.157   6.855 -0.1882 -0.2870  0.5668
 4332SOL    HW124629   1.000   1.158   6.796  0.0773  1.1227  0.9079
 4332SOL    HW224630   0.961   1.089   6.912  1.9547 -0.7451 -1.3184
 4333SOL     OW24631   3.806   0.092   1.872 -0.0655  0.3569 -0.2589
 4333SOL    HW124632   3.782   0.133   1.788 -2.5940  1.4604  1.0064
 4333SOL    HW224633   3.727   0.041   1.885 -0.4628  0.9217 -0.4401
 4334SOL     OW24634   3.830   1.845   5.629 -0.2973  0.8858  0.1739
 4334SOL    HW124635   3.879   1.854   5.547 -1.2220 -0.7243 -0.5410
 4334SOL    HW224636   3.770   1.775   5.604  1.1789 -1.0731  2.0701
 4335SOL     OW24637   1.047   4.487  15.362 -0.0939 -0.5570  0.9329
 4335SOL    HW124638   0.973   4.456  15.416  0.2314 -0.8459  1.2131
 4335SOL    HW224639   1.102   4.408  15.366  0.7575 -0.0518 -0.8690
 4336SOL     OW24640   0.921   3.098   6.821  0.5963  0.0726 -0.1820
 4336SOL    HW124641   0.930   3.141   6.736  1.6237  1.2332  0.5135
 4336SOL    HW224642   0.995   3.112   6.880  0.6606 -0.8839 -0.0458
 4337SOL     OW24643   0.992   3.068   4.994  0.1534  0.6439 -0.5839
 4337SOL    HW124644   0.917   3.101   5.043 -0.8328 -0.8263 -1.1002
 4337SOL    HW224645   0.958   3.068   4.904  0.2863 -0.9425 -0.6325
 4338SOL     OW24646   1.631   1.686   8.860  0.1050 -0.1198  0.5674
 4338SOL    HW124647   1.700   1.679   8.794  1.4886  0.2012  1.9541
 4338SOL    HW224648   1.658   1.758   8.917  2.8351  0.6201 -1.6556
 4339SOL     OW24649   4.271   3.868   0.482  0.3474 -0.3477 -0.1404
 4339SOL    HW124650   4.364   3.856   0.462  0.5981  1.2047  0.0421
 4339SOL    HW224651   4.270   3.961   0.507  0.4529 -0.5823  0.7595
 4340SOL     OW24652   4.226   3.949   2.126 -0.0129 -0.0953  0.7760
 4340SOL    HW124653   4.277   3.992   2.058 -0.0055 -2.9002 -1.0228
 4340SOL    HW224654   4.280   3.970   2.201  1.8816 -0.8697 -0.3712
 4341SOL     OW24655   4.141   0.973   7.894  0.6459  0.4236  0.4858
 4341SOL    HW124656   4.186   1.020   7.823  0.3647  0.8358  0.5822
 4341SOL    HW224657   4.058   0.977   7.846  1.8073  5.2887 -1.1206
 4342SOL     OW24658   0.310   3.375   8.018 -0.1672  0.1258  0.0639
 4342SOL    HW124659   0.243   3.334   7.963 -0.9914 -0.7441  1.7141
 4342SOL    HW224660   0.369   3.299   8.018 -1.3729 -0.7961 -1.2293
 4343SOL     OW24661   0.528   1.169   2.727 -0.4367 -0.2184  0.0197
 4343SOL    HW124662   0.438   1.158   2.697 -0.5717  0.0316  0.3298
 4343SOL    HW224663   0.567   1.083   2.714 -1.7673 -1.0306  1.3707
 4344SOL     OW24664   4.610   2.366   1.156 -0.3286  0.2598  0.4133
 4344SOL    HW124665   4.572   2.325   1.078  1.8244 -0.5501 -0.2327
 4344SOL    HW224666   4.635   2.454   1.128  1.2935  0.0768  1.2967
 4345SOL     OW24667   2.371   3.077  17.485  0.3037  0.3081  0.5549
 4345SOL    HW124668   2.335   3.141  17.547  0.6354  0.2870  0.7672
 4345SOL    HW224669   2.464   3.093  17.499  0.5779  0.9329 -1.9088
 4346SOL     OW24670   2.175   0.313   9.253 -0.5663 -0.4293  0.3283
 4346SOL    HW124671   2.248   0.360   9.213  0.3944 -1.0657  1.3265
 4346SOL    HW224672   2.140   0.376   9.316 -3.0475 -1.7462  0.2413
 4347SOL     OW24673   3.414   2.126  14.591  0.8048 -0.1844  0.4033
 4347SOL    HW124674   3.362   2.076  14.655  0.8328 -0.5015  0.1773
 4347SOL    HW224675   3.365   2.208  14.588 -0.7186 -1.1434 -0.8668
 4348SOL     OW24676   1.386   3.488   6.376  0.3442 -0.4236 -0.6278
 4348SOL    HW124677   1.446   3.540   6.429 -0.0057 -1.1991  0.5301
 4348SOL    HW224678   1.443   3.497   6.300  0.4644  1.2985 -0.3298
 4349SOL     OW24679   2.829   0.308   0.608  0.7067 -0.1148 -0.6919
 4349SOL    HW124680   2.810   0.381   0.550  2.4938  0.7041 -0.2282
 4349SOL    HW224681   2.825   0.352   0.693 -0.6411  0.6252 -1.1318
 4350SOL     OW24682   2.696   0.325   5.877 -0.1288 -0.1546 -0.3819
 4350SOL    HW124683   2.691   0.319   5.972 -1.7698  2.8328 -0.2644
 4350SOL    HW224684   2.688   0.233   5.854  1.5866 -0.0459 -1.3614
 4351SOL     OW24685   2.504   1.298   5.248 -0.6239  0.0437  0.5095
 4351SOL    HW124686   2.527   1.279   5.339 -2.8005 -3.8555  0.2738
 4351SOL    HW224687   2.414   1.265   5.243 -0.1003 -1.6443  2.1718
 4352SOL     OW24688   0.793   1.429   8.749 -0.7678  0.4735  0.3840
 4352SOL    HW124689   0.835   1.510   8.722 -0.2317  0.1185  0.1400
 4352SOL    HW224690   0.840   1.391   8.823 -0.3997  0.1571 -0.0134
 4353SOL     OW24691   1.329   2.391   2.025  0.1810  0.5117  0.1111
 4353SOL    HW124692   1.314   2.433   1.940 -3.0340  0.5838  0.7188
 4353SOL    HW224693   1.340   2.297   2.008 -0.1226  0.5158 -0.1251
 4354SOL     OW24694   2.494   1.783   3.095 -0.0079 -0.0633  0.0710
 4354SOL    HW124695   2.417   1.742   3.055 -0.8618 -0.1655  1.8228
 4354SOL    HW224696   2.553   1.777   3.020  0.3951 -1.3392  0.4926
 4355SOL     OW24697   3.793   1.469   3.702  0.4278 -0.0799 -0.0540
 4355SOL    HW124698   3.870   1.508   3.743  1.5225 -1.5440 -0.7093
 4355SOL    HW224699   3.720   1.507   3.751  1.3754  3.3617 -1.3226
 4356SOL     OW24700   2.894   2.370   6.020  0.2694  0.7557 -0.1920
 4356SOL    HW124701   2.979   2.356   6.061 -1.2402  3.5948  3.8553
 4356SOL    HW224702   2.882   2.286   5.974  2.0645 -0.1183  0.9508
 4357SOL     OW24703   3.971   3.892   2.080  0.3201 -0.2713 -0.0740
 4357SOL    HW124704   4.064   3.912   2.072 -0.0342  1.3703  0.0333
 4357SOL    HW224705   3.950   3.985   2.077 -1.4357 -0.6745 -0.2231
 4358SOL     OW24706   4.082   3.290   8.372  0.2291 -0.4662  0.3094
 4358SOL    HW124707   4.164   3.242   8.365  0.4292  0.0145 -0.5980
 4358SOL    HW224708   4.070   3.303   8.467  1.9494  0.8641  0.3385
 4359SOL     OW24709   3.964   1.461   6.538  0.0252 -0.3455 -0.0855
 4359SOL    HW124710   3.955   1.555   6.553 -2.3560 -0.8609  1.5818
 4359SOL    HW224711   4.022   1.452   6.462 -2.6101 -0.7342 -2.0409
 4360SOL     OW24712   2.235   2.911  17.343 -0.1431  0.0518 -0.4705
 4360SOL    HW124713   2.182   2.885  17.418  1.1078 -1.2737 -0.0347
 4360SOL    HW224714   2.299   2.966  17.387 -0.1950  0.8014 -1.3314
 4361SOL     OW24715   4.210   4.541   1.206  0.1669  0.3108 -0.5664
 4361SOL    HW124716   4.137   4.495   1.245 -0.2315  0.5339 -1.0465
 4361SOL    HW224717   4.156   4.591   1.144 -0.5257 -1.0349 -1.0336
 4362SOL     OW24718   4.159   0.977   8.934  0.7495 -0.5446  0.3257
 4362SOL    HW124719   4.241   1.025   8.920 -0.3051  1.0061 -0.6069
 4362SOL    HW224720   4.104   1.021   8.869  0.8409  0.3167  0.8287
 4363SOL     OW24721   3.830   0.678  17.705  0.5197  0.1340  1.1083
 4363SOL    HW124722   3.810   0.632  17.624  0.0053  1.6221  0.3986
 4363SOL    HW224723   3.913   0.718  17.679 -0.5156  0.6108 -1.4037
 4364SOL     OW24724   3.700   1.414  17.414  0.3668 -0.3956  0.5866
 4364SOL    HW124725   3.631   1.479  17.431  2.5496  1.5884  1.7267
 4364SOL    HW224726   3.776   1.455  17.455  0.1705  0.1980  0.3676
 4365SOL     OW24727   3.111   3.871   7.772  0.1374  0.3497  0.0290
 4365SOL    HW124728   3.056   3.795   7.790 -0.4397  0.4812 -1.1847
 4365SOL    HW224729   3.164   3.841   7.699 -2.7372 -1.3893 -1.3602
 4366SOL     OW24730   2.456   4.253   8.674 -0.6519  0.4799  0.1768
 4366SOL    HW124731   2.513   4.188   8.634 -0.6646  0.8696 -0.4761
 4366SOL    HW224732   2.403   4.273   8.597 -0.4616 -0.2246 -0.1390
 4367SOL     OW24733   2.156   2.525   3.416 -0.0903 -0.1973 -0.0502
 4367SOL    HW124734   2.088   2.476   3.462 -0.9591 -0.6829 -1.8626
 4367SOL    HW224735   2.166   2.469   3.339  0.6271  0.4373 -0.4184
 4368SOL     OW24736   1.688   2.069   1.197  0.0103  0.3965  0.0824
 4368SOL    HW124737   1.715   1.982   1.225 -1.1609 -0.1305 -0.4555
 4368SOL    HW224738   1.650   2.095   1.281  0.0704  0.2452  0.1556
 4369SOL     OW24739   2.355   3.964   6.850  0.0243 -0.2723 -0.6278
 4369SOL    HW124740   2.401   4.012   6.919 -0.1633  1.8534 -1.9771
 4369SOL    HW224741   2.382   3.874   6.871  1.0510 -0.3085 -2.1126
 4370SOL     OW24742   4.683   1.003   1.650  0.3508  0.3639  0.3526
 4370SOL    HW124743   4.599   1.012   1.605  1.0414  0.1357 -1.0083
 4370SOL    HW224744   4.728   0.970   1.572  0.8994  2.0683 -0.0506
 4371SOL     OW24745   3.859   0.488  17.503 -0.0669  0.1303  0.4504
 4371SOL    HW124746   3.768   0.471  17.476  0.2593 -0.8706 -0.0217
 4371SOL    HW224747   3.909   0.438  17.439  0.2855  1.9469 -0.6998
 4372SOL     OW24748   4.297   2.298   3.206 -0.4891 -0.5540  0.5250
 4372SOL    HW124749   4.331   2.296   3.295  0.9075  1.2812  0.0301
 4372SOL    HW224750   4.341   2.375   3.170  1.7403 -1.9178  0.3293
 4373SOL     OW24751   0.650   1.189   8.053 -0.0302 -0.5846 -0.1084
 4373SOL    HW124752   0.611   1.264   8.098  1.4561 -0.0163  0.2323
 4373SOL    HW224753   0.567   1.141   8.056 -0.5921  0.2529 -2.8798
 4374SOL     OW24754   1.967   3.345   6.683  0.0429 -0.2118  0.1069
 4374SOL    HW124755   2.025   3.290   6.736 -0.9501  0.8751  2.3586
 4374SOL    HW224756   2.031   3.387   6.626  0.0572 -1.1638 -0.5640
 4375SOL     OW24757   0.859   3.613   3.026 -0.0596  0.2674  0.3412
 4375SOL    HW124758   0.768   3.597   3.051 -0.2058 -1.2908 -1.2583
 4375SOL    HW224759   0.845   3.587   2.935  2.0652  0.6985 -0.1167
 4376SOL     OW24760   2.393   4.584   8.269  0.2923 -0.1818 -0.0465
 4376SOL    HW124761   2.474   4.570   8.219  0.1871  0.2804 -0.3514
 4376SOL    HW224762   2.363   4.497   8.243 -0.4051  0.2470 -0.6588
 4377SOL     OW24763   1.551   1.582   7.049  0.1216 -0.6740  0.0077
 4377SOL    HW124764   1.493   1.651   7.018  0.1457 -1.3155 -1.4792
 4377SOL    HW224765   1.505   1.507   7.012 -1.1457  1.0846 -1.9402
 4378SOL     OW24766   3.871   1.373  16.736  0.5515 -0.3229  0.0268
 4378SOL    HW124767   3.864   1.400  16.645 -0.8178 -1.1916 -0.1226
 4378SOL    HW224768   3.874   1.277  16.740 -0.7359 -0.3206  1.5035
 4379SOL     OW24769   4.573   4.500  10.761  0.3206  0.5739 -0.2929
 4379SOL    HW124770   4.650   4.485  10.815  0.7066  0.2795 -0.9296
 4379SOL    HW224771   4.520   4.427  10.794  3.4421 -0.3324  2.6119
 4380SOL     OW24772   3.703   3.901   1.418 -0.3364  0.0132 -0.1045
 4380SOL    HW124773   3.706   3.914   1.513  1.0027 -2.5847  0.2265
 4380SOL    HW224774   3.614   3.867   1.410 -0.3466  0.3383 -1.2204
 4381SOL     OW24775   2.065   4.355   4.668  0.3279 -0.5090 -0.2178
 4381SOL    HW124776   2.063   4.294   4.742 -2.0483  0.9255  0.8976
 4381SOL    HW224777   2.001   4.419   4.700  0.5184  0.5345 -1.9133
 4382SOL     OW24778   2.156   1.801   8.223 -0.1154  0.2746 -0.1941
 4382SOL    HW124779   2.235   1.834   8.180  1.6822 -1.5967  1.7109
 4382SOL    HW224780   2.190   1.755   8.300  0.8788  1.4399  0.0523
 4383SOL     OW24781   0.536   0.715  14.577 -1.2174  0.1080  0.0770
 4383SOL    HW124782   0.498   0.678  14.497 -2.2776 -0.5830  0.8996
 4383SOL    HW224783   0.528   0.635  14.629 -0.0100  0.0101  0.1028
 4384SOL     OW24784   3.557   2.125   6.043  0.1026  0.0775 -0.2279
 4384SOL    HW124785   3.625   2.166   6.096  0.3149 -1.4614  0.6743
 4384SOL    HW224786   3.536   2.205   5.995  0.2914  0.7970  0.8998
 4385SOL     OW24787   1.701   0.092   5.263  0.0522  0.2028  0.0400
 4385SOL    HW124788   1.779   0.147   5.272 -0.7252  1.2087  0.6792
 4385SOL    HW224789   1.635   0.155   5.293 -0.2419 -0.8554  1.6252
 4386SOL     OW24790   3.471   2.737   2.796  0.0967  0.4717  0.1985
 4386SOL    HW124791   3.516   2.778   2.723 -2.9276  2.3579 -0.6218
 4386SOL    HW224792   3.529   2.662   2.811  1.0979  1.2052 -0.0581
 4387SOL     OW24793   1.919   0.548  16.427 -0.3263  0.3831 -0.4458
 4387SOL    HW124794   1.973   0.473  16.449  0.2845  1.5480  2.0160
 4387SOL    HW224795   1.869   0.566  16.507  0.5554 -3.4647  0.9605
 4388SOL     OW24796   1.102   1.191   7.274 -0.4567 -0.0205  0.3598
 4388SOL    HW124797   1.069   1.111   7.235  1.3667  0.9468 -3.1774
 4388SOL    HW224798   1.049   1.185   7.354  0.4320 -1.0200  0.8549
 4389SOL     OW24799   3.555   3.600   4.324  0.3268  0.4653 -0.3787
 4389SOL    HW124800   3.506   3.672   4.365  1.8240  0.4846  1.3939
 4389SOL    HW224801   3.484   3.546   4.290  1.2611 -0.8420 -0.2483
 4390SOL     OW24802   2.904   2.047  17.403 -0.1322  0.4006  0.1156
 4390SOL    HW124803   2.891   2.135  17.438 -1.8199  0.5310 -0.8504
 4390SOL    HW224804   2.861   2.068  17.320  0.9339 -1.1476 -0.8285
 4391SOL     OW24805   2.503   3.708  17.040 -0.1586  0.4192 -0.3198
 4391SOL    HW124806   2.410   3.685  17.043 -0.0426  0.0001  0.0411
 4391SOL    HW224807   2.550   3.626  17.055 -1.8565 -1.1507 -3.5631
 4392SOL     OW24808   0.114   1.574   6.782  0.1218  0.0138 -0.7293
 4392SOL    HW124809   0.031   1.616   6.759  0.4303 -1.1003 -3.8129
 4392SOL    HW224810   0.153   1.636   6.843  0.9457  0.6876 -1.9569
 4393SOL     OW24811   1.575   4.462   9.476  0.8433 -0.9683  0.4709
 4393SOL    HW124812   1.519   4.517   9.421  0.8520 -0.5051  0.9159
 4393SOL    HW224813   1.602   4.399   9.410 -0.5228  0.5090 -1.4939
 4394SOL     OW24814   1.691   1.170   5.955  0.0161  0.3789  0.2212
 4394SOL    HW124815   1.756   1.200   5.891  2.9308 -1.5140  2.2893
 4394SOL    HW224816   1.640   1.247   5.979 -0.2763  0.3724 -0.3606
 4395SOL     OW24817   3.250   3.923   6.763  0.2157 -0.3814 -0.9176
 4395SOL    HW124818   3.225   3.947   6.673 -1.1670 -1.4383 -0.8093
 4395SOL    HW224819   3.169   3.946   6.808  0.4192 -0.8131 -0.3414
 4396SOL     OW24820   4.318   4.216   4.072 -0.0556 -0.0390  0.1467
 4396SOL    HW124821   4.386   4.277   4.099 -0.4336  0.3672  0.1857
 4396SOL    HW224822   4.270   4.179   4.146  1.6904 -1.5801  0.4832
 4397SOL     OW24823   1.937   1.715   8.366  0.0150 -0.1490 -0.2078
 4397SOL    HW124824   1.995   1.760   8.305  0.8658 -0.9960 -0.0139
 4397SOL    HW224825   1.926   1.627   8.330  0.1132  0.7372 -2.4279
 4398SOL     OW24826   2.224   0.252   6.318  0.1225 -0.0979  0.2850
 4398SOL    HW124827   2.177   0.204   6.385 -1.7115 -0.2127 -1.1037
 4398SOL    HW224828   2.285   0.184   6.290 -0.6891 -0.9981  0.7030
 4399SOL     OW24829   3.423   2.174   3.249  0.5730  0.4513 -0.0908
 4399SOL    HW124830   3.394   2.113   3.181  0.8011 -0.5790  0.7266
 4399SOL    HW224831   3.512   2.169   3.213  1.0143 -1.5686  1.2544
 4400SOL     OW24832   3.738   3.442   4.425  0.0262  0.4165  0.1621
 4400SOL    HW124833   3.810   3.485   4.470  0.4017  0.4592 -0.4831
 4400SOL    HW224834   3.695   3.511   4.374  1.0515  1.7204  1.0722
 4401SOL     OW24835   1.559   4.427  12.368 -0.3419 -0.4104 -0.2383
 4401SOL    HW124836   1.548   4.459  12.458  0.5573 -0.2168 -0.1986
 4401SOL    HW224837   1.653   4.420  12.356 -0.4924 -0.1002 -1.5684
 4402SOL     OW24838   0.876   4.253  10.802 -0.2257  0.2464 -0.0797
 4402SOL    HW124839   0.939   4.318  10.832 -0.3328  0.6805 -0.8092
 4402SOL    HW224840   0.906   4.167  10.834 -0.3996  0.7219  1.3717
 4403SOL     OW24841   0.833   0.807   6.659 -0.3951  0.0040  0.2410
 4403SOL    HW124842   0.908   0.825   6.716 -0.6286 -0.5765  0.7292
 4403SOL    HW224843   0.873   0.734   6.611  0.0732  0.8927 -0.7174
 4404SOL     OW24844   2.551   4.636   8.545 -0.8784 -0.5750  0.0824
 4404SOL    HW124845   2.522   4.722   8.516 -2.0564 -1.2791 -0.8666
 4404SOL    HW224846   2.610   4.616   8.471  0.3973 -0.8618  1.1775
 4405SOL     OW24847   4.556   0.010   3.925 -0.2274 -0.4633 -0.2770
 4405SOL    HW124848   4.520   0.002   3.837 -0.7885  1.1745 -0.1809
 4405SOL    HW224849   4.516   0.092   3.952  0.0539 -1.2672  2.5971
 4406SOL     OW24850   3.108   1.769   0.324 -0.1760 -0.3220  0.2543
 4406SOL    HW124851   3.028   1.758   0.376  0.3927 -0.1069  1.1829
 4406SOL    HW224852   3.098   1.699   0.259  0.1974  2.1427 -2.4143
 4407SOL     OW24853   3.546   3.874   3.720 -0.2296  0.4483 -0.4898
 4407SOL    HW124854   3.474   3.838   3.667 -1.2567  1.9448 -0.1138
 4407SOL    HW224855   3.604   3.900   3.648  0.5126 -0.7754 -0.3175
 4408SOL     OW24856   3.538   1.428   8.192  0.0069  0.9293  0.0129
 4408SOL    HW124857   3.527   1.365   8.263 -0.4217  0.5774 -0.3741
 4408SOL    HW224858   3.447   1.452   8.175 -0.1869 -0.2878 -0.6667
 4409SOL     OW24859   0.331   0.393  11.219  0.3961 -0.0143  0.2516
 4409SOL    HW124860   0.286   0.430  11.295  0.9606  2.3712 -0.5829
 4409SOL    HW224861   0.259   0.405  11.158 -2.4060 -2.8627  3.0072
 4410SOL     OW24862   1.647   1.357   7.154 -0.4246  0.0133 -0.2246
 4410SOL    HW124863   1.634   1.450   7.134 -1.5642 -0.1097 -0.0240
 4410SOL    HW224864   1.561   1.335   7.190 -1.4460 -0.1292 -2.7127
 4411SOL     OW24865   0.294   3.105   8.121  0.1189  0.4915 -0.9167
 4411SOL    HW124866   0.302   3.134   8.212 -1.4192 -1.4508 -0.1505
 4411SOL    HW224867   0.211   3.058   8.124  1.0903 -1.1586 -0.0177
 4412SOL     OW24868   1.350   0.160  11.669  0.5010  0.3267  0.1975
 4412SOL    HW124869   1.287   0.088  11.667  0.3212  0.4930 -0.3128
 4412SOL    HW224870   1.290   0.233  11.654 -0.1659 -0.5137 -1.2773
 4413SOL     OW24871   3.845   3.773   3.167 -0.2497  0.3338 -0.5682
 4413SOL    HW124872   3.909   3.720   3.121  0.7996  0.3255  0.9127
 4413SOL    HW224873   3.856   3.744   3.257 -0.7293  1.2261 -0.2276
 4414SOL     OW24874   3.408   2.772   2.146  0.1045 -0.1395  0.0626
 4414SOL    HW124875   3.427   2.680   2.128 -1.3010  0.2298 -3.2824
 4414SOL    HW224876   3.473   2.797   2.212  0.2798 -2.8455  0.9093
 4415SOL     OW24877   3.499   0.278  11.032  0.8371  0.2530 -0.1360
 4415SOL    HW124878   3.505   0.200  10.977  0.9756  0.6393 -0.6734
 4415SOL    HW224879   3.488   0.343  10.963  3.2192 -0.1115 -0.8549
 4416SOL     OW24880   1.265   0.147   8.191  0.4000 -0.3982  0.2144
 4416SOL    HW124881   1.357   0.161   8.171 -0.2143  1.8792 -1.0135
 4416SOL    HW224882   1.264   0.137   8.287  1.0904  2.9806  0.5736
 4417SOL     OW24883   0.280   4.416  15.335  0.1835 -0.0708 -0.2099
 4417SOL    HW124884   0.311   4.419  15.425  1.6132  0.9767 -0.7313
 4417SOL    HW224885   0.239   4.502  15.334  0.5205  0.0457 -4.5084
 4418SOL     OW24886   2.746   0.727   3.685 -0.3904  0.0397 -0.5786
 4418SOL    HW124887   2.689   0.772   3.747 -2.1506 -0.3893 -1.8753
 4418SOL    HW224888   2.755   0.643   3.729 -2.5322 -0.0832 -0.4084
 4419SOL     OW24889   4.310   0.370  16.251 -0.2461 -0.0759 -0.1332
 4419SOL    HW124890   4.385   0.430  16.251 -0.8453  0.6638  0.1332
 4419SOL    HW224891   4.340   0.300  16.310  1.3179  0.2665 -0.5320
 4420SOL     OW24892   2.513   3.067   6.315  0.4619  0.9009 -0.3283
 4420SOL    HW124893   2.532   3.032   6.402 -1.2176  0.3933 -0.1532
 4420SOL    HW224894   2.571   3.005   6.271 -0.4824 -0.4428  0.3049
 4421SOL     OW24895   4.505   4.409   4.187  0.0755 -0.4077 -0.2378
 4421SOL    HW124896   4.502   4.504   4.202 -0.4111 -0.3714 -0.5435
 4421SOL    HW224897   4.560   4.382   4.260  0.1643  0.3005 -0.0424
 4422SOL     OW24898   1.538   4.601   4.164  0.2421 -0.2053 -0.4025
 4422SOL    HW124899   1.477   4.576   4.094 -0.7026 -2.1885  1.1256
 4422SOL    HW224900   1.596   4.525   4.170  0.8058  0.2906  0.4041
 4423SOL     OW24901   1.954   1.049   2.154 -0.0738  0.0796 -0.3746
 4423SOL    HW124902   1.881   0.990   2.175  1.3588 -2.1446 -1.7154
 4423SOL    HW224903   1.946   1.128   2.209 -2.5380  0.9398 -1.9568
 4424SOL     OW24904   4.043   1.312   2.545  0.2258  0.4461  0.1113
 4424SOL    HW124905   4.122   1.329   2.494 -0.6418 -0.4395 -1.5284
 4424SOL    HW224906   4.018   1.221   2.529 -1.9922  1.1469 -0.3367
 4425SOL     OW24907   2.117   3.032  16.792  0.5281  0.9306 -0.2551
 4425SOL    HW124908   2.030   2.997  16.809  0.2503  0.7947 -1.9490
 4425SOL    HW224909   2.166   2.962  16.750  1.1549  2.1922 -1.6430
 4426SOL     OW24910   0.267   1.416  10.080  0.2800 -0.4171 -0.0668
 4426SOL    HW124911   0.240   1.425  10.171  1.6444 -0.7803  0.3788
 4426SOL    HW224912   0.278   1.507  10.055 -0.1273  0.0773  1.5994
 4427SOL     OW24913   0.084   4.079   4.481  0.0487  0.2149  0.8490
 4427SOL    HW124914   0.115   4.069   4.391 -0.2087  1.5349  0.6174
 4427SOL    HW224915   0.010   4.019   4.487 -0.3403  0.8162  1.9096
 4428SOL     OW24916   3.797   1.653   1.058 -0.0824  0.2280  1.0165
 4428SOL    HW124917   3.866   1.716   1.078  0.4589 -0.1253  0.2536
 4428SOL    HW224918   3.816   1.587   1.125  1.3684  0.6218  0.9947
 4429SOL     OW24919   2.596   4.398  13.885 -0.1600  0.4120 -0.3880
 4429SOL    HW124920   2.527   4.392  13.951  1.3992 -0.9861  1.0892
 4429SOL    HW224921   2.559   4.350  13.811 -0.7558 -1.1560  0.9127
 4430SOL     OW24922   3.549   1.889  10.628  0.0278  0.0300 -0.1306
 4430SOL    HW124923   3.463   1.888  10.587 -0.0425 -0.6319  0.0356
 4430SOL    HW224924   3.543   1.800  10.662 -0.7655 -0.5551 -1.8130
 4431SOL     OW24925   4.332   1.261   7.222  0.5097  0.2468 -0.4437
 4431SOL    HW124926   4.392   1.196   7.257 -2.8311 -1.3548  2.3014
 4431SOL    HW224927   4.402   1.322   7.201  1.1314 -0.2605  0.1393
 4432SOL     OW24928   2.381   4.657   5.634  0.4218 -0.5534 -0.2813
 4432SOL    HW124929   2.357   4.620   5.719  0.4379 -1.0711 -0.5083
 4432SOL    HW224930   2.348   4.588   5.578  2.4874 -1.7077 -0.0805
 4433SOL     OW24931   1.695   3.926   3.833 -0.3955 -0.2580 -0.3297
 4433SOL    HW124932   1.752   3.902   3.760 -0.9874  1.2668 -1.3119
 4433SOL    HW224933   1.649   3.846   3.856 -0.3785 -1.2975 -3.9912
 4434SOL     OW24934   1.249   3.926   3.176 -0.3798 -0.1505  0.0062
 4434SOL    HW124935   1.310   3.947   3.105 -2.0736  0.1151 -1.3551
 4434SOL    HW224936   1.169   3.909   3.127 -0.9268  0.8984  0.5476
 4435SOL     OW24937   0.942   0.106   5.354 -0.0945  0.6742  0.8439
 4435SOL    HW124938   0.858   0.140   5.383  0.1916  0.6619  1.6926
 4435SOL    HW224939   0.940   0.143   5.266 -1.8124 -1.7432 -0.1485
 4436SOL     OW24940   3.003   0.641   0.850  0.6512 -0.2461  0.2554
 4436SOL    HW124941   3.027   0.671   0.762  1.3925  0.1627  0.5983
 4436SOL    HW224942   3.016   0.722   0.899 -0.0506  0.5179 -0.8310
 4437SOL     OW24943   3.363   3.896   2.736 -0.2499  0.0573 -0.1976
 4437SOL    HW124944   3.389   3.840   2.663 -1.4932  0.6045 -1.0725
 4437SOL    HW224945   3.396   3.857   2.816  0.6711  0.5727 -0.3306
 4438SOL     OW24946   3.027   4.446  11.837 -0.4252  0.3688 -0.8652
 4438SOL    HW124947   3.075   4.376  11.792 -1.6395 -0.8786 -0.2066
 4438SOL    HW224948   3.100   4.503  11.864 -0.8053  1.7611 -2.7889
 4439SOL     OW24949   3.645   3.732  14.086 -0.0086  0.3997 -0.2565
 4439SOL    HW124950   3.693   3.744  14.168  1.5700 -0.3771 -1.0656
 4439SOL    HW224951   3.693   3.794  14.032 -0.2946 -0.2991 -1.2991
 4440SOL     OW24952   1.761   1.924   6.327  0.5618 -0.4478 -0.2534
 4440SOL    HW124953   1.721   1.908   6.241 -1.4848 -0.8276  0.7517
 4440SOL    HW224954   1.807   2.005   6.307 -1.1594 -0.2547 -3.4386
 4441SOL     OW24955   2.007   4.457  11.363 -0.0150 -0.2189  0.7471
 4441SOL    HW124956   1.940   4.472  11.297  0.5946 -0.7801  0.0143
 4441SOL    HW224957   1.981   4.526  11.424  0.5929  0.3344  0.3829
 4442SOL     OW24958   1.848   2.788   8.372 -0.0708  0.1883 -0.0279
 4442SOL    HW124959   1.876   2.723   8.436 -1.4494  1.1339  1.5101
 4442SOL    HW224960   1.920   2.799   8.310 -0.3860  0.7435 -0.2974
 4443SOL     OW24961   4.369   4.258   2.876 -0.2068 -0.4942  0.1520
 4443SOL    HW124962   4.360   4.353   2.879  2.2725 -0.2566 -0.1382
 4443SOL    HW224963   4.464   4.248   2.886 -0.2436 -2.8795 -1.8368
 4444SOL     OW24964   2.156   0.712   6.251  0.2171 -0.4310  0.5872
 4444SOL    HW124965   2.138   0.789   6.197  0.8154  0.6637  1.9502
 4444SOL    HW224966   2.219   0.660   6.200 -0.8809 -1.8821  0.6907
 4445SOL     OW24967   4.394   2.536   6.862 -0.5347 -0.0515  0.1471
 4445SOL    HW124968   4.412   2.601   6.794 -0.9618  1.3746  1.3756
 4445SOL    HW224969   4.300   2.536   6.882 -0.8213 -0.9003 -1.2023
 4446SOL     OW24970   0.646   2.216   5.925  0.3538  0.2504  0.3028
 4446SOL    HW124971   0.558   2.240   5.955 -0.2446 -1.0629 -0.4468
 4446SOL    HW224972   0.701   2.286   5.962 -2.3818  1.6481  1.7035
 4447SOL     OW24973   2.247   0.132   4.361 -0.3786  0.1070  0.5471
 4447SOL    HW124974   2.214   0.161   4.446 -1.7900  1.4107 -0.4569
 4447SOL    HW224975   2.315   0.195   4.337 -0.3981  0.4010  1.2658
 4448SOL     OW24976   1.459   4.555   5.096 -0.0762  0.3435 -1.1341
 4448SOL    HW124977   1.422   4.495   5.031  0.4381 -0.9037 -0.2841
 4448SOL    HW224978   1.374   4.591   5.118  1.2542  1.8302  1.6429
 4449SOL     OW24979   2.113   4.274   6.037 -0.6216 -0.0851  0.4020
 4449SOL    HW124980   2.137   4.184   6.017 -0.0323  0.3213 -0.7068
 4449SOL    HW224981   2.025   4.284   6.000  0.0582 -0.0012 -1.1903
 4450SOL     OW24982   1.411   0.750   2.530 -0.2603  0.0846 -0.8022
 4450SOL    HW124983   1.406   0.841   2.559  2.4796  0.3825 -1.2796
 4450SOL    HW224984   1.319   0.728   2.517 -0.5983 -0.3404  2.3195
 4451SOL     OW24985   2.028   3.170   5.269 -0.1608  0.2627  0.4284
 4451SOL    HW124986   2.063   3.083   5.251 -0.0793  0.7021 -1.5433
 4451SOL    HW224987   2.021   3.201   5.179  0.4092 -1.5357 -0.2186
 4452SOL     OW24988   1.949   3.100  15.737  0.3167 -0.1758 -0.1347
 4452SOL    HW124989   1.944   3.192  15.711 -3.7459 -0.9268 -2.0507
 4452SOL    HW224990   2.024   3.072  15.686  0.0630 -1.0821 -0.0131
 4453SOL     OW24991   3.435   4.654   6.101  0.0256 -0.0785  0.6873
 4453SOL    HW124992   3.373   4.678   6.171  1.8791  1.5309  1.7640
 4453SOL    HW224993   3.472   4.574   6.137  1.5796 -0.0697 -0.9034
 4454SOL     OW24994   0.831   1.392   5.465 -0.0936 -0.0834  0.0154
 4454SOL    HW124995   0.838   1.485   5.488 -1.0521 -0.6766  2.7492
 4454SOL    HW224996   0.895   1.381   5.395 -0.4130 -0.2369 -0.2495
 4455SOL     OW24997   0.038   0.204   4.771  0.1660  0.5547  0.1636
 4455SOL    HW124998   4.682   0.232   4.761  0.2156  0.8799  0.6633
 4455SOL    HW224999   0.076   0.280   4.816  1.6408 -0.4658  0.6415
 4456SOL     OW25000   2.553   2.192   9.684  0.5590 -0.3799  0.6754
 4456SOL    HW125001   2.486   2.155   9.741 -1.1528  1.4268 -0.1529
 4456SOL    HW225002   2.514   2.279   9.678  0.2443 -0.6851 -1.3885
 4457SOL     OW25003   0.921   1.951  12.041 -0.1917  1.0811 -0.2814
 4457SOL    HW125004   0.841   2.002  12.036  0.3095  1.9492  0.5633
 4457SOL    HW225005   0.891   1.862  12.022  0.6828  1.1167 -1.8360
 4458SOL     OW25006   1.019   3.399   2.317  0.1091  0.0968 -0.2560
 4458SOL    HW125007   1.056   3.343   2.249  0.0989  0.3252 -0.4500
 4458SOL    HW225008   0.936   3.423   2.276 -0.2893 -0.1084  0.4340
 4459SOL     OW25009   2.904   0.463   2.983  0.4622  0.3113 -0.0001
 4459SOL    HW125010   2.875   0.457   3.074 -0.3491  0.0214 -0.2882
 4459SOL    HW225011   2.999   0.451   2.992  0.6565 -0.1483 -2.6289
 4460SOL     OW25012   4.010   1.545   3.846 -0.1195  0.2182 -0.8621
 4460SOL    HW125013   4.083   1.603   3.822  0.2932 -0.3720 -1.0399
 4460SOL    HW225014   4.032   1.528   3.937  1.4398  0.2757 -1.2266
 4461SOL     OW25015   3.783   2.488  16.426  0.4701 -0.2804  0.6119
 4461SOL    HW125016   3.866   2.459  16.465  0.8635  0.9807  0.7138
 4461SOL    HW225017   3.768   2.582  16.442  0.8915 -0.1661  0.3087
 4462SOL     OW25018   2.458   2.965   1.939 -0.3372 -0.4718 -0.5422
 4462SOL    HW125019   2.520   2.933   2.005  0.1668  0.3407 -0.6204
 4462SOL    HW225020   2.474   2.899   1.871  1.2793 -3.7269  3.0092
 4463SOL     OW25021   2.780   4.519  17.360 -0.2540  0.2668  0.2072
 4463SOL    HW125022   2.849   4.574  17.397 -0.6058  1.2712 -0.6465
 4463SOL    HW225023   2.829   4.461  17.301 -0.9125  0.8883 -0.9358
 4464SOL     OW25024   3.598   4.682   7.729 -0.1008  0.3774 -0.2475
 4464SOL    HW125025   3.610   4.600   7.679 -1.3252 -0.4509  0.8246
 4464SOL    HW225026   3.504   4.684   7.745  0.1236  0.6873  1.0175
 4465SOL     OW25027   3.280   4.625  11.048  0.1642 -0.0023  0.4638
 4465SOL    HW125028   3.318   4.539  11.063  2.0381  0.5505 -1.1028
 4465SOL    HW225029   3.354   4.683  11.035 -1.2637  1.4906 -0.9711
 4466SOL     OW25030   2.053   0.729  13.895 -0.0456  0.8494 -0.6617
 4466SOL    HW125031   2.009   0.722  13.810 -0.1730 -1.9196 -0.3829
 4466SOL    HW225032   2.123   0.791  13.875  1.0552  0.6032  2.3881
 4467SOL     OW25033   1.836   4.032   6.360 -0.3494 -0.2704 -0.3124
 4467SOL    HW125034   1.923   4.020   6.399  0.6379  1.2182 -2.0404
 4467SOL    HW225035   1.862   3.986   6.280 -2.0259 -0.1167 -0.9362
 4468SOL     OW25036   1.078   3.465  16.813  0.1663 -0.0309  0.4273
 4468SOL    HW125037   1.032   3.545  16.789 -0.6355 -1.2227 -1.9715
 4468SOL    HW225038   1.006   3.424  16.861  0.7879  1.1195  2.3631
 4469SOL     OW25039   2.982   1.250  16.691  0.6527 -0.4725  0.3326
 4469SOL    HW125040   2.902   1.205  16.661  2.2047 -2.8660 -0.2686
 4469SOL    HW225041   3.044   1.212  16.628 -0.9234 -1.0273 -0.9047
 4470SOL     OW25042   3.886   2.694  12.057  0.1599  0.2252 -0.1618
 4470SOL    HW125043   3.928   2.728  11.978 -2.0124  1.9660 -0.5603
 4470SOL    HW225044   3.903   2.759  12.126 -1.1478 -1.0976  1.3864
 4471SOL     OW25045   3.478   0.648   9.903 -0.4606  0.2054 -0.4742
 4471SOL    HW125046   3.423   0.572   9.883 -1.0775 -0.0926  2.3448
 4471SOL    HW225047   3.511   0.671   9.816  0.3698 -1.6398 -0.6504
 4472SOL     OW25048   1.544   3.493   3.681 -0.1842  0.1138 -0.0628
 4472SOL    HW125049   1.492   3.417   3.706 -0.6491  0.5693  0.3409
 4472SOL    HW225050   1.506   3.522   3.598 -0.2064 -1.4290 -0.5799
 4473SOL     OW25051   0.304   0.424  13.698 -0.0483 -0.5211  0.4885
 4473SOL    HW125052   0.379   0.415  13.638 -1.0923 -0.7261 -0.7774
 4473SOL    HW225053   0.242   0.358  13.667 -1.1528 -0.1436  1.9008
 4474SOL     OW25054   3.621   0.353   8.388  0.5754 -0.1138 -0.2344
 4474SOL    HW125055   3.599   0.262   8.372  1.5030 -0.5020  0.6781
 4474SOL    HW225056   3.704   0.334   8.432 -0.0509 -2.2732 -0.0232
 4475SOL     OW25057   1.839   4.045   8.332 -0.5342 -0.3816  0.3197
 4475SOL    HW125058   1.903   4.116   8.323 -0.3372 -0.6348 -0.2164
 4475SOL    HW225059   1.866   4.011   8.418  1.7276  0.6554  0.0221
 4476SOL     OW25060   3.066   4.557  15.935  0.0591 -0.0510  0.0158
 4476SOL    HW125061   3.050   4.651  15.928  0.8167  0.0644 -0.1368
 4476SOL    HW225062   3.148   4.561  15.984 -0.8550 -1.5814  1.6620
 4477SOL     OW25063   3.205   2.717  12.707 -0.0068 -0.0126 -0.6484
 4477SOL    HW125064   3.220   2.805  12.673  0.4425  0.1562 -0.0250
 4477SOL    HW225065   3.283   2.714  12.763  0.6568  3.2021 -1.4262
 4478SOL     OW25066   1.339   0.112  12.869 -0.2254 -0.5291  0.3936
 4478SOL    HW125067   1.352   0.029  12.823 -1.6461 -0.8498  0.5888
 4478SOL    HW225068   1.296   0.158  12.796  1.0009  0.2720  0.1732
 4479SOL     OW25069   4.104   1.478   3.588 -0.4085 -0.0023 -0.2289
 4479SOL    HW125070   4.147   1.394   3.568 -1.2073 -0.3336 -0.5461
 4479SOL    HW225071   4.080   1.453   3.677 -0.4269 -2.4570 -0.9152
 4480SOL     OW25072   0.728   1.343   7.844 -0.0690  0.0171 -0.0782
 4480SOL    HW125073   0.692   1.288   7.914  1.1848 -3.8984 -2.5352
 4480SOL    HW225074   0.716   1.423   7.895  0.7410  1.0683 -1.5283
 4481SOL     OW25075   0.688   4.421   8.117 -0.3204  0.0755 -0.5031
 4481SOL    HW125076   0.763   4.427   8.058  0.5375  2.5932  0.8602
 4481SOL    HW225077   0.662   4.331   8.099  1.4917 -0.6316  0.5343
 4482SOL     OW25078   2.031   0.782   3.625  0.5118  0.4201  0.7262
 4482SOL    HW125079   2.039   0.876   3.613 -0.8549  0.5571  0.8969
 4482SOL    HW225080   1.945   0.763   3.587  1.5963 -3.0558  0.0142
 4483SOL     OW25081   2.605   4.176   5.393 -0.2233 -0.2491 -0.3205
 4483SOL    HW125082   2.684   4.159   5.444 -1.9716 -0.1246  2.3779
 4483SOL    HW225083   2.571   4.259   5.425  0.5157 -0.6027  1.3456
 4484SOL     OW25084   1.131   1.574  17.133 -0.3662  0.4580  0.6734
 4484SOL    HW125085   1.108   1.667  17.129  1.5620  0.9981  1.9949
 4484SOL    HW225086   1.076   1.533  17.067 -0.5172  0.8296  0.5677
 4485SOL     OW25087   1.727   0.857   7.095  0.2570  0.0405  0.1105
 4485SOL    HW125088   1.684   0.885   7.176  2.8976 -2.9948  2.6050
 4485SOL    HW225089   1.727   0.944   7.055 -0.5903  0.2170  0.5044
 4486SOL     OW25090   0.938   1.679   8.662 -0.5801 -1.3003  0.0597
 4486SOL    HW125091   0.925   1.756   8.606 -2.2549 -0.6350  1.3706
 4486SOL    HW225092   1.028   1.696   8.692 -1.8674 -0.6158  3.5488
 4487SOL     OW25093   3.350   3.187   5.409  0.1019 -0.0539 -0.0257
 4487SOL    HW125094   3.288   3.258   5.395  0.0684  0.0306  0.5432
 4487SOL    HW225095   3.300   3.112   5.376 -0.0666 -1.3885  3.2267
 4488SOL     OW25096   2.120   2.275   5.774  0.5094 -0.9785  0.1061
 4488SOL    HW125097   2.166   2.346   5.820 -1.6949  0.8516 -0.4873
 4488SOL    HW225098   2.151   2.286   5.684  1.7825 -1.0160  0.5372
 4489SOL     OW25099   3.360   4.160   6.165  0.1552  0.3533  0.5840
 4489SOL    HW125100   3.271   4.124   6.168  0.0424  0.5536 -0.2054
 4489SOL    HW225101   3.381   4.140   6.073  0.2962  0.0070  0.6947
 4490SOL     OW25102   1.217   1.642   7.672 -0.2686 -0.1529 -0.3419
 4490SOL    HW125103   1.264   1.559   7.674  1.0019  0.5486 -1.2038
 4490SOL    HW225104   1.264   1.683   7.599 -0.3952  1.3194  0.4011
 4491SOL     OW25105   0.094   2.171   5.296  0.6158  0.1924 -0.0363
 4491SOL    HW125106   0.151   2.239   5.333  0.6027  1.0068 -1.5449
 4491SOL    HW225107   0.118   2.097   5.352  2.6485  0.6484 -0.2881
 4492SOL     OW25108   0.009   3.934  17.164  0.1360  0.2466 -0.8111
 4492SOL    HW125109   4.719   3.911  17.074 -0.3151 -0.4708 -0.4989
 4492SOL    HW225110   4.677   3.999  17.185 -0.3697 -0.2382 -0.9233
 4493SOL     OW25111   0.942   0.762   3.631  0.0969  0.4752  0.3263
 4493SOL    HW125112   0.868   0.703   3.617  0.7171 -0.0275 -0.7564
 4493SOL    HW225113   0.901   0.784   3.715  1.6165  2.3605  0.5739
 4494SOL     OW25114   3.623   1.872   3.880 -0.7200 -0.0533 -0.4161
 4494SOL    HW125115   3.598   1.925   3.955  4.1298  0.9727  0.4164
 4494SOL    HW225116   3.696   1.919   3.840 -1.2774 -0.4946 -1.9761
 4495SOL     OW25117   1.236   2.539  10.655 -0.0352 -0.1011 -0.0654
 4495SOL    HW125118   1.177   2.612  10.638 -0.1251  0.0463  0.8739
 4495SOL    HW225119   1.313   2.576  10.611 -1.3068  1.1010 -1.2770
 4496SOL     OW25120   0.246   1.718   7.650  0.2853 -0.5409  0.2814
 4496SOL    HW125121   0.308   1.668   7.596  0.3417  1.0463 -1.1194
 4496SOL    HW225122   0.166   1.711   7.599 -0.3149  0.0836  1.1429
 4497SOL     OW25123   4.621   2.621   3.836 -0.0632  0.5748 -0.1244
 4497SOL    HW125124   4.716   2.627   3.843 -0.0754  1.5409 -0.7819
 4497SOL    HW225125   4.591   2.704   3.872 -1.3342  0.0910 -0.0431
 4498SOL     OW25126   0.301   1.879  15.902 -0.4529 -0.2781  0.6900
 4498SOL    HW125127   0.265   1.794  15.924 -0.7645 -0.6304 -1.2395
 4498SOL    HW225128   0.213   1.917  15.902 -0.5934 -0.6193 -1.0353
 4499SOL     OW25129   3.449   1.442   9.474  0.3977  0.6851  0.4268
 4499SOL    HW125130   3.510   1.450   9.547 -0.5120 -2.8402  1.5849
 4499SOL    HW225131   3.469   1.519   9.422  0.1650  1.8111  2.0042
 4500SOL     OW25132   3.290   1.789   6.293 -0.2397 -0.2232  0.3725
 4500SOL    HW125133   3.241   1.736   6.231  0.4632  1.6352 -1.7526
 4500SOL    HW225134   3.253   1.757   6.375 -1.6181 -0.7518 -0.4607
 4501SOL     OW25135   0.746   1.486   8.384  0.3314 -0.2112  0.4892
 4501SOL    HW125136   0.716   1.483   8.293  1.4122 -0.8210  0.1529
 4501SOL    HW225137   0.664   1.507   8.428  0.6704  1.3174  0.3966
 4502SOL     OW25138   4.486   4.167  14.479 -0.1631 -0.1037  0.1134
 4502SOL    HW125139   4.544   4.168  14.555 -0.8548 -2.4354  0.6722
 4502SOL    HW225140   4.521   4.091  14.431 -1.6633 -1.0876  0.5694
 4503SOL     OW25141   3.869   1.205   0.589  0.2817  0.1317  0.3301
 4503SOL    HW125142   3.855   1.117   0.623  1.6762  0.0239  0.6019
 4503SOL    HW225143   3.786   1.249   0.609 -1.0611 -2.5463  0.6208
 4504SOL     OW25144   3.921   4.298  10.540  0.3289 -0.5927 -0.1542
 4504SOL    HW125145   3.956   4.218  10.578  1.2432  0.5646  1.4820
 4504SOL    HW225146   3.836   4.275  10.503  0.1947  0.4215 -0.4790
 4505SOL     OW25147   2.138   4.656   8.324  0.0413 -0.3152 -0.3442
 4505SOL    HW125148   2.138   4.709   8.404  1.5727  0.5981 -0.9653
 4505SOL    HW225149   2.219   4.605   8.332 -0.6618 -1.5606 -1.2004
 4506SOL     OW25150   1.974   1.066  13.817 -0.4859 -0.5195  0.3245
 4506SOL    HW125151   2.050   1.095  13.768  0.3220 -1.6860  0.8753
 4506SOL    HW225152   1.914   1.140  13.807 -0.2254  0.0686  3.1656
 4507SOL     OW25153   2.523   4.414   1.288  0.4939 -0.1162 -0.2839
 4507SOL    HW125154   2.590   4.483   1.284 -0.3117  0.6684 -0.3090
 4507SOL    HW225155   2.461   4.464   1.341 -1.6583 -1.7682 -1.2328
 4508SOL     OW25156   1.296   3.850   0.647  0.5819  0.4402  0.2404
 4508SOL    HW125157   1.302   3.766   0.693 -0.0816 -0.1420 -0.7526
 4508SOL    HW225158   1.205   3.859   0.621  0.9555 -1.3409 -1.7384
 4509SOL     OW25159   4.733   3.980   4.851  0.7563 -0.0983 -0.7367
 4509SOL    HW125160   4.719   3.981   4.946 -3.0212  1.4519 -1.3193
 4509SOL    HW225161   0.092   3.960   4.855  0.2237 -3.0339 -2.9269
 4510SOL     OW25162   0.533   0.296   7.446 -0.4805 -0.2554 -0.0589
 4510SOL    HW125163   0.600   0.229   7.427  0.3871  0.4344  0.5403
 4510SOL    HW225164   0.551   0.360   7.378  1.0758 -1.5718 -0.9085
 4511SOL     OW25165   0.711   1.179  16.608  0.1846 -0.3029  0.4004
 4511SOL    HW125166   0.739   1.165  16.518 -0.9275  1.2098 -0.1776
 4511SOL    HW225167   0.656   1.257  16.601  0.9409  0.1107 -0.8690
 4512SOL     OW25168   1.256   0.670   0.233 -0.2183  0.5302 -0.0581
 4512SOL    HW125169   1.350   0.681   0.249 -0.0658 -1.7172  0.6428
 4512SOL    HW225170   1.243   0.596   0.292  1.4438  1.3835  1.3725
 4513SOL     OW25171   0.578   1.904  12.570  0.3677  0.7110  0.4304
 4513SOL    HW125172   0.534   1.831  12.527  0.0953  1.6792 -0.9665
 4513SOL    HW225173   0.664   1.863  12.579  0.5432  0.5346 -1.8318
 4514SOL     OW25174   3.558   0.327   6.377  0.7626  0.4963 -0.4287
 4514SOL    HW125175   3.590   0.238   6.361  0.7616  0.5242 -0.5826
 4514SOL    HW225176   3.488   0.338   6.314  0.3365 -0.4172 -0.1192
 4515SOL     OW25177   1.739   3.228   9.713 -0.9350 -0.6109 -0.5688
 4515SOL    HW125178   1.737   3.140   9.750  0.3015 -0.2457  0.3608
 4515SOL    HW225179   1.818   3.260   9.757  0.6069 -2.0509 -2.2832
 4516SOL     OW25180   4.550   4.238   1.578  0.0535 -0.2140  0.0471
 4516SOL    HW125181   4.488   4.169   1.601 -1.0557 -0.0868 -2.5605
 4516SOL    HW225182   4.520   4.314   1.627  0.7807  0.2001 -0.1489
 4517SOL     OW25183   4.343   3.959   5.754  0.0616 -0.4327  0.8213
 4517SOL    HW125184   4.345   4.044   5.797  0.4279  0.5118 -1.0584
 4517SOL    HW225185   4.257   3.956   5.712  1.1034  1.7928 -1.5134
 4518SOL     OW25186   4.540   2.530  13.530  0.1219 -0.0508 -0.8724
 4518SOL    HW125187   4.599   2.518  13.454  1.4336  1.7707 -0.1468
 4518SOL    HW225188   4.461   2.493  13.491  0.8916 -0.4668 -2.0695
 4519SOL     OW25189   3.753   4.701   8.433  0.4156  0.1882 -0.5493
 4519SOL    HW125190   3.666   4.727   8.403  0.3622 -1.5837 -1.9678
 4519SOL    HW225191   3.741   4.608   8.412  1.1312  0.1796 -0.9056
 4520SOL     OW25192   1.603   1.252   1.670 -0.1730  0.3781  0.2564
 4520SOL    HW125193   1.538   1.233   1.738 -1.5602 -0.7762 -1.3923
 4520SOL    HW225194   1.678   1.274   1.725 -0.0377  0.6997 -0.0577
 4521SOL     OW25195   2.457   3.431   3.859 -0.2465 -1.1354 -0.5887
 4521SOL    HW125196   2.362   3.443   3.868 -0.3999 -1.4161 -1.8148
 4521SOL    HW225197   2.452   3.355   3.801  1.0172 -0.8323 -1.1062
 4522SOL     OW25198   1.536   2.582   1.813  0.7641  0.2642 -0.4117
 4522SOL    HW125199   1.445   2.567   1.841  1.5224 -1.1484  1.3213
 4522SOL    HW225200   1.529   2.671   1.780  1.0663 -0.5573 -2.6942
 4523SOL     OW25201   4.140   3.188   5.831 -0.0277 -0.1799  0.2280
 4523SOL    HW125202   4.179   3.179   5.744  0.6996  3.4018  0.1655
 4523SOL    HW225203   4.054   3.151   5.813 -0.4053 -0.1445  1.8871
 4524SOL     OW25204   0.080   1.460   4.191 -0.1114  0.0237 -0.4369
 4524SOL    HW125205   0.091   1.366   4.177  0.0113 -0.6060  4.0836
 4524SOL    HW225206   0.036   1.479   4.108  0.2581  0.4515 -0.5370
 4525SOL     OW25207   1.429   2.184  16.085  0.0193  0.7292  0.6329
 4525SOL    HW125208   1.483   2.108  16.108  1.4373  0.9322 -2.0219
 4525SOL    HW225209   1.357   2.170  16.146  0.7423 -0.6180  1.1922
 4526SOL     OW25210   1.980   2.601   2.574 -0.3211 -0.3943  0.0582
 4526SOL    HW125211   1.910   2.637   2.519 -1.7070 -1.7355  0.9164
 4526SOL    HW225212   1.967   2.506   2.564 -1.7812 -0.1045 -0.9093
 4527SOL     OW25213   3.310   4.359  10.230 -0.0543 -0.2251 -0.0450
 4527SOL    HW125214   3.348   4.431  10.180  0.8630 -2.0996 -2.0414
 4527SOL    HW225215   3.228   4.338  10.187  0.2414 -1.5292  0.0315
 4528SOL     OW25216   0.135   3.647   1.203  0.1759  0.1865  0.1273
 4528SOL    HW125217   0.196   3.651   1.277 -0.9935  2.5679  0.9774
 4528SOL    HW225218   0.193   3.672   1.131  0.9270  0.3387  0.7765
 4529SOL     OW25219   3.283   1.078  14.673 -0.0303 -0.0834  0.1694
 4529SOL    HW125220   3.345   1.124  14.616 -0.1360 -0.7811 -0.5007
 4529SOL    HW225221   3.335   1.047  14.747  1.2004  1.6464  0.0379
 4530SOL     OW25222   0.817   2.648  10.550 -0.2275 -0.4823  0.1769
 4530SOL    HW125223   0.776   2.593  10.484  0.0078  0.8414 -1.0666
 4530SOL    HW225224   0.812   2.588  10.625  0.6392 -1.4520 -0.5494
 4531SOL     OW25225   2.461   3.685   5.135 -0.0382 -0.6157  0.0749
 4531SOL    HW125226   2.429   3.597   5.152  0.9467 -1.4124 -2.2218
 4531SOL    HW225227   2.539   3.671   5.082  1.3284 -0.4139  2.0339
 4532SOL     OW25228   2.392   2.275   1.562  0.0243  0.6405 -0.5575
 4532SOL    HW125229   2.406   2.369   1.548  0.8893  0.3006 -1.9677
 4532SOL    HW225230   2.411   2.237   1.476  2.2015  0.5643 -0.0329
 4533SOL     OW25231   0.332   3.256  15.311 -0.2000 -0.4523 -0.1344
 4533SOL    HW125232   0.297   3.174  15.278  1.1085 -1.2877  0.5770
 4533SOL    HW225233   0.257   3.304  15.345 -0.5208 -0.7542 -0.4165
 4534SOL     OW25234   2.835   4.524  16.041  0.2856 -0.0849 -0.5886
 4534SOL    HW125235   2.785   4.446  16.017  1.9963 -1.5886  0.7015
 4534SOL    HW225236   2.917   4.520  15.992  1.1455  2.4140  0.6564
 4535SOL     OW25237   1.144   2.546   4.313  0.1954 -0.3434 -0.3370
 4535SOL    HW125238   1.238   2.566   4.315  0.4340 -1.6916  2.1522
 4535SOL    HW225239   1.096   2.627   4.330 -0.5504 -1.1080  1.1336
 4536SOL     OW25240   2.822   4.528   4.318 -0.0587 -0.0865 -0.0726
 4536SOL    HW125241   2.790   4.532   4.228  1.8176  0.8685 -0.6938
 4536SOL    HW225242   2.768   4.466   4.367  1.0079 -1.2358 -0.3562
 4537SOL     OW25243   3.984   1.071   3.630 -0.4843  0.2443  0.0865
 4537SOL    HW125244   3.929   1.104   3.702  1.2219 -0.9220  1.9012
 4537SOL    HW225245   4.076   1.092   3.646  0.0261 -2.3220  0.4435
 4538SOL     OW25246   1.234   1.515   4.834  0.0319  0.3455 -0.0459
 4538SOL    HW125247   1.173   1.539   4.765 -1.3817 -2.4496  0.1930
 4538SOL    HW225248   1.265   1.599   4.866  1.7909  0.7663 -2.8722
 4539SOL     OW25249   1.018   0.109  12.972 -0.3774  0.2440  0.3879
 4539SOL    HW125250   0.927   0.097  12.947  0.4074 -1.3226 -1.7086
 4539SOL    HW225251   1.017   0.204  12.983  2.7842  0.1660  1.3127
 4540SOL     OW25252   4.542   2.141   4.876  0.2947  0.3023  0.1544
 4540SOL    HW125253   4.613   2.192   4.914  0.1072  0.8141 -0.1855
 4540SOL    HW225254   4.541   2.185   4.791  1.3117 -1.0089 -0.5494
 4541SOL     OW25255   1.728   1.473   5.319  0.3217 -0.0946  0.1259
 4541SOL    HW125256   1.788   1.503   5.387 -1.0919  0.9326  0.9208
 4541SOL    HW225257   1.771   1.481   5.235  0.4180 -0.6066  0.1265
 4542SOL     OW25258   4.496   3.362   5.295 -0.3954  0.1978  0.2463
 4542SOL    HW125259   4.420   3.309   5.269  0.0467 -1.0451  1.5294
 4542SOL    HW225260   4.454   3.441   5.330 -1.4928 -0.4525  0.4076
 4543SOL     OW25261   3.934   1.878   2.638 -0.3289  0.1414 -0.1812
 4543SOL    HW125262   3.947   1.954   2.695 -0.8114  0.7974 -0.9499
 4543SOL    HW225263   3.874   1.927   2.583  1.3748  0.8722 -1.4021
 4544SOL     OW25264   3.990   3.207  17.409  0.1812 -0.1960  0.1244
 4544SOL    HW125265   4.042   3.269  17.459 -0.1260 -0.9785  1.3987
 4544SOL    HW225266   4.008   3.129  17.461 -2.1636  0.9425  2.6109
 4545SOL     OW25267   0.730   0.112   1.165  0.1182 -0.0124 -0.0603
 4545SOL    HW125268   0.706   0.186   1.108  0.7547 -0.1249 -0.4809
 4545SOL    HW225269   0.692   0.035   1.124  0.7225 -0.4096  0.1362
 4546SOL     OW25270   3.474   3.160  11.060 -0.5236 -0.0572  0.4974
 4546SOL    HW125271   3.494   3.077  11.016 -0.8164 -0.0236  0.2989
 4546SOL    HW225272   3.556   3.207  11.053  1.2260 -3.4398 -1.8953
 4547SOL     OW25273   1.222   1.301   7.056  0.3559  0.6695 -0.4586
 4547SOL    HW125274   1.202   1.240   7.127 -2.3233  2.9774  0.7571
 4547SOL    HW225275   1.133   1.330   7.037  0.5105  1.5396  0.1667
 4548SOL     OW25276   1.300   3.693   7.652 -0.7651  0.3057  0.0969
 4548SOL    HW125277   1.340   3.779   7.638  1.7318 -0.6495  1.4520
 4548SOL    HW225278   1.207   3.714   7.640 -1.2488 -2.4562 -1.0509
 4549SOL     OW25279   3.667   0.898   7.398 -0.1947 -0.3013 -0.1122
 4549SOL    HW125280   3.595   0.853   7.443  0.1616  1.4619  2.1986
 4549SOL    HW225281   3.682   0.829   7.333 -1.7055 -1.3887  0.6714
 4550SOL     OW25282   3.721   0.885   2.850 -0.0343  0.1936  0.8700
 4550SOL    HW125283   3.759   0.965   2.813  1.6852 -0.6210  0.8649
 4550SOL    HW225284   3.800   0.838   2.878  2.3200  3.0270 -0.8635
 4551SOL     OW25285   3.955   0.060   2.676 -0.0208 -0.7011  0.3878
 4551SOL    HW125286   3.931   4.704   2.653  2.1525 -1.1206 -0.2219
 4551SOL    HW225287   4.048   0.058   2.653  0.2643  0.0456  1.4733
 4552SOL     OW25288   1.411   1.315   5.636  0.2085  0.1941  0.0852
 4552SOL    HW125289   1.367   1.240   5.676  0.5066 -0.2484 -0.4161
 4552SOL    HW225290   1.340   1.363   5.593  0.1464 -1.0585 -1.1991
 4553SOL     OW25291   0.040   0.563   0.245  0.7380 -0.3946  0.0903
 4553SOL    HW125292   4.722   0.532   0.319 -0.9288 -2.6912 -2.0751
 4553SOL    HW225293   4.733   0.647   0.229  0.6260 -0.4822 -0.0748
 4554SOL     OW25294   3.764   3.613   6.753 -0.2469 -0.0910  0.3126
 4554SOL    HW125295   3.857   3.635   6.764 -0.6151  1.3274  0.5305
 4554SOL    HW225296   3.742   3.651   6.668  2.2153 -0.4692 -0.4996
 4555SOL     OW25297   3.127   1.528   2.105  0.1733 -0.4501 -0.4701
 4555SOL    HW125298   3.149   1.617   2.078 -0.5572 -0.6526 -1.6917
 4555SOL    HW225299   3.039   1.514   2.072 -0.0878 -1.8100  0.8022
 4556SOL     OW25300   1.373   0.104  11.365 -0.0266 -0.2778  0.0294
 4556SOL    HW125301   1.280   0.097  11.345  0.4704  1.3940 -2.8386
 4556SOL    HW225302   1.373   0.083  11.459  0.6482  1.2800  0.3848
 4557SOL     OW25303   3.780   1.833   6.319  0.0531  0.0613  0.0785
 4557SOL    HW125304   3.795   1.740   6.302  2.4713  0.2189  1.3056
 4557SOL    HW225305   3.685   1.826   6.327 -0.0017  0.2743 -0.3820
 4558SOL     OW25306   4.470   4.486   8.487 -0.0290  0.5661 -0.3444
 4558SOL    HW125307   4.425   4.517   8.409 -0.7629 -0.6925 -0.4148
 4558SOL    HW225308   4.420   4.536   8.551  0.4097  1.9471 -1.0654
 4559SOL     OW25309   0.957   2.856   9.397  0.3173 -0.3091 -0.1035
 4559SOL    HW125310   0.932   2.900   9.316  0.4474 -0.7010 -0.3531
 4559SOL    HW225311   0.929   2.765   9.394  1.9928 -0.8336 -0.0906
 4560SOL     OW25312   1.864   4.468   7.589  0.3897 -0.1538  0.0298
 4560SOL    HW125313   1.836   4.393   7.640 -0.2414 -1.4734 -2.2362
 4560SOL    HW225314   1.836   4.445   7.500 -1.0157  0.0060  0.4256
 4561SOL     OW25315   2.690   2.791   3.346  0.7424  0.4237 -0.3216
 4561SOL    HW125316   2.645   2.774   3.263  0.2179 -0.1057  0.0801
 4561SOL    HW225317   2.709   2.700   3.365 -0.5183  0.2024 -0.0949
 4562SOL     OW25318   4.378   1.472  11.837  0.3045  0.3229 -0.3551
 4562SOL    HW125319   4.322   1.491  11.762  1.5178  2.1450 -0.8122
 4562SOL    HW225320   4.458   1.522  11.818  0.5148 -0.0164 -0.3530
 4563SOL     OW25321   0.049   1.968   4.845  0.1446  0.1394  0.1126
 4563SOL    HW125322   4.703   2.019   4.857  0.0517  0.2031 -0.7714
 4563SOL    HW225323   0.028   1.892   4.898  0.1765 -0.6863 -1.0627
 4564SOL     OW25324   3.418   4.026   5.917 -0.4567  0.1267 -0.1284
 4564SOL    HW125325   3.327   4.012   5.944  0.2540 -0.7773  1.7448
 4564SOL    HW225326   3.440   3.944   5.874 -0.0718  1.4612 -2.4757
 4565SOL     OW25327   2.522   3.743   1.723  0.0964 -0.5049  0.3554
 4565SOL    HW125328   2.459   3.793   1.774 -1.2984 -1.0381 -0.8645
 4565SOL    HW225329   2.520   3.797   1.644 -0.1180 -0.6073  0.2916
 4566SOL     OW25330   3.060   4.098   8.419 -1.1115  0.2447  0.6985
 4566SOL    HW125331   3.018   4.042   8.485 -2.1395  0.6226  0.3628
 4566SOL    HW225332   3.049   4.045   8.340 -1.9846 -0.4471  1.2949
 4567SOL     OW25333   1.559   1.365  16.391 -0.3923 -0.3514 -0.0374
 4567SOL    HW125334   1.604   1.410  16.319 -0.9218 -0.7678 -0.6268
 4567SOL    HW225335   1.620   1.295  16.413 -2.1743 -0.5215  4.1763
 4568SOL     OW25336   2.765   4.685   3.126  0.7355 -0.3502 -0.7001
 4568SOL    HW125337   2.725   4.618   3.182 -0.2054  1.1435  0.4068
 4568SOL    HW225338   2.848   4.643   3.102 -0.4207 -2.9686 -0.1687
 4569SOL     OW25339   0.621   4.200   5.186  0.2030 -0.0747 -0.2678
 4569SOL    HW125340   0.624   4.104   5.181  0.9430 -0.1105  0.7902
 4569SOL    HW225341   0.707   4.223   5.153  1.1561 -1.3386  1.3329
 4570SOL     OW25342   0.522   4.094   4.581 -0.0029 -0.2509 -0.1749
 4570SOL    HW125343   0.519   4.169   4.641  1.2673 -2.1443  2.2941
 4570SOL    HW225344   0.539   4.028   4.648  0.7704  0.3351  0.2090
 4571SOL     OW25345   4.229   3.638   3.545 -0.0571  0.5555  0.1415
 4571SOL    HW125346   4.140   3.609   3.560 -0.6234  2.5681  0.5850
 4571SOL    HW225347   4.231   3.732   3.562  0.4521  0.6363 -0.3530
 4572SOL     OW25348   2.039   0.178  13.471  0.0910 -0.0400 -0.4077
 4572SOL    HW125349   1.957   0.152  13.430 -0.3963 -1.2450  1.3140
 4572SOL    HW225350   2.025   0.273  13.468  0.4634  0.0129 -0.4999
 4573SOL     OW25351   0.711   0.988  16.974 -0.0824  0.0585 -0.8045
 4573SOL    HW125352   0.635   1.046  16.963 -1.1543 -0.7726  2.4035
 4573SOL    HW225353   0.733   1.009  17.065 -0.5844 -0.6028 -0.5354
 4574SOL     OW25354   4.389   1.283   5.899  0.0698 -0.3670  0.2529
 4574SOL    HW125355   4.446   1.261   5.972 -0.4157  2.0468  1.3634
 4574SOL    HW225356   4.349   1.197   5.895 -1.0410  0.1873 -0.5950
 4575SOL     OW25357   2.328   2.731   6.733  0.2291 -0.3423  0.4063
 4575SOL    HW125358   2.381   2.664   6.689  0.5298 -0.3511  0.7766
 4575SOL    HW225359   2.391   2.776   6.790  1.1355 -0.0320 -0.8315
 4576SOL     OW25360   4.259   4.719   7.179 -0.2735  0.0100  0.7808
 4576SOL    HW125361   4.270   4.651   7.245 -1.4568 -0.8379  0.0977
 4576SOL    HW225362   4.206   0.048   7.229  0.9758  2.0972 -0.5461
 4577SOL     OW25363   2.464   1.088   8.599  0.6003 -0.4044 -1.1576
 4577SOL    HW125364   2.387   1.130   8.637  1.3074  0.2151 -0.4256
 4577SOL    HW225365   2.465   1.005   8.647 -0.9618 -1.1980 -2.4593
 4578SOL     OW25366   0.047   1.826   6.155  0.6365  0.2578  0.6709
 4578SOL    HW125367   4.730   1.869   6.087  2.2112 -0.1405 -0.7725
 4578SOL    HW225368   0.087   1.752   6.108  2.8884  0.5118  2.2028
 4579SOL     OW25369   0.983   2.316   6.494  0.0808  0.1092 -0.1309
 4579SOL    HW125370   1.005   2.260   6.420  2.2192 -0.1506  0.7119
 4579SOL    HW225371   0.895   2.290   6.523  0.0277 -1.2973 -1.5255
 4580SOL     OW25372   4.458   2.005   4.211 -0.2866 -0.2548 -0.5132
 4580SOL    HW125373   4.398   2.053   4.268 -0.3976  2.5349 -3.0323
 4580SOL    HW225374   4.529   2.069   4.204 -1.7943  1.3406 -1.1393
 4581SOL     OW25375   2.917   2.148   9.060 -0.6286  0.1923  0.3633
 4581SOL    HW125376   2.950   2.158   9.149 -0.5029  0.7062  0.2608
 4581SOL    HW225377   2.823   2.144   9.078 -1.0452  1.1911 -1.5032
 4582SOL     OW25378   3.307   2.325   7.260 -0.0504 -0.7992  0.1183
 4582SOL    HW125379   3.242   2.329   7.329 -1.7099  0.1989 -1.4848
 4582SOL    HW225380   3.349   2.409   7.280  1.8702 -1.5985 -0.5839
 4583SOL     OW25381   3.811   4.192  14.961  0.4648  0.3120  0.4735
 4583SOL    HW125382   3.751   4.262  14.933 -1.1779 -0.3835  2.2613
 4583SOL    HW225383   3.895   4.230  14.934 -0.2259  1.0486 -0.6474
 4584SOL     OW25384   4.603   3.751  13.297 -0.5179 -0.5998 -0.5583
 4584SOL    HW125385   4.567   3.832  13.260  1.1182  0.5238  0.3361
 4584SOL    HW225386   4.524   3.711  13.334 -1.1346 -0.7321 -1.9999
 4585SOL     OW25387   2.326   3.909   1.870 -0.4025 -0.4728 -0.0795
 4585SOL    HW125388   2.354   3.991   1.829  0.3349 -0.3165  0.7343
 4585SOL    HW225389   2.263   3.936   1.937  0.1558 -0.2538  0.3545
 4586SOL     OW25390   3.393   3.820   8.440 -0.7692 -0.3581 -0.4906
 4586SOL    HW125391   3.485   3.794   8.442  0.1544  3.1876  2.0493
 4586SOL    HW225392   3.344   3.739   8.427 -0.7620 -0.5454  0.6610
 4587SOL     OW25393   3.530   0.885   4.527 -0.8248 -0.2485 -0.0174
 4587SOL    HW125394   3.567   0.958   4.477  0.1414  1.2978  2.9137
 4587SOL    HW225395   3.479   0.851   4.454 -2.0977  0.6261  0.4606
 4588SOL     OW25396   1.560   4.554   8.744 -0.4580  0.2093 -0.3838
 4588SOL    HW125397   1.492   4.621   8.754 -1.4381 -0.9685  0.8227
 4588SOL    HW225398   1.511   4.473   8.732 -1.0680  0.6910 -1.1909
 4589SOL     OW25399   0.042   3.602   8.445  0.1524  0.2366  0.0432
 4589SOL    HW125400   4.701   3.573   8.495  0.0611  1.2992  0.5118
 4589SOL    HW225401   0.058   3.687   8.487 -0.6246  0.5658 -0.3245
 4590SOL     OW25402   2.504   0.020   3.837  0.9551  0.6417  0.1543
 4590SOL    HW125403   2.415   0.021   3.802  1.2832 -1.0776 -0.7600
 4590SOL    HW225404   2.543   4.690   3.777  1.3016  1.3098 -0.3309
 4591SOL     OW25405   4.491   3.937  11.926 -0.3382 -0.0922  0.0007
 4591SOL    HW125406   4.513   3.948  12.018 -0.8763 -3.5805  0.5375
 4591SOL    HW225407   4.406   3.981  11.927  0.8566  2.1258  2.7046
 4592SOL     OW25408   1.299   1.596  15.185  0.2232 -0.1847  0.5385
 4592SOL    HW125409   1.328   1.661  15.250 -2.6414  0.8401  0.7780
 4592SOL    HW225410   1.292   1.518  15.240 -0.8824  1.0566  2.1964
 4593SOL     OW25411   3.639   0.344   3.741  0.1645 -0.1772  0.1591
 4593SOL    HW125412   3.638   0.272   3.678  1.8177  2.7199 -3.1996
 4593SOL    HW225413   3.668   0.419   3.688 -0.4320 -1.1458 -1.5441
 4594SOL     OW25414   0.257   3.931   4.836  0.4378  0.2859  0.2513
 4594SOL    HW125415   0.243   3.855   4.780  1.2152 -0.0271  0.4716
 4594SOL    HW225416   0.341   3.965   4.805  0.0504  0.1879 -0.8739
 4595SOL     OW25417   3.850   0.322   3.957 -0.0829  0.1397  0.1257
 4595SOL    HW125418   3.846   0.414   3.933 -1.2353  0.7368  2.5760
 4595SOL    HW225419   3.769   0.286   3.920 -1.3303  3.0917 -0.0051
 4596SOL     OW25420   1.857   2.905  16.807  0.1518  0.1437  0.5958
 4596SOL    HW125421   1.829   2.829  16.858 -1.3907  0.0551 -0.3816
 4596SOL    HW225422   1.808   2.974  16.852 -0.7154  0.4214 -0.7532
 4597SOL     OW25423   3.827   1.487   4.505 -0.0708  0.3923  0.2130
 4597SOL    HW125424   3.787   1.415   4.553  1.0775  0.2675  0.9868
 4597SOL    HW225425   3.847   1.547   4.577 -1.5099 -1.4682  2.1814
 4598SOL     OW25426   0.608   3.153   7.737 -0.5673 -0.0470  0.1114
 4598SOL    HW125427   0.618   3.234   7.786 -0.6017  1.2241 -1.9856
 4598SOL    HW225428   0.695   3.151   7.698 -0.5088 -0.5447  0.2611
 4599SOL     OW25429   3.082   1.040   5.879 -0.1190 -0.0643 -0.0087
 4599SOL    HW125430   3.158   1.096   5.896  0.8358 -1.5642  0.6058
 4599SOL    HW225431   3.120   0.954   5.894  3.4743  1.6931  0.7580
 4600SOL     OW25432   2.546   1.660   4.281 -0.4534  0.4000 -0.8295
 4600SOL    HW125433   2.611   1.617   4.336 -0.1356  0.8445 -0.8585
 4600SOL    HW225434   2.598   1.708   4.215  0.3938  0.3056 -0.2325
 4601SOL     OW25435   1.406   0.092   5.686 -0.3049  1.2085  0.2928
 4601SOL    HW125436   1.407   0.168   5.629  0.7585  0.8866 -0.1141
 4601SOL    HW225437   1.330   0.044   5.651  1.1899 -0.9267 -0.0245
 4602SOL     OW25438   4.543   0.856   3.820  0.1876  0.0798  0.2562
 4602SOL    HW125439   4.566   0.803   3.744  0.4906 -1.1877  1.2291
 4602SOL    HW225440   4.491   0.794   3.870 -0.9373  0.7575 -0.0843
 4603SOL     OW25441   4.529   0.887   3.414  0.3933  0.4843 -0.3793
 4603SOL    HW125442   4.544   0.867   3.321  4.0464 -0.5759  0.4366
 4603SOL    HW225443   4.538   0.804   3.462  0.5154  0.8567  0.2365
 4604SOL     OW25444   1.856   0.950  15.975  0.0640  0.2509  0.0152
 4604SOL    HW125445   1.829   1.020  15.916 -1.7476 -0.0842  0.4548
 4604SOL    HW225446   1.776   0.916  16.015  0.7611 -1.1415  0.2165
 4605SOL     OW25447   4.379   0.026   6.121 -0.0714 -0.3630  0.7010
 4605SOL    HW125448   4.461   4.719   6.148  1.7521  2.2213 -0.8529
 4605SOL    HW225449   4.350   4.722   6.038  0.5709 -2.4770  1.4419
 4606SOL     OW25450   1.220   1.440   5.503  0.3193 -0.6388  0.5552
 4606SOL    HW125451   1.138   1.427   5.455  2.0746  1.2863 -2.8537
 4606SOL    HW225452   1.219   1.529   5.538 -0.0181 -1.4397  2.6113
 4607SOL     OW25453   2.477   1.176  10.783  0.6691 -0.5484  0.2927
 4607SOL    HW125454   2.410   1.108  10.790 -2.0049  2.1224  0.8453
 4607SOL    HW225455   2.469   1.221  10.867  1.9765  1.1872 -0.5195
 4608SOL     OW25456   3.221   0.482   3.191 -0.1928 -0.0528 -0.3917
 4608SOL    HW125457   3.228   0.394   3.156 -1.9999  0.5386 -2.2133
 4608SOL    HW225458   3.166   0.457   3.265 -0.0417 -1.7795 -0.8706
 4609SOL     OW25459   4.345   0.397   7.319  0.3307 -0.1614  0.7009
 4609SOL    HW125460   4.251   0.408   7.305  0.5981  0.3483 -0.6589
 4609SOL    HW225461   4.368   0.318   7.269 -0.5356 -1.0811  1.7510
 4610SOL     OW25462   4.544   2.862   3.955  0.0220  0.0977 -0.6516
 4610SOL    HW125463   4.524   2.924   3.885 -1.7352 -0.2576 -0.4612
 4610SOL    HW225464   4.538   2.908   4.039 -0.4726  0.5575 -0.9454
 4611SOL     OW25465   3.558   3.648   8.647  0.8401 -0.5869  0.3570
 4611SOL    HW125466   3.508   3.572   8.618  1.2834 -0.5958 -0.3789
 4611SOL    HW225467   3.515   3.671   8.730 -3.4157 -0.6336 -1.8476
 4612SOL     OW25468   3.439   2.385  10.239  0.8626 -0.1285  0.0354
 4612SOL    HW125469   3.410   2.457  10.295 -0.0198 -1.5432  1.3983
 4612SOL    HW225470   3.359   2.369  10.190  0.0761 -0.2195  1.3601
 4613SOL     OW25471   3.181   2.894  12.332 -0.0710 -0.9445  0.3174
 4613SOL    HW125472   3.203   2.891  12.425 -1.2954 -0.2010  0.6241
 4613SOL    HW225473   3.267   2.914  12.295 -0.9892  0.7347 -0.9425
 4614SOL     OW25474   4.485   3.122   2.408 -0.1674 -0.1376 -0.2620
 4614SOL    HW125475   4.430   3.131   2.486  0.0631 -4.0505  0.3867
 4614SOL    HW225476   4.494   3.027   2.400 -2.0923 -0.2820 -0.5102
 4615SOL     OW25477   4.633   3.920   7.672 -0.6896 -0.2934  0.0174
 4615SOL    HW125478   4.718   3.952   7.701  0.1799 -1.0606 -1.6606
 4615SOL    HW225479   4.573   3.955   7.738  0.1201  1.1465 -0.0261
 4616SOL     OW25480   2.664   1.524   6.407 -0.5526 -0.0065  0.2237
 4616SOL    HW125481   2.606   1.473   6.349  1.0688 -2.0902  0.4654
 4616SOL    HW225482   2.719   1.553   6.334  0.9900 -0.2728  1.2996
 4617SOL     OW25483   3.370   2.827   9.824 -0.1490  0.3036  0.3494
 4617SOL    HW125484   3.311   2.755   9.844  0.8154 -0.3820  0.7434
 4617SOL    HW225485   3.321   2.900   9.861 -1.1123 -0.5469  0.7583
 4618SOL     OW25486   0.072   1.455   8.249  0.1300  0.1207 -0.1722
 4618SOL    HW125487   0.052   1.521   8.182 -1.9548  2.0513  2.3353
 4618SOL    HW225488   0.033   1.497   8.325 -1.4060  1.8149 -1.8960
 4619SOL     OW25489   3.739   1.243   7.885  0.6599 -0.0874  0.0977
 4619SOL    HW125490   3.656   1.263   7.841  1.6243  4.4327  0.2772
 4619SOL    HW225491   3.725   1.150   7.898  0.1124 -0.2783 -1.8433
 4620SOL     OW25492   1.297   2.627   3.528  0.1099  0.5960 -0.1695
 4620SOL    HW125493   1.208   2.653   3.553  0.3388 -0.6124  1.8185
 4620SOL    HW225494   1.343   2.613   3.611  1.9796  1.6256 -1.0112
 4621SOL     OW25495   1.008   2.786   5.324  0.4200  0.5832 -0.3420
 4621SOL    HW125496   1.048   2.844   5.388 -2.0564 -0.2099  1.9204
 4621SOL    HW225497   1.088   2.764   5.275 -0.2384 -0.3927 -0.9745
 4622SOL     OW25498   0.240   1.987   4.669 -0.0995 -0.0733  0.5892
 4622SOL    HW125499   0.164   1.976   4.726 -0.7780 -2.7760 -0.8477
 4622SOL    HW225500   0.298   2.053   4.708 -0.7725  0.9156 -0.0666
 4623SOL     OW25501   1.001   3.436   8.403 -0.1983 -0.0311 -0.7720
 4623SOL    HW125502   0.929   3.418   8.342 -0.5246 -1.0969 -0.0519
 4623SOL    HW225503   1.076   3.463   8.349  0.0313  0.7644 -0.0647
 4624SOL     OW25504   4.353   2.378   8.761  0.1408 -0.2949 -0.2957
 4624SOL    HW125505   4.314   2.345   8.680  2.6584  1.9011 -2.4347
 4624SOL    HW225506   4.367   2.289   8.793  1.6355  0.5332  1.3478
 4625SOL     OW25507   1.842   1.186   5.706 -0.1405 -0.8559 -0.0760
 4625SOL    HW125508   1.770   1.187   5.643  0.1786  1.1231 -0.4072
 4625SOL    HW225509   1.916   1.206   5.649  0.5359 -0.0811  1.0734
 4626SOL     OW25510   2.992   2.219  10.200 -0.0344  0.2091  0.3892
 4626SOL    HW125511   3.017   2.265  10.281 -0.5380 -0.6293  1.0263
 4626SOL    HW225512   2.940   2.286  10.156  0.3572  0.3592  0.1584
 4627SOL     OW25513   0.891   4.731   4.837  0.0353 -0.0011  0.6942
 4627SOL    HW125514   0.920   0.037   4.756 -0.9715 -0.5218  0.0808
 4627SOL    HW225515   0.872   4.648   4.793 -0.3671  0.1419  0.6009
 4628SOL     OW25516   2.847   2.043   1.834 -0.0061  0.1371 -0.1942
 4628SOL    HW125517   2.911   1.983   1.795 -0.5417  1.1567 -2.5914
 4628SOL    HW225518   2.865   2.124   1.787 -4.7000 -0.0620 -2.3253
 4629SOL     OW25519   3.131   3.227   8.163 -0.1679  0.4388  0.6184
 4629SOL    HW125520   3.077   3.220   8.241 -1.1898  2.7795  0.0919
 4629SOL    HW225521   3.211   3.267   8.198 -0.0563 -0.2065  1.1052
 4630SOL     OW25522   0.361   3.876  15.302 -0.0297  0.3026 -0.5453
 4630SOL    HW125523   0.378   3.785  15.277 -1.1047 -0.0263 -0.0898
 4630SOL    HW225524   0.440   3.922  15.275  0.1836  0.1434 -0.1839
 4631SOL     OW25525   2.594   2.429  10.786 -0.0751 -0.6986 -0.4162
 4631SOL    HW125526   2.651   2.448  10.861 -1.9669  1.0838  0.5658
 4631SOL    HW225527   2.522   2.383  10.828  1.3315 -3.7060 -1.3332
 4632SOL     OW25528   3.682   3.182   3.618 -0.0494  0.0414 -0.1792
 4632SOL    HW125529   3.743   3.109   3.622 -0.4066 -0.2061  0.8191
 4632SOL    HW225530   3.715   3.240   3.686 -0.7923  1.5636 -1.1115
 4633SOL     OW25531   1.909   1.870   4.646 -0.2419  0.3763  0.3647
 4633SOL    HW125532   1.982   1.929   4.629  1.5225 -1.8029  0.3926
 4633SOL    HW225533   1.876   1.906   4.728  1.3162 -0.5248  1.3728
 4634SOL     OW25534   4.353   4.678   3.441  0.3107 -0.5017  0.0423
 4634SOL    HW125535   4.431   4.700   3.391  1.0102 -0.0931  1.3007
 4634SOL    HW225536   4.399   4.674   3.525 -2.7948 -2.1483  1.6638
 4635SOL     OW25537   3.711   0.202   7.775  0.1733 -0.4863 -0.6191
 4635SOL    HW125538   3.650   0.129   7.777  0.7991 -1.0149 -1.2485
 4635SOL    HW225539   3.774   0.178   7.843 -1.4723  0.1713  1.1494
 4636SOL     OW25540   0.904   2.738  13.209 -0.0737  0.2874  0.4183
 4636SOL    HW125541   0.917   2.731  13.114 -0.0877 -0.5652  0.4713
 4636SOL    HW225542   0.982   2.702  13.251  1.2882  1.0009 -1.5494
 4637SOL     OW25543   1.668   2.545   2.604 -0.2945 -0.2855  0.3435
 4637SOL    HW125544   1.721   2.466   2.593 -0.7435 -0.9700  3.1087
 4637SOL    HW225545   1.686   2.576   2.516  1.4619 -1.0042  0.4453
 4638SOL     OW25546   0.519   0.243   8.016  0.1632  0.6026  0.5219
 4638SOL    HW125547   0.517   0.247   7.920 -1.2595 -2.8207  0.4350
 4638SOL    HW225548   0.592   0.182   8.030  1.5756  1.6565 -2.1601
 4639SOL     OW25549   2.969   1.965   7.785 -0.2722  0.1127 -0.8185
 4639SOL    HW125550   2.923   1.940   7.705 -1.3385 -2.9449  0.7333
 4639SOL    HW225551   3.044   1.906   7.787 -0.4914 -0.1063  0.8645
 4640SOL     OW25552   2.487   1.195   3.432 -0.2583  0.0008 -0.3705
 4640SOL    HW125553   2.468   1.111   3.389 -0.8120  0.2626 -0.6460
 4640SOL    HW225554   2.578   1.198   3.405  0.1381  0.7642  1.0749
 4641SOL     OW25555   3.722   1.941   8.678 -0.3974 -0.4832  0.1533
 4641SOL    HW125556   3.744   1.854   8.644 -2.4421 -1.5678  1.6080
 4641SOL    HW225557   3.689   1.913   8.763 -0.7412 -0.2379  0.1024
 4642SOL     OW25558   3.614   4.519   4.835  0.3193  0.2799 -0.0136
 4642SOL    HW125559   3.611   4.615   4.840  1.8426  0.3758 -0.9569
 4642SOL    HW225560   3.541   4.500   4.894 -0.6775  1.9686 -0.7145
 4643SOL     OW25561   0.716   3.538   4.715  0.5736 -0.3647  0.0306
 4643SOL    HW125562   0.730   3.451   4.752 -0.4013 -1.2536 -1.7305
 4643SOL    HW225563   0.694   3.516   4.625  3.3907  2.6101 -1.4233
 4644SOL     OW25564   4.008   4.149   7.865  0.3036 -0.4061  0.4997
 4644SOL    HW125565   3.953   4.074   7.889 -1.3397 -0.1253 -2.3899
 4644SOL    HW225566   4.062   4.145   7.944  0.9938  1.1545  0.1116
 4645SOL     OW25567   3.221   0.441  12.204  0.2437  0.3825  0.4290
 4645SOL    HW125568   3.270   0.509  12.158  0.5315  0.3159  0.6355
 4645SOL    HW225569   3.182   0.405  12.125 -2.0772 -0.5826  1.9993
 4646SOL     OW25570   0.532   2.135   3.893  0.3875 -0.3076  0.6222
 4646SOL    HW125571   0.592   2.092   3.954  1.0599 -1.3073 -0.7430
 4646SOL    HW225572   0.445   2.103   3.915 -0.5434 -1.0036 -4.1250
 4647SOL     OW25573   2.088   1.613   1.561  0.4600 -0.3802  0.1251
 4647SOL    HW125574   2.020   1.657   1.612  0.6426 -1.3780  1.2374
 4647SOL    HW225575   2.169   1.651   1.597  0.3420 -0.6628  0.6877
 4648SOL     OW25576   2.319   1.340   2.059 -0.3265  0.1566 -0.1263
 4648SOL    HW125577   2.323   1.318   1.966  1.3303  0.2879 -0.0941
 4648SOL    HW225578   2.294   1.259   2.103  0.3997  1.3087  2.4569
 4649SOL     OW25579   1.275   1.619   8.357  0.1679  0.3617  0.0736
 4649SOL    HW125580   1.278   1.572   8.440  1.8290 -2.0581 -1.3195
 4649SOL    HW225581   1.189   1.592   8.325  0.3675  0.9504 -0.9750
 4650SOL     OW25582   0.962   2.002   2.982  0.3821 -0.5212 -0.0359
 4650SOL    HW125583   0.892   2.031   3.040  0.9057 -0.9660  0.8069
 4650SOL    HW225584   0.913   1.973   2.905  0.0976 -1.2185  0.4125
 4651SOL     OW25585   1.177   1.708  12.348  0.2044 -0.0719  0.0322
 4651SOL    HW125586   1.146   1.621  12.373  0.9485 -0.7580 -1.4224
 4651SOL    HW225587   1.158   1.765  12.422 -2.5286  0.2060 -0.8981
 4652SOL     OW25588   4.390   3.455   1.825 -0.0061  0.3366 -0.1005
 4652SOL    HW125589   4.419   3.444   1.916 -0.4215 -0.5019 -0.0702
 4652SOL    HW225590   4.420   3.367   1.800 -0.3154  0.4616 -0.8837
 4653SOL     OW25591   0.951   4.059   3.226 -0.1132 -0.2210 -0.2567
 4653SOL    HW125592   0.938   3.986   3.165  2.1051 -1.8627  1.2392
 4653SOL    HW225593   1.037   4.036   3.262  0.8686 -0.0623 -2.5242
 4654SOL     OW25594   2.654   3.055   1.159  0.7877  0.6920  0.3049
 4654SOL    HW125595   2.721   3.104   1.206 -0.6836  1.3269  1.7096
 4654SOL    HW225596   2.677   2.966   1.183  0.2417  0.2977 -0.6273
 4655SOL     OW25597   2.636   3.483   4.815 -0.0763 -0.5819  0.2336
 4655SOL    HW125598   2.547   3.469   4.849 -0.0641 -2.2677 -0.4787
 4655SOL    HW225599   2.656   3.395   4.785  0.4541 -1.0848  2.0675
 4656SOL     OW25600   4.570   1.698   2.694 -0.3248 -0.7015 -0.0889
 4656SOL    HW125601   4.660   1.673   2.713  0.8179  3.1547 -0.4568
 4656SOL    HW225602   4.544   1.736   2.778 -1.4411 -1.6828  0.0160
 4657SOL     OW25603   3.986   3.078  13.825 -0.0739 -0.0742  0.2292
 4657SOL    HW125604   3.901   3.116  13.845 -0.7435 -1.4782 -0.0013
 4657SOL    HW225605   3.976   3.049  13.734  1.0147 -0.6373  0.2860
 4658SOL     OW25606   3.573   4.664  17.581 -0.3886  0.0705 -0.3030
 4658SOL    HW125607   3.596   0.022  17.579 -0.8774  0.1859 -0.8184
 4658SOL    HW225608   3.653   4.615  17.563 -0.5383 -0.0399 -0.6822
 4659SOL     OW25609   3.336   1.707   5.018 -0.4035 -0.0573 -0.1012
 4659SOL    HW125610   3.261   1.689   4.961 -0.9679  1.0121  0.3023
 4659SOL    HW225611   3.303   1.793   5.045 -0.8322 -0.3615  0.3404
 4660SOL     OW25612   1.020   3.864   3.034 -0.1233 -0.1360  0.4437
 4660SOL    HW125613   0.946   3.808   3.012 -0.9453  1.0750  0.1673
 4660SOL    HW225614   1.088   3.811   2.991  0.7713  1.3806  0.0138
 4661SOL     OW25615   4.605   1.896  11.790 -0.7651 -0.6081 -0.1903
 4661SOL    HW125616   4.564   1.921  11.708 -1.6474 -1.6071 -0.0456
 4661SOL    HW225617   4.690   1.861  11.763 -0.2383 -0.1143  0.8343
 4662SOL     OW25618   3.272   4.242   7.631  0.0077 -0.4892  0.1346
 4662SOL    HW125619   3.263   4.269   7.539 -3.2731 -0.7883  0.3631
 4662SOL    HW225620   3.187   4.206   7.657 -0.8276 -0.9410 -3.1562
 4663SOL     OW25621   0.521   0.811   0.403 -0.0536 -0.3495  0.1246
 4663SOL    HW125622   0.490   0.795   0.492  2.4969 -0.7707  0.9138
 4663SOL    HW225623   0.589   0.745   0.396 -1.9694 -2.4122  0.8664
 4664SOL     OW25624   4.297   4.085   1.361  0.3973  0.4672 -0.6060
 4664SOL    HW125625   4.258   4.006   1.325  1.3674 -0.0475 -0.5477
 4664SOL    HW225626   4.372   4.047   1.407  0.1938 -0.0025 -0.6650
 4665SOL     OW25627   1.846   3.923   1.999 -0.1283 -0.3427 -0.6417
 4665SOL    HW125628   1.891   3.886   1.923  1.0727  0.1793 -0.1978
 4665SOL    HW225629   1.762   3.881   1.984 -1.5088  2.3382 -0.4798
 4666SOL     OW25630   4.063   4.044   2.662 -0.0011 -0.0627  0.1085
 4666SOL    HW125631   4.135   4.088   2.618 -0.1958 -1.8148 -1.9573
 4666SOL    HW225632   4.101   4.021   2.747 -2.1302 -0.5681  0.9295
 4667SOL     OW25633   4.033   0.898   3.429 -0.1886 -0.6825  0.2133
 4667SOL    HW125634   4.009   0.941   3.511  1.7586  2.0463 -0.6581
 4667SOL    HW225635   3.993   0.950   3.359  1.2479 -0.0838 -0.1566
 4668SOL     OW25636   2.483   2.542   5.080  0.1545 -0.5751  0.1940
 4668SOL    HW125637   2.565   2.530   5.032  0.8328  2.5841  0.5153
 4668SOL    HW225638   2.448   2.457   5.053 -0.1524 -0.8751  1.5669
 4669SOL     OW25639   2.537   0.190   9.899  0.2415  0.4171  0.2679
 4669SOL    HW125640   2.588   0.204   9.979  1.0508 -0.1910 -0.1471
 4669SOL    HW225641   2.608   0.148   9.850  2.0363  2.0441  1.4660
 4670SOL     OW25642   3.315   2.466   1.409 -0.3602 -0.8480 -0.1307
 4670SOL    HW125643   3.337   2.540   1.352  1.9301 -0.2966  1.4609
 4670SOL    HW225644   3.406   2.437   1.418 -0.5119 -1.4674 -0.5979
 4671SOL     OW25645   1.917   3.377   8.306 -0.4027  0.2254 -0.1285
 4671SOL    HW125646   1.933   3.375   8.400 -1.6149 -2.9150  0.0061
 4671SOL    HW225647   1.851   3.307   8.298 -0.4668  0.2956 -0.2128
 4672SOL     OW25648   3.911   0.252   3.411 -0.4152  0.1397  0.6269
 4672SOL    HW125649   3.968   0.249   3.488  2.1455 -2.5104 -1.3610
 4672SOL    HW225650   3.942   0.174   3.365 -1.1964 -0.4602  1.1221
 4673SOL     OW25651   1.943   0.641  17.287  0.1580  0.3811  0.4657
 4673SOL    HW125652   1.957   0.636  17.192 -2.3656 -1.1236  0.1606
 4673SOL    HW225653   2.003   0.578  17.326  1.0218  1.3385  0.6911
 4674SOL     OW25654   4.175   3.734   0.283  0.4051 -0.2203  0.1279
 4674SOL    HW125655   4.186   3.790   0.359 -0.6682 -0.9862  0.8627
 4674SOL    HW225656   4.223   3.781   0.215 -0.8210 -0.8230 -1.1600
 4675SOL     OW25657   1.428   2.045  17.100  0.3538 -0.1032 -0.2950
 4675SOL    HW125658   1.462   1.958  17.124 -2.1029 -1.6027 -2.2067
 4675SOL    HW225659   1.499   2.098  17.136  0.3690 -0.8200  0.7118
 4676SOL     OW25660   3.427   2.657  16.331 -0.0251 -0.2938 -0.8234
 4676SOL    HW125661   3.438   2.588  16.397 -0.2087  0.2869 -0.1819
 4676SOL    HW225662   3.447   2.735  16.383  0.6352 -2.1522  1.7418
 4677SOL     OW25663   2.959   1.269   3.236 -0.2610 -0.3835 -0.0601
 4677SOL    HW125664   2.878   1.295   3.279  0.2725  0.7902  0.2434
 4677SOL    HW225665   2.969   1.176   3.255  2.1195 -0.3462 -1.1054
 4678SOL     OW25666   2.584   0.661   7.146 -0.7493 -0.4538 -0.5372
 4678SOL    HW125667   2.629   0.727   7.200  0.8369 -2.0353  0.0996
 4678SOL    HW225668   2.607   0.686   7.056  1.1520 -0.7565 -0.1389
 4679SOL     OW25669   1.922   3.941   1.122  0.3006  0.0396 -0.0744
 4679SOL    HW125670   1.879   3.897   1.196  1.0935 -2.3789 -1.0501
 4679SOL    HW225671   1.990   3.876   1.102  1.0287  0.0202  2.5471
 4680SOL     OW25672   0.004   1.353   3.539 -0.7858  0.0835  0.1295
 4680SOL    HW125673   4.717   1.260   3.530  1.3238 -0.5024  1.1720
 4680SOL    HW225674   0.045   1.348   3.625  0.9549  1.5971 -0.6248
 4681SOL     OW25675   0.100   3.287   5.849  0.5685 -0.0560  0.3577
 4681SOL    HW125676   0.179   3.315   5.895 -0.0182 -2.1425  2.6255
 4681SOL    HW225677   0.131   3.208   5.805 -0.1337 -1.6753  2.7630
 4682SOL     OW25678   4.470   0.265   5.247 -0.5065  0.2319  0.1134
 4682SOL    HW125679   4.435   0.339   5.197  1.4710 -0.4770 -2.3591
 4682SOL    HW225680   4.549   0.243   5.197 -0.5652 -0.5604  0.3828
 4683SOL     OW25681   0.747   3.927   2.711  0.5793 -0.3993  0.0386
 4683SOL    HW125682   0.837   3.958   2.705  0.8780 -1.6307 -1.8042
 4683SOL    HW225683   0.709   3.940   2.798 -2.5931 -0.0916 -1.4009
 4684SOL     OW25684   4.463   0.122   4.230  0.3039  0.7463  0.0388
 4684SOL    HW125685   4.555   0.149   4.236  0.0819  1.2516  1.1510
 4684SOL    HW225686   4.439   0.170   4.150 -1.1405 -0.0094  0.0165
 4685SOL     OW25687   3.628   2.002  16.036  0.0154 -0.0939 -0.1575
 4685SOL    HW125688   3.569   2.063  16.081  1.1906  1.1857 -0.3593
 4685SOL    HW225689   3.628   1.926  16.094  0.2996 -0.8224 -1.1326
 4686SOL     OW25690   2.000   2.760   8.134 -0.4794  0.3196  0.2472
 4686SOL    HW125691   2.017   2.828   8.070  0.7503 -1.5629 -1.4072
 4686SOL    HW225692   2.072   2.702   8.108 -0.4016 -0.3225  1.8225
 4687SOL     OW25693   3.329   0.408  14.372 -1.2638  0.2344 -0.4303
 4687SOL    HW125694   3.329   0.500  14.347 -1.0052  0.4388  0.3358
 4687SOL    HW225695   3.360   0.379  14.286 -0.5114  1.8980 -0.7137
 4688SOL     OW25696   4.275   0.083   7.566  0.1422  1.1278  0.4339
 4688SOL    HW125697   4.357   0.034   7.562 -0.1156  0.8346 -1.3517
 4688SOL    HW225698   4.236   0.062   7.651  1.0757 -1.5257  0.1961
 4689SOL     OW25699   3.389   2.177   4.847  0.5714 -0.4193 -0.2819
 4689SOL    HW125700   3.427   2.152   4.932  1.5826  0.7919 -0.3840
 4689SOL    HW225701   3.474   2.192   4.805  1.2326  1.1100  1.6161
 4690SOL     OW25702   4.227   2.788  13.823 -0.3213 -0.2104  0.4039
 4690SOL    HW125703   4.183   2.718  13.775  0.8634 -0.7682  0.1303
 4690SOL    HW225704   4.282   2.817  13.750  2.2381  1.0110  2.8184
 4691SOL     OW25705   1.607   3.475  12.103 -0.0501  0.1276  0.0511
 4691SOL    HW125706   1.636   3.402  12.157  0.8548  1.0267  0.7922
 4691SOL    HW225707   1.689   3.497  12.058 -0.9974  0.8043 -1.3485
 4692SOL     OW25708   1.378   0.055  10.315 -0.5477 -0.3391  0.9223
 4692SOL    HW125709   1.326   0.113  10.260 -0.3049 -0.1987  0.8459
 4692SOL    HW225710   1.349   0.070  10.405  0.9203 -0.0746  1.3353
 4693SOL     OW25711   0.074   2.672   4.902 -0.6514  0.5931 -0.9423
 4693SOL    HW125712   0.134   2.727   4.953  1.3409 -0.3795 -2.2545
 4693SOL    HW225713   0.035   2.625   4.976 -0.6440  1.3837 -0.4305
 4694SOL     OW25714   2.089   2.173  14.717 -0.1616 -0.1807 -0.4035
 4694SOL    HW125715   2.031   2.231  14.667 -0.8798 -0.2117  0.4070
 4694SOL    HW225716   2.164   2.231  14.727 -0.2096 -0.0895 -0.5613
 4695SOL     OW25717   3.464   0.594  11.272 -0.1203 -0.8213  0.1337
 4695SOL    HW125718   3.529   0.638  11.216  0.4376 -0.5112  1.0265
 4695SOL    HW225719   3.520   0.527  11.310  1.3159  0.7638  0.8046
 4696SOL     OW25720   1.152   1.516   8.098 -0.0421 -0.9236 -0.3894
 4696SOL    HW125721   1.094   1.505   8.174  1.0629 -0.5723  0.5062
 4696SOL    HW225722   1.118   1.599   8.064 -1.3958 -0.4875  2.0076
 4697SOL     OW25723   1.956   4.110   5.234  0.3592 -0.0123  0.3516
 4697SOL    HW125724   1.890   4.064   5.286  1.0420 -1.0433  0.2968
 4697SOL    HW225725   2.030   4.082   5.288  0.8132  1.3044  0.4173
 4698SOL     OW25726   1.174   3.370   6.275 -0.0431  0.3208  0.3209
 4698SOL    HW125727   1.099   3.423   6.303  0.7327  1.4168  0.3444
 4698SOL    HW225728   1.253   3.421   6.297  1.2308 -1.3067 -0.4736
 4699SOL     OW25729   4.674   4.612  15.993  0.9182  0.1994 -0.2543
 4699SOL    HW125730   4.659   4.529  15.948 -2.2278 -0.3632  1.7623
 4699SOL    HW225731   4.615   4.668  15.943 -1.3201 -0.4477  1.6524
 4700SOL     OW25732   1.900   0.249   5.265  0.3465 -0.2898 -0.5589
 4700SOL    HW125733   1.987   0.287   5.279  0.8349 -1.6341  0.0881
 4700SOL    HW225734   1.889   0.274   5.174  0.4811  1.1397 -0.1803
 4701SOL     OW25735   2.177   4.503  11.047  0.7213 -0.4229 -0.6901
 4701SOL    HW125736   2.125   4.582  11.065  2.3917  0.3340  0.8576
 4701SOL    HW225737   2.109   4.439  11.028 -0.4195  0.0947  1.7629
 4702SOL     OW25738   0.505   4.700  13.946  0.0574  0.2138 -0.2963
 4702SOL    HW125739   0.540   4.611  13.936  0.0201  0.0440  1.1436
 4702SOL    HW225740   0.525   4.714  14.039  0.7233  0.5654 -0.4898
 4703SOL     OW25741   3.327   2.696   6.164 -0.0741 -0.7204 -1.0302
 4703SOL    HW125742   3.364   2.612   6.191 -0.2010  0.3929  2.5858
 4703SOL    HW225743   3.250   2.683   6.220  0.2575  2.2737  0.0819
 4704SOL     OW25744   0.147   0.797   4.260  0.2555  0.3911 -0.7260
 4704SOL    HW125745   0.219   0.734   4.262 -0.5649 -0.5088  0.5935
 4704SOL    HW225746   0.187   0.883   4.247  0.9614  0.2807  0.6659
 4705SOL     OW25747   4.694   1.326   2.994  0.3921  0.1253 -0.2766
 4705SOL    HW125748   4.724   1.303   2.906  0.1687 -1.5043  0.0754
 4705SOL    HW225749   0.004   1.410   3.003 -0.7504  0.6702  0.3058
 4706SOL     OW25750   0.508   0.430   8.449 -0.5132 -0.1775  0.3089
 4706SOL    HW125751   0.451   0.499   8.485 -0.6470 -0.7375  1.1761
 4706SOL    HW225752   0.448   0.399   8.381  2.1739  0.1691 -2.2118
 4707SOL     OW25753   2.659   2.412   6.187  0.0798  0.2433 -0.3862
 4707SOL    HW125754   2.630   2.501   6.169 -0.1283  0.2592  0.0258
 4707SOL    HW225755   2.725   2.406   6.117  1.1449  3.0005  0.3936
 4708SOL     OW25756   3.142   2.942  16.343 -0.0969 -0.0801 -0.2217
 4708SOL    HW125757   3.156   2.976  16.254  1.2947 -0.4984 -0.1488
 4708SOL    HW225758   3.220   2.980  16.381 -1.3188  1.0157  1.1923
 4709SOL     OW25759   2.840   0.567   2.000 -0.1807  0.3915 -0.3343
 4709SOL    HW125760   2.840   0.606   2.087 -0.6379  0.9047 -0.5664
 4709SOL    HW225761   2.913   0.614   1.960  1.6501 -2.8972 -0.9051
 4710SOL     OW25762   1.675   0.326   4.261 -0.4627  0.3508  0.5333
 4710SOL    HW125763   1.753   0.344   4.313  1.0229  0.3902 -1.6888
 4710SOL    HW225764   1.601   0.314   4.321 -0.4859  4.2516  1.2566
 4711SOL     OW25765   0.861   3.289   4.142  0.9984  0.1801 -0.5709
 4711SOL    HW125766   0.907   3.347   4.203  0.7184  0.1293 -0.3089
 4711SOL    HW225767   0.830   3.354   4.079 -3.3374 -2.1810 -0.8573
 4712SOL     OW25768   1.487   2.396   6.327  0.3091  0.6090  0.0698
 4712SOL    HW125769   1.407   2.387   6.378 -0.7743  1.9482 -1.4045
 4712SOL    HW225770   1.453   2.422   6.242  0.9431  1.2568  0.0116
 4713SOL     OW25771   3.045   1.694  13.159  0.2643 -0.1676  0.1028
 4713SOL    HW125772   3.126   1.645  13.173  0.6291  0.1999 -0.7491
 4713SOL    HW225773   3.027   1.647  13.078  1.6495  1.5114 -1.1559
 4714SOL     OW25774   3.558   2.276  12.004  0.6034 -0.1667 -0.0881
 4714SOL    HW125775   3.573   2.185  12.030  1.1773 -0.0460  0.0006
 4714SOL    HW225776   3.650   2.301  12.009  0.5741 -0.1620  0.4056
 4715SOL     OW25777   4.279   3.922  10.397  0.3033 -0.8759 -0.1850
 4715SOL    HW125778   4.189   3.906  10.368 -0.6112  2.1275  1.0367
 4715SOL    HW225779   4.308   3.839  10.434  0.1946 -1.0966 -0.5943
 4716SOL     OW25780   0.095   0.674   7.016 -0.4133  0.7270  0.0183
 4716SOL    HW125781   0.160   0.707   6.953 -0.4409  2.8486  1.1015
 4716SOL    HW225782   0.160   0.615   7.054  1.1045  1.3187 -1.6459
 4717SOL     OW25783   0.047   1.136  11.137 -0.0816  0.1552 -0.0999
 4717SOL    HW125784   0.120   1.193  11.162 -1.4290  1.6557  0.4336
 4717SOL    HW225785   0.003   1.189  11.071 -0.7566  0.3190  0.4758
 4718SOL     OW25786   1.481   3.304   6.717  0.3779  0.4681  0.8347
 4718SOL    HW125787   1.506   3.212   6.709 -1.8446 -0.1581  1.3409
 4718SOL    HW225788   1.555   3.346   6.672  0.7652 -2.0698 -0.9075
 4719SOL     OW25789   0.685   3.001   5.244  0.2907  0.2920  0.1923
 4719SOL    HW125790   0.616   2.981   5.181  0.8688 -1.0837 -0.0201
 4719SOL    HW225791   0.740   2.925   5.222  0.5119  1.0519 -1.9193
 4720SOL     OW25792   4.318   2.028  10.621  0.2624  0.0543 -0.0142
 4720SOL    HW125793   4.376   2.057  10.550 -1.1664  0.4200 -1.0373
 4720SOL    HW225794   4.249   2.003  10.561 -1.6662 -0.1590  2.3086
 4721SOL     OW25795   0.227   1.858   6.367  0.3127 -0.6156  0.7264
 4721SOL    HW125796   0.271   1.777   6.341  2.2533  0.4723  0.6090
 4721SOL    HW225797   0.150   1.863   6.312  0.5961 -0.4907  0.3440
 4722SOL     OW25798   2.975   1.401   8.557 -0.4288 -0.6572  0.5950
 4722SOL    HW125799   2.927   1.319   8.571 -0.5236 -0.9869 -1.6519
 4722SOL    HW225800   2.926   1.454   8.620  0.0003  1.2156 -0.6502
 4723SOL     OW25801   3.106   4.635   2.820 -0.4692 -0.6643  0.0852
 4723SOL    HW125802   3.094   4.629   2.915 -0.0849  0.7407  0.2309
 4723SOL    HW225803   3.202   4.637   2.814 -0.4869 -4.1563 -0.7638
 4724SOL     OW25804   3.128   0.194   2.474  0.3700 -0.4089 -0.0642
 4724SOL    HW125805   3.051   0.224   2.426 -0.1951 -1.3426  0.2545
 4724SOL    HW225806   3.127   0.098   2.472 -1.5035 -0.4110  1.8245
 4725SOL     OW25807   4.476   3.102   7.934 -0.6150  0.0047  0.3134
 4725SOL    HW125808   4.399   3.159   7.939 -1.0914 -0.5619 -0.6859
 4725SOL    HW225809   4.538   3.145   7.993 -0.6929  1.1982 -0.4749
 4726SOL     OW25810   1.065   1.717   1.110 -0.3393  0.3280 -0.1905
 4726SOL    HW125811   0.992   1.773   1.135 -0.7920  0.3233 -1.4981
 4726SOL    HW225812   1.061   1.658   1.185 -0.7984  0.4249 -0.1407
 4727SOL     OW25813   3.954   1.464   5.502 -0.4121 -0.2227  0.2257
 4727SOL    HW125814   3.931   1.542   5.452  1.3975  1.5213  2.1084
 4727SOL    HW225815   4.033   1.433   5.458 -1.4570 -0.9553 -1.1053
 4728SOL     OW25816   4.629   0.968   2.194 -0.1035  0.6679 -0.1521
 4728SOL    HW125817   4.587   1.054   2.191 -1.1243  0.1590 -0.3734
 4728SOL    HW225818   4.602   0.936   2.108  2.3850  1.3150 -1.1505
 4729SOL     OW25819   2.984   2.683   8.536 -0.4744  0.1361  0.1737
 4729SOL    HW125820   2.944   2.610   8.487 -1.2183  0.0423  0.9335
 4729SOL    HW225821   3.075   2.655   8.539 -0.0913  1.3434 -0.3923
 4730SOL     OW25822   2.463   3.256   7.540  0.0273  0.6793 -0.3379
 4730SOL    HW125823   2.475   3.348   7.566 -0.7359  1.0029 -1.1314
 4730SOL    HW225824   2.383   3.236   7.587  0.1644  1.8188  0.3913
 4731SOL     OW25825   0.864   2.056   7.037  0.0488 -0.2340 -0.7477
 4731SOL    HW125826   0.814   2.082   6.960  0.8143  1.1958 -0.7582
 4731SOL    HW225827   0.937   2.116   7.021  0.1220 -0.4624 -1.2655
 4732SOL     OW25828   3.188   4.419  13.236 -0.0481 -0.6341  0.2541
 4732SOL    HW125829   3.132   4.494  13.216  0.9624 -0.6711 -2.7298
 4732SOL    HW225830   3.260   4.466  13.280  0.0526  0.2579 -0.8616
 4733SOL     OW25831   1.002   2.698   1.562 -0.5833 -0.2531  0.2000
 4733SOL    HW125832   0.986   2.792   1.567  0.6255 -0.1449  1.8607
 4733SOL    HW225833   1.023   2.681   1.653 -0.3577  1.2197  0.4170
 4734SOL     OW25834   2.758   4.217   3.584 -0.6276  0.5491  0.0867
 4734SOL    HW125835   2.732   4.263   3.504  1.1544 -0.4395 -1.0600
 4734SOL    HW225836   2.719   4.278   3.646  0.4559  1.7446 -0.4149
 4735SOL     OW25837   1.088   4.381   7.221 -0.3733 -0.2672 -0.1110
 4735SOL    HW125838   1.038   4.301   7.203 -0.9540 -0.1595  1.0294
 4735SOL    HW225839   1.038   4.423   7.291  0.9782 -0.6113  1.0506
 4736SOL     OW25840   2.584   1.681   6.110  0.1232  0.8474  0.0990
 4736SOL    HW125841   2.673   1.655   6.131  0.2301 -0.2106 -1.6265
 4736SOL    HW225842   2.592   1.767   6.070 -1.0497  1.5496  1.3736
 4737SOL     OW25843   4.544   4.638   0.212  0.2284 -0.3978 -0.1784
 4737SOL    HW125844   4.572   4.554   0.249  0.6592  0.7534  2.1107
 4737SOL    HW225845   4.627   4.681   0.235  0.4267  0.2334 -2.0328
 4738SOL     OW25846   1.332   4.328  12.244 -0.2685 -0.0181  0.0701
 4738SOL    HW125847   1.403   4.340  12.307 -2.4225 -0.0029  2.4634
 4738SOL    HW225848   1.286   4.250  12.275 -0.4129 -0.0719 -0.2771
 4739SOL     OW25849   1.834   2.313   4.600 -0.1827 -0.1723 -0.2012
 4739SOL    HW125850   1.866   2.403   4.602 -0.3056 -0.2551  3.9738
 4739SOL    HW225851   1.875   2.285   4.518 -3.0573  0.4449 -1.8591
 4740SOL     OW25852   4.486   2.943   3.360 -0.5517 -0.0305  0.2814
 4740SOL    HW125853   4.459   3.001   3.288 -0.2988  1.6570  1.5469
 4740SOL    HW225854   4.402   2.899   3.372  0.3828 -1.3544  1.8157
 4741SOL     OW25855   0.659   0.495   2.228 -0.1941 -0.2531 -0.7665
 4741SOL    HW125856   0.631   0.497   2.320 -1.2013 -0.0612 -1.0748
 4741SOL    HW225857   0.580   0.540   2.199 -1.4671 -1.3759  0.9372
 4742SOL     OW25858   0.909   0.542   3.092 -0.1195 -0.3406 -0.5088
 4742SOL    HW125859   0.820   0.519   3.120 -0.2019  0.7306  0.0853
 4742SOL    HW225860   0.925   0.599   3.167 -0.0157  0.0048 -0.7985
 4743SOL     OW25861   3.898   4.664   7.688  0.6124 -0.2092  0.0663
 4743SOL    HW125862   3.931   4.599   7.750 -0.3095  0.2947  1.0910
 4743SOL    HW225863   3.807   4.646   7.711  0.4458 -1.9518 -1.9671
 4744SOL     OW25864   1.066   0.691   5.658  0.0200 -0.0972 -0.1259
 4744SOL    HW125865   1.086   0.606   5.698  2.8883 -0.7636 -2.9816
 4744SOL    HW225866   1.083   0.748   5.732  0.9465 -0.3664 -0.1330
 4745SOL     OW25867   2.055   4.366  16.144 -0.2086  0.0498 -0.2889
 4745SOL    HW125868   1.976   4.321  16.174  0.6497 -1.1161  0.2452
 4745SOL    HW225869   2.075   4.307  16.072  0.5972  0.5957 -0.5178
 4746SOL     OW25870   2.237   0.839   7.955 -0.6517  0.3177  0.5133
 4746SOL    HW125871   2.283   0.789   8.022  1.1014 -0.4648 -1.2695
 4746SOL    HW225872   2.147   0.812   7.971 -0.4406 -0.8574 -0.2883
 4747SOL     OW25873   0.220   4.444   4.202 -0.2622  0.0422  0.1774
 4747SOL    HW125874   0.200   4.414   4.291 -1.5111 -2.1464 -0.8393
 4747SOL    HW225875   0.268   4.363   4.187  1.8723  1.6380 -1.4746
 4748SOL     OW25876   1.342   1.720   7.437  0.0347 -0.0817  0.6369
 4748SOL    HW125877   1.321   1.708   7.344 -1.4342 -0.8409  1.0693
 4748SOL    HW225878   1.410   1.787   7.426 -0.4580 -0.1331 -2.7867
 4749SOL     OW25879   2.891   0.555   9.037  0.3368 -0.1142 -0.5469
 4749SOL    HW125880   2.960   0.507   8.990  1.0856  2.1455 -1.7662
 4749SOL    HW225881   2.833   0.587   8.968 -2.8922  0.0670  2.2995
 4750SOL     OW25882   4.136   2.584   6.376  0.7629  0.1425 -0.1978
 4750SOL    HW125883   4.187   2.520   6.425 -0.5157 -0.3545  0.4652
 4750SOL    HW225884   4.147   2.664   6.426 -0.7521 -1.3824  2.6006
 4751SOL     OW25885   2.055   1.446   1.239 -0.1358 -0.0442 -0.5115
 4751SOL    HW125886   2.097   1.529   1.219  0.7205 -0.6293 -1.1328
 4751SOL    HW225887   2.034   1.465   1.330  1.4016  2.4691 -0.6954
 4752SOL     OW25888   1.471   3.331   2.152  0.3592  0.2785 -0.1766
 4752SOL    HW125889   1.450   3.425   2.152  0.2838  0.2541 -1.8459
 4752SOL    HW225890   1.393   3.289   2.115  0.2273 -2.1193  2.8505
 4753SOL     OW25891   3.248   4.027  17.699 -0.2420 -0.0548 -0.1124
 4753SOL    HW125892   3.214   4.068  17.620  2.1970  1.5786 -0.3262
 4753SOL    HW225893   3.248   4.091   0.033 -0.9021  1.8077 -1.8089
 4754SOL     OW25894   0.944   0.309   9.773  0.1187 -0.2763  0.5455
 4754SOL    HW125895   0.931   0.389   9.722  1.7065 -0.7486 -0.5929
 4754SOL    HW225896   0.879   0.320   9.842 -2.0734 -4.0289 -0.9291
 4755SOL     OW25897   3.404   1.076   4.725  0.3894 -0.1527 -0.2950
 4755SOL    HW125898   3.450   1.085   4.642 -0.0920 -1.1022 -0.6632
 4755SOL    HW225899   3.372   0.987   4.736 -3.0327  1.1218  0.2767
 4756SOL     OW25900   3.847   2.380   0.926 -0.2806  0.1005 -0.3817
 4756SOL    HW125901   3.884   2.449   0.871  0.1617 -0.6373 -1.0167
 4756SOL    HW225902   3.825   2.429   1.006  1.4451  1.7473 -0.9176
 4757SOL     OW25903   0.347   2.030   5.127 -0.5097 -0.0451 -0.7702
 4757SOL    HW125904   0.407   1.984   5.185 -1.1347 -0.7317 -0.6774
 4757SOL    HW225905   0.326   2.110   5.176 -0.1187  0.7969 -1.9827
 4758SOL     OW25906   4.207   3.496   8.715  0.4304 -0.4834 -0.1633
 4758SOL    HW125907   4.222   3.561   8.647  0.3229  0.2477  0.5053
 4758SOL    HW225908   4.272   3.434   8.684  0.0365 -0.0273 -1.8710
 4759SOL     OW25909   3.006   4.508   0.892  0.1210  0.1459  0.1450
 4759SOL    HW125910   3.051   4.446   0.834  0.6890  0.2478  0.4764
 4759SOL    HW225911   3.083   4.531   0.943  1.9121 -1.4052 -1.8430
 4760SOL     OW25912   0.387   0.380   4.233 -0.4088 -0.4447 -0.3243
 4760SOL    HW125913   0.475   0.364   4.268 -0.0332  2.3983  0.0216
 4760SOL    HW225914   0.345   0.299   4.262 -0.2263 -2.3892 -5.5281
 4761SOL     OW25915   0.651   1.136   2.272  0.5459 -0.0385 -0.4152
 4761SOL    HW125916   0.684   1.197   2.206  1.7936 -0.7844 -0.4603
 4761SOL    HW225917   0.733   1.097   2.302  0.7562  1.7360  1.3210
 4762SOL     OW25918   3.556   2.036   5.781 -0.1232  0.7298  0.2790
 4762SOL    HW125919   3.572   2.050   5.874  0.0275 -0.2133  0.3916
 4762SOL    HW225920   3.644   2.037   5.745 -0.0694  0.8082  0.4135
 4763SOL     OW25921   0.407   4.290   4.794 -0.4134 -0.0855 -0.4014
 4763SOL    HW125922   0.411   4.255   4.883  1.0791  0.6125 -0.1975
 4763SOL    HW225923   0.316   4.264   4.775 -1.2325  2.0828  0.5412
 4764SOL     OW25924   0.599   1.514   4.917 -0.0531  0.4415  0.2495
 4764SOL    HW125925   0.647   1.503   4.835  0.2113 -3.2556  0.8935
 4764SOL    HW225926   0.666   1.488   4.981  1.0353  1.9835 -0.2488
 4765SOL     OW25927   2.772   3.328  13.002  0.0952  0.2093  0.3109
 4765SOL    HW125928   2.690   3.291  13.034  0.1604 -1.3492 -1.3026
 4765SOL    HW225929   2.777   3.320  12.906 -2.3351 -0.0740  0.2038
 4766SOL     OW25930   2.166   2.330   6.587  0.3885  0.3552 -0.4898
 4766SOL    HW125931   2.089   2.368   6.543 -0.6451 -0.0763  0.9558
 4766SOL    HW225932   2.115   2.265   6.635  0.5965 -0.2163 -1.0444
 4767SOL     OW25933   2.497   3.043   5.470 -0.1510 -0.5910  0.1782
 4767SOL    HW125934   2.539   2.997   5.543  0.9376  1.3572  0.7675
 4767SOL    HW225935   2.423   3.074   5.522  0.7436  0.4612  0.8291
 4768SOL     OW25936   1.618   0.409  16.498 -0.1676 -0.1029  0.0105
 4768SOL    HW125937   1.618   0.501  16.524 -1.5822  0.0917 -0.7120
 4768SOL    HW225938   1.613   0.373  16.586 -0.7273  0.9027  0.3861
 4769SOL     OW25939   3.894   4.132   1.372  0.2466  0.3771  0.1489
 4769SOL    HW125940   3.836   4.100   1.303  1.9478 -2.3640 -0.0085
 4769SOL    HW225941   3.891   4.051   1.423 -1.8446 -0.6201 -1.5519
 4770SOL     OW25942   2.198   2.704   2.339 -0.0157 -0.0247 -0.3324
 4770SOL    HW125943   2.239   2.763   2.277  0.2923 -0.4881 -0.5724
 4770SOL    HW225944   2.107   2.734   2.346  0.0039 -0.2411  0.9153
 4771SOL     OW25945   0.789   1.970   2.314  0.0124  0.4064 -0.0496
 4771SOL    HW125946   0.704   2.014   2.314  0.3155  0.9826  4.3044
 4771SOL    HW225947   0.788   1.924   2.398 -2.4645  2.1695  0.8737
 4772SOL     OW25948   1.244   1.866   2.718  0.0306 -0.1015  0.6316
 4772SOL    HW125949   1.217   1.779   2.747  1.3763 -1.5477 -2.4515
 4772SOL    HW225950   1.168   1.921   2.739 -1.2630 -0.7484 -2.3241
 4773SOL     OW25951   3.450   3.250  12.111 -0.1433  0.4573  0.5267
 4773SOL    HW125952   3.504   3.329  12.111  0.9226 -0.2742  1.2749
 4773SOL    HW225953   3.460   3.221  12.020  0.2455  1.5656  0.2097
 4774SOL     OW25954   1.575   2.220   6.699  0.9293  0.2750 -0.6598
 4774SOL    HW125955   1.618   2.140   6.670  1.1161 -0.0302  0.4491
 4774SOL    HW225956   1.581   2.277   6.623 -2.0652  0.9365 -0.4147
 4775SOL     OW25957   0.959   4.730  11.047  0.3505 -0.0366  0.0875
 4775SOL    HW125958   1.038   4.697  11.005  1.3504  3.7165 -0.9679
 4775SOL    HW225959   0.898   4.719  10.974  0.1981  0.4642  0.1370
 4776SOL     OW25960   0.628   4.047  10.653 -0.3330  0.3370 -0.3704
 4776SOL    HW125961   0.626   4.051  10.749 -1.5751  0.6587 -0.4121
 4776SOL    HW225962   0.586   3.963  10.636 -3.2203  1.6746  0.2641
 4777SOL     OW25963   1.709   4.015   7.402 -0.3703  0.1664 -0.2998
 4777SOL    HW125964   1.791   4.035   7.446 -0.0554  0.4469 -1.0217
 4777SOL    HW225965   1.677   3.932   7.436 -1.1144  0.6730  0.2531
 4778SOL     OW25966   2.745   2.132  10.882 -0.5601  0.2091  0.2773
 4778SOL    HW125967   2.818   2.157  10.825 -0.6619 -2.5338 -1.0750
 4778SOL    HW225968   2.763   2.157  10.973  1.9857  0.2004 -0.2350
 4779SOL     OW25969   4.022   4.015   6.849 -0.5967  0.5716 -0.5041
 4779SOL    HW125970   4.021   3.934   6.797  0.5754 -0.9107  1.8264
 4779SOL    HW225971   4.026   4.077   6.776 -0.9044  1.0213 -0.1339
 4780SOL     OW25972   2.815   2.861   0.568  0.1071  0.4129 -0.1996
 4780SOL    HW125973   2.875   2.795   0.603 -0.2795  0.2932  0.2296
 4780SOL    HW225974   2.737   2.806   0.555  0.1157 -0.0591  1.8463
 4781SOL     OW25975   3.729   3.363   5.191  0.0086 -0.1031 -0.6490
 4781SOL    HW125976   3.712   3.407   5.108 -2.2977 -0.7595 -0.5149
 4781SOL    HW225977   3.702   3.430   5.254  0.8091 -0.0256 -0.3787
 4782SOL     OW25978   2.116   0.396   5.256 -0.1744 -0.0282 -0.3412
 4782SOL    HW125979   2.209   0.417   5.247 -0.5105  1.0504 -1.3224
 4782SOL    HW225980   2.062   0.475   5.245 -0.3618 -0.0498  0.3979
 4783SOL     OW25981   1.616   0.662   4.069  0.0794 -0.5902 -0.4113
 4783SOL    HW125982   1.527   0.646   4.100  0.3687  0.6280  1.0091
 4783SOL    HW225983   1.620   0.612   3.987  0.7985 -1.7074  0.3067
 4784SOL     OW25984   0.381   1.687  12.524  0.0829  0.2616  0.2014
 4784SOL    HW125985   0.332   1.605  12.519 -0.8262  0.9113 -1.2541
 4784SOL    HW225986   0.462   1.638  12.540 -0.4540 -0.7583 -0.2162
 4785SOL     OW25987   1.472   0.070   3.770 -0.0942  0.3397  0.6347
 4785SOL    HW125988   1.512   0.085   3.856  2.7646  0.1540 -0.6545
 4785SOL    HW225989   1.436   0.156   3.750 -0.5371 -0.4889 -2.0622
 4786SOL     OW25990   3.809   3.017   5.492  0.4091  0.1032  0.6585
 4786SOL    HW125991   3.877   2.982   5.549  2.4720 -0.0215 -1.8900
 4786SOL    HW225992   3.739   2.955   5.513  0.4884 -0.0849  0.3623
 4787SOL     OW25993   3.483   3.194  11.847  0.1963 -0.6582  0.0663
 4787SOL    HW125994   3.451   3.171  11.760  2.5501  1.1467 -1.2529
 4787SOL    HW225995   3.542   3.125  11.878 -1.2710 -1.7808  0.3985
 4788SOL     OW25996   2.624   4.424   3.150  0.1444  0.2741  0.0334
 4788SOL    HW125997   2.562   4.391   3.215  0.0201  0.5779  0.0701
 4788SOL    HW225998   2.693   4.359   3.148 -0.5783 -0.4318 -1.8941
 4789SOL     OW25999   1.679   0.087  13.640 -0.1078  0.0308  0.6851
 4789SOL    HW126000   1.652   0.037  13.718 -0.0485  1.2721  1.5003
 4789SOL    HW226001   1.773   0.102  13.647 -0.1501  1.0006 -0.8557
 4790SOL     OW26002   2.790   0.099  11.106  0.3994 -0.5710 -0.4996
 4790SOL    HW126003   2.859   0.120  11.042  0.0470 -0.1649 -0.7487
 4790SOL    HW226004   2.712   0.081  11.054 -0.7058 -0.4415  1.1553
 4791SOL     OW26005   3.503   0.590   3.223  0.5282  0.5148 -0.1467
 4791SOL    HW126006   3.490   0.671   3.273  1.9330  0.3659  0.4788
 4791SOL    HW226007   3.415   0.558   3.205  0.3758  1.0255 -0.2866
 4792SOL     OW26008   3.682   3.595   5.008  0.2087 -0.4373 -0.3526
 4792SOL    HW126009   3.773   3.623   4.997  0.3782 -0.8772 -0.0983
 4792SOL    HW226010   3.664   3.583   4.915  1.7400  0.6450 -0.7967
 4793SOL     OW26011   2.078   0.790   4.128  0.3317 -0.3669  0.1817
 4793SOL    HW126012   2.000   0.739   4.149 -0.1610  0.4110  0.2275
 4793SOL    HW226013   2.095   0.809   4.220 -0.0006 -0.5637  0.2865
 4794SOL     OW26014   0.412   3.044  14.943 -0.1992  0.2978  0.2923
 4794SOL    HW126015   0.400   3.099  14.866  2.0650  0.8046  0.2806
 4794SOL    HW226016   0.470   2.972  14.918  0.1547  0.7490 -0.1924
 4795SOL     OW26017   0.999   0.273   5.854 -0.2236  0.3190 -0.2831
 4795SOL    HW126018   1.051   0.207   5.900 -0.6523  0.6996  0.7463
 4795SOL    HW226019   0.916   0.275   5.902 -0.1868  0.6465 -0.2352
 4796SOL     OW26020   1.118   0.274   7.927  0.1064  0.2203 -0.4007
 4796SOL    HW126021   1.070   0.198   7.958  0.1274 -0.0378 -0.9976
 4796SOL    HW226022   1.045   0.330   7.898 -2.2045 -1.8512  1.4049
 4797SOL     OW26023   3.703   2.419   5.779  0.3248 -0.4713 -0.1301
 4797SOL    HW126024   3.699   2.359   5.704 -3.5573 -1.2586  0.7188
 4797SOL    HW226025   3.640   2.375   5.836 -0.0146 -0.0748 -0.2047
 4798SOL     OW26026   1.700   3.910   0.732 -0.2912  0.1957 -0.4947
 4798SOL    HW126027   1.677   3.820   0.709  2.5135 -0.7159  0.2544
 4798SOL    HW226028   1.616   3.943   0.765 -0.5137  2.0643 -3.0195
 4799SOL     OW26029   0.696   1.360  13.921  0.5779  0.2707 -0.1254
 4799SOL    HW126030   0.712   1.318  14.005  1.0815  1.8506  0.5688
 4799SOL    HW226031   0.660   1.443  13.953 -0.1998 -0.8370  1.8415
 4800SOL     OW26032   4.679   4.203  15.152  0.0882  0.3583  0.2113
 4800SOL    HW126033   4.650   4.196  15.243  1.0727 -1.0781  0.4198
 4800SOL    HW226034   0.019   4.143  15.156  0.5670  0.8924 -0.6457
 4801SOL     OW26035   2.756   1.601   7.070 -0.3476 -0.3436  0.1719
 4801SOL    HW126036   2.819   1.665   7.105  0.7989 -1.3495 -0.0564
 4801SOL    HW226037   2.675   1.645   7.096 -0.3786 -0.0124 -0.4883
 4802SOL     OW26038   3.119   1.891   8.798 -0.3738  0.4274 -0.0966
 4802SOL    HW126039   3.179   1.930   8.861 -0.3566 -0.5104  0.4711
 4802SOL    HW226040   3.048   1.953   8.813  0.7194  1.8434 -0.7847
 4803SOL     OW26041   1.937   4.195   0.388 -0.3931  0.1240 -0.5245
 4803SOL    HW126042   1.857   4.171   0.435  0.4766 -0.2320  0.7597
 4803SOL    HW226043   1.947   4.285   0.418  1.8764 -0.6897  1.1705
 4804SOL     OW26044   1.398   3.795   3.538 -0.3451  0.0611  0.1093
 4804SOL    HW126045   1.318   3.843   3.518 -0.0047  0.2401 -0.8302
 4804SOL    HW226046   1.378   3.702   3.530  1.9980 -0.4361  0.0123
 4805SOL     OW26047   0.155   4.553   0.531  0.7465 -0.2490  0.0534
 4805SOL    HW126048   0.091   4.522   0.595  0.5056 -0.2391 -0.1818
 4805SOL    HW226049   0.227   4.594   0.580 -0.0223 -0.0216  0.9900
 4806SOL     OW26050   4.341   0.176   2.919  0.5341 -0.1111  0.2538
 4806SOL    HW126051   4.310   0.150   3.005  1.6586 -1.7802  0.1485
 4806SOL    HW226052   4.260   0.215   2.886  1.5995  1.3612 -0.6385
 4807SOL     OW26053   3.837   0.546  16.704 -0.0510  0.2132 -0.9015
 4807SOL    HW126054   3.867   0.575  16.618 -1.3786 -0.6063 -1.6482
 4807SOL    HW226055   3.771   0.613  16.724  0.6987  0.7241 -0.1704
 4808SOL     OW26056   3.831   1.591  10.723  0.3613 -0.3662  0.3130
 4808SOL    HW126057   3.736   1.591  10.723  0.3593  0.1952  0.0732
 4808SOL    HW226058   3.852   1.572  10.815  1.5410 -2.7934 -0.4561
 4809SOL     OW26059   2.844   0.819   3.463 -0.4429  0.0448 -0.2773
 4809SOL    HW126060   2.929   0.775   3.470 -0.9014 -0.9055 -0.7613
 4809SOL    HW226061   2.803   0.782   3.542  1.2358 -1.0360  0.0911
 4810SOL     OW26062   2.932   1.143   0.957 -0.1940  0.3988  0.2227
 4810SOL    HW126063   2.981   1.179   1.031 -0.9640  1.7995  0.0537
 4810SOL    HW226064   2.845   1.181   0.971 -0.0679  0.2393  1.4369
 4811SOL     OW26065   3.265   1.885   8.569 -0.3969 -0.4324  0.4815
 4811SOL    HW126066   3.340   1.827   8.581  0.9004  1.3007  0.7722
 4811SOL    HW226067   3.217   1.870   8.651  0.9663  3.0764  1.9674
 4812SOL     OW26068   2.994   2.609  12.828  1.0547 -0.4855  0.9191
 4812SOL    HW126069   2.952   2.685  12.869  0.1911 -0.1500 -0.5672
 4812SOL    HW226070   3.059   2.649  12.770  1.5073 -2.1360  0.3002
 4813SOL     OW26071   4.231   2.245   6.641 -0.0673  0.6214  0.5550
 4813SOL    HW126072   4.286   2.182   6.688 -0.7631  0.7600  1.5342
 4813SOL    HW226073   4.222   2.205   6.554  2.2667 -2.4263  1.7052
 4814SOL     OW26074   0.789   4.563   8.504  0.3423  0.0954 -0.1278
 4814SOL    HW126075   0.754   4.630   8.446 -0.5982 -1.6114 -1.5521
 4814SOL    HW226076   0.860   4.547   8.441 -0.4434  0.8018 -1.1870
 4815SOL     OW26077   4.390   1.551   2.570 -0.0510  0.3792 -0.0337
 4815SOL    HW126078   4.324   1.616   2.548 -0.1256  0.2355 -0.2367
 4815SOL    HW226079   4.464   1.595   2.612  0.7324  0.4239 -1.4837
 4816SOL     OW26080   1.348   2.343   3.891 -0.8408 -0.5369 -0.2023
 4816SOL    HW126081   1.418   2.403   3.867 -2.0654  0.2077 -1.9515
 4816SOL    HW226082   1.397   2.288   3.952  0.0956  0.0096 -0.4667
 4817SOL     OW26083   3.911   0.488   7.992  0.3653  0.3464 -0.3399
 4817SOL    HW126084   3.994   0.454   8.024  0.0447 -0.0056  0.1354
 4817SOL    HW226085   3.850   0.433   8.042  1.0191 -0.5381 -0.5400
 4818SOL     OW26086   4.539   2.842   4.763  0.4070 -0.2917 -0.0062
 4818SOL    HW126087   4.493   2.763   4.792  0.1076  0.0466  0.4310
 4818SOL    HW226088   4.583   2.875   4.841  1.2640  3.0930 -1.9220
 4819SOL     OW26089   3.230   1.418   2.702  0.3717 -0.0999  0.1634
 4819SOL    HW126090   3.185   1.341   2.738  0.7695 -0.3970  0.0263
 4819SOL    HW226091   3.216   1.481   2.773 -0.1947  1.7907 -1.6503
 4820SOL     OW26092   2.663   0.522   4.346 -0.0774  0.1395 -0.3386
 4820SOL    HW126093   2.721   0.532   4.271  1.4448 -1.2475  0.6653
 4820SOL    HW226094   2.714   0.567   4.413 -1.2393  2.4529 -0.9920
 4821SOL     OW26095   3.474   0.801   7.556 -0.1137 -0.0883  0.1856
 4821SOL    HW126096   3.441   0.820   7.644  0.6188 -1.6457  0.8010
 4821SOL    HW226097   3.403   0.755   7.511  1.0576  0.1524 -1.8976
 4822SOL     OW26098   0.249   3.879   7.554  0.0804 -0.6964  0.4587
 4822SOL    HW126099   0.324   3.851   7.503 -0.8532  0.4103 -1.5027
 4822SOL    HW226100   0.223   3.797   7.596 -1.5268  1.0649  2.9666
 4823SOL     OW26101   0.923   3.103   1.978  0.0904  0.0179  0.0911
 4823SOL    HW126102   0.970   3.089   2.061 -0.1031  3.1014  0.7136
 4823SOL    HW226103   0.831   3.100   2.004  0.0504 -1.2463 -0.2182
 4824SOL     OW26104   2.453   1.554   1.693  0.1172 -0.3034  0.0976
 4824SOL    HW126105   2.475   1.646   1.707 -0.5825 -0.2039  0.5628
 4824SOL    HW226106   2.537   1.521   1.663  0.3990  0.3642  0.1566
 4825SOL     OW26107   0.057   0.737   5.595 -0.7193  0.4376  0.0439
 4825SOL    HW126108   0.052   0.657   5.647 -0.9278  0.0004 -0.6582
 4825SOL    HW226109   0.055   0.804   5.664  0.5363  0.1294  0.3835
 4826SOL     OW26110   2.378   4.628   5.145 -0.1143  0.1564 -0.0023
 4826SOL    HW126111   2.314   4.558   5.139  0.2095 -0.0423 -1.0427
 4826SOL    HW226112   2.432   4.604   5.070  0.4115 -2.8936  1.3681
 4827SOL     OW26113   3.177   3.042   0.183  0.3483  0.3013  0.2702
 4827SOL    HW126114   3.134   3.127   0.189  0.7652  0.6654 -1.8191
 4827SOL    HW226115   3.155   3.017   0.093 -0.2363 -0.4767  0.6229
 4828SOL     OW26116   0.528   2.571   5.876 -0.0761 -0.2667 -0.1247
 4828SOL    HW126117   0.537   2.535   5.965 -4.0984 -3.8188 -1.1759
 4828SOL    HW226118   0.434   2.588   5.868  0.2835  0.8339 -2.0434
 4829SOL     OW26119   0.091   4.720   8.416 -0.3865  0.1110  0.3391
 4829SOL    HW126120   0.081   0.072   8.377 -0.0911 -0.2389 -0.5254
 4829SOL    HW226121   0.126   4.672   8.340  1.1425 -1.7925  2.2458
 4830SOL     OW26122   0.484   3.674   2.582  0.0986  0.5400 -0.0180
 4830SOL    HW126123   0.461   3.722   2.502 -0.5228 -0.5841 -0.5041
 4830SOL    HW226124   0.518   3.596   2.540  0.9099  1.3229 -0.8189
 4831SOL     OW26125   0.282   0.084   9.463  0.3555  0.0595  0.1241
 4831SOL    HW126126   0.282   0.051   9.374 -5.3960 -0.2834  0.2619
 4831SOL    HW226127   0.320   0.172   9.455 -0.6160  0.4232 -0.4155
 4832SOL     OW26128   0.831   3.106   7.573 -0.2839  0.7363  0.0045
 4832SOL    HW126129   0.770   3.104   7.499  0.5603 -0.6034 -0.6525
 4832SOL    HW226130   0.904   3.062   7.530 -1.0491  0.9564 -1.4988
 4833SOL     OW26131   4.630   3.859  15.223  0.2348  0.3797 -0.4106
 4833SOL    HW126132   4.695   3.922  15.189  0.8806  0.4208  0.9128
 4833SOL    HW226133   4.591   3.820  15.145  1.6088 -0.4510 -0.6825
 4834SOL     OW26134   2.822   0.028   4.467 -0.2286 -0.6849  0.0119
 4834SOL    HW126135   2.829   4.686   4.411  0.9863 -0.5360 -0.0345
 4834SOL    HW226136   2.790   0.090   4.402 -0.6070  1.5540  2.3224
 4835SOL     OW26137   0.773   0.855   5.828 -0.0053 -0.5258 -0.0431
 4835SOL    HW126138   0.707   0.839   5.895 -1.1805  0.0174 -1.0742
 4835SOL    HW226139   0.810   0.939   5.855  1.5481 -0.7432 -1.4849
 4836SOL     OW26140   0.827   0.915  16.041 -0.1429  0.2060 -0.3067
 4836SOL    HW126141   0.880   0.862  16.101 -1.9041 -0.0606  1.0204
 4836SOL    HW226142   0.876   0.919  15.959  1.6459  0.4643  0.7512
 4837SOL     OW26143   0.801   4.640   6.653  0.2519  0.0404  0.2153
 4837SOL    HW126144   0.727   4.627   6.713 -0.6453  1.5466 -0.5540
 4837SOL    HW226145   0.860   4.692   6.707 -0.8690 -0.3283  1.8171
 4838SOL     OW26146   4.532   4.103  17.187 -0.0679 -0.1451  0.0596
 4838SOL    HW126147   4.450   4.151  17.185 -0.6047 -0.9739  1.9113
 4838SOL    HW226148   4.522   4.076  17.096  1.0401 -2.3479  0.5998
 4839SOL     OW26149   3.478   3.258   6.122 -0.2062  0.0265 -0.5373
 4839SOL    HW126150   3.539   3.189   6.098 -0.9970 -1.2394  1.0795
 4839SOL    HW226151   3.525   3.330   6.164  0.6417 -1.3040  0.7642
 4840SOL     OW26152   4.108   2.006   6.523  0.3180 -0.8014 -0.5205
 4840SOL    HW126153   4.070   1.919   6.533 -0.3802 -0.2675  1.7569
 4840SOL    HW226154   4.195   1.991   6.487  0.3893 -0.1754 -0.6134
 4841SOL     OW26155   2.628   2.487   9.017 -0.1272  1.0523  0.4513
 4841SOL    HW126156   2.676   2.407   9.036 -0.2932  1.0730  0.9500
 4841SOL    HW226157   2.536   2.460   9.015  0.6348 -1.6538  2.2684
 4842SOL     OW26158   1.714   0.408   5.406  0.3134 -0.0878  0.4840
 4842SOL    HW126159   1.720   0.356   5.486  0.0989 -2.5048 -1.1057
 4842SOL    HW226160   1.777   0.379   5.341  0.2975 -0.9360  0.8477
 4843SOL     OW26161   0.355   2.989   5.989  0.4765 -0.3790 -0.2477
 4843SOL    HW126162   0.389   2.912   6.034 -0.9167 -1.5513 -1.2153
 4843SOL    HW226163   0.395   3.062   6.037  1.0131  2.2806 -4.6829
 4844SOL     OW26164   0.913   0.647   4.461  0.8036 -0.0001 -0.1853
 4844SOL    HW126165   0.892   0.735   4.491  0.3475  0.3464 -1.5681
 4844SOL    HW226166   0.829   0.611   4.430  1.1634 -0.1803 -0.9393
 4845SOL     OW26167   2.964   2.112   5.119 -0.4359 -0.6940  0.0747
 4845SOL    HW126168   2.948   2.206   5.105  0.6748 -0.6031 -0.6309
 4845SOL    HW226169   3.019   2.102   5.041  1.0923 -1.2446  1.2340
 4846SOL     OW26170   3.617   3.450  17.177  0.0293 -0.0190 -0.7668
 4846SOL    HW126171   3.581   3.415  17.259 -2.4234 -0.4694 -2.0411
 4846SOL    HW226172   3.599   3.544  17.174  1.6468  0.1766 -3.8163
 4847SOL     OW26173   0.345   4.283   8.218  0.7511  0.2851 -0.0040
 4847SOL    HW126174   0.261   4.243   8.241  2.2288 -2.9940 -0.3370
 4847SOL    HW226175   0.381   4.318   8.300  1.1953  3.0131 -1.3632
 4848SOL     OW26176   2.263   3.530   6.300 -0.2043  0.1650  0.3182
 4848SOL    HW126177   2.300   3.582   6.371 -0.7999 -0.4889  1.1180
 4848SOL    HW226178   2.337   3.482   6.262  0.6913  2.9500 -1.4415
 4849SOL     OW26179   1.526   1.660   7.738  0.1886  0.5531 -0.4506
 4849SOL    HW126180   1.519   1.611   7.820  1.8652  1.1083  0.0284
 4849SOL    HW226181   1.541   1.598   7.667  0.5351  1.4896 -1.1992
 4850SOL     OW26182   2.648   1.864   1.929 -0.4346  0.0630 -0.3474
 4850SOL    HW126183   2.602   1.914   1.996 -1.2787 -1.8994  0.5295
 4850SOL    HW226184   2.728   1.912   1.907  0.8065 -2.0594 -0.4631
 4851SOL     OW26185   0.068   3.518   2.651 -0.7707 -0.4626 -0.7194
 4851SOL    HW126186   0.149   3.568   2.666  0.0965 -1.8410 -0.7762
 4851SOL    HW226187   0.024   3.573   2.586 -1.3166  0.7410  0.6913
 4852SOL     OW26188   2.556   4.138  12.738  0.0472  0.0395 -0.8021
 4852SOL    HW126189   2.607   4.172  12.811 -1.3933  1.1350 -0.2955
 4852SOL    HW226190   2.566   4.209  12.675 -0.7903  0.1968 -0.7557
 4853SOL     OW26191   1.454   3.661   8.465  0.2416 -0.4496  0.1628
 4853SOL    HW126192   1.543   3.691   8.447  0.4997 -1.3900 -0.1603
 4853SOL    HW226193   1.458   3.583   8.410  0.0164 -0.0370 -0.4394
 4854SOL     OW26194   0.960   1.291   6.202 -0.7090 -0.1968 -0.1350
 4854SOL    HW126195   1.055   1.297   6.192 -0.5783 -3.4555 -1.1448
 4854SOL    HW226196   0.929   1.378   6.179 -1.3775 -0.1511  0.9532
 4855SOL     OW26197   2.372   1.731   4.057  0.8502  0.0912 -0.2525
 4855SOL    HW126198   2.359   1.649   4.010 -1.2685  0.6092 -0.5550
 4855SOL    HW226199   2.364   1.687   4.141 -1.3783  0.6479 -0.1661
 4856SOL     OW26200   3.778   1.458   1.236 -0.3928  0.2623  0.0702
 4856SOL    HW126201   3.790   1.364   1.227  2.6444  0.3579  3.0015
 4856SOL    HW226202   3.743   1.467   1.325  1.5368 -0.4248  0.8875
 4857SOL     OW26203   1.635   1.445   5.758  0.0406  0.0510  0.0082
 4857SOL    HW126204   1.599   1.395   5.684 -1.1022 -1.5636  1.6613
 4857SOL    HW226205   1.552   1.478   5.790  0.1508  2.3893 -2.1245
 4858SOL     OW26206   3.906   1.124   4.946 -0.2748  0.1142 -0.1622
 4858SOL    HW126207   3.968   1.178   4.897 -1.9164 -0.3735 -2.7340
 4858SOL    HW226208   3.864   1.073   4.877 -0.7441 -0.7074  0.7186
 4859SOL     OW26209   0.833   3.364   6.274 -0.5853 -0.1349 -0.3662
 4859SOL    HW126210   0.845   3.456   6.247  2.2991 -0.6375 -0.8071
 4859SOL    HW226211   0.840   3.378   6.369  0.2776  1.8370 -0.7184
 4860SOL     OW26212   0.023   2.224  13.063  0.4335  0.5398  0.2659
 4860SOL    HW126213   0.092   2.260  13.120  1.5469 -0.7102 -0.2942
 4860SOL    HW226214   0.064   2.141  13.039 -1.0153  0.1272 -0.7795
 4861SOL     OW26215   3.417   0.310   5.166 -0.4651  0.2646  0.1204
 4861SOL    HW126216   3.406   0.351   5.252 -0.6930 -0.5282  0.4763
 4861SOL    HW226217   3.480   0.241   5.188 -0.1720  0.6123  0.3564
 4862SOL     OW26218   4.685   4.142   9.536  0.1296 -0.2377 -0.4022
 4862SOL    HW126219   0.014   4.121   9.605 -1.4982 -1.4368  0.7385
 4862SOL    HW226220   4.717   4.099   9.457 -0.9089 -0.2895 -0.7952
 4863SOL     OW26221   3.433   0.838   3.357 -0.2908  0.2772 -0.8577
 4863SOL    HW126222   3.500   0.901   3.385  1.0959 -0.9345 -1.4543
 4863SOL    HW226223   3.358   0.876   3.403  0.2216 -2.1809  2.0158
 4864SOL     OW26224   3.914   3.220   2.732  0.2543 -0.0223  0.9690
 4864SOL    HW126225   3.950   3.212   2.820 -0.4440  1.4463  1.3879
 4864SOL    HW226226   3.963   3.295   2.698 -0.9768  0.6322  0.6094
 4865SOL     OW26227   3.156   1.995   4.409  0.2968 -0.2067  0.0233
 4865SOL    HW126228   3.144   2.084   4.374  0.9523  0.4814  1.5111
 4865SOL    HW226229   3.219   2.008   4.480  0.3745 -0.7658  0.0540
 4866SOL     OW26230   1.724   0.674   5.433  0.1562 -0.0434 -0.0936
 4866SOL    HW126231   1.647   0.724   5.460 -1.3380 -1.8380 -1.0996
 4866SOL    HW226232   1.694   0.584   5.427 -2.3585  0.7974  0.0729
 4867SOL     OW26233   0.266   1.035   2.715  0.2503 -0.1448  0.0094
 4867SOL    HW126234   0.203   0.967   2.693  1.5729 -0.5690 -2.5298
 4867SOL    HW226235   0.208   1.108   2.692 -0.0744 -0.2112  0.6249
 4868SOL     OW26236   3.339   0.522   1.660 -0.9222  0.0411 -0.3414
 4868SOL    HW126237   3.270   0.575   1.619 -0.9265  1.4500  1.4503
 4868SOL    HW226238   3.303   0.435   1.649 -0.4031 -0.0512 -1.2634
 4869SOL     OW26239   2.063   4.333   6.677 -0.0303 -0.2449  0.5660
 4869SOL    HW126240   2.021   4.261   6.724  0.0316  0.2133  1.3288
 4869SOL    HW226241   2.131   4.280   6.635  2.3648  2.1165  1.4786
 4870SOL     OW26242   2.297   3.183   0.690 -0.1921  0.2664 -0.6776
 4870SOL    HW126243   2.291   3.117   0.758  1.9332  1.4632  0.6575
 4870SOL    HW226244   2.204   3.208   0.686 -0.4991 -0.8005 -0.1673
 4871SOL     OW26245   1.115   2.579   4.998 -0.0318 -0.2572  0.8350
 4871SOL    HW126246   1.029   2.595   4.958  0.4530 -0.0948 -0.1439
 4871SOL    HW226247   1.177   2.602   4.929  1.0314 -0.3878  1.7432
 4872SOL     OW26248   3.088   4.151  10.373 -0.2253 -0.2374 -0.0537
 4872SOL    HW126249   3.155   4.127  10.438  1.1669 -2.2946 -2.2156
 4872SOL    HW226250   3.067   4.240  10.399  1.2511  0.9770 -2.9948
 4873SOL     OW26251   0.574   0.612   5.851 -0.0958  0.2138  0.0827
 4873SOL    HW126252   0.541   0.533   5.895  0.6566 -0.5523 -0.7417
 4873SOL    HW226253   0.643   0.637   5.912  0.4594 -0.9215 -0.0787
 4874SOL     OW26254   4.387   3.766  15.445 -0.5628 -0.4815 -0.1916
 4874SOL    HW126255   4.399   3.825  15.371 -0.7136 -0.9986 -0.6263
 4874SOL    HW226256   4.295   3.786  15.461  0.0413  2.0893  0.0141
 4875SOL     OW26257   0.428   3.431   5.012  0.3667 -0.1103  0.0774
 4875SOL    HW126258   0.381   3.348   5.003  0.6718 -0.2506 -0.2092
 4875SOL    HW226259   0.404   3.453   5.102  3.0230  0.3792  0.6628
 4876SOL     OW26260   1.945   3.343   9.913  0.5775 -0.6304 -0.0648
 4876SOL    HW126261   2.015   3.287   9.948  1.2722 -0.1024 -0.6232
 4876SOL    HW226262   1.907   3.371   9.996 -0.1075  0.3341 -0.6989
 4877SOL     OW26263   1.638   4.168   2.956 -0.0648 -0.2051 -0.2025
 4877SOL    HW126264   1.682   4.166   2.871 -0.0364 -1.0970 -0.1586
 4877SOL    HW226265   1.557   4.208   2.925 -0.5448 -0.6486  0.4683
 4878SOL     OW26266   3.735   3.047   7.681 -0.3700 -0.0539 -0.4639
 4878SOL    HW126267   3.649   3.086   7.688  0.6912  2.1533  0.1348
 4878SOL    HW226268   3.724   2.969   7.736 -1.6422 -0.1302 -0.8474
 4879SOL     OW26269   3.946   3.503   8.773 -0.0299 -0.3276  0.3047
 4879SOL    HW126270   4.038   3.490   8.752 -0.6058  0.4320 -2.8022
 4879SOL    HW226271   3.914   3.415   8.794  0.0836 -0.7681 -1.3132
 4880SOL     OW26272   4.242   2.650  14.154 -0.0430 -0.1374  0.0417
 4880SOL    HW126273   4.162   2.687  14.117 -0.1938  1.2534  1.7303
 4880SOL    HW226274   4.252   2.572  14.100 -0.2431  2.2688 -3.4819
 4881SOL     OW26275   3.748   0.934   9.065 -0.4899 -0.0323 -0.0982
 4881SOL    HW126276   3.721   0.844   9.049  0.8871 -0.1235 -1.8547
 4881SOL    HW226277   3.827   0.924   9.118 -0.3430  1.8198  0.0414
 4882SOL     OW26278   2.853   1.051   3.840  0.4791  0.0895  0.3431
 4882SOL    HW126279   2.850   1.083   3.750  1.2881 -1.1284 -0.1260
 4882SOL    HW226280   2.758   1.048   3.850  0.4217 -2.5167 -1.1034
 4883SOL     OW26281   1.605   3.086  11.032 -0.3538  0.4643  0.0351
 4883SOL    HW126282   1.645   3.129  11.108 -1.8360  1.3815  0.2975
 4883SOL    HW226283   1.593   2.995  11.056 -1.2359  0.0392 -1.9818
 4884SOL     OW26284   4.598   4.595   6.763 -0.1907 -0.1627  0.3200
 4884SOL    HW126285   4.546   4.637   6.830 -0.3340  0.1484  0.0135
 4884SOL    HW226286   4.542   4.520   6.742 -0.4780  0.5263 -1.3342
 4885SOL     OW26287   0.338   1.958   7.523  0.3326 -0.2379 -0.5077
 4885SOL    HW126288   0.332   1.866   7.551  1.4490  0.2865  1.4118
 4885SOL    HW226289   0.337   1.943   7.428  1.3174  1.8635 -0.8443
 4886SOL     OW26290   3.907   2.252   7.245 -0.5796 -1.1683 -0.2703
 4886SOL    HW126291   3.990   2.284   7.209 -1.5428  0.3236 -1.1484
 4886SOL    HW226292   3.935   2.167   7.278  1.3899  0.2402  1.6912
 4887SOL     OW26293   0.355   0.270  16.488 -0.0805 -0.7871  0.2846
 4887SOL    HW126294   0.319   0.325  16.557  1.9439  1.6645 -0.6465
 4887SOL    HW226295   0.284   0.271  16.425 -0.9782 -0.9491  1.2961
 4888SOL     OW26296   3.687   0.593   5.083  0.1561  0.4945  0.0116
 4888SOL    HW126297   3.780   0.613   5.075  0.9804 -3.5481 -0.1854
 4888SOL    HW226298   3.690   0.573   5.176 -1.7544  0.0573 -0.0097
 4889SOL     OW26299   2.276   0.246  16.203  0.0980 -0.2379 -0.4518
 4889SOL    HW126300   2.229   0.196  16.136  1.6363  0.9972 -2.4663
 4889SOL    HW226301   2.367   0.245  16.174 -0.2611  0.7605 -1.6264
 4890SOL     OW26302   0.146   0.342   6.289 -0.0778 -0.3580 -0.0516
 4890SOL    HW126303   0.157   0.349   6.194  0.4136 -2.5374 -0.1496
 4890SOL    HW226304   0.053   0.366   6.290  0.2418  0.8937  0.0820
 4891SOL     OW26305   1.014   2.061   6.359  0.1185 -0.0354 -0.0561
 4891SOL    HW126306   1.056   2.011   6.430  2.2570  0.5935 -0.8949
 4891SOL    HW226307   1.074   2.037   6.289 -1.8514  1.7252 -2.3228
 4892SOL     OW26308   1.005   2.935  12.979 -0.7464 -0.1807 -0.2344
 4892SOL    HW126309   0.978   2.988  12.904  2.4238  0.5296 -0.8525
 4892SOL    HW226310   1.016   3.002  13.046 -2.2046  0.3976 -0.5672
 4893SOL     OW26311   0.807   4.502   1.264 -0.1105  0.1349 -0.5612
 4893SOL    HW126312   0.828   4.455   1.183 -0.3114  1.2941 -1.2887
 4893SOL    HW226313   0.889   4.547   1.287  0.7338 -0.3561 -2.5944
 4894SOL     OW26314   2.349   1.698   6.966 -0.3961  0.1471  0.0190
 4894SOL    HW126315   2.374   1.616   6.925 -0.7877 -1.0518  2.1618
 4894SOL    HW226316   2.266   1.676   7.009 -1.0733  0.0906 -1.3485
 4895SOL     OW26317   3.955   4.605   1.985 -0.4726 -0.1837  0.4088
 4895SOL    HW126318   4.022   4.564   1.930  0.7531 -0.1310  1.8611
 4895SOL    HW226319   3.900   4.663   1.934  0.1731  0.0120 -0.0643
 4896SOL     OW26320   3.211   1.276  16.878 -0.4854 -0.3623  0.6990
 4896SOL    HW126321   3.199   1.266  16.784 -0.5174  0.8943  0.5694
 4896SOL    HW226322   3.151   1.351  16.883  2.2635  1.9154 -0.5886
 4897SOL     OW26323   0.138   0.680   1.651  1.1527  0.3361  0.7669
 4897SOL    HW126324   0.169   0.674   1.561 -0.1637  1.2267  0.2649
 4897SOL    HW226325   0.144   0.773   1.671 -0.6056  0.7051 -0.4623
 4898SOL     OW26326   1.371   0.759  16.068 -0.1114 -0.3299 -0.0346
 4898SOL    HW126327   1.394   0.755  16.160 -1.1660 -2.0577  0.1652
 4898SOL    HW226328   1.449   0.787  16.020  0.8235 -2.9130 -0.0159
 4899SOL     OW26329   1.679   1.694   6.760  0.0700 -0.2453 -0.4146
 4899SOL    HW126330   1.735   1.717   6.686  0.4622  1.3466  0.3903
 4899SOL    HW226331   1.611   1.640   6.722 -0.5756  1.4781 -1.6705
 4900SOL     OW26332   1.487   1.086  17.490  0.1144  0.3435 -0.0662
 4900SOL    HW126333   1.448   1.085  17.578 -0.9275 -0.0084 -0.5281
 4900SOL    HW226334   1.404   1.084  17.443 -1.3686 -3.6821  2.7447
 4901SOL     OW26335   3.256   0.215  11.360  0.0306  0.0054  0.0789
 4901SOL    HW126336   3.233   0.124  11.342 -0.2758 -0.1744  1.3762
 4901SOL    HW226337   3.258   0.259  11.275  0.2974 -1.8779 -0.8771
 4902SOL     OW26338   2.177   3.447   3.919 -0.1657 -0.1908  0.4143
 4902SOL    HW126339   2.141   3.536   3.918  0.0916 -0.1110 -2.4836
 4902SOL    HW226340   2.177   3.438   4.014 -0.8043  0.6774  0.4987
 4903SOL     OW26341   3.806   4.522   0.983  0.2252 -0.4909 -0.2481
 4903SOL    HW126342   3.731   4.580   0.966  0.3719 -0.5510 -1.0909
 4903SOL    HW226343   3.766   4.451   1.033 -1.3794  0.2863 -0.4257
 4904SOL     OW26344   1.580   4.273   4.486 -0.1495  0.2019  0.1244
 4904SOL    HW126345   1.644   4.340   4.509 -1.4581  1.6322 -0.4447
 4904SOL    HW226346   1.499   4.319   4.508 -0.1843  0.3781 -0.3638
 4905SOL     OW26347   0.616   4.705   6.862  0.5868 -0.1052  0.2269
 4905SOL    HW126348   0.587   0.062   6.864  0.1884 -0.1898 -1.3093
 4905SOL    HW226349   0.688   4.704   6.924 -0.9249 -0.8077  1.9632
 4906SOL     OW26350   2.624   0.768   2.689  0.3337 -0.0847 -0.1241
 4906SOL    HW126351   2.561   0.788   2.758  0.0930 -1.1803 -0.0347
 4906SOL    HW226352   2.664   0.688   2.722  2.5233  0.8138 -0.5877
 4907SOL     OW26353   0.189   0.525   6.056  0.5286 -0.0995 -0.5602
 4907SOL    HW126354   0.206   0.511   5.963  0.7375  3.2625 -1.0266
 4907SOL    HW226355   0.097   0.500   6.063  0.7241 -0.6752  0.0150
 4908SOL     OW26356   1.108   0.438   2.955 -0.5122 -0.0888 -0.1070
 4908SOL    HW126357   1.174   0.403   3.016 -0.3117 -1.3674 -1.0534
 4908SOL    HW226358   1.034   0.474   3.004  0.3173  2.3402 -0.6535
 4909SOL     OW26359   3.629   1.925  14.567 -0.5961 -0.5980 -0.3636
 4909SOL    HW126360   3.698   1.970  14.518 -1.5729  1.4551  0.1754
 4909SOL    HW226361   3.568   1.997  14.581 -0.9057 -1.3011  1.9707
 4910SOL     OW26362   2.721   3.588   4.084  0.3851  0.2926 -0.0240
 4910SOL    HW126363   2.690   3.618   3.998 -1.2370  0.3579  0.5941
 4910SOL    HW226364   2.762   3.666   4.120  1.2304  0.8645 -2.1834
 4911SOL     OW26365   0.755   3.791   3.187  0.0301  0.2165  0.2631
 4911SOL    HW126366   0.790   3.793   3.276  1.1565  0.1122 -0.1820
 4911SOL    HW226367   0.809   3.723   3.146 -1.0795  0.0552 -0.9351
 4912SOL     OW26368   0.383   0.207  13.517  0.0192 -0.5061  0.2682
 4912SOL    HW126369   0.357   0.256  13.440 -0.6292  0.6564  1.2304
 4912SOL    HW226370   0.438   0.137  13.480  0.0238  0.1493 -0.9530
 4913SOL     OW26371   0.818   0.628   2.818  0.9738 -0.1697 -0.1620
 4913SOL    HW126372   0.881   0.563   2.848  0.9290  0.8482  2.1058
 4913SOL    HW226373   0.817   0.684   2.895 -2.9578  2.0753 -1.8408
 4914SOL     OW26374   2.505   2.361   6.398 -0.4159 -0.1094 -0.5470
 4914SOL    HW126375   2.537   2.354   6.308 -0.0528  0.1973 -0.4421
 4914SOL    HW226376   2.477   2.271   6.415  0.9189 -0.2270  1.0247
 4915SOL     OW26377   2.547   2.592   3.548 -1.1726 -0.3168 -0.2502
 4915SOL    HW126378   2.629   2.575   3.502 -1.4690 -1.0290 -0.5113
 4915SOL    HW226379   2.491   2.636   3.484 -1.0951  1.8098  1.1566
 4916SOL     OW26380   3.643   2.383   4.997  0.1478 -0.6096 -0.3800
 4916SOL    HW126381   3.573   2.440   5.030  1.3415 -0.2472  1.5373
 4916SOL    HW226382   3.677   2.349   5.080 -0.0623  0.0518 -0.0209
 4917SOL     OW26383   3.236   2.934   5.325  0.4210 -0.5268  0.0022
 4917SOL    HW126384   3.283   2.887   5.394 -0.2680  0.7870  1.3568
 4917SOL    HW226385   3.276   2.890   5.250 -3.4614 -2.0373 -1.2333
 4918SOL     OW26386   3.400   2.304   2.987 -0.0091  0.0697  0.2745
 4918SOL    HW126387   3.305   2.310   2.979 -0.0960  0.0923  1.3478
 4918SOL    HW226388   3.412   2.223   2.936 -0.2175 -0.3839  0.9524
 4919SOL     OW26389   2.068   2.329   6.142 -0.5564 -0.3802  0.5057
 4919SOL    HW126390   2.154   2.312   6.179  0.7042  0.5767 -1.9843
 4919SOL    HW226391   2.079   2.285   6.058  0.0511  1.0510 -0.1775
 4920SOL     OW26392   2.888   1.065   1.991 -0.3973  0.3233  0.7211
 4920SOL    HW126393   2.855   1.142   1.945  1.3928  2.7123  3.4192
 4920SOL    HW226394   2.845   1.057   2.076 -0.2937 -0.2202  0.7222
 4921SOL     OW26395   0.010   3.236   4.210 -0.1324 -0.6023 -0.2114
 4921SOL    HW126396   4.733   3.148   4.247 -0.9388 -0.1134  0.7083
 4921SOL    HW226397   4.682   3.281   4.268  0.4644 -1.4135  1.0815
 4922SOL     OW26398   4.436   1.238   3.067 -0.4268  0.3989  0.1076
 4922SOL    HW126399   4.432   1.295   3.143  0.5672 -1.9493  1.9414
 4922SOL    HW226400   4.522   1.259   3.031 -0.5828 -0.3223 -0.7047
 4923SOL     OW26401   1.236   4.003   7.991  0.5155  0.0591 -0.5019
 4923SOL    HW126402   1.229   4.074   8.055  0.7254 -1.1008  0.8180
 4923SOL    HW226403   1.316   3.960   8.022  0.6652  1.6085  1.2831
 4924SOL     OW26404   1.233   2.243   5.408 -0.7266  0.1567  0.4629
 4924SOL    HW126405   1.284   2.173   5.366 -0.8719  1.0478 -1.2236
 4924SOL    HW226406   1.303   2.308   5.417  0.5905 -1.6228  2.8082
 4925SOL     OW26407   2.193   3.364   8.165  0.2586  0.0667 -0.0591
 4925SOL    HW126408   2.239   3.340   8.246  1.7669  0.6441 -0.7337
 4925SOL    HW226409   2.106   3.339   8.194  0.6235  1.2672  2.0949
 4926SOL     OW26410   3.665   1.690   2.691  0.1357 -0.1789  0.3369
 4926SOL    HW126411   3.724   1.642   2.633 -0.4046  2.3735 -2.2623
 4926SOL    HW226412   3.639   1.767   2.642  1.0528  0.4312  0.8130
 4927SOL     OW26413   3.048   1.990   3.749 -0.4852  0.5911  0.3441
 4927SOL    HW126414   2.988   2.027   3.686  0.2910  1.5249  0.1588
 4927SOL    HW226415   3.101   1.940   3.687 -0.9746 -1.7494  1.7910
 4928SOL     OW26416   0.680   0.909   5.013 -0.6184  0.4994  0.2128
 4928SOL    HW126417   0.644   0.820   5.014  0.1279  0.1758 -3.2974
 4928SOL    HW226418   0.746   0.883   4.949 -1.1211 -2.6083  0.9279
 4929SOL     OW26419   1.934   4.652   5.367 -0.0255  0.7327 -0.0279
 4929SOL    HW126420   1.844   4.683   5.361  0.0118  0.6969 -0.6977
 4929SOL    HW226421   1.979   4.722   5.414 -0.1646  0.3909  0.6204
 4930SOL     OW26422   1.699   4.180   9.311  0.7414 -0.3052 -0.3941
 4930SOL    HW126423   1.726   4.227   9.232  1.5119 -1.3637 -0.7660
 4930SOL    HW226424   1.727   4.095   9.277  0.1536 -1.4426  1.9647
 4931SOL     OW26425   0.641   0.308  12.918  0.1213 -0.0348 -0.2470
 4931SOL    HW126426   0.645   0.323  13.013 -0.0919  0.7586 -0.3619
 4931SOL    HW226427   0.700   0.235  12.899 -0.6283 -0.5966 -0.3929
 4932SOL     OW26428   3.571   4.661  11.520 -0.4734 -0.4244  0.2451
 4932SOL    HW126429   3.544   0.004  11.569 -0.0396 -1.2792  1.8477
 4932SOL    HW226430   3.519   4.593  11.563 -0.1386 -0.1189  1.1320
 4933SOL     OW26431   3.984   1.802  14.917 -0.4209 -0.1549 -0.1449
 4933SOL    HW126432   3.895   1.828  14.892 -0.3958  0.1318  0.0665
 4933SOL    HW226433   3.982   1.710  14.891 -0.0029  0.1932 -1.4522
 4934SOL     OW26434   2.701   1.887   4.609 -0.4227 -0.0027 -0.0414
 4934SOL    HW126435   2.651   1.928   4.537  1.1230  2.3495  0.2149
 4934SOL    HW226436   2.773   1.846   4.562  0.2794  0.6967  0.4127
 4935SOL     OW26437   2.441   3.473   5.463  0.1773  0.1732  0.2966
 4935SOL    HW126438   2.438   3.537   5.534  2.3526 -0.2433  0.7795
 4935SOL    HW226439   2.372   3.410   5.485  0.4579 -0.0643  0.5010
 4936SOL     OW26440   0.857   3.532  14.103 -0.1955  0.4945  0.4759
 4936SOL    HW126441   0.858   3.565  14.013  0.4894  0.8473  0.6132
 4936SOL    HW226442   0.946   3.562  14.125  0.7294  0.2633 -2.9082
 4937SOL     OW26443   3.122   2.913   2.173  0.4411 -0.5265  0.4801
 4937SOL    HW126444   3.201   2.860   2.160  0.3559 -0.5291 -0.0317
 4937SOL    HW226445   3.156   2.998   2.200 -2.6781  0.4796  1.2978
 4938SOL     OW26446   4.190   0.312   0.999 -0.2983 -0.0380  0.1014
 4938SOL    HW126447   4.119   0.248   0.993 -0.7940  0.6933 -1.7435
 4938SOL    HW226448   4.209   0.304   1.093 -0.3839 -0.6932  0.0694
 4939SOL     OW26449   3.184   2.303   8.848  0.6444  0.7065 -0.2379
 4939SOL    HW126450   3.253   2.370   8.842  0.7221  0.5138 -1.3506
 4939SOL    HW226451   3.238   2.226   8.834 -0.9974 -0.6225  0.7843
 4940SOL     OW26452   4.325   0.601   0.089 -0.1539 -0.8096 -0.6115
 4940SOL    HW126453   4.271   0.668   0.131 -2.1942 -2.4892 -0.5807
 4940SOL    HW226454   4.259   0.541   0.054 -1.1095  0.8671 -1.7152
 4941SOL     OW26455   2.878   0.775   7.213 -0.3537  0.3001 -0.3701
 4941SOL    HW126456   2.818   0.846   7.191 -0.0578  0.3285 -1.0902
 4941SOL    HW226457   2.835   0.729   7.285 -1.0934 -0.3643 -1.2343
 4942SOL     OW26458   3.905   1.667   5.286  0.2651  0.9584 -0.4372
 4942SOL    HW126459   3.968   1.722   5.238 -0.7857  1.0740 -1.7004
 4942SOL    HW226460   3.915   1.589   5.232  1.2685  0.9467 -0.2383
 4943SOL     OW26461   3.359   0.590  12.025  0.2154  0.0124 -0.3979
 4943SOL    HW126462   3.429   0.654  12.039  1.8080 -2.2319  1.8084
 4943SOL    HW226463   3.389   0.533  11.953 -2.7428  0.2950 -1.8432
 4944SOL     OW26464   1.765   2.174   5.803 -0.2663  0.3529  0.0379
 4944SOL    HW126465   1.675   2.206   5.809 -0.6768 -0.5946 -1.0660
 4944SOL    HW226466   1.784   2.153   5.894 -1.9020 -0.1139  0.2687
 4945SOL     OW26467   0.667   4.522   0.367  0.1862  0.4561 -0.3335
 4945SOL    HW126468   0.579   4.555   0.385  0.1977  0.8078 -0.9340
 4945SOL    HW226469   0.694   4.593   0.309 -0.5799 -0.7378 -2.1826
 4946SOL     OW26470   3.540   0.226  17.565 -0.0729  0.1102  0.1894
 4946SOL    HW126471   3.558   0.300  17.506 -0.4388 -0.8875 -1.1913
 4946SOL    HW226472   3.455   0.251  17.601  0.3443 -1.6262  2.3236
 4947SOL     OW26473   4.370   1.580   9.284 -0.1300 -0.4996  0.0761
 4947SOL    HW126474   4.379   1.663   9.330  0.5545 -0.3538 -0.3198
 4947SOL    HW226475   4.368   1.509   9.348 -0.0157 -0.4183  0.1690
 4948SOL     OW26476   1.312   3.323  15.354  0.1658  0.3051 -0.0113
 4948SOL    HW126477   1.374   3.288  15.290 -2.7469 -0.7441 -2.2639
 4948SOL    HW226478   1.269   3.243  15.382 -0.1535  0.9020  1.2229
 4949SOL     OW26479   4.336   0.867  17.089 -0.3794  0.2462 -0.1688
 4949SOL    HW126480   4.404   0.804  17.063  0.0902  0.5278  0.3950
 4949SOL    HW226481   4.332   0.856  17.184  2.4722  0.4122 -0.0220
 4950SOL     OW26482   4.517   2.793   7.092 -0.1594 -0.2450 -0.1712
 4950SOL    HW126483   4.575   2.771   7.020 -1.9137 -1.3329 -1.2312
 4950SOL    HW226484   4.476   2.866   7.046  0.7772  1.3197  1.4474
 4951SOL     OW26485   4.346   0.277   3.699 -0.9113 -0.3619  0.1439
 4951SOL    HW126486   4.421   0.230   3.663 -1.2052 -0.4990 -0.2863
 4951SOL    HW226487   4.379   0.367   3.700  1.8385 -1.3740  0.8882
 4952SOL     OW26488   2.549   1.639  12.185 -0.6200  0.8682 -0.4720
 4952SOL    HW126489   2.590   1.558  12.212 -0.4182  0.4360 -2.0326
 4952SOL    HW226490   2.523   1.617  12.095 -1.2939  0.3021 -0.1322
 4953SOL     OW26491   3.453   1.029  13.386  0.0040 -0.0482 -0.5418
 4953SOL    HW126492   3.444   0.935  13.367  0.1573 -0.6677  2.4314
 4953SOL    HW226493   3.533   1.050  13.339  0.2096  0.9463  0.2530
 4954SOL     OW26494   3.321   2.569   7.689  0.7067 -0.1061 -0.0980
 4954SOL    HW126495   3.391   2.627   7.661  0.9331  0.9321  2.6471
 4954SOL    HW226496   3.259   2.641   7.698 -0.1272 -0.8599  0.1947
 4955SOL     OW26497   2.870   3.740   3.178  0.1764  0.3697  0.0513
 4955SOL    HW126498   2.911   3.715   3.261 -1.2862 -1.0782  0.3367
 4955SOL    HW226499   2.801   3.674   3.178  0.4770  0.0555 -0.9371
 4956SOL     OW26500   2.234   1.158   4.469  0.4119 -0.0080 -0.0465
 4956SOL    HW126501   2.317   1.183   4.428 -0.3409  1.8387 -0.4563
 4956SOL    HW226502   2.269   1.071   4.489  0.3125 -0.0442 -0.0312
 4957SOL     OW26503   3.987   1.290   0.236  0.6654  0.1586  0.5032
 4957SOL    HW126504   4.030   1.335   0.164  1.7069  2.1427  2.3653
 4957SOL    HW226505   3.938   1.221   0.191 -0.2430  0.5241  0.9359
 4958SOL     OW26506   0.602   3.412   7.855 -0.2849 -0.2663 -0.4403
 4958SOL    HW126507   0.615   3.379   7.944 -0.0373  1.4127  0.1461
 4958SOL    HW226508   0.530   3.476   7.861 -0.1222 -0.1625  0.4069
 4959SOL     OW26509   2.427   1.982   1.339 -0.4052 -0.3827  0.5397
 4959SOL    HW126510   2.444   1.931   1.260 -1.5155  0.3129 -0.1467
 4959SOL    HW226511   2.490   2.054   1.331  1.1568 -1.6423  1.4812
 4960SOL     OW26512   0.557   4.723   3.351  0.0663  0.6701  0.6203
 4960SOL    HW126513   0.615   4.682   3.416  1.2527 -0.6488 -1.2733
 4960SOL    HW226514   0.472   4.679   3.355  1.5039 -2.1423  0.5653
 4961SOL     OW26515   0.803   0.068   4.035  0.6015 -0.0911  0.8859
 4961SOL    HW126516   0.825   0.130   4.104  2.3997  0.0698  0.1629
 4961SOL    HW226517   0.760   4.730   4.080 -0.1597 -0.5986 -0.6507
 4962SOL     OW26518   2.381   2.236  15.496 -0.0896  0.2802 -0.0565
 4962SOL    HW126519   2.385   2.174  15.424  1.0536 -0.1500  0.3775
 4962SOL    HW226520   2.470   2.234  15.530  0.4854 -2.8706 -1.7775
 4963SOL     OW26521   0.779   3.206  10.178 -0.6441  0.1639 -0.1661
 4963SOL    HW126522   0.819   3.120  10.189 -0.5607  0.2333  0.0683
 4963SOL    HW226523   0.852   3.267  10.177  0.0514 -0.6594  0.8395
 4964SOL     OW26524   2.314   2.133   9.405 -0.1500 -0.1199 -0.1507
 4964SOL    HW126525   2.356   2.219   9.412  0.6264 -0.6428  1.5030
 4964SOL    HW226526   2.320   2.129   9.309  0.8521  0.9188 -0.1377
 4965SOL     OW26527   1.460   2.963   8.734  0.2801  0.8293 -0.5074
 4965SOL    HW126528   1.439   3.003   8.819  5.3713 -1.8241  1.9971
 4965SOL    HW226529   1.385   2.979   8.677 -1.0795  1.0131  1.3072
 4966SOL     OW26530   3.860   2.915   9.882 -0.5353  0.3727 -0.5109
 4966SOL    HW126531   3.828   2.851   9.818  1.5063  1.2642 -2.3951
 4966SOL    HW226532   3.951   2.938   9.865 -0.3336  0.5934  0.8279
 4967SOL     OW26533   1.496   3.028   6.711 -0.2005  0.0344  0.0192
 4967SOL    HW126534   1.542   2.944   6.717  0.4301  0.2440 -1.6976
 4967SOL    HW226535   1.451   3.033   6.795 -1.5699 -1.2096 -0.6288
 4968SOL     OW26536   3.750   0.481   5.334  0.2252  0.0346  0.3513
 4968SOL    HW126537   3.841   0.505   5.351 -0.1513  1.0818  0.9331
 4968SOL    HW226538   3.727   0.408   5.391 -0.2014  0.2341  0.4394
 4969SOL     OW26539   2.581   4.119   4.719 -0.2832  0.0029  0.0373
 4969SOL    HW126540   2.572   4.167   4.802  0.7037 -0.3534  0.3581
 4969SOL    HW226541   2.506   4.156   4.672 -1.1941  0.2931  1.7145
 4970SOL     OW26542   0.188   2.903   3.996 -0.0881  0.0365  0.6908
 4970SOL    HW126543   0.283   2.911   3.993 -0.0011 -1.6500 -0.8538
 4970SOL    HW226544   0.148   2.910   3.909  0.2105  0.9409  0.6242
 4971SOL     OW26545   1.449   0.323   0.069  0.0763  0.0774  0.3968
 4971SOL    HW126546   1.380   0.386   0.050 -0.1516 -0.1577  0.4487
 4971SOL    HW226547   1.470   0.292  17.718 -1.2162 -0.4382  0.2756
 4972SOL     OW26548   0.702   3.236   8.048 -0.0507  0.8868 -0.0572
 4972SOL    HW126549   0.752   3.168   8.004 -0.0797  0.8799 -0.0795
 4972SOL    HW226550   0.651   3.192   8.116  0.7716 -0.4547 -0.3248
 4973SOL     OW26551   2.976   3.769   2.498 -0.0528 -0.1633 -0.4076
 4973SOL    HW126552   2.971   3.781   2.593 -0.7243 -0.3650 -0.4201
 4973SOL    HW226553   3.011   3.680   2.488  2.5086  0.4055  3.3023
 4974SOL     OW26554   3.589   2.750   0.537  0.6324  0.1220 -0.7271
 4974SOL    HW126555   3.667   2.719   0.491  0.6202 -1.3242  0.2138
 4974SOL    HW226556   3.547   2.670   0.571  1.7844  0.7082  2.0852
 4975SOL     OW26557   2.431   3.873   5.817 -0.0203 -0.5237 -0.3283
 4975SOL    HW126558   2.412   3.958   5.856 -2.5678 -1.0424 -0.4305
 4975SOL    HW226559   2.355   3.822   5.846  0.2296 -0.9089 -0.3409
 4976SOL     OW26560   2.397   3.235   1.048 -0.3225 -0.5263 -0.0461
 4976SOL    HW126561   2.427   3.265   1.134 -0.3602  1.7480 -0.8423
 4976SOL    HW226562   2.443   3.153   1.032 -1.7806 -0.8160 -2.7669
 4977SOL     OW26563   0.221   0.888   8.118  0.5143  0.5023  0.3092
 4977SOL    HW126564   0.270   0.938   8.183  1.0124 -0.0564  0.3551
 4977SOL    HW226565   0.139   0.934   8.138 -0.2642 -0.9496  0.3969
 4978SOL     OW26566   4.282   2.034   2.921 -0.1269 -0.1663 -0.2702
 4978SOL    HW126567   4.250   1.944   2.910  0.3105  0.0091 -3.0562
 4978SOL    HW226568   4.239   2.052   3.004 -0.5825  1.4242 -0.8578
 4979SOL     OW26569   3.824   2.727  12.668  0.2252 -0.0618 -0.1200
 4979SOL    HW126570   3.790   2.638  12.673 -0.8039  0.2542 -1.5918
 4979SOL    HW226571   3.914   2.719  12.699 -0.1671  0.2672  1.0783
 4980SOL     OW26572   0.185   2.690   6.716  0.3860 -0.2209 -0.4879
 4980SOL    HW126573   0.187   2.653   6.628 -2.3682 -1.6897  0.0492
 4980SOL    HW226574   0.251   2.636   6.759  1.1378  0.1828 -1.1368
 4981SOL     OW26575   3.125   0.367   5.133  0.3154  1.0758 -0.5583
 4981SOL    HW126576   3.208   0.323   5.148 -0.8842 -1.3961 -1.1870
 4981SOL    HW226577   3.162   0.456   5.136  2.1016  0.2696  1.4019
 4982SOL     OW26578   3.906   0.062   6.475  0.7573 -0.5181  0.1574
 4982SOL    HW126579   4.001   0.069   6.473  0.8517 -1.8355 -0.0592
 4982SOL    HW226580   3.871   0.150   6.468 -0.7697 -1.0688  0.7852
 4983SOL     OW26581   1.778   1.326  12.998 -0.0841 -0.4586  0.0817
 4983SOL    HW126582   1.857   1.275  12.981  1.9770  3.0896 -0.9968
 4983SOL    HW226583   1.818   1.410  13.018 -0.1551 -0.4883  0.3487
 4984SOL     OW26584   3.773   3.314   4.849 -0.1730 -1.6167  0.1409
 4984SOL    HW126585   3.715   3.241   4.871 -1.7088  0.1448  1.8157
 4984SOL    HW226586   3.760   3.327   4.755  0.6817  0.4643  0.3032
 4985SOL     OW26587   1.005   3.986   2.793 -0.1106  0.2596 -0.6128
 4985SOL    HW126588   1.036   3.958   2.880 -2.3045 -0.3566 -0.0356
 4985SOL    HW226589   1.057   3.932   2.734  0.5804 -0.0335  0.2645
 4986SOL     OW26590   0.001   0.219   7.265 -0.4000  0.0989 -0.6040
 4986SOL    HW126591   4.644   0.221   7.236 -0.1003  1.9634 -1.4590
 4986SOL    HW226592   0.033   0.137   7.229 -0.2397 -0.7055  1.3944
 4987SOL     OW26593   3.024   3.306  13.761 -0.3290  0.0400  0.4455
 4987SOL    HW126594   2.961   3.238  13.735 -2.1129  1.7125  0.3528
 4987SOL    HW226595   2.975   3.347  13.832 -2.5713 -0.1692 -0.9606
 4988SOL     OW26596   3.476   1.280   9.911 -0.3826 -0.5419 -0.3772
 4988SOL    HW126597   3.565   1.251   9.930  0.1010  1.6338  0.5863
 4988SOL    HW226598   3.487   1.321   9.825  1.9399  0.0559  0.2204
 4989SOL     OW26599   3.050   2.593   5.749  0.1260  0.0536  0.3721
 4989SOL    HW126600   3.062   2.498   5.748  1.9128  0.2680  1.4434
 4989SOL    HW226601   3.005   2.613   5.830 -1.0012  1.8459 -0.7039
 4990SOL     OW26602   0.051   1.638   4.748 -0.1163 -0.0832  0.1549
 4990SOL    HW126603   0.022   1.550   4.725 -1.0492  0.5529 -1.0557
 4990SOL    HW226604   0.034   1.690   4.670 -0.7992 -1.0830 -0.3543
 4991SOL     OW26605   1.906   3.762   5.246  0.1332  0.3529 -0.5960
 4991SOL    HW126606   1.890   3.748   5.152 -1.6667 -1.5024 -0.0267
 4991SOL    HW226607   1.856   3.841   5.268  0.6610  0.1089  1.4755
 4992SOL     OW26608   3.304   0.056   6.578  0.0307  0.1205  0.2558
 4992SOL    HW126609   3.294   0.069   6.484 -0.0945  2.5172  0.6171
 4992SOL    HW226610   3.364   0.126   6.603  0.8615 -0.6299  0.3843
 4993SOL     OW26611   3.570   1.340   3.040  0.5223  0.3106  0.2995
 4993SOL    HW126612   3.477   1.336   3.059  0.1257  1.4836 -1.4544
 4993SOL    HW226613   3.582   1.410   2.976  0.7662  0.9741  1.0651
 4994SOL     OW26614   2.183   0.210   5.851  0.5418  0.1275  0.2462
 4994SOL    HW126615   2.087   0.211   5.847  0.5138  0.8243  1.0854
 4994SOL    HW226616   2.207   0.241   5.764 -2.3858  1.0611 -0.2419
 4995SOL     OW26617   3.710   4.624   5.429  0.2109  0.0376 -0.0945
 4995SOL    HW126618   3.634   4.648   5.482  1.1517 -0.3404  1.4065
 4995SOL    HW226619   3.739   4.546   5.476  1.0979  0.4822  0.0853
 4996SOL     OW26620   1.580   4.488   2.750  0.4358  0.1202  0.2941
 4996SOL    HW126621   1.621   4.431   2.685 -0.6029 -1.2737  0.8479
 4996SOL    HW226622   1.655   4.540   2.777  1.0646 -0.1480 -0.9535
 4997SOL     OW26623   1.246   4.596   3.274  0.2408  0.0294  0.1204
 4997SOL    HW126624   1.258   4.632   3.362  1.3793 -0.8022  0.3102
 4997SOL    HW226625   1.334   4.568   3.252 -0.0965 -1.6518  0.8875
 4998SOL     OW26626   3.713   0.274   0.428 -0.6003  0.1044 -0.4662
 4998SOL    HW126627   3.801   0.236   0.432 -1.3560 -1.6492 -0.7350
 4998SOL    HW226628   3.653   0.203   0.404  0.7189 -1.7336  1.7468
 4999SOL     OW26629   4.165   0.954  13.794  0.4179  0.2136 -0.1150
 4999SOL    HW126630   4.105   0.882  13.813  0.0746  0.8953  1.3595
 4999SOL    HW226631   4.104   1.022  13.821  0.4159  0.4649 -0.7389
 5000SOL     OW26632   1.989   2.639   9.523  0.0055  0.3501  0.4876
 5000SOL    HW126633   1.957   2.598   9.603  0.8116 -0.4500  0.3886
 5000SOL    HW226634   2.071   2.677   9.557 -0.4816  1.5178  0.3533
 5001SOL     OW26635   1.789   3.610  10.006  0.1201  0.7451 -0.1342
 5001SOL    HW126636   1.751   3.674  10.066  1.8489 -0.4351  2.2463
 5001SOL    HW226637   1.869   3.590  10.055  0.1323 -0.2189 -0.5534
 5002SOL     OW26638   1.832   1.840   0.477 -0.2465 -0.2026 -0.4285
 5002SOL    HW126639   1.740   1.862   0.458  0.5201  2.8009 -0.7783
 5002SOL    HW226640   1.864   1.925   0.509  0.8297 -0.8596  0.2028
 5003SOL     OW26641   1.354   4.129   2.362  0.4682 -0.1985 -0.2418
 5003SOL    HW126642   1.296   4.089   2.297  0.5618 -1.5351  0.5035
 5003SOL    HW226643   1.414   4.166   2.297  0.4865  0.5817  0.2212
 5004SOL     OW26644   2.664   2.736   4.018  0.0166 -1.0484 -0.6012
 5004SOL    HW126645   2.673   2.812   4.075  2.2173 -0.4305 -1.7461
 5004SOL    HW226646   2.735   2.747   3.954  1.6873 -1.6917  1.1205
 5005SOL     OW26647   2.603   3.028  14.203 -0.0842 -0.4977 -0.2422
 5005SOL    HW126648   2.516   3.003  14.174 -0.6677  1.2282  0.0224
 5005SOL    HW226649   2.641   3.051  14.118  1.3584 -1.2097  0.2212
 5006SOL     OW26650   1.944   0.561   6.141 -0.4598  0.3894  0.5816
 5006SOL    HW126651   2.003   0.612   6.197 -0.8278 -0.3695  1.6687
 5006SOL    HW226652   2.008   0.491   6.132 -1.1961 -0.3564  1.1374
 5007SOL     OW26653   0.898   3.725   7.386  0.1197 -0.9897 -0.2800
 5007SOL    HW126654   0.962   3.735   7.315  0.4963 -1.1791  0.0337
 5007SOL    HW226655   0.827   3.678   7.341  0.2011 -1.4089  0.0356
 5008SOL     OW26656   3.771   4.637  16.208  0.3273 -0.0500  0.1219
 5008SOL    HW126657   3.683   4.655  16.176  0.5068  2.6648  1.1866
 5008SOL    HW226658   3.794   4.720  16.250  0.0577 -0.8204  1.7692
 5009SOL     OW26659   1.038   3.733   9.314  0.4795 -0.3239  0.2348
 5009SOL    HW126660   1.015   3.804   9.374  0.1358  0.3832 -0.7329
 5009SOL    HW226661   1.098   3.678   9.364  1.6549  1.4952  0.8335
 5010SOL     OW26662   1.318   0.339  10.237 -0.4691  0.5357 -0.2964
 5010SOL    HW126663   1.244   0.284  10.261  0.3317  0.1841  1.3989
 5010SOL    HW226664   1.347   0.295  10.157 -0.7102  0.0929 -0.1374
 5011SOL     OW26665   1.255   2.575   5.645  0.3785 -0.2536  0.3953
 5011SOL    HW126666   1.197   2.650   5.660  0.2111 -0.0388 -1.2517
 5011SOL    HW226667   1.317   2.607   5.579 -0.3580 -0.0082 -0.1806
 5012SOL     OW26668   4.298   2.748  14.559  0.3716 -0.7604 -0.0221
 5012SOL    HW126669   4.227   2.786  14.507 -0.6301  0.8473  2.5107
 5012SOL    HW226670   4.269   2.783  14.644  1.3901  0.5667 -0.2203
 5013SOL     OW26671   2.027   1.421   8.613  0.2360 -0.5366 -0.4117
 5013SOL    HW126672   2.101   1.416   8.553  0.3041  3.7031 -0.6317
 5013SOL    HW226673   1.968   1.373   8.554 -0.5811  1.3957 -1.1411
 5014SOL     OW26674   2.439   0.108  14.787  0.4052  0.1958  0.3068
 5014SOL    HW126675   2.524   0.135  14.823  0.9421 -1.6247  0.3944
 5014SOL    HW226676   2.388   0.093  14.867  1.4350 -0.2425  0.8873
 5015SOL     OW26677   0.189   1.173   5.922 -0.1113  0.1239 -0.2473
 5015SOL    HW126678   0.257   1.187   5.988  0.6916 -1.1788 -0.8152
 5015SOL    HW226679   0.115   1.154   5.980  0.4418 -0.9222  0.0986
 5016SOL     OW26680   0.452   2.987   4.038 -0.0051  0.5327  0.2154
 5016SOL    HW126681   0.539   3.022   4.058 -0.2546  1.7314 -0.7191
 5016SOL    HW226682   0.434   2.948   4.123 -2.3641  1.9081  0.3450
 5017SOL     OW26683   3.579   4.288   7.967  0.2416  0.6118  0.3383
 5017SOL    HW126684   3.620   4.217   7.917 -1.0793  0.4488 -0.5051
 5017SOL    HW226685   3.529   4.329   7.897 -1.5264  0.0697  1.2771
 5018SOL     OW26686   2.388   1.343  10.077  0.2561  0.2335 -0.0550
 5018SOL    HW126687   2.393   1.336   9.982  0.0354  0.1346 -0.0595
 5018SOL    HW226688   2.440   1.267  10.102 -0.8795 -0.1018  1.3186
 5019SOL     OW26689   4.046   2.223  17.690  0.2576  0.2979 -0.7879
 5019SOL    HW126690   3.966   2.173  17.680  0.9980 -1.1155  0.2862
 5019SOL    HW226691   4.031   2.300  17.636  0.8460  0.1729 -1.1361
 5020SOL     OW26692   1.510   3.289   4.021  0.3169 -0.1253 -0.0097
 5020SOL    HW126693   1.550   3.206   4.047  0.9451  0.8514  2.1117
 5020SOL    HW226694   1.453   3.294   4.097  0.0006 -0.2167 -0.2405
 5021SOL     OW26695   4.285   2.031   9.941 -0.3555  0.1401  0.7809
 5021SOL    HW126696   4.209   2.048   9.997 -0.1044  0.6139  0.9801
 5021SOL    HW226697   4.336   1.977  10.001 -0.5694 -2.7607 -1.6824
 5022SOL     OW26698   2.882   0.735   2.237  0.7064  0.3426 -0.0344
 5022SOL    HW126699   2.871   0.830   2.231  1.5021  0.4448  0.0917
 5022SOL    HW226700   2.824   0.724   2.312  0.2332  2.1095 -0.1319
 5023SOL     OW26701   1.417   4.155   2.672 -0.2870 -0.7026 -0.1325
 5023SOL    HW126702   1.410   4.129   2.581  0.1456  2.6910 -1.1182
 5023SOL    HW226703   1.403   4.250   2.673  1.0548 -0.5106  1.3185
 5024SOL     OW26704   0.522   1.454   6.609 -0.3089  0.4412  0.1792
 5024SOL    HW126705   0.596   1.507   6.638 -0.6847  0.4698  1.1072
 5024SOL    HW226706   0.508   1.401   6.688  1.4916  0.8249  0.7565
 5025SOL     OW26707   2.598   4.322   6.778  0.7977 -0.3233  0.1734
 5025SOL    HW126708   2.683   4.366   6.779  1.7171 -2.1075  1.7055
 5025SOL    HW226709   2.612   4.254   6.712  0.6097 -0.7466  0.5692
 5026SOL     OW26710   1.950   4.200   9.869  0.2548 -1.1799  0.3966
 5026SOL    HW126711   1.960   4.288   9.832  2.4218 -1.7307 -0.3545
 5026SOL    HW226712   2.022   4.165   9.815 -0.2653 -0.2134 -0.9153
 5027SOL     OW26713   3.655   3.291   7.913 -0.2547  0.8422 -0.2522
 5027SOL    HW126714   3.648   3.207   7.958  1.2918  1.1501  0.5592
 5027SOL    HW226715   3.635   3.269   7.822  0.6857 -0.9628 -0.0245
 5028SOL     OW26716   1.128   3.124   0.985  0.1531 -0.1605 -0.3795
 5028SOL    HW126717   1.111   3.161   1.072  1.1308  3.0344 -1.5280
 5028SOL    HW226718   1.220   3.141   0.965  0.6336 -0.7577  1.2765
 5029SOL     OW26719   4.517   0.862   2.434  0.6760 -0.4470  0.0141
 5029SOL    HW126720   4.566   0.901   2.362 -2.0569 -0.4819 -1.9001
 5029SOL    HW226721   4.436   0.904   2.406  0.8273  0.0520  0.3435
 5030SOL     OW26722   1.285   0.609   4.976  0.1125  0.5569  0.1450
 5030SOL    HW126723   1.192   0.622   4.957  1.2570  0.3676 -5.5531
 5030SOL    HW226724   1.288   0.578   5.066 -0.7270 -0.6076 -0.2292
 5031SOL     OW26725   0.872   4.012   5.418  0.3722  0.1416  0.1156
 5031SOL    HW126726   0.928   4.075   5.372 -0.3693  1.5561  1.1526
 5031SOL    HW226727   0.877   4.041   5.509  1.2228 -0.1227  0.1504
 5032SOL     OW26728   2.324   4.728   8.901 -0.5461  0.4283  0.0777
 5032SOL    HW126729   2.229   4.712   8.902 -0.3402 -0.8183  0.2656
 5032SOL    HW226730   2.353   4.650   8.853  3.2877  0.4557  2.3807
 5033SOL     OW26731   0.881   0.330   6.506 -0.7151 -0.1002 -0.0888
 5033SOL    HW126732   0.828   0.396   6.461 -1.5851 -1.7487 -1.4914
 5033SOL    HW226733   0.888   0.253   6.449 -0.5487  1.6873 -2.4832
 5034SOL     OW26734   4.124   3.207   6.626  0.0489 -0.4138  0.0054
 5034SOL    HW126735   4.155   3.164   6.546  1.8992 -0.5849  0.8208
 5034SOL    HW226736   4.051   3.150   6.652 -0.1706  1.1993  2.9573
 5035SOL     OW26737   4.532   4.212   6.427 -0.4690 -0.3775  0.4537
 5035SOL    HW126738   4.575   4.181   6.507  0.2533  1.9118  0.9487
 5035SOL    HW226739   4.442   4.212   6.458  0.1445 -6.0388  2.1795
 5036SOL     OW26740   3.838   0.587   6.715  0.5608 -0.0803  0.1263
 5036SOL    HW126741   3.824   0.520   6.781  1.3474  1.0543  1.4616
 5036SOL    HW226742   3.809   0.665   6.763 -1.2561 -1.7209  1.7233
 5037SOL     OW26743   0.682   4.148   6.795 -0.1002 -0.4333 -0.4362
 5037SOL    HW126744   0.593   4.182   6.807  0.1443  1.0507 -3.0156
 5037SOL    HW226745   0.733   4.227   6.808  0.9632 -1.0387 -0.8958
 5038SOL     OW26746   4.240   3.131   5.599  0.3184  0.2044 -0.3594
 5038SOL    HW126747   4.177   3.123   5.527  0.0163  0.3518 -0.1074
 5038SOL    HW226748   4.308   3.067   5.575  1.3029  1.5853 -1.2871
 5039SOL     OW26749   4.679   0.246  11.791  0.2628  0.0278 -0.4647
 5039SOL    HW126750   4.625   0.321  11.766 -1.0611 -1.1745 -1.2120
 5039SOL    HW226751   4.725   0.269  11.872 -0.8976 -0.5834  0.3737
 5040SOL     OW26752   0.785   4.449   9.269  0.9388  0.0075 -0.0710
 5040SOL    HW126753   0.715   4.504   9.304  0.8063 -1.7766  2.4841
 5040SOL    HW226754   0.825   4.519   9.218  1.0838 -1.2570 -1.6947
 5041SOL     OW26755   4.042   0.383   4.461 -0.2958 -0.1072 -0.1026
 5041SOL    HW126756   3.961   0.377   4.411 -0.9563  0.0181  0.9539
 5041SOL    HW226757   4.091   0.304   4.440  0.8933  0.0101  2.3060
 5042SOL     OW26758   2.713   1.680  15.804  0.1043 -0.0842 -0.6877
 5042SOL    HW126759   2.801   1.685  15.765 -0.0432  1.7832 -0.7824
 5042SOL    HW226760   2.663   1.751  15.764 -3.3689 -2.7896 -1.0606
 5043SOL     OW26761   0.368   1.846   5.834 -0.1589  0.7635 -0.1021
 5043SOL    HW126762   0.359   1.806   5.748  0.2478  4.0555 -1.6815
 5043SOL    HW226763   0.323   1.790   5.897  0.2405 -0.4536 -0.9064
 5044SOL     OW26764   3.698   4.106  15.452  0.6389  0.0434  0.4823
 5044SOL    HW126765   3.625   4.165  15.432  0.3233  0.1042  1.7575
 5044SOL    HW226766   3.696   4.068  15.365  0.6195 -0.8285  0.8611
 5045SOL     OW26767   3.915   1.567  17.505  0.2896  0.6412  0.3938
 5045SOL    HW126768   4.007   1.587  17.523  1.0606 -0.8400 -1.8490
 5045SOL    HW226769   3.879   1.651  17.477 -1.2323 -0.8565 -2.2326
 5046SOL     OW26770   3.069   1.234   6.376 -0.3744 -0.2731 -0.0505
 5046SOL    HW126771   3.078   1.198   6.464  1.3867 -0.2923 -0.2547
 5046SOL    HW226772   3.118   1.173   6.320 -2.6131  0.8762 -3.2559
 5047SOL     OW26773   2.251   3.940   9.277 -0.3586  0.1279  0.1201
 5047SOL    HW126774   2.271   3.933   9.370 -0.4897 -1.8338 -0.0055
 5047SOL    HW226775   2.190   4.014   9.284 -0.3840  0.0749  0.4475
 5048SOL     OW26776   4.455   1.732   2.052  0.0564  0.1488  0.4585
 5048SOL    HW126777   4.515   1.731   2.127 -0.3598  1.4724  0.8202
 5048SOL    HW226778   4.478   1.809   2.000 -1.8528 -0.8361 -1.7956
 5049SOL     OW26779   0.401   4.318   5.093 -1.0886 -0.3099 -0.0503
 5049SOL    HW126780   0.330   4.276   5.141 -0.4191 -1.4442 -0.0622
 5049SOL    HW226781   0.483   4.284   5.129 -0.8379  2.1359  1.7531
 5050SOL     OW26782   1.313   3.235   4.480  0.4903  0.6005 -0.3372
 5050SOL    HW126783   1.367   3.157   4.465  1.3422  0.9220  1.0339
 5050SOL    HW226784   1.225   3.198   4.489 -0.5597  3.6589  1.7234
 5051SOL     OW26785   3.520   1.892   2.571 -0.1650  0.0881 -0.2906
 5051SOL    HW126786   3.457   1.894   2.500  0.7330  0.6576 -1.0725
 5051SOL    HW226787   3.476   1.950   2.633 -1.9581 -1.5251 -0.0784
 5052SOL     OW26788   4.507   0.333   7.539 -0.1785  0.2186  0.5326
 5052SOL    HW126789   4.421   0.375   7.534 -0.5728 -0.6622 -0.0389
 5052SOL    HW226790   4.531   0.325   7.447 -1.6171  1.9502  0.0122
 5053SOL     OW26791   3.971   1.835  10.625  0.0031  0.1257  0.1718
 5053SOL    HW126792   3.890   1.786  10.614 -0.4658  1.2532 -1.4959
 5053SOL    HW226793   4.011   1.792  10.701 -1.0195 -0.5305  0.3359
 5054SOL     OW26794   2.269   0.986  15.475  0.4239 -0.1687  0.1687
 5054SOL    HW126795   2.183   1.008  15.512 -0.1188 -1.6654 -0.1936
 5054SOL    HW226796   2.308   0.918  15.530  1.0216  0.7206  0.8614
 5055SOL     OW26797   3.996   0.778   8.786 -0.3040  0.0839 -0.6021
 5055SOL    HW126798   4.066   0.843   8.775 -0.0411  0.1684  1.6594
 5055SOL    HW226799   3.913   0.826   8.782 -0.9458 -0.8473  1.5519
 5056SOL     OW26800   2.208   2.776   9.526 -0.6219  0.6614  0.2941
 5056SOL    HW126801   2.195   2.822   9.443  0.3136  0.2978 -0.0530
 5056SOL    HW226802   2.298   2.744   9.523 -1.5761 -2.0145  0.1894
 5057SOL     OW26803   4.244   4.573   1.493  0.4672  0.6330  0.2648
 5057SOL    HW126804   4.235   4.585   1.399  0.0116 -1.6948  0.0333
 5057SOL    HW226805   4.229   4.479   1.498 -1.3776  0.9609  1.1388
 5058SOL     OW26806   3.741   2.347  16.703  0.0153 -0.0822  0.1348
 5058SOL    HW126807   3.665   2.359  16.760  0.9731  1.1575  1.1647
 5058SOL    HW226808   3.766   2.262  16.738  3.0691  0.6381 -0.2817
 5059SOL     OW26809   0.962   2.480   6.953  0.2920  0.2303  0.0406
 5059SOL    HW126810   0.895   2.496   6.886 -0.4081 -0.3489  0.6018
 5059SOL    HW226811   0.954   2.548   7.020 -0.3105  0.8345 -0.6406
 5060SOL     OW26812   1.643   3.455   7.642  0.2942  0.0343  0.3288
 5060SOL    HW126813   1.612   3.388   7.582  3.1087 -0.7999 -0.2017
 5060SOL    HW226814   1.585   3.446   7.718 -1.3164 -0.6011 -0.9871
 5061SOL     OW26815   0.619   3.956   2.978  0.1430  0.1300  0.2750
 5061SOL    HW126816   0.645   3.879   3.028 -0.6140 -0.0086  0.4507
 5061SOL    HW226817   0.525   3.946   2.992  0.4296 -0.3166  1.9057
 5062SOL     OW26818   1.454   0.804   4.818 -0.1940 -0.1611  0.2700
 5062SOL    HW126819   1.410   0.729   4.856 -0.7872 -0.6768 -1.4346
 5062SOL    HW226820   1.509   0.761   4.752 -1.0692 -0.5336 -0.2030
 5063SOL     OW26821   4.177   1.671   4.902  0.3471  0.4533 -0.2419
 5063SOL    HW126822   4.146   1.629   4.982  1.6982 -0.2568 -0.1018
 5063SOL    HW226823   4.133   1.756   4.896  0.1778  0.4600  1.0782
 5064SOL     OW26824   2.588   1.206  11.941 -0.3465 -1.0020  0.2441
 5064SOL    HW126825   2.562   1.243  11.856 -0.3413 -1.2639  0.1294
 5064SOL    HW226826   2.681   1.229  11.941 -0.8692  1.1620 -0.6159
 5065SOL     OW26827   4.370   2.782  13.581 -0.0580  0.1387 -0.3525
 5065SOL    HW126828   4.447   2.725  13.573  1.3964  1.9079  1.3573
 5065SOL    HW226829   4.387   2.852  13.518 -0.0145  1.4729  1.1397
 5066SOL     OW26830   1.347   0.145   7.852  0.2186  0.6971  0.6102
 5066SOL    HW126831   1.268   0.181   7.893  1.0705  0.2396  2.6504
 5066SOL    HW226832   1.418   0.172   7.910  0.8233  1.5231 -0.5001
 5067SOL     OW26833   1.313   3.014   6.105 -0.1837 -0.2890  0.0221
 5067SOL    HW126834   1.291   3.042   6.194 -3.2616  0.7488 -1.0518
 5067SOL    HW226835   1.231   2.989   6.063  0.4368  0.4212 -1.6104
 5068SOL     OW26836   1.337   2.469  13.605 -0.3393  0.1596 -0.2430
 5068SOL    HW126837   1.328   2.442  13.514  0.8082 -2.8957  0.5602
 5068SOL    HW226838   1.345   2.564  13.594 -0.3808  0.1442 -0.4090
 5069SOL     OW26839   0.616   0.877   4.335 -0.3342  0.6030 -0.0281
 5069SOL    HW126840   0.608   0.783   4.354  0.2132  0.2650 -1.4455
 5069SOL    HW226841   0.551   0.895   4.267  0.5827  1.1174 -0.7516
 5070SOL     OW26842   3.802   1.549   9.450 -0.0170  0.5549  0.0491
 5070SOL    HW126843   3.879   1.537   9.506  0.5968  0.3038 -0.8395
 5070SOL    HW226844   3.772   1.459   9.439  0.2130  0.3197  1.3913
 5071SOL     OW26845   1.188   0.578   0.813  0.2503  0.2696 -0.2808
 5071SOL    HW126846   1.145   0.493   0.801 -0.8484  0.5138  1.8225
 5071SOL    HW226847   1.149   0.607   0.895  0.3121  0.8600 -0.4615
 5072SOL     OW26848   1.124   4.719   2.310 -0.2467  0.1399  0.2173
 5072SOL    HW126849   1.155   0.018   2.394  3.3975 -1.0613 -0.6191
 5072SOL    HW226850   1.092   4.631   2.332  1.0894 -0.3458  0.2562
 5073SOL     OW26851   2.509   4.555   4.921 -0.0403  0.6052 -0.0199
 5073SOL    HW126852   2.437   4.596   4.874  0.6907  0.8289 -0.9388
 5073SOL    HW226853   2.582   4.582   4.865  2.7518 -1.4182  2.6234
 5074SOL     OW26854   0.567   3.258   3.206  0.7367 -0.0550  0.2705
 5074SOL    HW126855   0.581   3.173   3.164 -0.6878 -0.1774  0.0521
 5074SOL    HW226856   0.479   3.248   3.242  0.9535  1.4056  1.1712
 5075SOL     OW26857   1.948   2.326   0.868 -0.5905  0.4809 -0.3420
 5075SOL    HW126858   2.005   2.305   0.942 -1.9833  0.1340  0.6240
 5075SOL    HW226859   1.937   2.421   0.877  0.7947  0.5679  0.4524
 5076SOL     OW26860   1.198   0.226  12.663  0.1976 -0.2365  0.6639
 5076SOL    HW126861   1.180   0.172  12.586 -0.0182  0.5247  0.1813
 5076SOL    HW226862   1.117   0.277  12.666  0.2798 -0.0420 -0.4475
 5077SOL     OW26863   3.882   1.242   8.137  0.0228  0.4321  0.1992
 5077SOL    HW126864   3.941   1.166   8.136 -0.4292  0.1176 -1.8705
 5077SOL    HW226865   3.809   1.204   8.088  0.8492 -0.6903 -0.1669
 5078SOL     OW26866   0.628   0.525   7.320  0.4499 -0.6000  0.3708
 5078SOL    HW126867   0.719   0.494   7.326  0.8531  0.4563 -0.2491
 5078SOL    HW226868   0.630   0.588   7.249 -1.1765 -0.9354  0.0301
 5079SOL     OW26869   1.168   4.682  11.561 -0.1378  0.3167 -0.6463
 5079SOL    HW126870   1.120   4.600  11.565 -0.8315  0.6816 -1.3707
 5079SOL    HW226871   1.114   0.005  11.615  0.3509 -0.8819  1.0869
 5080SOL     OW26872   3.335   3.639   5.309  0.0486 -0.2065  0.1799
 5080SOL    HW126873   3.264   3.605   5.253  0.0570  0.8465 -0.4654
 5080SOL    HW226874   3.390   3.684   5.246 -2.1519  1.0691 -0.8579
 5081SOL     OW26875   2.838   3.005   4.550 -0.4293  0.3764  0.1230
 5081SOL    HW126876   2.846   2.931   4.610 -2.4131  1.3702  1.6295
 5081SOL    HW226877   2.744   3.000   4.537 -0.3992 -1.3182  0.5424
 5082SOL     OW26878   0.833   3.806   7.940  0.0291  0.1084  0.1184
 5082SOL    HW126879   0.755   3.841   7.983  1.0988  1.0264  1.3086
 5082SOL    HW226880   0.804   3.715   7.938 -0.8640  0.4091 -0.8957
 5083SOL     OW26881   4.288   4.161   4.781 -0.4412 -0.2738 -0.0589
 5083SOL    HW126882   4.274   4.239   4.835 -0.3164 -1.1582  1.2456
 5083SOL    HW226883   4.377   4.178   4.751 -0.8811  1.2044 -0.5349
 5084SOL     OW26884   3.634   0.271   0.139 -0.1570  0.3426 -0.6068
 5084SOL    HW126885   3.561   0.235   0.090 -1.5570  0.8496  1.1164
 5084SOL    HW226886   3.596   0.347   0.184  0.1494  0.1891 -0.0891
 5085SOL     OW26887   4.405   0.862  14.812  0.0784  0.3348 -0.1687
 5085SOL    HW126888   4.344   0.789  14.827 -0.9331  0.1442 -5.3987
 5085SOL    HW226889   4.487   0.816  14.825  0.5492  1.1911 -0.1337
 5086SOL     OW26890   2.217   3.985   2.354  0.4656  0.0392  0.2533
 5086SOL    HW126891   2.166   3.913   2.389 -0.6352  1.0667  0.7552
 5086SOL    HW226892   2.299   3.976   2.403  0.5968  0.9820  0.2191
 5087SOL     OW26893   4.285   4.123  10.749  0.7296 -0.1874  0.5184
 5087SOL    HW126894   4.321   4.138  10.662  0.2230 -0.2445  0.2950
 5087SOL    HW226895   4.192   4.101  10.737  0.4549  1.0009  0.5162
 5088SOL     OW26896   0.060   2.177   3.393 -0.2014  0.2501 -0.0154
 5088SOL    HW126897   0.022   2.209   3.475 -0.9067 -3.6722  1.2019
 5088SOL    HW226898   4.720   2.122   3.371 -1.1038  1.4651 -0.0047
 5089SOL     OW26899   3.869   0.657   8.280  0.4347 -0.1463 -0.3662
 5089SOL    HW126900   3.964   0.660   8.271  0.4690  0.3792  0.1476
 5089SOL    HW226901   3.859   0.562   8.282  0.2538 -0.1431 -0.9012
 5090SOL     OW26902   0.766   0.063   7.389  0.0124  0.5521 -0.0996
 5090SOL    HW126903   0.703   0.087   7.322  0.2581  1.4821 -0.0008
 5090SOL    HW226904   0.734   4.710   7.410  1.8303  0.8635  3.9853
 5091SOL     OW26905   2.335   1.485   3.953  0.3786 -0.5395  0.0509
 5091SOL    HW126906   2.251   1.467   3.910 -0.5616  0.9810  1.2566
 5091SOL    HW226907   2.351   1.404   4.002  0.0457 -1.3561 -1.1754
 5092SOL     OW26908   0.765   0.385   9.117 -0.4978 -0.4323  0.2387
 5092SOL    HW126909   0.802   0.427   9.039  0.1627 -0.5068  0.5165
 5092SOL    HW226910   0.834   0.321   9.133 -0.5119 -0.3777  0.5124
 5093SOL     OW26911   0.706   1.190  16.340 -0.2370 -0.0113  0.5192
 5093SOL    HW126912   0.714   1.275  16.297 -0.1510 -0.5153 -0.4653
 5093SOL    HW226913   0.631   1.159  16.289 -0.5909  0.7582  0.5718
 5094SOL     OW26914   1.653   1.002   8.101  0.5589  0.0746  0.1836
 5094SOL    HW126915   1.667   1.096   8.084  0.3894  0.1706  0.5809
 5094SOL    HW226916   1.737   0.971   8.134 -0.1877 -1.2711  0.7926
 5095SOL     OW26917   2.224   0.133   2.453 -0.4212  0.7935  0.3959
 5095SOL    HW126918   2.234   0.063   2.517  2.2224  1.0378  0.2356
 5095SOL    HW226919   2.130   0.151   2.461 -0.9586 -1.5772 -0.4919
 5096SOL     OW26920   1.516   0.507   6.118 -0.2093 -0.4412  0.3010
 5096SOL    HW126921   1.452   0.532   6.051 -1.3200 -1.3613  1.0229
 5096SOL    HW226922   1.462   0.438   6.157  2.1607 -1.7957  1.1850
 5097SOL     OW26923   3.154   3.206  10.046  0.5988  0.5522  0.0427
 5097SOL    HW126924   3.185   3.160  10.125  0.5038 -0.6165 -0.6064
 5097SOL    HW226925   3.067   3.232  10.076  0.2974  0.8555 -1.1163
 5098SOL     OW26926   0.421   0.368   6.925 -0.2835 -0.1263 -0.2481
 5098SOL    HW126927   0.510   0.334   6.930 -0.8123 -1.3549  0.7319
 5098SOL    HW226928   0.440   0.459   6.900  0.8666 -0.0620  0.8732
 5099SOL     OW26929   4.187   0.850   7.098  0.5063 -0.8353 -0.2539
 5099SOL    HW126930   4.127   0.799   7.151 -0.1624  0.2181  0.0033
 5099SOL    HW226931   4.141   0.932   7.077 -1.8658 -2.4978 -1.5400
 5100SOL     OW26932   0.634   0.117   3.783 -0.2303 -0.6863 -0.2628
 5100SOL    HW126933   0.709   0.086   3.835  0.7176  0.2680 -1.0654
 5100SOL    HW226934   0.683   0.168   3.719 -0.3661 -0.0463  0.1408
 5101SOL     OW26935   4.279   4.564  13.319 -0.4486 -0.0450  0.6273
 5101SOL    HW126936   4.309   4.474  13.324 -0.0349  0.0069 -0.8210
 5101SOL    HW226937   4.254   4.582  13.410 -1.0697  0.0909  0.4331
 5102SOL     OW26938   2.046   3.102   8.210  0.2618  0.3256 -0.7077
 5102SOL    HW126939   1.962   3.134   8.243  0.6332  1.8557 -1.2469
 5102SOL    HW226940   2.066   3.054   8.290 -0.7810  1.5202  0.2586
 5103SOL     OW26941   4.512   4.363   1.330 -0.7130 -0.2234  0.2952
 5103SOL    HW126942   4.549   4.362   1.419  0.7793 -1.7241 -0.3626
 5103SOL    HW226943   4.471   4.277   1.325 -1.5879  0.3129 -1.4258
 5104SOL     OW26944   0.857   2.319   4.024  0.7653  0.2739 -0.4046
 5104SOL    HW126945   0.804   2.393   4.053 -0.6294 -1.5736  1.7207
 5104SOL    HW226946   0.941   2.365   4.028  1.5694 -1.1100 -1.1740
 5105SOL     OW26947   1.773   0.009   4.183 -0.1153 -0.2165  0.4325
 5105SOL    HW126948   1.694   4.690   4.184  0.1986 -0.6783  0.7883
 5105SOL    HW226949   1.800   4.717   4.095  0.0974  0.9241  0.1566
 5106SOL     OW26950   0.410   2.812   4.227  0.3718  0.0036 -0.0384
 5106SOL    HW126951   0.391   2.836   4.318 -1.5739  0.8084 -0.6587
 5106SOL    HW226952   0.405   2.717   4.227  2.2785 -0.0882 -0.6724
 5107SOL     OW26953   3.086   0.494   7.416  0.0178 -0.1773  0.7067
 5107SOL    HW126954   3.071   0.481   7.322  3.2843 -1.5720  0.3758
 5107SOL    HW226955   3.042   0.413   7.443 -1.1340 -0.0185 -0.6933
 5108SOL     OW26956   1.129   4.662  12.791  0.1311  0.5074 -0.5121
 5108SOL    HW126957   1.136   0.003  12.849  2.9317 -0.5485  0.5522
 5108SOL    HW226958   1.219   4.665  12.760 -0.3193  0.9432 -1.7387
 5109SOL     OW26959   3.226   4.059  11.547 -0.0075  0.5050  0.4056
 5109SOL    HW126960   3.267   4.041  11.631 -0.9148 -2.7222  0.1477
 5109SOL    HW226961   3.131   4.062  11.561 -0.2495  1.7366 -1.4816
 5110SOL     OW26962   0.874   4.244   7.080 -0.2681 -0.0273  0.1864
 5110SOL    HW126963   0.808   4.313   7.081 -0.5187 -0.2354 -1.6213
 5110SOL    HW226964   0.910   4.273   6.996  0.5703  3.6324  1.7996
 5111SOL     OW26965   3.520   0.745   1.785  0.6253 -0.2010 -0.3200
 5111SOL    HW126966   3.535   0.708   1.872  0.1769 -0.1492 -0.2204
 5111SOL    HW226967   3.557   0.681   1.725  1.4757  1.5720 -1.6865
 5112SOL     OW26968   4.489   0.084   1.296 -0.4678  0.1471 -0.4265
 5112SOL    HW126969   4.494   0.007   1.240  3.3357 -0.3400  0.5820
 5112SOL    HW226970   4.560   0.138   1.262 -0.3414 -0.5989 -1.3432
 5113SOL     OW26971   4.584   3.694   1.968 -0.1239  0.0099 -0.2028
 5113SOL    HW126972   4.669   3.661   1.939 -0.0509  0.5144 -0.5743
 5113SOL    HW226973   4.552   3.611   2.002 -3.5878  0.8074 -1.5131
 5114SOL     OW26974   4.476   4.456  11.841  0.5077 -0.1252 -0.1417
 5114SOL    HW126975   4.462   4.371  11.798  0.6454 -0.5337  0.6254
 5114SOL    HW226976   4.492   4.501  11.758  0.7025  0.7399  0.3584
 5115SOL     OW26977   2.329   2.731   8.230  0.2154 -0.6671 -0.2923
 5115SOL    HW126978   2.356   2.790   8.160  0.1499 -0.4313 -0.1171
 5115SOL    HW226979   2.336   2.792   8.303 -0.3713 -0.8901 -0.0535
 5116SOL     OW26980   2.924   0.715   4.746  0.3956 -0.2591 -0.1696
 5116SOL    HW126981   2.938   0.627   4.714 -1.3621  0.3621 -2.5534
 5116SOL    HW226982   2.957   0.713   4.836 -1.8427 -0.9802  0.6290
 5117SOL     OW26983   2.587   2.848   5.305 -0.0263  0.3429 -0.1285
 5117SOL    HW126984   2.547   2.912   5.364 -0.7119 -1.2252  1.1272
 5117SOL    HW226985   2.568   2.886   5.220 -1.1634  3.4507  1.5098
 5118SOL     OW26986   0.697   1.889  13.852 -0.3358 -0.2883  0.5317
 5118SOL    HW126987   0.690   1.793  13.859 -1.8865 -0.0705  1.8077
 5118SOL    HW226988   0.762   1.894  13.782 -1.4578 -1.2424 -0.5642
 5119SOL     OW26989   4.342   1.024   9.246 -0.4819  0.7148  0.1095
 5119SOL    HW126990   4.418   1.079   9.228  1.0383 -0.6695  2.3495
 5119SOL    HW226991   4.277   1.093   9.259 -0.9378  0.3228 -0.0972
 5120SOL     OW26992   2.023   4.442   9.764  0.1346  0.4266 -0.0563
 5120SOL    HW126993   1.958   4.470   9.701  1.3265  0.7877 -1.1266
 5120SOL    HW226994   2.028   4.518   9.821  0.9125  1.2674 -1.2578
 5121SOL     OW26995   2.628   2.877   4.375 -0.4221 -0.0539  0.0968
 5121SOL    HW126996   2.633   2.953   4.317  4.1029 -0.0740  0.4452
 5121SOL    HW226997   2.534   2.870   4.390 -0.5147 -1.1622 -1.0234
 5122SOL     OW26998   0.732   2.138  11.767 -0.0079 -0.1853  0.3368
 5122SOL    HW126999   0.759   2.197  11.837 -0.9346  1.2408 -0.5070
 5122SOL    HW227000   0.736   2.186  11.684 -0.8333  0.1246  0.4766
 5123SOL     OW27001   2.361   3.526   2.340  0.5818  0.1424 -0.0801
 5123SOL    HW127002   2.326   3.458   2.397 -0.8289  0.9568  0.0248
 5123SOL    HW227003   2.456   3.511   2.346  0.8180  2.2650  1.5754
 5124SOL     OW27004   3.483   4.576  15.837  0.2481  0.0399  0.9039
 5124SOL    HW127005   3.529   4.660  15.840  1.3418 -0.5672  1.1096
 5124SOL    HW227006   3.425   4.574  15.760 -0.1301 -0.2094  1.1931
 5125SOL     OW27007   0.787   0.628   8.075  0.1911 -0.1006 -0.5714
 5125SOL    HW127008   0.866   0.601   8.123 -0.7613  0.8166  1.4879
 5125SOL    HW227009   0.725   0.647   8.145  1.3642  2.2703 -0.1696
 5126SOL     OW27010   1.039   2.607  17.385 -0.4477  0.2561  0.0455
 5126SOL    HW127011   1.029   2.700  17.366 -1.4698  0.1738  0.1753
 5126SOL    HW227012   1.124   2.601  17.428  0.6201  1.6353 -1.8867
 5127SOL     OW27013   3.231   1.515   8.599  0.3134  0.2348 -0.3106
 5127SOL    HW127014   3.151   1.463   8.593  2.1842 -2.4742 -2.0359
 5127SOL    HW227015   3.199   1.570   8.670  1.2812  0.8983 -0.3854
 5128SOL     OW27016   3.054   2.999   3.289 -0.1495 -0.0981 -0.1817
 5128SOL    HW127017   3.099   3.050   3.222 -1.6611  0.2617 -0.9269
 5128SOL    HW227018   3.076   3.057   3.362 -2.0912  0.6360 -0.1819
 5129SOL     OW27019   0.728   1.504   4.663 -0.2330  0.5182 -0.6313
 5129SOL    HW127020   0.712   1.563   4.590  0.9833  2.3110  0.5457
 5129SOL    HW227021   0.781   1.433   4.626  1.6296  1.4319  0.2701
 5130SOL     OW27022   0.070   0.774   4.910 -0.5376  0.5404  0.0454
 5130SOL    HW127023   0.143   0.806   4.963  1.3110 -2.9859 -0.3597
 5130SOL    HW227024   0.122   0.709   4.862 -1.1699  0.6548 -0.7830
 5131SOL     OW27025   2.235   0.888  13.798 -0.3046 -0.3340  0.7028
 5131SOL    HW127026   2.220   0.918  13.708 -0.0263 -2.3267 -0.0234
 5131SOL    HW227027   2.312   0.942  13.814 -0.8677  0.3333  1.1675
 5132SOL     OW27028   1.289   1.355   5.080  0.0625 -0.1833  0.3646
 5132SOL    HW127029   1.356   1.418   5.106 -1.5153  1.9025 -0.5610
 5132SOL    HW227030   1.280   1.377   4.987 -1.1089 -0.3517  0.4358
 5133SOL     OW27031   4.195   1.246   9.802 -1.0472  0.6540 -0.3067
 5133SOL    HW127032   4.184   1.203   9.717  0.3152  2.4535 -1.3826
 5133SOL    HW227033   4.235   1.328   9.775 -0.3218  0.5749  0.5309
 5134SOL     OW27034   3.512   4.095   7.733  0.2464  0.1833 -0.1582
 5134SOL    HW127035   3.463   4.059   7.807  2.2621  2.0098  2.0563
 5134SOL    HW227036   3.439   4.128   7.680 -0.9324  0.4803  1.6668
 5135SOL     OW27037   1.762   0.378   2.780 -0.3895 -0.5885  0.0270
 5135SOL    HW127038   1.667   0.377   2.777 -0.4650 -1.7084  2.3422
 5135SOL    HW227039   1.782   0.284   2.777 -1.1243 -0.6757 -2.0450
 5136SOL     OW27040   2.423   4.149   3.869  0.5794 -0.2514  0.2680
 5136SOL    HW127041   2.380   4.080   3.919 -0.0547 -0.3072 -0.3610
 5136SOL    HW227042   2.469   4.196   3.938  2.4314  0.4269 -1.4330
 5137SOL     OW27043   4.190   4.373   4.948 -0.3409 -0.1712 -0.5527
 5137SOL    HW127044   4.101   4.368   4.984 -0.4397  2.5224 -0.4175
 5137SOL    HW227045   4.239   4.353   5.027  0.0572  1.3284 -0.4181
 5138SOL     OW27046   4.648   3.600   2.400 -0.2676 -0.3874  0.6284
 5138SOL    HW127047   4.563   3.590   2.356  0.0311 -0.4614  0.0643
 5138SOL    HW227048   4.699   3.600   2.319 -0.7227  1.5329  0.3193
 5139SOL     OW27049   2.166   3.437   1.479  0.0099 -0.1191 -0.5559
 5139SOL    HW127050   2.240   3.393   1.438 -1.0371  1.2933 -3.9571
 5139SOL    HW227051   2.216   3.491   1.541 -1.7131  2.2477 -1.2560
 5140SOL     OW27052   1.999   0.425   3.846 -0.4534 -0.0761  0.8727
 5140SOL    HW127053   1.978   0.346   3.795  0.3675  0.9447 -1.0592
 5140SOL    HW227054   2.057   0.464   3.781 -1.1680  1.1153  0.9511
 5141SOL     OW27055   2.849   3.830   6.698 -0.4451 -0.2801 -0.0436
 5141SOL    HW127056   2.791   3.756   6.713  0.5778 -0.8532  1.0614
 5141SOL    HW227057   2.883   3.838   6.787 -2.3450 -2.0564  0.8585
 5142SOL     OW27058   1.809   2.504   9.697 -0.0044 -0.0934 -0.5516
 5142SOL    HW127059   1.787   2.427   9.643 -1.0191  1.3653 -2.2299
 5142SOL    HW227060   1.808   2.469   9.786  3.0998 -0.4399 -0.6486
 5143SOL     OW27061   0.011   2.096   4.549  0.6750  0.0836 -0.1047
 5143SOL    HW127062   0.084   2.040   4.522  2.6960  1.6587  2.1599
 5143SOL    HW227063   0.036   2.153   4.621 -1.5624  1.5951 -0.5302
 5144SOL     OW27064   1.802   3.586   1.715 -0.0564 -0.7095  0.3144
 5144SOL    HW127065   1.823   3.521   1.649 -1.2170  1.2783 -2.0238
 5144SOL    HW227066   1.858   3.566   1.790 -1.1818 -1.1912  1.0226
 5145SOL     OW27067   0.180   0.764  17.478 -0.2520  0.0735 -0.0647
 5145SOL    HW127068   0.157   0.762  17.571 -1.3064 -0.3795 -0.3306
 5145SOL    HW227069   0.225   0.849  17.475  0.6281 -0.3367  1.8857
 5146SOL     OW27070   2.712   0.012   5.098 -0.4889  0.0956  0.3373
 5146SOL    HW127071   2.648   0.066   5.052 -1.6032 -1.8197 -0.3542
 5146SOL    HW227072   2.768   4.727   5.023  0.1691 -1.5446  1.2609
 5147SOL     OW27073   0.821   2.572   3.374 -0.3373 -0.1123 -0.0739
 5147SOL    HW127074   0.856   2.551   3.461 -0.2403  1.0387  0.1662
 5147SOL    HW227075   0.847   2.490   3.333  2.0550 -0.4736  2.1288
 5148SOL     OW27076   3.599   1.547   2.336  0.7164  0.0204  0.4578
 5148SOL    HW127077   3.506   1.559   2.318  0.4996 -1.9322  0.3382
 5148SOL    HW227078   3.622   1.510   2.251 -0.0220 -1.1869  0.7931
 5149SOL     OW27079   2.117   0.353   6.098 -0.3581 -0.4165  0.6987
 5149SOL    HW127080   2.149   0.317   6.181 -0.6628 -1.0467  0.5472
 5149SOL    HW227081   2.137   0.277   6.043  0.7399  0.9767 -0.8228
 5150SOL     OW27082   2.370   4.180   0.604  0.3272  0.8425 -0.9865
 5150SOL    HW127083   2.390   4.256   0.551 -1.1278  2.3629  0.6473
 5150SOL    HW227084   2.357   4.229   0.685  0.3608 -0.4943 -0.1691
 5151SOL     OW27085   2.362   2.898   1.551 -0.3661  0.2914 -0.0283
 5151SOL    HW127086   2.306   2.837   1.502  0.6507 -1.3138  0.7912
 5151SOL    HW227087   2.439   2.842   1.560 -1.1208 -0.7937 -0.2824
 5152SOL     OW27088   2.012   2.999   2.438  0.8381 -0.3646 -0.4632
 5152SOL    HW127089   1.932   3.053   2.439  1.6639  0.8644  0.4741
 5152SOL    HW227090   2.003   2.935   2.368  1.1657 -0.3711 -0.5006
 5153SOL     OW27091   1.894   3.068  14.029  1.2097 -0.0631  0.0725
 5153SOL    HW127092   1.833   3.108  14.091  0.5298 -2.2841  0.8489
 5153SOL    HW227093   1.855   3.109  13.952  0.4071 -1.4362 -0.2628
 5154SOL     OW27094   2.296   0.184  16.875 -0.1832 -0.3874 -1.1090
 5154SOL    HW127095   2.257   0.133  16.804 -1.0616 -2.3162  0.7619
 5154SOL    HW227096   2.340   0.121  16.932  0.8698 -0.6207 -2.1761
 5155SOL     OW27097   4.235   0.206   4.938 -0.1684  0.4205  0.3664
 5155SOL    HW127098   4.156   0.219   4.886  1.2940 -0.5882 -2.0672
 5155SOL    HW227099   4.291   0.154   4.881 -0.1670 -1.2031  1.8387
 5156SOL     OW27100   1.332   2.225   7.290  0.1434 -0.2554 -0.0288
 5156SOL    HW127101   1.250   2.269   7.311 -0.1172 -0.5615 -0.4228
 5156SOL    HW227102   1.294   2.140   7.268 -3.1716  1.0337  0.8125
 5157SOL     OW27103   1.638   1.639   7.301 -0.0007  0.0523  0.2662
 5157SOL    HW127104   1.604   1.717   7.345  0.3912  0.8953 -0.9179
 5157SOL    HW227105   1.582   1.641   7.223 -0.8001 -1.0112  0.8220
 5158SOL     OW27106   2.269   3.117   8.064 -0.0160 -0.6438 -0.0837
 5158SOL    HW127107   2.177   3.095   8.079 -0.0893  0.5558  1.1682
 5158SOL    HW227108   2.266   3.202   8.108 -1.2819 -1.3688  1.2469
 5159SOL     OW27109   3.263   2.574   6.685  0.9522 -0.5046 -0.4980
 5159SOL    HW127110   3.320   2.498   6.673 -0.7595 -1.8292 -0.2231
 5159SOL    HW227111   3.190   2.545   6.740  2.0463 -0.5360  0.9212
 5160SOL     OW27112   4.053   1.613   5.922 -0.1094 -0.1124 -0.0919
 5160SOL    HW127113   4.076   1.685   5.864  1.0657  0.3384  0.9346
 5160SOL    HW227114   3.978   1.581   5.872  1.5203 -1.2145 -1.8401
 5161SOL     OW27115   1.713   4.100   0.503  0.6031  0.3086  0.4515
 5161SOL    HW127116   1.736   4.059   0.586 -2.0015 -0.0095  1.0104
 5161SOL    HW227117   1.619   4.084   0.513  0.3228  2.3339  1.1068
 5162SOL     OW27118   2.476   2.695   7.398 -0.2821 -0.0604 -0.4507
 5162SOL    HW127119   2.523   2.704   7.480 -0.6444 -2.9306  0.0765
 5162SOL    HW227120   2.424   2.619   7.425  0.2788 -0.5765 -0.8277
 5163SOL     OW27121   0.289   4.279  15.085  0.0024  0.4231 -0.2160
 5163SOL    HW127122   0.311   4.187  15.098  6.0182  1.8763 -0.1219
 5163SOL    HW227123   0.288   4.317  15.173  2.1895 -0.0966  0.0284
 5164SOL     OW27124   1.000   2.344   2.369  0.4189 -0.3452 -0.1330
 5164SOL    HW127125   0.980   2.270   2.425  0.0783 -1.5494 -1.8583
 5164SOL    HW227126   1.094   2.335   2.352  0.3308 -3.4801  1.1445
 5165SOL     OW27127   2.548   0.173   4.942  0.6254  0.1957  0.3488
 5165SOL    HW127128   2.604   0.246   4.915 -2.2003  1.1411 -2.8831
 5165SOL    HW227129   2.544   0.119   4.864 -1.8734  1.6874 -0.5752
 5166SOL     OW27130   0.699   3.679  15.961 -0.1497  0.1584  0.2392
 5166SOL    HW127131   0.633   3.635  15.907  0.2617  0.3109 -0.3950
 5166SOL    HW227132   0.647   3.718  16.031 -0.9269  1.5999 -1.1370
 5167SOL     OW27133   2.368   0.423   4.670  0.0517  0.3549 -0.1393
 5167SOL    HW127134   2.305   0.360   4.705  1.1988  0.4628  2.0972
 5167SOL    HW227135   2.442   0.365   4.653  0.2789 -0.1764  2.6951
 5168SOL     OW27136   1.353   2.905   3.411 -0.3307 -0.2647  0.4268
 5168SOL    HW127137   1.283   2.919   3.347  0.2253  0.7598  0.0549
 5168SOL    HW227138   1.362   2.811   3.427  2.0009  0.1758  1.6764
 5169SOL     OW27139   1.709   2.472   5.485  0.0796 -0.1435 -0.1060
 5169SOL    HW127140   1.726   2.458   5.578  0.7836 -1.2173 -0.3982
 5169SOL    HW227141   1.794   2.450   5.448 -0.3306 -0.1165 -1.0694
 5170SOL     OW27142   0.643   2.430   3.077 -0.2423  0.2202  0.0577
 5170SOL    HW127143   0.724   2.391   3.111 -0.3596  1.1979  1.4338
 5170SOL    HW227144   0.580   2.363   3.104 -0.0603  0.3472  0.7778
 5171SOL     OW27145   3.504   1.286  11.314  0.6638 -0.2154  0.3398
 5171SOL    HW127146   3.509   1.239  11.231 -0.3615  0.4663 -0.1038
 5171SOL    HW227147   3.528   1.211  11.370  0.9208  1.3303  2.3089
 5172SOL     OW27148   0.166   4.658   7.167  0.0197 -0.4463  0.0069
 5172SOL    HW127149   0.093   4.610   7.127 -1.6176  1.4925  0.6858
 5172SOL    HW227150   0.156   4.658   7.262  2.2830 -2.5327  0.2636
 5173SOL     OW27151   0.944   0.204   9.105 -0.3507  0.1099 -0.2041
 5173SOL    HW127152   1.011   0.233   9.168  0.4083 -0.0238 -0.9404
 5173SOL    HW227153   1.002   0.191   9.029 -0.3271  2.1727 -0.5268
 5174SOL     OW27154   2.520   4.617   1.722  0.2809  0.2135 -0.1077
 5174SOL    HW127155   2.490   4.586   1.636  0.2741 -1.5295  0.5370
 5174SOL    HW227156   2.457   4.689   1.733 -1.9414 -1.1385 -3.8533
 5175SOL     OW27157   2.396   2.016   5.354 -0.4292  0.0115 -0.1342
 5175SOL    HW127158   2.399   1.937   5.300 -0.4725 -1.1561  1.5918
 5175SOL    HW227159   2.444   1.977   5.426 -0.1882  3.9642  1.8711
 5176SOL     OW27160   0.793   2.194  11.122  0.0203 -0.1421  0.4888
 5176SOL    HW127161   0.884   2.182  11.151  0.0067 -0.3686  0.4348
 5176SOL    HW227162   0.778   2.134  11.049 -0.6752 -1.3245  1.6029
 5177SOL     OW27163   1.333   3.941   3.843  0.2527  0.1953  0.1689
 5177SOL    HW127164   1.325   3.879   3.916  0.5693  1.8363  1.5795
 5177SOL    HW227165   1.423   3.923   3.816 -0.0252 -0.2247 -0.4697
 5178SOL     OW27166   3.578   2.894   3.016  0.7812 -0.5451  0.5571
 5178SOL    HW127167   3.547   2.864   2.931 -0.8633  1.5828  0.4217
 5178SOL    HW227168   3.515   2.855   3.077 -0.1518  0.4895  0.2468
 5179SOL     OW27169   2.539   2.950   0.932  0.0918  0.0585 -0.0035
 5179SOL    HW127170   2.565   2.989   1.016 -1.3024  0.5011  0.2214
 5179SOL    HW227171   2.617   2.896   0.919  2.0454  2.5611  1.3666
 5180SOL     OW27172   3.376   1.599   5.832  0.1815  0.4887 -0.2010
 5180SOL    HW127173   3.414   1.685   5.812 -0.1701  0.4930 -0.8445
 5180SOL    HW227174   3.411   1.548   5.759  1.6911 -1.3931  1.8471
 5181SOL     OW27175   1.838   2.170   3.247  0.1199  0.0754  0.6078
 5181SOL    HW127176   1.751   2.209   3.257  0.2751  0.0278  2.0904
 5181SOL    HW227177   1.819   2.094   3.301  4.0677 -0.9185  0.5822
 5182SOL     OW27178   4.464   0.993   7.574 -0.2809 -0.7306 -0.3868
 5182SOL    HW127179   4.557   0.975   7.582  0.1919  2.2382  0.5934
 5182SOL    HW227180   4.469   1.075   7.526  1.1699 -0.4391  0.2761
 5183SOL     OW27181   2.126   1.828   5.573 -0.3400  0.6019 -0.1547
 5183SOL    HW127182   2.074   1.906   5.592 -0.8102  0.1679  0.3357
 5183SOL    HW227183   2.105   1.808   5.482  2.3009 -1.6384 -0.2939
 5184SOL     OW27184   3.823   1.877   0.385  0.0627 -0.4307 -0.1078
 5184SOL    HW127185   3.886   1.810   0.361 -0.3871 -0.2499 -1.7828
 5184SOL    HW227186   3.831   1.946   0.319 -2.0213  0.0764  0.1466
 5185SOL     OW27187   1.327   4.434   9.665 -0.7383  0.2092 -0.0626
 5185SOL    HW127188   1.415   4.431   9.626 -0.3857 -3.4706  0.9767
 5185SOL    HW227189   1.266   4.407   9.596  1.6253 -1.0637 -1.6912
 5186SOL     OW27190   4.088   0.629   4.391 -0.1319  0.5765 -0.3312
 5186SOL    HW127191   4.037   0.580   4.326 -1.5150  0.5994  0.7395
 5186SOL    HW227192   4.099   0.564   4.460 -2.9389 -1.4662 -1.8203
 5187SOL     OW27193   1.372   3.607   5.130  0.3567 -0.5432  0.1868
 5187SOL    HW127194   1.350   3.541   5.064 -0.7616 -1.7370  1.7645
 5187SOL    HW227195   1.336   3.580   5.215 -3.0824  2.7039 -0.1948
 5188SOL     OW27196   4.720   0.622   8.055 -0.1256 -0.2512 -0.7268
 5188SOL    HW127197   4.713   0.594   7.963  0.9496 -0.3453 -0.7791
 5188SOL    HW227198   4.684   0.710   8.045 -0.9831 -0.4618  0.5349
 5189SOL     OW27199   3.614   2.269  15.860 -0.1835  0.2777  0.0465
 5189SOL    HW127200   3.519   2.268  15.860 -0.1669 -1.9031  1.6112
 5189SOL    HW227201   3.633   2.175  15.865  1.6569  0.5672 -1.2653
 5190SOL     OW27202   1.184   1.254  16.683  0.8097  0.0842  0.4377
 5190SOL    HW127203   1.167   1.252  16.777  1.1912 -2.1892  0.4632
 5190SOL    HW227204   1.101   1.218  16.651  1.8835 -2.3038  0.3202
 5191SOL     OW27205   4.695   3.474  14.148 -0.7842 -0.1789  0.0228
 5191SOL    HW127206   4.685   3.523  14.066 -0.1170  0.5157  0.3471
 5191SOL    HW227207   4.607   3.439  14.161 -0.6805 -0.2604  0.5011
 5192SOL     OW27208   2.047   2.659  12.783  0.1762  0.3472 -0.8400
 5192SOL    HW127209   2.078   2.578  12.742  0.3526 -0.7507  1.4806
 5192SOL    HW227210   1.980   2.625  12.843  1.1866 -0.3015 -0.0793
 5193SOL     OW27211   3.149   1.232   0.821  0.5403  0.3082 -0.1285
 5193SOL    HW127212   3.080   1.258   0.760 -0.1281 -3.4662 -1.0142
 5193SOL    HW227213   3.093   1.203   0.893 -0.3235 -1.6263 -1.5590
 5194SOL     OW27214   3.490   2.667   1.396  0.2532  0.4742 -0.3188
 5194SOL    HW127215   3.585   2.672   1.388  0.3620  0.0060  0.7389
 5194SOL    HW227216   3.480   2.687   1.489  1.8121  1.6339 -0.3982
 5195SOL     OW27217   2.336   2.815  10.508 -0.0903  0.5158  0.2573
 5195SOL    HW127218   2.392   2.795  10.433  1.1814  0.6016  1.1815
 5195SOL    HW227219   2.390   2.773  10.575  1.3089  1.5892 -0.1913
 5196SOL     OW27220   3.968   2.870   6.374  0.1785  0.3636 -0.0415
 5196SOL    HW127221   4.063   2.866   6.361  0.2150  3.2067 -0.6805
 5196SOL    HW227222   3.929   2.799   6.323  0.8610  0.4471 -0.6781
 5197SOL     OW27223   0.317   3.342   2.920 -0.2489 -0.6729 -0.3093
 5197SOL    HW127224   0.344   3.326   2.830  1.4116 -0.5682  0.1562
 5197SOL    HW227225   0.356   3.429   2.932  0.0548 -1.0101  1.1799
 5198SOL     OW27226   0.042   3.340   4.850  0.1128  0.0699 -0.4761
 5198SOL    HW127227   0.107   3.409   4.842  1.5514 -1.0914  1.1298
 5198SOL    HW227228   0.060   3.287   4.772  1.8020 -0.5048  0.2907
 5199SOL     OW27229   3.474   4.399  15.149  0.6713 -0.2777  0.3253
 5199SOL    HW127230   3.490   4.390  15.056 -0.0567  0.8787  0.0780
 5199SOL    HW227231   3.393   4.349  15.159 -1.3145  2.6454 -0.9685
 5200SOL     OW27232   4.086   1.970  16.905  0.7565  0.3486 -0.1210
 5200SOL    HW127233   4.160   1.909  16.908  0.7919  0.4900  2.3280
 5200SOL    HW227234   4.093   2.013  16.991 -1.5660  1.6324 -0.5829
 5201SOL     OW27235   3.166   4.472  17.080  0.0741 -0.7338  0.0815
 5201SOL    HW127236   3.172   4.493  16.987 -0.9705 -0.5919  0.0473
 5201SOL    HW227237   3.194   4.554  17.121  1.5860 -1.4098  0.4203
 5202SOL     OW27238   4.515   3.375   4.918  0.4860 -0.0773  0.3198
 5202SOL    HW127239   4.535   3.284   4.937  0.6728  0.3466  2.1629
 5202SOL    HW227240   4.606   3.401   4.909  0.8848 -0.9764  1.8038
 5203SOL     OW27241   0.616   0.531   4.717 -0.2202 -0.6036  0.6462
 5203SOL    HW127242   0.664   0.492   4.644  0.0114 -1.0698  1.0483
 5203SOL    HW227243   0.573   0.451   4.746 -0.6529 -0.1924  1.1329
 5204SOL     OW27244   3.322   2.225   4.143 -0.5086  0.0159  0.0443
 5204SOL    HW127245   3.259   2.231   4.215 -0.4311  1.4096 -0.0052
 5204SOL    HW227246   3.295   2.303   4.095  1.1691  1.3665  1.2873
 5205SOL     OW27247   3.981   3.000   3.435 -0.0483 -0.0949 -0.4203
 5205SOL    HW127248   3.892   2.965   3.427 -0.1531 -0.0469  0.5324
 5205SOL    HW227249   3.995   3.005   3.529 -3.4469 -3.6533  0.2709
 5206SOL     OW27250   0.833   0.401  11.677 -0.0142 -0.2823  0.7540
 5206SOL    HW127251   0.805   0.395  11.585 -1.7757  0.6732  1.2337
 5206SOL    HW227252   0.772   0.341  11.721  0.9144 -0.7466  1.3968
 5207SOL     OW27253   0.821   2.852   5.048  0.1692  0.3507 -0.3369
 5207SOL    HW127254   0.916   2.846   5.045  0.1352  0.3974 -1.4356
 5207SOL    HW227255   0.790   2.930   5.003 -2.2136 -0.2095  0.3274
 5208SOL     OW27256   1.710   2.445   5.897 -0.2182  0.2662  0.0501
 5208SOL    HW127257   1.759   2.511   5.946 -0.3599 -0.4117  1.1217
 5208SOL    HW227258   1.637   2.500   5.871  1.4896  3.1371  1.3178
 5209SOL     OW27259   3.297   3.280  17.691  0.4053 -0.1601  0.2080
 5209SOL    HW127260   3.308   3.225  17.614 -2.1512  0.2990 -0.5029
 5209SOL    HW227261   3.247   3.216   0.005 -2.3979  0.2024 -2.0621
 5210SOL     OW27262   3.948   0.277  15.569 -0.7628 -0.6064  0.2720
 5210SOL    HW127263   3.971   0.345  15.633  1.6081  0.6674 -1.9073
 5210SOL    HW227264   3.929   0.202  15.625  0.9504  1.0341  3.1247
 5211SOL     OW27265   1.454   0.260  17.522  0.6359 -0.7729  0.1215
 5211SOL    HW127266   1.518   0.305  17.466  0.1204 -1.2931 -0.8815
 5211SOL    HW227267   1.404   0.202  17.465 -1.7934  1.0480  0.4303
 5212SOL     OW27268   1.505   2.468   0.603 -0.0848  0.4520  0.5390
 5212SOL    HW127269   1.560   2.428   0.671  0.5183  2.1694  1.0542
 5212SOL    HW227270   1.522   2.562   0.605 -0.6749  0.5922 -0.9021
 5213SOL     OW27271   0.815   3.633  13.635 -0.2482 -0.1618  0.6749
 5213SOL    HW127272   0.819   3.723  13.604 -1.0580 -1.5669 -3.4625
 5213SOL    HW227273   0.744   3.604  13.577 -0.5063  0.6679  0.5810
 5214SOL     OW27274   1.954   0.046  16.835  0.7091  0.2906 -0.4016
 5214SOL    HW127275   1.864   0.022  16.813  0.2446  1.0935  0.6316
 5214SOL    HW227276   2.003   0.029  16.754  2.6380  1.3182  0.5524
 5215SOL     OW27277   0.124   0.042   2.815  0.2205  0.9414  0.4259
 5215SOL    HW127278   0.215   0.047   2.844  0.9414 -1.5743 -1.4091
 5215SOL    HW227279   0.113   0.124   2.767 -1.9341 -1.0074 -2.4041
 5216SOL     OW27280   3.568   1.663   0.899 -0.6818  0.1294  0.0581
 5216SOL    HW127281   3.589   1.753   0.876  3.2516 -0.3552  1.6709
 5216SOL    HW227282   3.637   1.650   0.964 -0.4856 -2.6396 -0.6976
 5217SOL     OW27283   4.699   0.868  16.880 -0.2024 -0.2015 -0.2105
 5217SOL    HW127284   4.648   0.870  16.961  2.3206 -0.5014  1.3737
 5217SOL    HW227285   0.017   0.948  16.886  1.3363 -1.2366  0.2628
 5218SOL     OW27286   2.211   4.085   6.651  0.2991  0.9213 -0.1699
 5218SOL    HW127287   2.246   4.062   6.737 -1.1060 -2.0487 -0.3927
 5218SOL    HW227288   2.288   4.053   6.603 -1.5064 -2.1837 -1.0445
 5219SOL     OW27289   0.181   4.264   7.453  0.0920  0.0273  0.5125
 5219SOL    HW127290   0.158   4.349   7.492 -1.9076  0.1011 -0.7826
 5219SOL    HW227291   0.272   4.284   7.432 -0.2751 -1.0808 -2.1861
 5220SOL     OW27292   1.109   1.227   1.222 -0.1524 -1.0346 -0.0115
 5220SOL    HW127293   1.046   1.279   1.272  1.9811 -0.6357  2.2467
 5220SOL    HW227294   1.049   1.159   1.189 -0.9939 -2.0964  3.6472
 5221SOL     OW27295   3.090   4.048   8.976  0.1366 -0.1863 -0.4170
 5221SOL    HW127296   3.184   4.067   8.978 -0.1218  1.0683 -0.0229
 5221SOL    HW227297   3.074   3.959   8.945  0.4724 -0.2123 -0.5150
 5222SOL     OW27298   2.616   1.292   2.553 -0.0678  0.5017 -0.2544
 5222SOL    HW127299   2.572   1.255   2.630  0.6993 -1.1526 -0.6232
 5222SOL    HW227300   2.619   1.223   2.487 -1.7256 -0.6314  0.8308
 5223SOL     OW27301   4.149   4.022   5.993 -0.1668  0.4063  0.1676
 5223SOL    HW127302   4.179   4.112   5.992  2.6756 -0.5603 -1.7322
 5223SOL    HW227303   4.213   3.981   6.052  2.5533 -1.3227 -3.9385
 5224SOL     OW27304   3.309   2.360   5.224 -0.0969 -0.2518 -0.6308
 5224SOL    HW127305   3.361   2.286   5.256  0.1568  1.5448  3.2180
 5224SOL    HW227306   3.310   2.340   5.131 -0.3347  0.7068 -0.8357
 5225SOL     OW27307   4.565   1.713  13.664 -0.2818 -0.2871  0.0528
 5225SOL    HW127308   4.577   1.659  13.585 -0.9012 -1.3683  0.7013
 5225SOL    HW227309   4.537   1.643  13.723 -3.6963  0.6815 -0.4549
 5226SOL     OW27310   1.887   1.398   1.531 -0.5065  0.0767 -0.1313
 5226SOL    HW127311   1.835   1.404   1.611 -0.0710  2.4584 -0.0530
 5226SOL    HW227312   1.966   1.440   1.564 -0.8774  0.6367  0.0363
 5227SOL     OW27313   0.148   1.572  12.731  0.4642  0.1634  0.0176
 5227SOL    HW127314   0.135   1.614  12.646 -3.1281 -1.2670 -0.1255
 5227SOL    HW227315   0.144   1.652  12.783  0.6287  1.1739 -1.5093
 5228SOL     OW27316   4.693   0.122   5.656 -0.4173  0.6388  0.5588
 5228SOL    HW127317   4.643   0.109   5.575  0.1728 -2.2722  0.6656
 5228SOL    HW227318   0.030   0.063   5.634 -0.1090  1.0627  0.4264
 5229SOL     OW27319   0.590   1.564  14.092  0.6332 -0.0473 -0.5779
 5229SOL    HW127320   0.635   1.622  14.153  0.7463 -2.8200  1.9975
 5229SOL    HW227321   0.525   1.627  14.060  0.8478  1.5356  2.1178
 5230SOL     OW27322   1.361   0.677   7.264  0.4537  0.5581 -0.0186
 5230SOL    HW127323   1.269   0.663   7.288  0.7397  0.5105  1.0442
 5230SOL    HW227324   1.385   0.611   7.198  1.4373 -0.3657  1.2577
 5231SOL     OW27325   0.318   0.799   0.217  0.4661  0.1064  0.2260
 5231SOL    HW127326   0.277   0.755   0.290  0.2273  1.6538  1.0203
 5231SOL    HW227327   0.388   0.828   0.275 -0.3596 -0.2687  1.3915
 5232SOL     OW27328   0.764   4.368   4.461  0.2096 -0.2710  0.7787
 5232SOL    HW127329   0.788   4.360   4.369 -0.1190  1.8338  0.5154
 5232SOL    HW227330   0.671   4.392   4.457  0.1231 -1.4449 -4.0436
 5233SOL     OW27331   2.499   4.722  15.788 -0.2950  0.3195  0.0150
 5233SOL    HW127332   2.479   0.076  15.818  1.8927  1.1701 -1.0495
 5233SOL    HW227333   2.594   4.724  15.773 -0.2106 -1.6904  0.3418
 5234SOL     OW27334   1.829   4.413   2.627 -0.4668  0.2751  0.1630
 5234SOL    HW127335   1.863   4.386   2.713 -3.1854  0.3132  1.2473
 5234SOL    HW227336   1.877   4.495   2.619  0.7380 -0.4486 -0.1281
 5235SOL     OW27337   3.541   0.443   1.427 -0.1202  0.0102 -0.6227
 5235SOL    HW127338   3.515   0.519   1.479 -0.4419  0.0124 -0.7864
 5235SOL    HW227339   3.636   0.454   1.427 -0.2726  1.3352  0.1301
 5236SOL     OW27340   1.945   4.004   4.226 -0.5670  0.0452 -0.1600
 5236SOL    HW127341   1.966   4.063   4.154  1.0986  0.4817  0.6830
 5236SOL    HW227342   1.961   4.066   4.298  2.6290 -1.9317  0.8193
 5237SOL     OW27343   3.669   0.089   8.110  0.0650  0.1226 -0.5915
 5237SOL    HW127344   3.625   0.011   8.076 -0.0601 -1.4996  3.3847
 5237SOL    HW227345   3.761   0.068   8.129 -0.0721 -1.2797 -1.5070
 5238SOL     OW27346   0.500   0.497   8.151  0.2925  0.1550 -0.4064
 5238SOL    HW127347   0.527   0.416   8.107  1.2587  1.1466 -1.6340
 5238SOL    HW227348   0.419   0.521   8.107 -2.1203 -1.2156  3.2524
 5239SOL     OW27349   0.787   2.963  13.214 -0.0114 -0.3568 -0.1475
 5239SOL    HW127350   0.828   2.876  13.211  1.8747  0.5785 -1.1946
 5239SOL    HW227351   0.696   2.934  13.225 -0.8357  1.9737 -0.8110
 5240SOL     OW27352   4.599   3.599  16.204 -0.6169  0.0164  0.4176
 5240SOL    HW127353   4.599   3.504  16.190  2.0908 -0.1507  1.4057
 5240SOL    HW227354   4.562   3.643  16.127  0.4252  1.5920  0.8091
 5241SOL     OW27355   4.576   3.762   8.115 -0.2102 -0.8341 -0.0021
 5241SOL    HW127356   4.585   3.709   8.194 -0.8056 -2.1427 -0.8007
 5241SOL    HW227357   4.603   3.701   8.046  0.2446  1.6396 -1.9832
 5242SOL     OW27358   4.153   0.574   2.930  0.0832 -0.1080  0.8220
 5242SOL    HW127359   4.144   0.493   2.879  1.3798 -1.0562  2.1494
 5242SOL    HW227360   4.071   0.568   2.980 -0.6867  1.1440 -0.2691
 5243SOL     OW27361   2.246   2.518   5.331  0.5842 -0.1187  0.3554
 5243SOL    HW127362   2.326   2.568   5.347  1.8790 -1.3160 -2.4271
 5243SOL    HW227363   2.269   2.433   5.368 -1.7650 -1.6473 -1.6570
 5244SOL     OW27364   1.624   4.682   5.910 -0.8425 -0.0703 -0.6173
 5244SOL    HW127365   1.543   4.653   5.953 -0.8620 -1.0171 -1.3104
 5244SOL    HW227366   1.667   4.727   5.983  2.0265 -0.0266 -2.3540
 5245SOL     OW27367   3.792   3.921   4.956 -0.0608 -0.2423  0.2849
 5245SOL    HW127368   3.816   3.935   4.864 -0.1246  1.0789  0.4693
 5245SOL    HW227369   3.824   4.004   4.992  0.7561 -0.6803  0.5552
 5246SOL     OW27370   3.875   1.650   4.705  0.0698 -0.3199 -0.0961
 5246SOL    HW127371   3.905   1.617   4.790 -0.2836 -0.8757 -0.1846
 5246SOL    HW227372   3.796   1.696   4.734 -1.0669 -1.7102 -0.9641
 5247SOL     OW27373   2.414   1.461   4.429  0.0123 -0.0754  0.1928
 5247SOL    HW127374   2.479   1.495   4.367 -1.0438  0.3304 -0.6836
 5247SOL    HW227375   2.339   1.511   4.398  0.4311  0.4975  0.0913
 5248SOL     OW27376   3.245   1.631   6.509 -1.3165 -0.5997  0.2773
 5248SOL    HW127377   3.168   1.609   6.561 -1.3518 -1.9299 -0.3456
 5248SOL    HW227378   3.264   1.547   6.470 -0.1261 -0.2061  0.0213
 5249SOL     OW27379   1.527   2.318   2.987 -1.1196  0.7761 -0.5993
 5249SOL    HW127380   1.521   2.223   2.978  1.1630  0.4377  1.2999
 5249SOL    HW227381   1.516   2.327   3.081  0.3108 -1.9708 -0.1805
 5250SOL     OW27382   0.199   2.334   4.732 -0.1084  0.1866 -0.2276
 5250SOL    HW127383   0.175   2.380   4.813 -0.4083  0.2109 -0.3311
 5250SOL    HW227384   0.165   2.391   4.663  1.8164 -0.0465 -1.3780
 5251SOL     OW27385   2.645   0.205   7.341 -0.1356 -0.0753 -0.4221
 5251SOL    HW127386   2.656   0.135   7.406 -0.0506  0.5080  0.1946
 5251SOL    HW227387   2.554   0.225   7.361 -0.6855 -0.6449 -2.3732
 5252SOL     OW27388   2.797   3.631   8.214  0.2456  0.3497 -0.0160
 5252SOL    HW127389   2.719   3.686   8.216  0.2933  0.3869  1.0354
 5252SOL    HW227390   2.858   3.701   8.189  0.1826  0.3419 -0.1913
 5253SOL     OW27391   1.633   3.083   2.667  0.2595  0.1312 -0.1225
 5253SOL    HW127392   1.601   3.066   2.579 -2.0492 -0.6816  0.8888
 5253SOL    HW227393   1.717   3.038   2.672 -0.9538 -2.0923 -0.0244
 5254SOL     OW27394   0.874   1.391   2.626 -0.2015 -0.1557  0.3005
 5254SOL    HW127395   0.786   1.357   2.607  0.3805 -1.3552 -0.2469
 5254SOL    HW227396   0.847   1.483   2.630  1.8295  0.5153 -1.2398
 5255SOL     OW27397   1.682   4.511   1.474 -0.0609 -0.0104 -0.1689
 5255SOL    HW127398   1.684   4.416   1.460  2.0216  0.1152 -0.7409
 5255SOL    HW227399   1.600   4.528   1.521  0.7756  2.1137  0.5089
 5256SOL     OW27400   4.583   4.474   2.958  0.5293 -0.2558 -0.6033
 5256SOL    HW127401   4.557   4.495   3.048  1.4940  0.5203 -0.5139
 5256SOL    HW227402   4.607   4.563   2.930  1.8400 -1.0920 -2.1144
 5257SOL     OW27403   4.491   4.426   5.525 -0.1817 -0.3764  0.3155
 5257SOL    HW127404   4.436   4.348   5.524 -1.5430  0.6060 -1.8492
 5257SOL    HW227405   4.442   4.490   5.576  0.1657 -0.2380  0.4713
 5258SOL     OW27406   0.138   0.395   3.379  0.2648 -0.0209  0.1565
 5258SOL    HW127407   0.174   0.308   3.367  1.6334  0.7428 -1.3004
 5258SOL    HW227408   0.180   0.439   3.305 -0.0017  0.0716  0.0575
 5259SOL     OW27409   2.307   2.359   4.381 -1.0393  0.1315  0.2502
 5259SOL    HW127410   2.237   2.296   4.393 -2.1055  1.4320  0.9213
 5259SOL    HW227411   2.319   2.356   4.286  0.4264 -2.0399  0.5038
 5260SOL     OW27412   4.028   4.705   3.782 -0.8059 -0.2336  0.2162
 5260SOL    HW127413   4.079   4.625   3.772  1.8482  2.0490 -4.6185
 5260SOL    HW227414   4.072   0.020   3.852  0.4782 -0.8020 -0.1793
 5261SOL     OW27415   3.176   2.946   1.654  0.1889 -0.5060 -0.3377
 5261SOL    HW127416   3.182   2.886   1.728 -2.1563 -0.7451 -0.3435
 5261SOL    HW227417   3.102   3.001   1.681  1.2263  1.2094 -0.9707
 5262SOL     OW27418   1.138   1.529   9.529 -0.1051  0.3042  0.4942
 5262SOL    HW127419   1.148   1.624   9.518 -2.4266  0.1218 -3.4821
 5262SOL    HW227420   1.114   1.503   9.440 -3.3414  0.8917  1.1886
 5263SOL     OW27421   0.284   0.858   0.602 -0.5707 -0.2445 -0.2910
 5263SOL    HW127422   0.192   0.883   0.597 -0.6371 -0.5745 -0.7371
 5263SOL    HW227423   0.279   0.777   0.551 -1.1782 -1.0692  1.0737
 5264SOL     OW27424   4.003   1.573   1.712  0.4528 -0.2696  0.1649
 5264SOL    HW127425   4.047   1.561   1.628 -0.4910  1.7941 -0.6393
 5264SOL    HW227426   4.004   1.669   1.718  1.0334 -0.1985 -1.1398
 5265SOL     OW27427   3.458   0.047  13.350  1.0174 -0.3521 -0.2161
 5265SOL    HW127428   3.502   0.122  13.312 -0.4335  0.5561 -0.1139
 5265SOL    HW227429   3.518   4.710  13.332 -1.3753 -1.8998 -1.9794
 5266SOL     OW27430   0.139   3.981   7.797 -0.3230 -0.3674 -0.0536
 5266SOL    HW127431   0.170   3.993   7.886 -2.5241 -0.0145  0.6827
 5266SOL    HW227432   0.214   3.966   7.741 -1.0196 -1.6861 -0.6314
 5267SOL     OW27433   1.867   3.570   8.970  0.1898  0.4360 -0.2364
 5267SOL    HW127434   1.787   3.619   8.949 -0.8715 -0.4259  1.8076
 5267SOL    HW227435   1.864   3.571   9.065 -0.8246 -1.1850 -0.2577
 5268SOL     OW27436   3.628   1.331   0.604  0.4038 -0.1685 -0.1117
 5268SOL    HW127437   3.532   1.328   0.608  0.4794 -1.1353  1.1718
 5268SOL    HW227438   3.644   1.364   0.516 -0.9159 -0.8967 -0.6338
 5269SOL     OW27439   2.627   0.390  16.528 -0.0393 -0.3788 -0.5918
 5269SOL    HW127440   2.607   0.430  16.613 -3.5386 -1.9251 -0.7117
 5269SOL    HW227441   2.571   0.313  16.528 -1.1126  0.4080  2.1783
 5270SOL     OW27442   1.525   0.660   0.298  0.0870 -0.0745 -0.0990
 5270SOL    HW127443   1.504   0.681   0.389 -1.7165  0.5863 -0.6631
 5270SOL    HW227444   1.558   0.571   0.308 -2.0159 -1.0406 -1.5042
 5271SOL     OW27445   0.232   3.962   2.808  0.3212 -0.3770  0.5520
 5271SOL    HW127446   0.165   3.894   2.801  0.0415  0.1582 -1.9938
 5271SOL    HW227447   0.270   3.956   2.720 -2.0431 -1.4557 -0.4084
 5272SOL     OW27448   1.872   2.331  13.132 -0.0170 -0.0607 -0.1901
 5272SOL    HW127449   1.870   2.348  13.226  0.7803 -0.1797 -0.1564
 5272SOL    HW227450   1.882   2.236  13.132  1.8866  0.1408 -3.0056
 5273SOL     OW27451   2.916   2.239   4.507 -0.0820 -0.1157 -0.3681
 5273SOL    HW127452   2.914   2.228   4.602 -0.4831 -1.0544 -0.4881
 5273SOL    HW227453   2.850   2.182   4.469 -0.3715 -0.3912  0.5461
 5274SOL     OW27454   0.876   3.154   9.530  0.3715 -0.5015 -0.4565
 5274SOL    HW127455   0.809   3.141   9.597 -1.0041  1.0774 -1.5410
 5274SOL    HW227456   0.893   3.247   9.539  2.6945 -0.8679 -0.8070
 5275SOL     OW27457   2.452   3.036  10.271  0.3927 -0.3332 -0.4802
 5275SOL    HW127458   2.366   2.995  10.282 -0.2816  1.1647 -0.0826
 5275SOL    HW227459   2.426   3.097  10.202  0.4309 -1.1297 -1.1826
 5276SOL     OW27460   3.545   3.240   2.580  0.0266  0.2068 -0.3159
 5276SOL    HW127461   3.539   3.199   2.666 -1.9087 -1.4824 -1.2705
 5276SOL    HW227462   3.608   3.313   2.586  0.0581  0.1073  0.5910
 5277SOL     OW27463   1.426   2.074   6.890 -0.1890  0.0834  0.6786
 5277SOL    HW127464   1.504   2.042   6.935 -0.3007 -0.9964  0.1153
 5277SOL    HW227465   1.465   2.138   6.830  1.4770  0.0013  1.6782
 5278SOL     OW27466   4.197   2.044   5.896  0.1891  0.6490  0.4633
 5278SOL    HW127467   4.238   2.032   5.982  0.2042  1.8235  0.6171
 5278SOL    HW227468   4.208   1.954   5.866  0.8081  0.8554  0.0735
 5279SOL     OW27469   0.466   4.004   7.799 -0.1505 -0.1934 -0.0100
 5279SOL    HW127470   0.467   3.908   7.790 -2.2963 -0.4267  2.5918
 5279SOL    HW227471   0.540   4.032   7.744  1.8007 -0.9907  2.2403
 5280SOL     OW27472   0.634   4.246  11.896 -0.0968  0.1793  0.1706
 5280SOL    HW127473   0.562   4.200  11.852 -0.3702  0.3443  0.4493
 5280SOL    HW227474   0.584   4.310  11.946  1.0076 -1.0126  2.7642
 5281SOL     OW27475   4.287   4.085  11.976 -0.2899  0.0631  0.1339
 5281SOL    HW127476   4.272   4.110  12.067 -0.5579 -2.2842  0.7192
 5281SOL    HW227477   4.260   4.166  11.933 -2.0572 -0.6299 -0.0327
 5282SOL     OW27478   1.988   0.570   2.692  0.8263 -0.1513  0.3584
 5282SOL    HW127479   2.049   0.497   2.699 -1.7337 -2.3567 -0.2389
 5282SOL    HW227480   1.902   0.533   2.713  0.4780 -0.3273 -1.3495
 5283SOL     OW27481   4.186   0.665   8.280 -0.2570 -0.1271 -0.1390
 5283SOL    HW127482   4.267   0.666   8.229  0.9586  3.1291  1.9169
 5283SOL    HW227483   4.214   0.606   8.349 -1.0611 -1.1854 -0.7153
 5284SOL     OW27484   0.287   4.370   5.899 -0.3814 -0.1929 -0.5406
 5284SOL    HW127485   0.208   4.422   5.882 -1.7416 -1.6512  1.4014
 5284SOL    HW227486   0.348   4.410   5.837 -1.9743  0.0710 -1.9287
 5285SOL     OW27487   0.213   1.402   6.559  0.4012  0.3203 -0.4955
 5285SOL    HW127488   0.307   1.415   6.574 -0.0802  0.5199  2.3214
 5285SOL    HW227489   0.169   1.450   6.629  0.9596  2.2798 -1.4982
 5286SOL     OW27490   0.978   1.367  13.851  0.1269  0.1594  0.1352
 5286SOL    HW127491   1.006   1.455  13.824 -1.2913  0.3622 -0.6569
 5286SOL    HW227492   0.883   1.378  13.853  0.1140 -0.1244  0.7378
 5287SOL     OW27493   2.407   2.428  12.689  0.1904 -0.3883 -0.7113
 5287SOL    HW127494   2.492   2.450  12.726 -1.3157 -0.2204  2.6606
 5287SOL    HW227495   2.429   2.354  12.632  1.2300 -1.1884  0.7207
 5288SOL     OW27496   0.042   2.936   2.295 -0.0026  0.2215 -0.5644
 5288SOL    HW127497   4.701   2.877   2.299  1.4427 -1.6466 -1.2808
 5288SOL    HW227498   0.037   2.979   2.381  0.1082 -0.5171 -0.1955
 5289SOL     OW27499   3.433   3.189   8.885  0.0675  0.0900 -0.2028
 5289SOL    HW127500   3.378   3.243   8.941  0.6841 -0.9092  1.3752
 5289SOL    HW227501   3.465   3.137   8.959  0.1261  0.7435  0.2358
 5290SOL     OW27502   3.650   2.346   6.363 -0.1633  0.4734 -0.0301
 5290SOL    HW127503   3.711   2.407   6.404 -0.4259  0.7877 -0.1025
 5290SOL    HW227504   3.699   2.313   6.288 -0.3152 -0.5722  0.3372
 5291SOL     OW27505   3.436   4.633   6.966  0.4289 -0.5692 -0.6848
 5291SOL    HW127506   3.488   4.709   6.943 -0.9134  1.0000  1.4799
 5291SOL    HW227507   3.356   4.654   6.918  1.4020  1.9979 -1.1712
 5292SOL     OW27508   0.993   3.062   0.119 -0.2974 -0.2413  0.0441
 5292SOL    HW127509   1.006   3.126   0.049 -1.0719  1.1431  1.1646
 5292SOL    HW227510   0.963   2.985   0.071  0.7609  0.0208 -1.0479
 5293SOL     OW27511   1.820   3.626   6.350  0.7039  0.6526  0.2691
 5293SOL    HW127512   1.892   3.673   6.307  0.3939  0.8229 -0.0619
 5293SOL    HW227513   1.838   3.535   6.325  1.5536  0.6985  0.6926
 5294SOL     OW27514   2.740   4.199  12.923 -0.3561 -0.1273  0.0135
 5294SOL    HW127515   2.803   4.271  12.925 -0.1914 -0.3359  3.4691
 5294SOL    HW227516   2.798   4.123  12.922  0.9688  0.9017 -0.4872
 5295SOL     OW27517   2.902   4.162   7.171 -0.1993 -0.3769 -0.0409
 5295SOL    HW127518   2.992   4.147   7.200  0.4906  1.5605 -1.2135
 5295SOL    HW227519   2.918   4.245   7.127 -0.8976  0.6034  1.5611
 5296SOL     OW27520   1.542   3.833  10.348 -0.0362  0.5552  0.0454
 5296SOL    HW127521   1.592   3.767  10.395 -0.9937 -1.1794 -1.3647
 5296SOL    HW227522   1.592   3.854  10.269 -1.5063  1.1513 -0.7246
 5297SOL     OW27523   2.048   0.709   6.863  0.2578 -0.2094  0.1119
 5297SOL    HW127524   1.964   0.729   6.821  1.9356  2.3021 -2.0250
 5297SOL    HW227525   2.026   0.663   6.944 -0.7330  1.0525  0.5591
 5298SOL     OW27526   1.298   2.232  11.386  0.0792  0.0126 -0.0699
 5298SOL    HW127527   1.332   2.153  11.429  1.0197  0.7380  0.5402
 5298SOL    HW227528   1.205   2.213  11.395 -0.1980  0.7450 -1.4694
 5299SOL     OW27529   1.390   0.143   7.578 -0.0947  0.2122 -0.4236
 5299SOL    HW127530   1.413   0.235   7.567 -0.1307  0.0552 -1.8172
 5299SOL    HW227531   1.357   0.153   7.667 -1.9481  0.1762 -1.0959
 5300SOL     OW27532   3.038   2.598  10.057  0.6368 -0.3138  0.1945
 5300SOL    HW127533   3.060   2.558  10.141 -1.6599 -0.0783  0.9058
 5300SOL    HW227534   2.957   2.551  10.038  0.0799  0.8129 -0.1978
 5301SOL     OW27535   0.652   4.702  10.071  0.1331 -0.0069  0.3445
 5301SOL    HW127536   0.585   4.727  10.008 -0.3305 -2.2087 -0.0572
 5301SOL    HW227537   0.674   4.614  10.039  2.9827  0.4647  1.0110
 5302SOL     OW27538   2.383   4.397  16.237 -0.5563  0.5806 -0.4339
 5302SOL    HW127539   2.398   4.485  16.204 -0.8715 -0.2315 -2.7600
 5302SOL    HW227540   2.378   4.352  16.153 -1.8059  0.9794 -0.5630
 5303SOL     OW27541   3.968   3.643   9.716  0.3267  0.3424 -0.1074
 5303SOL    HW127542   4.017   3.619   9.638 -0.5267  0.0511 -0.5528
 5303SOL    HW227543   4.019   3.713   9.757  3.2464 -0.9042 -1.6042
 5304SOL     OW27544   2.902   1.185   8.308 -0.1205  0.4789 -0.4331
 5304SOL    HW127545   2.906   1.236   8.228  0.3148  0.3433 -0.4960
 5304SOL    HW227546   2.812   1.152   8.305  0.0692 -0.1575  0.5772
 5305SOL     OW27547   0.601   3.662   3.834  0.3391 -0.6354 -0.0841
 5305SOL    HW127548   0.549   3.655   3.914  1.2589  0.9596  0.6432
 5305SOL    HW227549   0.603   3.757   3.824 -0.2597 -0.5405  0.7165
 5306SOL     OW27550   0.685   2.123   3.204 -0.1038 -0.0069  0.6791
 5306SOL    HW127551   0.648   2.100   3.289 -0.6032  0.7348  0.6633
 5306SOL    HW227552   0.756   2.184   3.225  0.3182  0.0260 -0.8141
 5307SOL     OW27553   2.494   4.454  15.757  0.2753 -0.3820 -0.2672
 5307SOL    HW127554   2.479   4.441  15.663  0.8832  0.2081 -0.4440
 5307SOL    HW227555   2.534   4.540  15.766 -0.0803 -0.2172 -0.2792
 5308SOL     OW27556   1.567   2.780   2.695 -0.4787  0.4063 -0.4455
 5308SOL    HW127557   1.604   2.697   2.664 -0.4340  0.1990  0.1609
 5308SOL    HW227558   1.653   2.819   2.711 -0.8079  0.8150  0.3088
 5309SOL     OW27559   4.088   1.836   7.108 -0.4390 -0.3123 -0.3834
 5309SOL    HW127560   4.106   1.897   7.036 -2.0965 -1.1439 -1.5123
 5309SOL    HW227561   4.109   1.893   7.182  2.2466  0.5395 -1.8085
 5310SOL     OW27562   3.727   2.049   7.958 -0.1234  0.3117  0.5314
 5310SOL    HW127563   3.678   2.130   7.977 -2.6219 -0.7330 -1.4908
 5310SOL    HW227564   3.725   2.008   8.044  0.6823 -1.0086 -0.0837
 5311SOL     OW27565   2.328   4.707   1.887  0.2538  0.0521  0.5202
 5311SOL    HW127566   2.293   4.730   1.973  1.2162 -1.2882  1.2640
 5311SOL    HW227567   2.268   4.635   1.870 -0.2275  0.3815  0.8123
 5312SOL     OW27568   2.547   2.210   7.464 -0.0762  0.3857  0.8298
 5312SOL    HW127569   2.460   2.212   7.504 -0.3963  0.6216  0.1285
 5312SOL    HW227570   2.522   2.224   7.373  1.5605  1.1585  0.4957
 5313SOL     OW27571   4.086   3.179   3.862  0.1368  0.2324 -0.0450
 5313SOL    HW127572   4.107   3.091   3.893 -0.3046  0.0196 -0.3573
 5313SOL    HW227573   3.992   3.169   3.845  0.4703 -1.5187 -0.8333
 5314SOL     OW27574   1.702   4.562   8.344 -0.3788  0.9328 -0.2170
 5314SOL    HW127575   1.632   4.497   8.335 -0.2031  0.5179  1.3792
 5314SOL    HW227576   1.706   4.594   8.254  2.9376  0.5268 -0.2386
 5315SOL     OW27577   0.680   2.713   6.174  0.4783  0.0577  0.2966
 5315SOL    HW127578   0.703   2.750   6.089 -1.5005  2.3683  0.7424
 5315SOL    HW227579   0.713   2.624   6.170  2.4103  0.8929 -2.7637
 5316SOL     OW27580   1.002   2.249   2.814  0.1131  0.5131 -0.2558
 5316SOL    HW127581   1.015   2.157   2.791  2.2762 -0.1679  3.6695
 5316SOL    HW227582   0.924   2.274   2.764 -0.5457  0.1176  0.5660
 5317SOL     OW27583   3.312   3.758   4.657  0.2665  0.5065  0.1203
 5317SOL    HW127584   3.336   3.731   4.746 -1.3200  1.5891  0.8832
 5317SOL    HW227585   3.369   3.833   4.639  1.1969 -0.0992  0.5115
 5318SOL     OW27586   4.072   0.321   2.862  0.1930  0.3200  0.0596
 5318SOL    HW127587   4.063   0.261   2.789  1.7869 -0.0278  0.1472
 5318SOL    HW227588   3.992   0.309   2.913  0.3241  0.4080  0.2845
 5319SOL     OW27589   1.986   3.078   1.699 -0.0754  0.2629 -0.1661
 5319SOL    HW127590   1.935   3.016   1.752  0.1910  0.1373 -0.0551
 5319SOL    HW227591   2.062   3.079   1.758 -1.3302 -2.5042  1.5261
 5320SOL     OW27592   2.911   2.863   4.206  0.5230  0.3543  0.2390
 5320SOL    HW127593   2.841   2.839   4.267 -1.0437 -1.7719 -2.3789
 5320SOL    HW227594   2.988   2.833   4.255  0.4119  0.4647  0.4796
 5321SOL     OW27595   3.674   1.255   1.757 -0.0627 -0.1730  0.0009
 5321SOL    HW127596   3.647   1.169   1.724  1.7491 -0.9604  0.5914
 5321SOL    HW227597   3.762   1.261   1.720  0.2565 -1.6965  0.5082
 5322SOL     OW27598   3.867   3.410   5.725 -0.3751 -0.1691 -0.2406
 5322SOL    HW127599   3.835   3.331   5.768 -1.3372  0.0644 -0.5183
 5322SOL    HW227600   3.826   3.483   5.770 -0.0958 -1.1136  1.5131
 5323SOL     OW27601   3.527   1.900   6.401  0.5925 -0.0905  1.0655
 5323SOL    HW127602   3.439   1.894   6.363  0.7614  3.0356  0.1172
 5323SOL    HW227603   3.518   1.868   6.490 -3.5029  1.5610  1.2518
 5324SOL     OW27604   0.726   3.231   8.433  0.6977  0.2299  0.4437
 5324SOL    HW127605   0.674   3.303   8.468 -0.0002 -0.8028  1.5777
 5324SOL    HW227606   0.662   3.159   8.437  0.6302  0.2640 -0.0878
 5325SOL     OW27607   1.105   3.209   7.818  0.1294  0.2694  0.8595
 5325SOL    HW127608   1.111   3.228   7.911  1.0454  0.5736  0.7345
 5325SOL    HW227609   1.056   3.127   7.820  2.4875 -1.1976 -0.9985
 5326SOL     OW27610   3.495   1.074   3.778 -0.4090 -0.2400  0.1892
 5326SOL    HW127611   3.580   1.108   3.806  0.4206 -1.8748 -0.3400
 5326SOL    HW227612   3.479   1.132   3.703  1.3075 -0.3136 -0.2423
 5327SOL     OW27613   1.619   4.290   6.113 -0.5028 -0.2784  0.5263
 5327SOL    HW127614   1.611   4.379   6.149 -1.3380  0.0537 -0.4650
 5327SOL    HW227615   1.628   4.246   6.198  2.0183  0.6093  0.6967
 5328SOL     OW27616   2.101   0.126   2.060  0.7703 -0.0773 -0.5417
 5328SOL    HW127617   2.036   0.072   2.013  1.6971  0.0708 -2.0085
 5328SOL    HW227618   2.066   0.213   2.043 -1.1769 -0.8841 -0.6390
 5329SOL     OW27619   1.072   3.531  13.896 -0.6196 -0.1156  0.5020
 5329SOL    HW127620   1.060   3.567  13.984  0.3484  1.8863 -0.1727
 5329SOL    HW227621   1.162   3.554  13.873 -1.2115  2.3320  0.6234
 5330SOL     OW27622   2.172   3.047  15.608  0.0694  0.1692  0.1339
 5330SOL    HW127623   2.163   2.952  15.613 -1.3740  0.4442  2.6509
 5330SOL    HW227624   2.266   3.060  15.616  0.2873 -2.0615  1.3150
 5331SOL     OW27625   2.167   1.684   9.157 -0.0266  0.1873  0.4836
 5331SOL    HW127626   2.181   1.719   9.245 -0.5856 -0.1317  0.6956
 5331SOL    HW227627   2.113   1.757   9.126 -1.3467 -0.6876  0.7482
 5332SOL     OW27628   0.750   2.513  11.394  0.2837  0.6382 -1.1183
 5332SOL    HW127629   0.731   2.504  11.300  0.8286  0.8845 -1.2535
 5332SOL    HW227630   0.681   2.573  11.422  0.4986 -0.4027  1.5784
 5333SOL     OW27631   1.978   1.246   6.962  0.3871  0.4221 -0.1870
 5333SOL    HW127632   2.024   1.321   6.999  0.2086  0.1089  0.6563
 5333SOL    HW227633   1.889   1.281   6.956  0.1000 -0.4022 -0.6510
 5334SOL     OW27634   0.803   3.373  13.443 -0.6559  0.5805 -0.2574
 5334SOL    HW127635   0.745   3.443  13.414 -0.0351  1.3067  0.2543
 5334SOL    HW227636   0.869   3.393  13.378  0.5561  0.2564  0.8651
 5335SOL     OW27637   3.337   0.836   4.766 -0.0114  0.3727  0.2594
 5335SOL    HW127638   3.407   0.784   4.805 -0.8105 -1.2046 -0.4141
 5335SOL    HW227639   3.279   0.856   4.839 -0.2528 -3.1087  1.0435
 5336SOL     OW27640   1.906   0.196   5.898 -0.5773  0.8366  0.2140
 5336SOL    HW127641   1.886   0.290   5.901 -0.6620  0.7734  2.0765
 5336SOL    HW227642   1.866   0.170   5.982 -0.7584  1.7737  0.4264
 5337SOL     OW27643   2.127   0.319   3.162  0.3618  0.4066  0.5037
 5337SOL    HW127644   2.159   0.330   3.073 -1.3715 -2.6516 -0.4822
 5337SOL    HW227645   2.128   0.224   3.174  0.0496  0.2745 -0.5978
 5338SOL     OW27646   0.461   2.258   3.567  0.4016 -0.1488 -0.5868
 5338SOL    HW127647   0.419   2.181   3.605 -0.8168  0.2957 -1.0451
 5338SOL    HW227648   0.547   2.215   3.573  1.3799  2.0321  0.8288
 5339SOL     OW27649   0.585   1.789   7.627  0.6676 -0.1004  0.0437
 5339SOL    HW127650   0.659   1.804   7.568  0.9959 -0.4589  0.3617
 5339SOL    HW227651   0.564   1.707   7.581 -0.2211  0.1829 -0.0519
 5340SOL     OW27652   2.948   2.777   8.787 -0.3881  0.3310  0.1045
 5340SOL    HW127653   2.943   2.743   8.698  0.9988  1.3112 -0.3430
 5340SOL    HW227654   2.856   2.801   8.802 -0.7341 -0.4383 -0.7847
 5341SOL     OW27655   0.528   4.457   1.377 -0.1678  0.0277  0.3948
 5341SOL    HW127656   0.615   4.478   1.343 -0.3797  0.1335 -0.0754
 5341SOL    HW227657   0.493   4.402   1.307  2.3615 -0.0160 -0.8637
 5342SOL     OW27658   0.101   1.718  13.387 -0.3261  0.5517  0.4817
 5342SOL    HW127659   0.045   1.762  13.323 -0.0594 -2.6242 -1.8987
 5342SOL    HW227660   0.186   1.714  13.344 -0.0064  0.8545  1.0800
 5343SOL     OW27661   1.329   3.254   3.769 -0.3974 -0.5979  0.6446
 5343SOL    HW127662   1.322   3.178   3.826  1.5992  0.0695  1.7567
 5343SOL    HW227663   1.333   3.205   3.686 -3.0167 -2.6346  1.7208
 5344SOL     OW27664   0.947   4.698  17.307 -0.2469 -0.2569  0.1289
 5344SOL    HW127665   0.960   4.619  17.254 -1.1114 -0.8955  0.8582
 5344SOL    HW227666   0.924   0.024  17.237  1.2595 -0.9681 -0.9632
 5345SOL     OW27667   2.186   3.075   8.881 -0.3238  0.1513 -0.3552
 5345SOL    HW127668   2.092   3.061   8.892 -0.2286  1.1493  1.8276
 5345SOL    HW227669   2.215   3.081   8.972  0.8757  1.3577 -0.8034
 5346SOL     OW27670   4.167   1.385   5.370  0.0675 -0.1052  0.3264
 5346SOL    HW127671   4.256   1.390   5.406  0.1464 -3.1265  0.5685
 5346SOL    HW227672   4.172   1.295   5.339  4.7841  0.5159 -0.7646
 5347SOL     OW27673   3.828   4.009   3.040  0.1003 -0.2148 -0.5735
 5347SOL    HW127674   3.838   3.921   3.076  0.4237  0.7638  1.7432
 5347SOL    HW227675   3.878   4.072   3.092  0.9491  0.7472 -2.5904
 5348SOL     OW27676   4.173   1.904  13.494 -0.0608  0.5665 -0.0070
 5348SOL    HW127677   4.143   1.816  13.468 -0.5532  0.1905  1.8014
 5348SOL    HW227678   4.209   1.884  13.580 -1.6906 -0.0765  0.5292
 5349SOL     OW27679   1.991   2.878   3.695  0.0994  0.2935 -0.1377
 5349SOL    HW127680   2.041   2.804   3.659 -0.2408  0.3987 -0.8277
 5349SOL    HW227681   1.965   2.919   3.613  0.2884 -0.8854 -0.7927
 5350SOL     OW27682   1.784   1.441   1.805 -0.4794  0.1951 -0.0326
 5350SOL    HW127683   1.800   1.463   1.897 -3.9685  0.0957  0.5878
 5350SOL    HW227684   1.704   1.491   1.790 -0.7703 -0.6984 -1.4807
 5351SOL     OW27685   2.802   3.478   6.145  0.2703  1.0258 -0.2076
 5351SOL    HW127686   2.897   3.473   6.157  0.2482 -1.3689 -1.0790
 5351SOL    HW227687   2.779   3.490   6.237 -0.4071  2.3269 -0.5441
 5352SOL     OW27688   2.770   0.379   6.615  0.2003 -0.6222  0.1505
 5352SOL    HW127689   2.799   0.414   6.530 -0.4944  0.9163  0.5581
 5352SOL    HW227690   2.707   0.311   6.592 -0.1187 -1.3038  3.1291
 5353SOL     OW27691   0.871   3.071  14.046 -0.3040  0.1340  0.3226
 5353SOL    HW127692   0.849   3.129  14.119 -0.9647 -0.6982  0.7692
 5353SOL    HW227693   0.925   3.010  14.097  0.1191 -0.7701 -1.2138
 5354SOL     OW27694   1.561   0.728   4.579  0.0886 -0.1637  0.4430
 5354SOL    HW127695   1.597   0.781   4.508  1.4175 -1.1356  0.3923
 5354SOL    HW227696   1.483   0.719   4.524 -0.7813  1.7514  1.3588
 5355SOL     OW27697   2.134   1.290   7.332 -0.1614 -0.1274 -0.0495
 5355SOL    HW127698   2.056   1.344   7.339  1.5456  2.1701  1.1755
 5355SOL    HW227699   2.147   1.289   7.237 -0.8180 -0.1211 -0.1405
 5356SOL     OW27700   4.070   3.236  10.823 -0.2540 -0.2121  0.5750
 5356SOL    HW127701   4.018   3.169  10.779  1.5072  0.1485 -2.0234
 5356SOL    HW227702   4.105   3.179  10.891  0.5918  0.4237  0.6717
 5357SOL     OW27703   1.928   3.480   1.928  0.2527 -0.2826  0.2100
 5357SOL    HW127704   1.988   3.535   1.980 -0.0406  2.7734 -2.6879
 5357SOL    HW227705   1.956   3.390   1.945  0.3141 -0.3320 -0.1621
 5358SOL     OW27706   1.819   4.422   3.132 -0.2934 -0.0522  0.2771
 5358SOL    HW127707   1.733   4.386   3.109 -1.2854  2.3930  0.2161
 5358SOL    HW227708   1.879   4.385   3.067  0.0134 -0.5490  0.8427
 5359SOL     OW27709   1.473   2.404   4.644 -0.2437 -0.0110  0.4586
 5359SOL    HW127710   1.519   2.486   4.626 -1.0373  0.4156  0.3730
 5359SOL    HW227711   1.382   2.434   4.648 -0.1493  0.2572  0.5603
 5360SOL     OW27712   0.469   4.491   5.719 -0.5535 -0.0292 -0.4952
 5360SOL    HW127713   0.517   4.545   5.782  0.2607 -1.1850 -0.1272
 5360SOL    HW227714   0.532   4.426   5.688 -1.9997 -0.8536 -1.7034
 5361SOL     OW27715   1.874   1.309  12.709 -0.2459  0.6968 -0.3560
 5361SOL    HW127716   1.922   1.256  12.772  3.1948 -0.4379 -3.9494
 5361SOL    HW227717   1.801   1.251  12.686 -1.0802  1.2312  0.9723
 5362SOL     OW27718   0.975   2.050   9.951 -0.2925  1.2268  0.5741
 5362SOL    HW127719   0.980   2.138   9.912 -2.1199 -0.4557 -3.4006
 5362SOL    HW227720   0.981   1.992   9.875 -2.6107  1.9119 -0.1228
 5363SOL     OW27721   2.800   1.814   3.804  0.1476 -0.0948  0.0194
 5363SOL    HW127722   2.715   1.848   3.829 -0.7467 -2.3207  0.0145
 5363SOL    HW227723   2.855   1.890   3.823  0.1303  0.0155 -0.3770
 5364SOL     OW27724   1.939   1.247   4.891 -1.1148 -0.1193  0.1361
 5364SOL    HW127725   1.935   1.166   4.840 -2.9395 -2.0889  3.4249
 5364SOL    HW227726   1.859   1.234   4.941 -1.5782  0.7657 -0.3886
 5365SOL     OW27727   3.371   0.955   8.136  0.0597 -0.3267 -0.2234
 5365SOL    HW127728   3.427   0.971   8.212 -0.8456  1.1797  0.1054
 5365SOL    HW227729   3.283   0.971   8.168  0.6969  1.3199  0.6935
 5366SOL     OW27730   1.066   3.812   8.102 -0.2836  0.3932  0.1285
 5366SOL    HW127731   1.112   3.885   8.060  1.0848 -0.9235 -0.6461
 5366SOL    HW227732   0.994   3.801   8.039  0.2268  0.7781 -0.5219
 5367SOL     OW27733   2.929   2.841  17.535  0.1450  0.5547  0.0296
 5367SOL    HW127734   2.989   2.774  17.501  0.3330  1.3017 -1.1128
 5367SOL    HW227735   2.865   2.787  17.581  0.1395  0.2153 -0.3684
 5368SOL     OW27736   0.451   3.698   4.088 -0.4535  0.1628 -0.6888
 5368SOL    HW127737   0.376   3.668   4.139 -0.0437  2.0258  0.9875
 5368SOL    HW227738   0.482   3.757   4.156  1.9130  0.7877 -2.3255
 5369SOL     OW27739   1.473   4.206   6.691  0.0021  0.3096 -0.1846
 5369SOL    HW127740   1.509   4.160   6.767  1.5441  0.9465 -0.5241
 5369SOL    HW227741   1.485   4.144   6.618 -1.0880  1.0825 -1.0228
 5370SOL     OW27742   3.448   1.431   5.429  0.1800 -0.6345  0.0770
 5370SOL    HW127743   3.402   1.355   5.464 -1.2749  1.5042  2.7460
 5370SOL    HW227744   3.393   1.437   5.351 -0.2052 -0.4180  0.3697
 5371SOL     OW27745   2.210   2.616   7.120 -0.1786 -0.4545 -0.7043
 5371SOL    HW127746   2.304   2.622   7.107 -0.0423  0.1735  0.5100
 5371SOL    HW227747   2.177   2.621   7.031 -1.3074 -2.5081 -0.3830
 5372SOL     OW27748   2.181   3.705   2.418  0.4152  0.6282  0.3898
 5372SOL    HW127749   2.251   3.650   2.383 -0.1021 -1.8066  3.1389
 5372SOL    HW227750   2.112   3.646   2.388  1.0052  0.6235 -0.9592
 5373SOL     OW27751   2.229   1.673   0.331 -0.1815  0.0528  0.1575
 5373SOL    HW127752   2.143   1.677   0.373  0.1567 -1.2549  0.9804
 5373SOL    HW227753   2.284   1.647   0.405 -0.1477 -1.3496 -0.3716
 5374SOL     OW27754   1.045   3.540   2.723 -0.5959  0.2013  0.3148
 5374SOL    HW127755   0.960   3.572   2.693 -0.8444  0.8694  1.7381
 5374SOL    HW227756   1.058   3.460   2.673  1.2168  1.0575 -0.5897
 5375SOL     OW27757   0.781   1.526   5.793  0.3090 -0.3030  0.1366
 5375SOL    HW127758   0.809   1.596   5.735 -1.1935 -1.1171 -1.5776
 5375SOL    HW227759   0.701   1.561   5.831  1.0251  1.8155 -0.3502
 5376SOL     OW27760   1.346   4.713   3.529  0.2148 -0.6179  0.1350
 5376SOL    HW127761   1.362   0.063   3.485  1.3896 -0.7592  0.2946
 5376SOL    HW227762   1.361   0.005   3.620 -1.6519  0.0904  0.2334
 5377SOL     OW27763   4.443   0.869   7.142 -0.5176 -0.0223 -0.0127
 5377SOL    HW127764   4.350   0.867   7.120 -0.5700 -0.3994  0.2460
 5377SOL    HW227765   4.444   0.800   7.209 -0.2892 -0.4046 -0.4154
 5378SOL     OW27766   0.505   3.975  10.164  0.3768 -0.5387  0.0556
 5378SOL    HW127767   0.479   3.902  10.107 -2.0904 -1.1691  2.0247
 5378SOL    HW227768   0.544   4.031  10.097  0.8669 -0.1447  0.6725
 5379SOL     OW27769   0.284   3.781   5.107  1.0869  0.5931  0.3479
 5379SOL    HW127770   0.327   3.818   5.184 -0.3406 -2.7082  2.7665
 5379SOL    HW227771   0.332   3.825   5.037  1.1274 -0.7801 -0.4976
 5380SOL     OW27772   2.828   3.065   6.696  0.1960 -0.0121  0.1090
 5380SOL    HW127773   2.861   2.976   6.706  1.0427  0.3539  0.5135
 5380SOL    HW227774   2.747   3.048   6.647  0.2902 -0.8313  0.2387
 5381SOL     OW27775   0.811   1.571   0.056  0.0033 -0.2933 -0.1443
 5381SOL    HW127776   0.861   1.652   0.057  0.7174 -0.7142 -2.8635
 5381SOL    HW227777   0.718   1.594   0.046 -0.1134  0.5377  2.8807
 5382SOL     OW27778   2.625   4.369   9.585 -0.1846 -0.2295  0.0654
 5382SOL    HW127779   2.569   4.312   9.533 -1.9293 -1.0693  2.8951
 5382SOL    HW227780   2.568   4.445   9.574 -1.2204 -0.9066  0.8363
 5383SOL     OW27781   2.201   3.584   2.865 -0.8919  0.6097 -0.0157
 5383SOL    HW127782   2.152   3.611   2.787  1.8651  1.5226 -1.4383
 5383SOL    HW227783   2.257   3.514   2.832  0.2270  1.0331  0.9546
 5384SOL     OW27784   1.056   1.362   5.270 -0.8211  0.1683 -0.4289
 5384SOL    HW127785   1.114   1.291   5.298  0.6936  2.2642  1.7704
 5384SOL    HW227786   1.104   1.399   5.196  1.0877 -0.2140  0.6060
 5385SOL     OW27787   0.537   0.825   3.504  0.0888  0.7469  0.0605
 5385SOL    HW127788   0.534   0.898   3.566  0.9245  2.0785 -1.4663
 5385SOL    HW227789   0.503   0.867   3.425  0.7553 -0.0698 -0.6605
 5386SOL     OW27790   4.182   3.459   9.689 -0.2483  0.5464  0.3757
 5386SOL    HW127791   4.106   3.412   9.722 -0.4594  1.0035  0.5420
 5386SOL    HW227792   4.141   3.502   9.613  0.5230  0.3594 -0.1475
 5387SOL     OW27793   2.006   4.548   9.283  0.4473 -0.1766 -0.0441
 5387SOL    HW127794   2.088   4.574   9.239  0.9543 -0.8308  0.5163
 5387SOL    HW227795   1.941   4.608   9.246 -0.3472  0.3067  2.1792
 5388SOL     OW27796   1.701   2.770   9.410  0.6565  0.0248 -0.2766
 5388SOL    HW127797   1.766   2.803   9.472 -1.1694  1.4616  0.8834
 5388SOL    HW227798   1.635   2.735   9.470  1.7782  0.5936  1.3031
 5389SOL     OW27799   2.304   4.594  16.703  0.1558  0.2004 -0.4344
 5389SOL    HW127800   2.269   4.509  16.679 -0.0443  0.1437  0.0649
 5389SOL    HW227801   2.383   4.568  16.751  1.1192 -0.8380 -2.6097
 5390SOL     OW27802   1.081   3.534  10.935 -0.3934 -0.1930  0.1187
 5390SOL    HW127803   1.040   3.613  10.901  1.4746  0.0430 -1.5561
 5390SOL    HW227804   1.163   3.572  10.967 -0.1863  0.6974 -1.4759
 5391SOL     OW27805   0.816   3.013   4.792  0.1331 -0.1804  0.0743
 5391SOL    HW127806   0.891   3.024   4.734 -0.1690 -0.9596 -0.4685
 5391SOL    HW227807   0.764   2.957   4.734  1.1783 -1.2105  0.1540
 5392SOL     OW27808   0.769   4.459   2.698  0.1177 -0.0453 -0.4574
 5392SOL    HW127809   0.760   4.386   2.759  0.6083  1.8525  1.9272
 5392SOL    HW227810   0.683   4.483   2.665 -1.7829 -1.9615  3.1638
 5393SOL     OW27811   2.272   1.045   2.779 -0.1285 -0.3570 -0.3606
 5393SOL    HW127812   2.273   1.049   2.875 -0.1341 -0.9723 -0.3349
 5393SOL    HW227813   2.188   1.092   2.770  0.7153  0.9975 -1.1473
 5394SOL     OW27814   0.880   2.571   5.603 -0.0930 -0.5681  0.6739
 5394SOL    HW127815   0.804   2.583   5.545 -1.2127 -2.2244  1.7937
 5394SOL    HW227816   0.926   2.501   5.557 -0.9584  0.1524 -1.2915
 5395SOL     OW27817   4.011   4.533   4.300 -0.0105 -0.3754  0.2672
 5395SOL    HW127818   4.009   4.529   4.396 -0.5453 -1.3647  0.2104
 5395SOL    HW227819   4.103   4.514   4.284 -0.6215 -1.7512 -1.5794
 5396SOL     OW27820   4.258   0.805   1.841  0.5221 -0.0258 -1.0079
 5396SOL    HW127821   4.254   0.786   1.747 -0.9189  0.6465 -1.0860
 5396SOL    HW227822   4.185   0.867   1.839  0.4436 -0.0184  1.5782
 5397SOL     OW27823   3.127   3.782   5.097  0.0070 -0.2568 -0.1900
 5397SOL    HW127824   3.192   3.850   5.115  1.2880 -0.8417 -2.5294
 5397SOL    HW227825   3.072   3.817   5.027 -1.6666  1.4157  1.9472
 5398SOL     OW27826   1.287   2.932  10.464  0.4213 -0.0283  1.0405
 5398SOL    HW127827   1.365   2.919  10.519  0.6994 -0.7788  0.4736
 5398SOL    HW227828   1.232   2.869  10.511  0.4621 -0.7536  0.1274
 5399SOL     OW27829   0.405   1.037   5.145 -0.4870  0.1030 -0.0503
 5399SOL    HW127830   0.460   0.972   5.188 -0.4837 -0.1749 -0.4770
 5399SOL    HW227831   0.468   1.104   5.118 -1.4311  1.0130 -0.0356
 5400SOL     OW27832   0.287   4.486   0.099  0.3479  0.2178 -0.2799
 5400SOL    HW127833   0.314   4.560   0.152  1.6180 -0.3959 -0.0695
 5400SOL    HW227834   0.371   4.452   0.067  1.1870  0.0056  2.1856
 5401SOL     OW27835   2.179   2.134   8.192 -0.6563 -0.2372 -0.4282
 5401SOL    HW127836   2.170   2.195   8.265  1.0889 -0.9489  0.3797
 5401SOL    HW227837   2.260   2.094   8.222 -1.9138 -2.0807  0.5375
 5402SOL     OW27838   0.959   2.426   1.447 -0.2889  0.4444  0.8748
 5402SOL    HW127839   0.988   2.395   1.533  2.2143 -1.3117 -0.6223
 5402SOL    HW227840   0.960   2.521   1.461 -0.5689  0.7740 -1.3850
 5403SOL     OW27841   2.965   1.255  15.058 -0.9870  0.4139  0.6935
 5403SOL    HW127842   3.043   1.208  15.028  0.4082  2.5441  0.9138
 5403SOL    HW227843   2.886   1.201  15.051 -1.0287  0.9690 -3.3002
 5404SOL     OW27844   4.654   2.017   7.162  0.0918  0.3880 -0.2129
 5404SOL    HW127845   4.606   2.077   7.105 -1.8781 -0.4842  0.5213
 5404SOL    HW227846   4.642   2.042   7.254  0.6384 -1.8430  0.4563
 5405SOL     OW27847   3.007   0.959   8.700 -0.1938 -0.3595  0.7223
 5405SOL    HW127848   3.094   0.919   8.693  0.8698  2.3936 -1.5984
 5405SOL    HW227849   3.015   1.040   8.751  2.2143  0.9601 -1.7775
 5406SOL     OW27850   3.326   0.982   1.509  0.6915 -0.2283 -0.0205
 5406SOL    HW127851   3.255   1.010   1.567 -0.7991 -2.3852 -0.8092
 5406SOL    HW227852   3.395   0.967   1.575 -0.1058  0.0891  0.8805
 5407SOL     OW27853   2.913   1.723   0.513 -0.1635  0.0434  0.4267
 5407SOL    HW127854   2.831   1.770   0.501  0.3103  0.6676 -0.4000
 5407SOL    HW227855   2.896   1.659   0.581 -1.0868 -1.0218 -0.8182
 5408SOL     OW27856   3.248   1.864  12.803 -0.3618  0.1573 -0.2048
 5408SOL    HW127857   3.183   1.831  12.740 -1.0154  2.4077 -0.7205
 5408SOL    HW227858   3.189   1.924  12.849 -0.4529 -0.2191  0.1696
 5409SOL     OW27859   4.174   4.565  10.906 -0.3471  0.0195 -0.6864
 5409SOL    HW127860   4.135   4.550  10.820  0.7875  0.2723 -1.2324
 5409SOL    HW227861   4.227   4.485  10.908 -0.5989 -0.1131  0.8529
 5410SOL     OW27862   1.254   0.054   2.535  0.2675 -0.1990  0.3575
 5410SOL    HW127863   1.257   0.146   2.508 -2.6106  0.1009  1.1288
 5410SOL    HW227864   1.350   0.050   2.541  0.2538 -0.9900  0.0114
 5411SOL     OW27865   1.918   2.919   4.644  0.1947  0.4494 -0.0576
 5411SOL    HW127866   1.838   2.950   4.601  0.9850  0.8192 -1.2633
 5411SOL    HW227867   1.885   2.847   4.697 -1.4868  0.1248 -1.5638
 5412SOL     OW27868   4.591   3.584   6.348 -0.7156  0.5632 -0.6884
 5412SOL    HW127869   4.642   3.595   6.267  1.5935  0.6770  0.7631
 5412SOL    HW227870   4.659   3.583   6.416 -1.4562 -2.7841 -0.0068
 5413SOL     OW27871   3.624   4.465  10.801 -0.2725  0.3821 -0.1164
 5413SOL    HW127872   3.562   4.536  10.816 -1.2095 -0.1276 -1.5480
 5413SOL    HW227873   3.690   4.518  10.757  0.5463  0.4967  1.2607
 5414SOL     OW27874   3.130   0.000  15.645 -0.6506  0.3548 -0.1915
 5414SOL    HW127875   3.095   0.017  15.733  2.7778  1.7642  0.8770
 5414SOL    HW227876   3.046   4.722  15.600 -0.8734 -0.3118  0.4061
 5415SOL     OW27877   3.716   4.364   6.295 -0.1798  0.3890 -0.2975
 5415SOL    HW127878   3.715   4.437   6.356 -0.3238  2.1334 -2.4002
 5415SOL    HW227879   3.745   4.293   6.353  0.5707 -0.3460 -1.5439
 5416SOL     OW27880   3.357   2.169   1.378 -0.3592 -0.1483  0.3001
 5416SOL    HW127881   3.399   2.214   1.451 -0.1432 -2.2636  1.4839
 5416SOL    HW227882   3.434   2.129   1.339  0.1713  1.3168 -0.1474
 5417SOL     OW27883   1.236   1.295   2.553 -0.0111  0.2288 -0.3042
 5417SOL    HW127884   1.197   1.249   2.627 -1.8446 -0.0233 -1.4127
 5417SOL    HW227885   1.289   1.361   2.597 -0.5357 -0.9430  2.1197
 5418SOL     OW27886   0.260   3.148  16.687 -0.0610  0.3906 -0.6373
 5418SOL    HW127887   0.183   3.205  16.682 -0.0084  0.3867 -1.3790
 5418SOL    HW227888   0.331   3.211  16.696 -0.7029  1.0321  0.0153
 5419SOL     OW27889   0.315   0.181  15.008 -0.6939 -0.2564  0.5309
 5419SOL    HW127890   0.366   0.256  14.978 -2.3146  1.1826  1.3544
 5419SOL    HW227891   0.232   0.218  15.039 -0.0712  0.5784  1.1628
 5420SOL     OW27892   3.932   0.069   5.370  0.6016  0.2052 -0.0929
 5420SOL    HW127893   3.896   4.716   5.384  0.4396  0.3630  0.4860
 5420SOL    HW227894   4.011   0.048   5.320  1.5059  0.9120  1.0207
 5421SOL     OW27895   1.915   4.725  12.181  0.3267 -0.0035  0.1063
 5421SOL    HW127896   1.916   4.675  12.100  0.9030  1.5340 -0.8297
 5421SOL    HW227897   1.968   0.065  12.152 -1.2688  1.1014  0.0181
 5422SOL     OW27898   2.090   0.905   9.145  0.2724  0.0764 -0.0214
 5422SOL    HW127899   2.111   0.841   9.076 -1.1793 -0.3764 -0.0310
 5422SOL    HW227900   2.174   0.904   9.192  1.1141  2.6968 -1.4432
 5423SOL     OW27901   0.965   0.427  14.735 -0.1398 -0.4194  0.7101
 5423SOL    HW127902   1.040   0.480  14.763  0.1848 -0.1256 -0.7286
 5423SOL    HW227903   0.890   0.478  14.767  0.3411  1.8607 -1.7674
 5424SOL     OW27904   3.539   1.081   0.748  0.3138 -0.1174 -0.1552
 5424SOL    HW127905   3.519   1.138   0.673 -0.2654 -0.0275  0.0690
 5424SOL    HW227906   3.547   1.150   0.814 -1.0413  0.5786 -0.6988
 5425SOL     OW27907   2.676   2.513   4.157 -0.1280  0.2608  0.1252
 5425SOL    HW127908   2.748   2.482   4.103 -0.7368 -0.9619  0.0283
 5425SOL    HW227909   2.652   2.590   4.106 -2.5531 -0.1057  0.6749
 5426SOL     OW27910   4.054   3.982   5.734 -0.6056 -0.2919  0.1763
 5426SOL    HW127911   3.982   3.918   5.732 -0.5284 -0.4007  1.1877
 5426SOL    HW227912   4.061   3.987   5.829  0.3097 -0.3259  0.1088
 5427SOL     OW27913   3.273   1.377   3.898 -0.2262 -0.2933 -0.0093
 5427SOL    HW127914   3.186   1.341   3.880 -1.6568  3.2700 -0.2235
 5427SOL    HW227915   3.267   1.411   3.988  0.4798 -0.9252  0.2737
 5428SOL     OW27916   2.142   0.704  17.630  0.0104  0.2348 -0.0170
 5428SOL    HW127917   2.051   0.686  17.656  0.4654 -1.4843  0.3843
 5428SOL    HW227918   2.146   0.647  17.553  1.8279  0.2109  0.1045
 5429SOL     OW27919   4.484   1.235   4.190  1.0273  0.0325  0.5249
 5429SOL    HW127920   4.469   1.149   4.229  0.9220 -0.3675 -0.4057
 5429SOL    HW227921   4.579   1.244   4.180  0.9242 -1.9650 -2.3137
 5430SOL     OW27922   3.348   0.611  11.535  0.6922  0.2754  0.5609
 5430SOL    HW127923   3.361   0.629  11.442  0.0759 -2.4369 -0.0596
 5430SOL    HW227924   3.297   0.530  11.534 -1.9159  1.9396 -0.9152
 5431SOL     OW27925   2.816   4.110   9.516  0.2596  0.2017  0.4354
 5431SOL    HW127926   2.727   4.074   9.510  0.8309 -0.9480 -1.0171
 5431SOL    HW227927   2.805   4.204   9.503 -1.1761  0.2076  1.6321
 5432SOL     OW27928   2.476   3.158   1.547  0.2124  1.0126  0.4366
 5432SOL    HW127929   2.446   3.069   1.567  3.1482 -0.5568 -2.1065
 5432SOL    HW227930   2.560   3.173   1.591  0.8622  2.3021 -1.2206
 5433SOL     OW27931   1.669   1.907   8.304 -0.4060  0.5473 -0.1722
 5433SOL    HW127932   1.752   1.945   8.333 -0.8676  1.8578 -0.5857
 5433SOL    HW227933   1.707   1.857   8.231 -1.5480 -1.6543  0.7350
 5434SOL     OW27934   0.901   1.255  17.186 -0.0965 -0.4754 -0.2127
 5434SOL    HW127935   0.868   1.166  17.174 -1.5249  0.2424 -1.5424
 5434SOL    HW227936   0.871   1.295  17.105 -2.0527 -0.7754  0.3504
 5435SOL     OW27937   2.735   2.256   2.263  0.9591  0.1602 -0.0003
 5435SOL    HW127938   2.688   2.307   2.329 -1.0193  0.3146 -1.5172
 5435SOL    HW227939   2.697   2.170   2.278 -1.8274  1.0184 -2.0594
 5436SOL     OW27940   2.301   0.844   7.403 -0.5209 -0.2470 -0.1867
 5436SOL    HW127941   2.372   0.892   7.445 -1.3618  0.1719  0.7543
 5436SOL    HW227942   2.245   0.837   7.480 -1.2337 -0.3993 -0.7151
 5437SOL     OW27943   3.229   0.392   5.639  0.1217 -0.5070 -0.0852
 5437SOL    HW127944   3.256   0.445   5.713 -1.2218  0.6474 -0.4074
 5437SOL    HW227945   3.134   0.405   5.638  0.2416  0.3175 -0.2741
 5438SOL     OW27946   3.081   4.393  13.694 -0.3234  0.1014  0.3048
 5438SOL    HW127947   3.157   4.358  13.741  0.3207  1.0284 -0.0468
 5438SOL    HW227948   3.075   4.316  13.638  0.1437 -0.4528  1.0215
 5439SOL     OW27949   0.679   0.163   4.790 -0.3080  0.4141 -0.4951
 5439SOL    HW127950   0.682   0.239   4.848 -3.1345  0.2118 -0.0530
 5439SOL    HW227951   0.744   0.103   4.827  0.4704  0.4124 -1.8654
 5440SOL     OW27952   0.967   0.418  13.265 -0.6843  0.1734 -0.0612
 5440SOL    HW127953   0.992   0.389  13.353 -0.8151  0.5314  0.0965
 5440SOL    HW227954   0.904   0.350  13.241  1.0532 -1.6589  0.5610
 5441SOL     OW27955   1.133   4.557   5.905 -0.3455 -0.0915 -0.5880
 5441SOL    HW127956   1.061   4.523   5.852 -1.5605  0.0087  0.9862
 5441SOL    HW227957   1.192   4.482   5.909  1.6061  1.5428  1.4794
 5442SOL     OW27958   0.372   1.693   5.595 -0.1729  0.5578 -0.3354
 5442SOL    HW127959   0.417   1.612   5.572  0.3716  1.5246 -2.6822
 5442SOL    HW227960   0.298   1.684   5.535 -0.0043  0.3089 -0.5102
 5443SOL     OW27961   0.804   3.133   9.233 -0.0286 -0.0669 -0.2232
 5443SOL    HW127962   0.809   3.152   9.326  2.8088  0.1457 -0.4345
 5443SOL    HW227963   0.712   3.115   9.214 -0.0175  1.0620 -1.3475
 5444SOL     OW27964   3.384   2.002  14.907 -0.0236  0.0909  0.9294
 5444SOL    HW127965   3.304   1.988  14.856 -0.0624 -0.0294  1.0214
 5444SOL    HW227966   3.386   1.932  14.973 -0.1529 -1.0232 -0.2505
 5445SOL     OW27967   2.545   4.588   0.737  0.5090  0.4668 -0.0705
 5445SOL    HW127968   2.612   4.520   0.737 -3.2566 -3.2336  0.6744
 5445SOL    HW227969   2.505   4.584   0.650  0.6014 -1.1308 -0.0391
 5446SOL     OW27970   1.126   1.365  10.326 -0.2478 -0.2715 -0.1592
 5446SOL    HW127971   1.077   1.368  10.408 -1.0261 -3.0047 -0.5301
 5446SOL    HW227972   1.073   1.294  10.291  2.4711 -2.4182  0.1038
 5447SOL     OW27973   3.952   1.572   0.574 -0.1952  0.4622 -0.4672
 5447SOL    HW127974   3.863   1.604   0.591 -0.1510  0.1614  0.3321
 5447SOL    HW227975   3.930   1.482   0.597  2.1518 -0.3132 -1.3127
 5448SOL     OW27976   3.485   4.217   4.858 -0.2464 -0.4538 -0.0579
 5448SOL    HW127977   3.523   4.265   4.784  0.9936  0.9487  1.5087
 5448SOL    HW227978   3.466   4.291   4.916  1.1177 -1.4646  1.6448
 5449SOL     OW27979   1.172   1.158   8.758 -0.1330 -0.2051 -0.0814
 5449SOL    HW127980   1.150   1.204   8.677 -0.8988  1.4276  1.0667
 5449SOL    HW227981   1.257   1.118   8.737 -0.5160 -1.7132  1.2995
 5450SOL     OW27982   3.090   3.495   8.022 -0.5320  0.1731  0.1142
 5450SOL    HW127983   3.014   3.447   8.055  1.2902 -2.4491  0.5428
 5450SOL    HW227984   3.073   3.582   8.058 -0.0968 -0.0580  0.8846
 5451SOL     OW27985   2.160   0.938   7.638  0.0221  0.1379 -0.1652
 5451SOL    HW127986   2.091   0.978   7.585 -0.5206 -0.7466 -0.1060
 5451SOL    HW227987   2.119   0.864   7.681 -2.7120  2.4603  1.1870
 5452SOL     OW27988   3.023   3.206   6.421 -0.3606  0.5358  0.1151
 5452SOL    HW127989   3.107   3.234   6.384  0.2610  0.1824  1.2390
 5452SOL    HW227990   3.025   3.118   6.384 -1.9690 -0.1172  1.5659
 5453SOL     OW27991   4.279   0.168   8.142 -0.1424 -0.4233  0.0131
 5453SOL    HW127992   4.374   0.181   8.133 -0.6662  1.4217 -2.8868
 5453SOL    HW227993   4.268   0.084   8.097  1.3990 -1.3048  1.2730
 5454SOL     OW27994   2.800   3.904   7.196  0.0894 -0.1199 -0.1558
 5454SOL    HW127995   2.819   3.995   7.216  1.1262 -0.9036  2.3395
 5454SOL    HW227996   2.889   3.873   7.210  0.3324  0.4649 -0.4373
 5455SOL     OW27997   0.849   2.822   6.762 -0.3509  0.6448 -0.0181
 5455SOL    HW127998   0.859   2.917   6.765  2.3304  0.3489  0.6531
 5455SOL    HW227999   0.941   2.797   6.772 -0.2038  0.6074 -1.4586
 5456SOL     OW28000   3.985   1.073  16.295  0.1573 -0.3650  0.3690
 5456SOL    HW128001   4.065   1.022  16.291  1.0100  1.1413 -1.5947
 5456SOL    HW228002   3.934   1.045  16.219 -1.9524  0.3185  1.5147
 5457SOL     OW28003   2.300   3.351   1.809 -0.2769  0.2849  0.0194
 5457SOL    HW128004   2.221   3.404   1.801 -0.4742  0.1792  1.2474
 5457SOL    HW228005   2.267   3.262   1.794  0.5974  0.3444 -2.2548
 5458SOL     OW28006   4.051   3.231  15.016  0.1349  0.0360  0.8983
 5458SOL    HW128007   4.134   3.218  15.061 -0.2837  0.4560  1.7984
 5458SOL    HW228008   4.031   3.321  15.042 -3.5682 -0.7103  0.6215
 5459SOL     OW28009   3.715   2.508   4.578 -0.2655 -0.4982 -0.0835
 5459SOL    HW128010   3.657   2.574   4.614  1.7300 -0.2115  2.5693
 5459SOL    HW228011   3.740   2.451   4.651 -0.3555 -1.2282 -0.6209
 5460SOL     OW28012   2.112   2.815  17.560 -0.4221 -0.5860  0.1775
 5460SOL    HW128013   2.075   2.866  17.632  0.7690 -0.1458  0.4754
 5460SOL    HW228014   2.040   2.753  17.546 -0.9020  0.2165 -0.8467
 5461SOL     OW28015   3.500   4.151  11.277  0.0720  0.0884 -0.2460
 5461SOL    HW128016   3.591   4.119  11.276 -0.7732 -2.3003  0.2871
 5461SOL    HW228017   3.491   4.171  11.370  1.8281  0.6418 -0.1821
 5462SOL     OW28018   2.573   1.803   5.795  0.5002  0.5957 -0.0243
 5462SOL    HW128019   2.503   1.783   5.733  1.0564  1.1297 -0.8300
 5462SOL    HW228020   2.636   1.732   5.784 -0.6661 -0.4696  0.2781
 5463SOL     OW28021   0.535   0.430  17.234  0.0419 -0.6070  0.3564
 5463SOL    HW128022   0.622   0.408  17.201  0.5754  2.5143 -0.3189
 5463SOL    HW228023   0.556   0.487  17.308 -1.1811  2.1805 -1.4300
 5464SOL     OW28024   0.504   0.613   6.842  0.2824 -0.4189  0.4231
 5464SOL    HW128025   0.429   0.672   6.843 -0.2772 -1.1239  0.2474
 5464SOL    HW228026   0.575   0.676   6.854  0.7045 -0.7300 -0.4148
 5465SOL     OW28027   4.584   2.223   3.111 -0.1655  0.5781 -0.1493
 5465SOL    HW128028   4.498   2.248   3.078 -0.2502  1.0368  0.4265
 5465SOL    HW228029   4.571   2.235   3.205  2.5874  1.2266  0.1554
 5466SOL     OW28030   1.083   4.149   5.305 -0.4847 -0.7072 -0.3730
 5466SOL    HW128031   1.134   4.200   5.369  1.3494 -3.0499  0.0469
 5466SOL    HW228032   1.119   4.175   5.220  0.7486 -1.5875 -0.1209
 5467SOL     OW28033   1.025   3.887   4.512  0.1569 -0.0324  0.4131
 5467SOL    HW128034   0.986   3.972   4.535 -0.9231 -0.2715 -0.5376
 5467SOL    HW228035   0.964   3.838   4.568  0.2738 -0.1659  0.4220
 5468SOL     OW28036   4.569   3.853   3.400  0.4873  0.2311 -0.3562
 5468SOL    HW128037   4.590   3.929   3.347 -2.2297  1.2059 -0.0410
 5468SOL    HW228038   4.486   3.825   3.361 -0.0523 -1.1201  1.7113
 5469SOL     OW28039   0.117   3.564   9.096 -0.0890 -0.9181  0.6787
 5469SOL    HW128040   0.167   3.642   9.119  3.1847 -3.1625  1.1589
 5469SOL    HW228041   0.124   3.563   9.001 -2.4023 -0.6889  0.4926
 5470SOL     OW28042   0.597   1.112   5.640 -0.1305 -0.4773  0.1705
 5470SOL    HW128043   0.614   1.142   5.550 -1.2000  1.2981  0.5580
 5470SOL    HW228044   0.565   1.023   5.627 -0.2178 -0.5434  0.8428
 5471SOL     OW28045   3.614   3.244   5.521  0.5435  0.2951  0.2492
 5471SOL    HW128046   3.529   3.233   5.478  0.8098 -2.7483  0.4573
 5471SOL    HW228047   3.665   3.173   5.482  1.8155  1.9006 -0.9950
 5472SOL     OW28048   4.506   1.566   4.505 -0.4046  0.7340  0.2401
 5472SOL    HW128049   4.582   1.624   4.501 -2.1054  2.7570 -2.5893
 5472SOL    HW228050   4.440   1.631   4.531 -0.4371  1.6602 -2.1761
 5473SOL     OW28051   3.630   1.487  12.225 -0.0042  0.1164  0.2811
 5473SOL    HW128052   3.711   1.474  12.274  0.5851  0.1672 -0.6837
 5473SOL    HW228053   3.599   1.397  12.223  1.2528 -0.3355  0.9354
 5474SOL     OW28054   0.929   4.328   6.185 -0.2571  0.1783  0.3616
 5474SOL    HW128055   1.010   4.330   6.135 -0.7130 -0.2800 -0.4056
 5474SOL    HW228056   0.938   4.417   6.219 -0.1952 -0.5479  2.2342
 5475SOL     OW28057   0.180   1.961   8.278  0.7341 -0.6583  0.5715
 5475SOL    HW128058   0.197   2.000   8.192  1.0846  1.6498  1.7171
 5475SOL    HW228059   0.106   1.902   8.261  0.6944 -0.2769 -0.5689
 5476SOL     OW28060   0.912   1.204   3.756  0.4915 -0.4633 -0.0102
 5476SOL    HW128061   0.872   1.139   3.698 -0.4801  0.3694 -0.2642
 5476SOL    HW228062   0.985   1.235   3.702 -1.4939  0.9865 -1.8819
 5477SOL     OW28063   3.043   0.056   1.642  0.4803  1.1184 -0.3149
 5477SOL    HW128064   3.023   0.088   1.730  2.7956 -0.6411  0.8480
 5477SOL    HW228065   2.968   0.000   1.621  0.4952  1.6043 -1.6464
 5478SOL     OW28066   4.608   1.992   3.400  0.0350 -0.3709 -0.1796
 5478SOL    HW128067   4.517   2.014   3.380 -0.1069 -0.6908  0.1186
 5478SOL    HW228068   4.600   1.937   3.478  1.8338 -1.3857 -0.7323
 5479SOL     OW28069   4.338   2.839  15.877  0.9039 -0.3598 -0.7223
 5479SOL    HW128070   4.263   2.841  15.818  0.5128 -2.8944 -0.2841
 5479SOL    HW228071   4.300   2.880  15.955  0.0142 -1.2838 -0.6714
 5480SOL     OW28072   3.296   3.102   2.274 -0.1878 -0.4938 -0.6220
 5480SOL    HW128073   3.305   3.194   2.300 -1.6284 -0.1085 -1.5009
 5480SOL    HW228074   3.345   3.113   2.192  1.2748 -1.9959  0.0434
 5481SOL     OW28075   0.034   2.292  11.966 -0.1290  0.1233  0.3154
 5481SOL    HW128076   0.073   2.343  12.037  1.6332 -2.6586  1.3685
 5481SOL    HW228077   0.034   2.202  12.000 -0.0358 -0.8487 -2.2689
 5482SOL     OW28078   2.419   4.387   1.820  0.1855  0.1884 -0.0773
 5482SOL    HW128079   2.472   4.370   1.898 -0.0755  1.2941  0.3353
 5482SOL    HW228080   2.460   4.468   1.790 -0.9971  1.2608  1.2099
 5483SOL     OW28081   4.729   4.296   3.095  0.3357  0.0475 -0.5404
 5483SOL    HW128082   4.689   4.371   3.050  0.3761 -0.0700 -0.7698
 5483SOL    HW228083   0.084   4.327   3.115  0.2034 -0.2887  0.5677
 5484SOL     OW28084   0.168   0.376   0.094  0.1177 -0.4087  0.0053
 5484SOL    HW128085   0.103   0.402   0.028 -0.0701  0.5331  0.5617
 5484SOL    HW228086   0.157   0.435   0.169  0.7316 -1.6687  1.1042
 5485SOL     OW28087   0.181   0.643   3.865 -0.0625 -0.1543  0.4801
 5485SOL    HW128088   0.231   0.652   3.784  0.6242 -0.5563  0.8646
 5485SOL    HW228089   0.224   0.566   3.903  1.1845 -0.8993 -2.4133
 5486SOL     OW28090   3.250   1.239   1.775  0.3060 -0.2214  0.1506
 5486SOL    HW128091   3.273   1.175   1.842  1.2792 -0.8230 -0.7656
 5486SOL    HW228092   3.191   1.179   1.729  0.0344 -0.5508  0.9451
 5487SOL     OW28093   4.688   2.975   3.066  0.0704 -0.1630  0.4266
 5487SOL    HW128094   0.035   2.931   3.040 -0.7938 -1.9891  0.7789
 5487SOL    HW228095   4.628   2.901   3.052  0.7992 -0.8339  0.7912
 5488SOL     OW28096   2.711   0.767   6.290 -0.4098 -0.1209  0.8051
 5488SOL    HW128097   2.634   0.716   6.314 -1.0458  0.4293 -0.0775
 5488SOL    HW228098   2.669   0.852   6.276  1.1695  0.7455  1.2690
 5489SOL     OW28099   2.835   2.053   0.883  0.0772 -0.7950  0.1563
 5489SOL    HW128100   2.904   2.116   0.907 -1.3914  0.8504  0.0849
 5489SOL    HW228101   2.854   2.047   0.790  0.2786  1.2874  0.0537
 5490SOL     OW28102   0.942   0.390   4.920  0.4199  0.5104 -0.3446
 5490SOL    HW128103   1.001   0.344   4.861 -0.8673 -0.8982 -0.5241
 5490SOL    HW228104   0.962   0.483   4.910 -1.0004  1.0533  1.8609
 5491SOL     OW28105   1.411   3.125  10.650  0.0006 -0.1190 -1.0344
 5491SOL    HW128106   1.480   3.118  10.584  1.2813  0.0140  0.2861
 5491SOL    HW228107   1.437   3.190  10.715 -1.5194 -1.5804  1.0220
 5492SOL     OW28108   1.838   4.113   8.853 -0.8229 -0.3338 -0.6973
 5492SOL    HW128109   1.807   4.200   8.877 -0.9991 -0.0892 -1.8176
 5492SOL    HW228110   1.884   4.089   8.934 -0.3336 -2.0109 -1.4850
 5493SOL     OW28111   4.301   1.090  11.412  0.3517  0.0267 -0.3443
 5493SOL    HW128112   4.213   1.106  11.380  0.0441  0.7205  0.8434
 5493SOL    HW228113   4.359   1.100  11.336 -0.0759  0.6633 -0.5876
 5494SOL     OW28114   0.232   2.181  10.128  0.4484  0.3458  0.4106
 5494SOL    HW128115   0.255   2.217  10.214 -0.6132  0.3893  0.6765
 5494SOL    HW228116   0.138   2.193  10.119  0.3715 -0.0733  0.6646
 5495SOL     OW28117   0.280   2.370   1.139 -0.0608  0.2198  0.4958
 5495SOL    HW128118   0.314   2.363   1.050 -1.6823  2.5496 -0.3029
 5495SOL    HW228119   0.338   2.440   1.168  0.1811  1.6060 -3.2413
 5496SOL     OW28120   4.507   0.247   8.496 -0.6594  0.1900  0.2793
 5496SOL    HW128121   4.435   0.190   8.469 -0.1628 -0.8430  1.1526
 5496SOL    HW228122   4.534   0.286   8.412 -1.3693 -3.4712 -1.6367
 5497SOL     OW28123   1.179   0.038   5.545 -0.7364 -0.2054 -0.0264
 5497SOL    HW128124   1.130   4.697   5.511  1.3923 -1.3081 -0.6267
 5497SOL    HW228125   1.137   0.111   5.500 -0.2791  0.8041  1.2022
 5498SOL     OW28126   2.566   3.786   8.185 -1.2132  0.0225 -0.0319
 5498SOL    HW128127   2.521   3.704   8.168  1.6175 -1.7812  1.0497
 5498SOL    HW228128   2.496   3.838   8.223 -3.1458 -1.7309 -1.2414
 5499SOL     OW28129   2.570   1.017   1.079 -0.4256 -0.0545 -0.2183
 5499SOL    HW128130   2.523   1.087   1.034  0.4165 -0.2625 -1.4207
 5499SOL    HW228131   2.497   0.980   1.128 -1.4550  1.1095 -0.8698
 5500SOL     OW28132   0.944   0.600  11.802 -0.5246  0.1538  0.1390
 5500SOL    HW128133   0.975   0.618  11.713 -1.1189  1.1717  0.1427
 5500SOL    HW228134   0.896   0.520  11.779 -1.4432  0.3814  1.2425
 5501SOL     OW28135   3.758   2.866   3.410 -0.8302 -0.2237 -0.3938
 5501SOL    HW128136   3.761   2.844   3.317 -1.3354 -0.3026 -0.3930
 5501SOL    HW228137   3.744   2.778   3.446 -1.2754  0.1245  0.2817
 5502SOL     OW28138   1.444   2.248  17.407  0.5064  0.0329 -0.5986
 5502SOL    HW128139   1.464   2.291  17.490 -2.1903 -0.6737  0.4101
 5502SOL    HW228140   1.411   2.326  17.361 -0.4941 -0.8457 -1.3689
 5503SOL     OW28141   1.369   4.158  10.359  0.1412 -0.0586 -0.4729
 5503SOL    HW128142   1.396   4.157  10.267  0.1253 -1.6278 -0.4666
 5503SOL    HW228143   1.362   4.252  10.371  2.9477  0.1473 -0.3222
 5504SOL     OW28144   0.411   2.235  13.431  0.7517 -0.8637 -0.2108
 5504SOL    HW128145   0.486   2.177  13.445  0.5774 -0.6786  1.5101
 5504SOL    HW228146   0.350   2.210  13.500 -0.6503 -0.6762 -1.3807
 5505SOL     OW28147   3.236   4.046  14.105  0.6799  0.2169 -0.3792
 5505SOL    HW128148   3.213   4.060  14.197 -1.3914  1.6745 -1.1104
 5505SOL    HW228149   3.318   3.998  14.115  1.2472  1.1367 -0.5790
 5506SOL     OW28150   3.068   0.408   8.877 -0.2120 -0.5025 -0.2364
 5506SOL    HW128151   3.092   0.454   8.796  1.5992 -0.5209  0.2992
 5506SOL    HW228152   3.020   0.329   8.851  0.8398 -0.9387 -0.8628
 5507SOL     OW28153   2.034   1.053  15.603  0.0738  0.1141  0.3469
 5507SOL    HW128154   1.947   1.048  15.642  0.5891  2.1294  1.7625
 5507SOL    HW228155   2.054   1.146  15.588 -0.3670 -0.1223 -1.7451
 5508SOL     OW28156   2.352   1.112   0.674  0.4650 -0.1696  0.1120
 5508SOL    HW128157   2.387   1.024   0.657 -0.9932 -0.6426 -0.4676
 5508SOL    HW228158   2.345   1.115   0.770 -0.7540 -0.6240  0.0306
 5509SOL     OW28159   0.355   2.539  13.210 -0.3760  0.0480  0.4532
 5509SOL    HW128160   0.283   2.593  13.178  0.2564  0.6220  0.0124
 5509SOL    HW228161   0.431   2.596  13.206 -1.0865  0.9384 -0.3838
 5510SOL     OW28162   0.788   0.758   5.589  0.0743 -0.2304  0.6424
 5510SOL    HW128163   0.777   0.787   5.680 -1.7600 -1.2653  0.7453
 5510SOL    HW228164   0.876   0.722   5.593 -0.6445 -1.8684  1.8344
 5511SOL     OW28165   2.036   2.065   7.745 -0.2559 -0.1382 -0.0665
 5511SOL    HW128166   2.086   2.131   7.794 -1.1229  1.5642 -1.5075
 5511SOL    HW228167   2.007   2.007   7.815 -2.0165  1.4750  0.5356
 5512SOL     OW28168   0.398   0.533   8.949 -0.0555  0.3891 -0.5747
 5512SOL    HW128169   0.312   0.502   8.978  0.6193 -0.7957  0.2028
 5512SOL    HW228170   0.380   0.576   8.866  0.1549  1.5923  0.0097
 5513SOL     OW28171   3.604   2.938  10.954 -0.5171  0.1424 -0.7048
 5513SOL    HW128172   3.540   2.893  10.899 -1.1850  2.0237 -1.4474
 5513SOL    HW228173   3.687   2.904  10.921 -1.0832  0.3452 -2.3240
 5514SOL     OW28174   0.124   1.304   9.031  0.2685  0.8141  0.7149
 5514SOL    HW128175   0.035   1.270   9.020  1.0162 -0.7324 -0.6577
 5514SOL    HW228176   0.147   1.262   9.114 -2.4807 -1.1975  0.4618
 5515SOL     OW28177   4.586   2.702   3.080 -0.5010  0.5318 -0.4822
 5515SOL    HW128178   4.660   2.660   3.035 -1.3178  1.1087 -2.3730
 5515SOL    HW228179   4.616   2.696   3.171 -0.5432  1.8868 -0.3757
 5516SOL     OW28180   3.687   1.236   7.027  0.1109  0.0377  0.0941
 5516SOL    HW128181   3.646   1.205   7.107  0.0217 -0.8628 -0.2968
 5516SOL    HW228182   3.687   1.156   6.974 -0.1663  1.1906 -1.6227
 5517SOL     OW28183   4.580   0.972  12.022 -0.3567 -0.0695  0.5765
 5517SOL    HW128184   4.592   0.913  12.096 -1.7599 -1.2937 -0.1895
 5517SOL    HW228185   4.491   0.946  11.998  0.8715 -2.2521 -1.6185
 5518SOL     OW28186   2.032   3.293  16.807  0.0056 -0.2487  0.1114
 5518SOL    HW128187   2.083   3.213  16.821  1.4152  0.8592  1.3411
 5518SOL    HW228188   1.949   3.259  16.775 -0.4603 -0.7857  1.8775
 5519SOL     OW28189   0.335   0.927  17.038  0.5941 -0.1590  0.3103
 5519SOL    HW128190   0.289   0.869  17.099  0.3549  0.7148  0.9565
 5519SOL    HW228191   0.264   0.984  17.010  1.2162  1.5807  2.1780
 5520SOL     OW28192   0.217   4.128  15.481 -0.0924 -0.1545  0.6082
 5520SOL    HW128193   0.230   4.217  15.446 -0.3009 -0.4833 -0.3104
 5520SOL    HW228194   0.300   4.108  15.523 -0.8848 -3.1254  0.7029
 5521SOL     OW28195   2.000   2.636   5.362 -0.4421  0.1668 -0.5559
 5521SOL    HW128196   2.079   2.584   5.344 -0.0935  0.0967  1.1075
 5521SOL    HW228197   2.012   2.644   5.457 -2.2305 -0.1441 -0.3153
 5522SOL     OW28198   4.626   3.630   3.014 -0.7313 -0.1522 -0.1812
 5522SOL    HW128199   4.552   3.570   3.010 -0.1169 -0.7367 -2.3491
 5522SOL    HW228200   4.698   3.567   3.017  0.3053  0.9787 -1.2161
 5523SOL     OW28201   3.361   2.136   2.030 -0.2997 -0.4333 -0.6605
 5523SOL    HW128202   3.334   2.188   2.106  1.2597 -0.8184  0.1712
 5523SOL    HW228203   3.405   2.199   1.974 -1.4247 -0.1657 -1.2440
 5524SOL     OW28204   3.821   2.371   1.296  0.5906 -0.3934  0.1498
 5524SOL    HW128205   3.915   2.386   1.302  0.6765 -0.8079 -0.2086
 5524SOL    HW228206   3.806   2.465   1.287 -1.3035 -0.9794 -3.1606
 5525SOL     OW28207   3.791   2.236   6.160  0.4958  0.2345 -0.2458
 5525SOL    HW128208   3.858   2.275   6.104  0.8443 -0.9130 -0.6123
 5525SOL    HW228209   3.838   2.156   6.182  1.9596  0.9317 -0.8256
 5526SOL     OW28210   4.329   3.794   7.635  0.7038 -0.2311 -0.7049
 5526SOL    HW128211   4.338   3.831   7.547 -0.6145 -1.3524 -1.2990
 5526SOL    HW228212   4.235   3.797   7.647  0.6825  0.1373 -0.9636
 5527SOL     OW28213   1.221   3.336   6.751 -0.6658 -0.2277 -0.3937
 5527SOL    HW128214   1.232   3.314   6.844 -1.8106 -1.1127 -0.4712
 5527SOL    HW228215   1.309   3.331   6.715 -0.3816  0.5007  0.1775
 5528SOL     OW28216   2.651   3.618   3.821 -0.2366 -0.5231 -0.0091
 5528SOL    HW128217   2.672   3.614   3.728 -0.0399  1.8752 -0.0858
 5528SOL    HW228218   2.567   3.574   3.814  0.2941 -1.5961  0.4286
 5529SOL     OW28219   1.089   4.698   7.625 -0.9019 -0.9658 -0.8957
 5529SOL    HW128220   1.073   0.006   7.540  1.1634  0.8008 -0.4173
 5529SOL    HW228221   1.177   4.663   7.607 -0.0567  0.6829  0.0495
 5530SOL     OW28222   3.627   2.033   5.325 -0.0321 -0.7166 -0.6327
 5530SOL    HW128223   3.690   1.963   5.342  1.1967  0.9432  1.5600
 5530SOL    HW228224   3.623   2.096   5.397  1.3963 -0.4694 -0.7716
 5531SOL     OW28225   0.629   3.159   5.443 -0.1988 -0.5265 -0.6549
 5531SOL    HW128226   0.567   3.195   5.381 -2.3095 -2.0798  0.5679
 5531SOL    HW228227   0.665   3.087   5.391  0.1828 -0.4111 -0.5563
 5532SOL     OW28228   2.182   3.225   2.544 -0.1443 -0.2397 -0.1617
 5532SOL    HW128229   2.102   3.274   2.561 -0.8688  0.0743 -4.5084
 5532SOL    HW228230   2.179   3.146   2.598 -0.7767 -0.6809 -0.8325
 5533SOL     OW28231   3.251   0.895  10.987 -0.5227 -0.4813 -0.0614
 5533SOL    HW128232   3.273   0.930  11.073  3.3788 -0.8965 -0.8850
 5533SOL    HW228233   3.206   0.971  10.950  0.1277  1.6960  3.6271
 5534SOL     OW28234   2.625   2.616   3.131 -0.0014  0.0803  0.3381
 5534SOL    HW128235   2.561   2.557   3.171 -0.3177  1.0251  1.1976
 5534SOL    HW228236   2.621   2.585   3.040  0.2925 -1.5837  0.8934
 5535SOL     OW28237   0.411   1.113   0.658  0.1788  0.5857  0.1954
 5535SOL    HW128238   0.500   1.077   0.654  0.3586  1.1319 -0.6599
 5535SOL    HW228239   0.353   1.044   0.625 -0.0054  1.7310 -1.8427
 5536SOL     OW28240   2.276   4.730   5.370 -0.7470  0.8470  0.5305
 5536SOL    HW128241   2.250   4.648   5.411 -0.9597  0.7230  0.1496
 5536SOL    HW228242   2.331   4.696   5.300 -1.7111  2.0377 -0.8268
 5537SOL     OW28243   1.079   2.881  17.318  0.4843 -0.2769  0.2543
 5537SOL    HW128244   1.138   2.955  17.304  0.2202 -0.0277  0.4602
 5537SOL    HW228245   1.046   2.873  17.229  2.7219  2.5967 -0.8039
 5538SOL     OW28246   4.308   1.983   6.753  0.6925  0.5310  0.2938
 5538SOL    HW128247   4.361   1.908   6.780  1.0084  1.1047  1.2782
 5538SOL    HW228248   4.282   1.952   6.667 -0.4173  1.3728  0.3165
 5539SOL     OW28249   4.574   2.650   7.500  0.1050 -0.0879 -0.3043
 5539SOL    HW128250   4.518   2.606   7.564 -0.2612 -1.2194 -1.4001
 5539SOL    HW228251   4.601   2.572   7.452 -3.1916 -1.1961 -0.3712
 5540SOL     OW28252   1.110   1.713   6.171 -0.3135 -0.4000  0.0867
 5540SOL    HW128253   1.110   1.753   6.084  0.6119 -0.6012 -0.0027
 5540SOL    HW228254   1.196   1.672   6.162  0.1364  0.6493 -0.4689
 5541SOL     OW28255   1.515   2.805   6.144 -0.5039  0.1814  0.0995
 5541SOL    HW128256   1.484   2.887   6.106  0.1996  0.1285 -0.5786
 5541SOL    HW228257   1.466   2.741   6.093  3.2454 -0.8851 -2.1320
 5542SOL     OW28258   1.087   1.609  13.756 -0.0934 -0.1587  0.3048
 5542SOL    HW128259   1.169   1.590  13.801  0.8542 -1.1272 -1.8254
 5542SOL    HW228260   1.046   1.676  13.812  1.6812  2.4228 -1.4622
 5543SOL     OW28261   3.639   2.455  15.600  0.6032  1.1974 -0.3737
 5543SOL    HW128262   3.636   2.427  15.691 -0.3312  2.4032 -0.0361
 5543SOL    HW228263   3.554   2.419  15.576  0.5439  1.8401 -1.1611
 5544SOL     OW28264   2.174   1.971   6.695  0.3131 -0.1389  0.0974
 5544SOL    HW128265   2.121   1.947   6.619 -0.4513  0.6084  0.3963
 5544SOL    HW228266   2.105   1.964   6.761  0.5063  1.0895  0.4218
 5545SOL     OW28267   3.446   0.792   6.155  0.2040 -0.3619 -0.4548
 5545SOL    HW128268   3.444   0.823   6.246 -1.8497  2.9940 -1.6480
 5545SOL    HW228269   3.473   0.701   6.170  1.5515  0.1264  0.1409
 5546SOL     OW28270   3.549   1.746  12.182  0.2555 -0.4662 -0.1685
 5546SOL    HW128271   3.588   1.659  12.192 -0.3028 -0.5293  1.3232
 5546SOL    HW228272   3.481   1.724  12.118 -1.5936 -1.5351  2.1951
 5547SOL     OW28273   3.836   2.839  17.143  0.3029  0.1935 -0.0900
 5547SOL    HW128274   3.786   2.794  17.211 -1.0166 -1.5522 -2.2181
 5547SOL    HW228275   3.861   2.923  17.182  0.6827 -0.1233  0.3453
 5548SOL     OW28276   4.144   2.460   7.642 -0.3390 -0.6292 -0.5577
 5548SOL    HW128277   4.099   2.521   7.699 -0.9856  0.4486 -2.2296
 5548SOL    HW228278   4.173   2.512   7.567 -0.5648  1.2859  0.6840
 5549SOL     OW28279   2.376   3.272  12.007  0.0766  0.5854 -0.2844
 5549SOL    HW128280   2.447   3.215  11.977  0.5647  0.9875  0.1048
 5549SOL    HW228281   2.419   3.355  12.027  0.7089 -0.0522  0.9605
 5550SOL     OW28282   1.615   0.134   0.401  0.4687 -0.1628 -0.3870
 5550SOL    HW128283   1.641   0.042   0.403  0.8071 -0.0679 -0.4067
 5550SOL    HW228284   1.575   0.154   0.485  1.3857  0.5994 -0.1296
 5551SOL     OW28285   1.444   0.226  12.298  0.1573  0.1768  0.0992
 5551SOL    HW128286   1.478   0.307  12.335 -0.8191  0.0597  1.2338
 5551SOL    HW228287   1.453   0.247  12.205  1.6781  2.6065  0.7971
 5552SOL     OW28288   3.656   4.685   2.518 -0.5085 -0.7474 -0.9893
 5552SOL    HW128289   3.586   4.646   2.466 -1.6479  0.9519 -0.7275
 5552SOL    HW228290   3.673   4.622   2.588 -2.0727  0.9775  0.9624
 5553SOL     OW28291   1.208   2.404   3.304 -0.3722 -0.3886 -0.2994
 5553SOL    HW128292   1.208   2.373   3.213 -2.2942 -0.4056 -0.2844
 5553SOL    HW228293   1.260   2.484   3.296 -0.2183 -0.5234 -0.6847
 5554SOL     OW28294   0.809   0.743   3.855 -0.0465  0.1276  0.2097
 5554SOL    HW128295   0.737   0.697   3.898  0.6324 -1.1755 -0.0485
 5554SOL    HW228296   0.881   0.747   3.918 -1.3792  2.0356  1.5949
 5555SOL     OW28297   0.357   1.896   4.409  0.6891 -0.1183  0.2908
 5555SOL    HW128298   0.303   1.908   4.487 -0.9076 -2.2389 -0.4817
 5555SOL    HW228299   0.313   1.819   4.373  2.1687 -1.1249  0.6155
 5556SOL     OW28300   2.549   4.559  11.868  0.5127 -0.0173  0.0038
 5556SOL    HW128301   2.481   4.515  11.816  0.8982  0.0655 -0.5700
 5556SOL    HW228302   2.586   4.480  11.907  1.0480 -0.0787 -0.6395
 5557SOL     OW28303   2.377   1.714   5.281 -0.5120 -0.6980 -0.4045
 5557SOL    HW128304   2.420   1.722   5.196  1.2083 -1.6518  0.3877
 5557SOL    HW228305   2.444   1.668   5.331  1.4352 -0.5965 -2.8885
 5558SOL     OW28306   2.296   1.040   9.459 -0.6544 -0.3207  0.1762
 5558SOL    HW128307   2.238   1.103   9.418 -1.7006 -0.9477  0.7039
 5558SOL    HW228308   2.285   0.961   9.406  2.9865 -0.7115  0.0173
 5559SOL     OW28309   0.290   3.461   5.556 -0.6290 -0.1446  0.0914
 5559SOL    HW128310   0.352   3.432   5.623  0.0858  0.5082 -0.2821
 5559SOL    HW228311   0.273   3.545   5.597 -0.0457  1.7054 -3.4802
 5560SOL     OW28312   3.724   3.916  11.444  0.0594 -0.5650  0.0408
 5560SOL    HW128313   3.777   3.845  11.408  0.9086 -0.3406  0.8240
 5560SOL    HW228314   3.738   3.982  11.376  0.6444  0.5385  1.2330
 5561SOL     OW28315   2.090   3.544  16.489  0.0011  0.1605  0.3959
 5561SOL    HW128316   2.055   3.633  16.476 -2.0703 -0.4779  1.5990
 5561SOL    HW228317   2.013   3.491  16.507  0.1531  0.1580  1.0365
 5562SOL     OW28318   2.554   0.324   2.592 -0.5586  0.5248 -0.2555
 5562SOL    HW128319   2.544   0.230   2.607 -1.1557  0.6628  0.2183
 5562SOL    HW228320   2.594   0.347   2.676  1.6321 -1.2390 -0.8212
 5563SOL     OW28321   3.204   1.039   6.198 -0.1727  0.0609  0.3073
 5563SOL    HW128322   3.255   1.106   6.153  3.0432 -1.8776  1.0881
 5563SOL    HW228323   3.221   0.973   6.130 -0.7749  0.3037 -0.0696
 5564SOL     OW28324   1.994   3.888   3.587  0.9882 -0.6810 -0.1649
 5564SOL    HW128325   1.915   3.833   3.585 -1.2352  2.6159 -2.9822
 5564SOL    HW228326   2.058   3.817   3.592  1.5537 -0.3526 -3.1532
 5565SOL     OW28327   1.413   0.482   6.433  0.0505  0.1137  0.3238
 5565SOL    HW128328   1.477   0.415   6.410 -0.8206 -1.4185  2.3165
 5565SOL    HW228329   1.336   0.425   6.438  0.0934  0.1408  1.3320
 5566SOL     OW28330   2.285   0.474  12.440  0.0718 -0.3330  0.5823
 5566SOL    HW128331   2.246   0.439  12.360  1.2374  0.1169 -0.1777
 5566SOL    HW228332   2.363   0.508  12.397 -1.7995  2.1439 -0.8639
 5567SOL     OW28333   2.593   2.194   1.304  0.6884 -0.6954 -0.0788
 5567SOL    HW128334   2.635   2.230   1.226  0.0677 -1.5595 -0.8185
 5567SOL    HW228335   2.634   2.251   1.369 -0.4308  0.1209 -0.1005
 5568SOL     OW28336   2.966   1.606   3.780  0.3729 -0.0332  0.1969
 5568SOL    HW128337   2.896   1.671   3.776  0.0987 -0.4704 -2.2485
 5568SOL    HW228338   3.040   1.663   3.798  0.6345  0.4052 -2.2443
 5569SOL     OW28339   3.537   1.617   7.580  0.3214 -0.1427  0.4515
 5569SOL    HW128340   3.624   1.655   7.571 -0.3151  0.9303 -1.2539
 5569SOL    HW228341   3.523   1.638   7.672  0.5138  2.4776 -0.1361
 5570SOL     OW28342   4.249   0.442   8.501  0.3918 -0.0813  0.6265
 5570SOL    HW128343   4.245   0.349   8.522  0.7544 -0.6110 -1.7030
 5570SOL    HW228344   4.249   0.478   8.590  0.5676  1.0025  0.1913
 5571SOL     OW28345   2.381   4.686   4.722  0.2042  0.4834 -0.4489
 5571SOL    HW128346   2.322   4.612   4.704 -0.8649  1.5516 -1.3987
 5571SOL    HW228347   2.425   4.692   4.637 -0.9441  0.0982 -1.0755
 5572SOL     OW28348   1.188   2.999   3.659 -0.0269  0.0460 -0.4929
 5572SOL    HW128349   1.147   2.913   3.646  0.5328 -0.2047 -0.6190
 5572SOL    HW228350   1.275   2.979   3.625 -1.4054 -0.5415 -3.6877
 5573SOL     OW28351   4.135   1.228   0.492  0.0658  0.1763  0.1476
 5573SOL    HW128352   4.103   1.257   0.406 -0.7652 -0.7004  0.1495
 5573SOL    HW228353   4.050   1.229   0.537 -0.1461  0.1823 -0.2490
 5574SOL     OW28354   3.620   2.614   9.918 -0.0905  0.3601  0.1606
 5574SOL    HW128355   3.705   2.571   9.912 -0.8089 -1.0799  0.2454
 5574SOL    HW228356   3.631   2.661  10.001  3.4526 -1.8954  0.9738
 5575SOL     OW28357   1.483   0.540  12.886  0.1922 -1.0625 -0.4377
 5575SOL    HW128358   1.456   0.479  12.955 -2.8439 -2.2548 -2.6652
 5575SOL    HW228359   1.496   0.474  12.817  0.1043  0.0523 -1.5063
 5576SOL     OW28360   0.430   2.077   6.108 -0.6122 -0.3013 -0.3414
 5576SOL    HW128361   0.366   2.119   6.050 -0.3804  3.8812  2.4233
 5576SOL    HW228362   0.431   1.989   6.071 -3.2378  0.0061 -1.1456
 5577SOL     OW28363   4.080   3.365  16.882 -0.1248  0.0219  0.0609
 5577SOL    HW128364   4.059   3.397  16.969 -2.8321  1.3398 -1.0608
 5577SOL    HW228365   4.064   3.271  16.888 -0.6706  0.2637  2.3138
 5578SOL     OW28366   3.195   4.285  13.957 -0.6889 -0.4094 -0.0649
 5578SOL    HW128367   3.224   4.240  13.878 -2.1734 -0.1097 -0.7804
 5578SOL    HW228368   3.201   4.207  14.012  1.1881 -0.2649 -0.0444
 5579SOL     OW28369   1.925   1.838  12.704 -0.7061  0.3152 -0.6090
 5579SOL    HW128370   1.922   1.856  12.798  3.2139 -1.1368 -0.2275
 5579SOL    HW228371   1.945   1.926  12.671 -1.5015  0.9810  0.7161
 5580SOL     OW28372   0.605   1.334   2.518  0.4186 -0.3048  0.2971
 5580SOL    HW128373   0.648   1.286   2.447  0.8976  0.4591  0.0782
 5580SOL    HW228374   0.577   1.261   2.574 -0.6122  1.2030  1.7511
 5581SOL     OW28375   3.767   3.984  14.025  0.0528 -0.3299 -0.4586
 5581SOL    HW128376   3.838   3.923  14.006  0.0773 -0.6454  0.6495
 5581SOL    HW228377   3.816   4.066  14.032  0.9261 -0.8551 -0.5035
 5582SOL     OW28378   1.302   0.116   4.872 -0.0741 -0.3961 -0.1978
 5582SOL    HW128379   1.396   0.131   4.859  0.0363 -0.5553  0.4111
 5582SOL    HW228380   1.299   0.020   4.877 -0.6757 -0.3407  0.3845
 5583SOL     OW28381   4.501   0.016   2.592 -0.1555 -0.3005 -0.1090
 5583SOL    HW128382   4.412   0.020   2.557 -0.9554  0.9472  2.0408
 5583SOL    HW228383   4.488   4.734   2.685  1.3807  1.0623  0.3501
 5584SOL     OW28384   3.966   2.361  16.932  0.3089  0.3727  0.4419
 5584SOL    HW128385   4.036   2.418  16.964  0.9581 -0.2205  0.0510
 5584SOL    HW228386   4.013   2.280  16.913  0.2776  0.1744  1.2252
 5585SOL     OW28387   0.954   2.329   5.762  0.1222 -0.0626 -0.3212
 5585SOL    HW128388   0.915   2.416   5.767  2.4176  0.8007  2.7969
 5585SOL    HW228389   0.896   2.283   5.701  0.2511 -1.1938  0.3982
 5586SOL     OW28390   0.918   1.120   3.043  0.1928 -0.2113 -0.0586
 5586SOL    HW128391   0.878   1.200   3.009  1.4170  0.7835  0.8590
 5586SOL    HW228392   0.849   1.062   3.012  0.0460 -0.1527  0.1615
 5587SOL     OW28393   2.286   2.220   7.606 -0.0992  0.5635  0.5796
 5587SOL    HW128394   2.296   2.298   7.661  1.6016  0.4836  0.4023
 5587SOL    HW228395   2.195   2.233   7.580 -0.1858 -1.2072 -0.0056
 5588SOL     OW28396   3.563   0.141   6.021  0.2398 -0.8931  0.1700
 5588SOL    HW128397   3.520   0.071   6.070 -1.0299 -1.1558 -1.3111
 5588SOL    HW228398   3.655   0.122   6.041  0.0163 -0.8180  1.2726
 5589SOL     OW28399   1.085   0.559  16.396 -0.0249  0.1151 -0.4341
 5589SOL    HW128400   1.041   0.548  16.312 -1.9679  1.6581  0.3645
 5589SOL    HW228401   1.018   0.541  16.463 -0.6272  0.1737 -1.0236
 5590SOL     OW28402   3.166   1.357  15.297  0.3345  0.4536 -0.2780
 5590SOL    HW128403   3.228   1.307  15.244  1.2437 -0.4346  1.6437
 5590SOL    HW228404   3.130   1.292  15.356 -0.2680  1.4039  0.3921
 5591SOL     OW28405   2.399   0.074   5.918  0.3113  0.1229  0.4645
 5591SOL    HW128406   2.319   0.120   5.895 -0.6815 -0.1161  3.3386
 5591SOL    HW228407   2.435   0.027   5.843 -0.5244 -1.0006  0.7600
 5592SOL     OW28408   2.129   0.096   8.576 -0.0180  0.0761  0.6636
 5592SOL    HW128409   2.190   0.033   8.616  1.8283 -0.2049 -2.6189
 5592SOL    HW228410   2.184   0.168   8.608 -0.3463  0.1916  0.9585
 5593SOL     OW28411   2.646   1.533   8.576  0.0317  0.4775  0.1248
 5593SOL    HW128412   2.723   1.586   8.599  0.1172 -0.1240  1.1978
 5593SOL    HW228413   2.662   1.463   8.639 -0.5767 -0.8852 -1.2381
 5594SOL     OW28414   2.638   0.749  11.377 -0.2098  0.0940 -0.2736
 5594SOL    HW128415   2.629   0.838  11.342  2.4789  0.0376 -1.0939
 5594SOL    HW228416   2.679   0.712  11.299  1.1268  0.4570  0.2572
 5595SOL     OW28417   3.475   3.400   4.543  0.0752 -0.7322 -0.2878
 5595SOL    HW128418   3.412   3.380   4.474  0.3860 -0.3964 -0.6711
 5595SOL    HW228419   3.548   3.444   4.499  0.2993  0.2748  1.0632
 5596SOL     OW28420   4.257   3.563   3.931  0.0066  0.1581 -0.2688
 5596SOL    HW128421   4.195   3.635   3.925  0.8523  0.7923 -1.3963
 5596SOL    HW228422   4.318   3.583   3.860 -1.7587  0.3663 -1.6977
 5597SOL     OW28423   0.719   0.875  16.676 -0.2236 -0.5087  0.1093
 5597SOL    HW128424   0.717   0.970  16.660 -2.0163 -0.4706  0.5964
 5597SOL    HW228425   0.671   0.872  16.759 -0.6631  1.4996 -0.0733
 5598SOL     OW28426   4.522   3.903   3.114  0.1256 -0.2747  0.7593
 5598SOL    HW128427   4.533   3.826   3.060 -1.4523  1.0040 -1.3883
 5598SOL    HW228428   4.460   3.867   3.178 -0.8812 -1.2926 -0.7998
 5599SOL     OW28429   2.569   4.004   9.462 -0.4930  0.0073  0.0978
 5599SOL    HW128430   2.523   3.935   9.510 -1.8712  0.7191 -0.1986
 5599SOL    HW228431   2.509   4.079   9.459 -1.6959 -0.8434  2.4211
 5600SOL     OW28432   3.549   4.166   7.105 -0.0836 -0.0270  0.7548
 5600SOL    HW128433   3.624   4.223   7.091  0.8249 -1.5009 -0.3936
 5600SOL    HW228434   3.578   4.096   7.047  0.5624  0.7314  0.1674
 5601SOL     OW28435   1.700   4.728   8.544 -0.5048 -0.4018 -0.2049
 5601SOL    HW128436   1.713   4.652   8.486 -0.6774 -1.2963  0.9276
 5601SOL    HW228437   1.653   4.688   8.617  1.1639 -3.2854 -0.7068
 5602SOL     OW28438   1.627   2.373   9.079 -0.0335  0.5200  0.4928
 5602SOL    HW128439   1.613   2.458   9.121  0.0879  1.2357 -0.9352
 5602SOL    HW228440   1.560   2.377   9.012 -0.3076  2.3224  0.8674
 5603SOL     OW28441   0.796   4.496   4.709 -0.0767  0.7085  0.2105
 5603SOL    HW128442   0.784   4.465   4.620 -3.0319 -0.5506  1.0391
 5603SOL    HW228443   0.709   4.529   4.733  0.1820  2.4001 -1.1698
 5604SOL     OW28444   4.176   3.754   5.415  0.0763 -0.1255  0.7708
 5604SOL    HW128445   4.087   3.742   5.382 -0.0836  0.5852  0.9321
 5604SOL    HW228446   4.183   3.692   5.487 -0.0135  0.1791  1.0406
 5605SOL     OW28447   1.916   3.155   1.443 -0.1921  0.7903  0.3772
 5605SOL    HW128448   1.947   3.105   1.519  2.5895  0.4070 -1.0237
 5605SOL    HW228449   1.974   3.134   1.371 -1.3870 -1.7213  0.1548
 5606SOL     OW28450   3.949   2.109   4.725 -0.0111 -0.1281 -0.0658
 5606SOL    HW128451   3.924   2.166   4.652 -2.3442 -0.1533  0.7128
 5606SOL    HW228452   3.926   2.025   4.685  0.0342  0.7040 -1.8352
 5607SOL     OW28453   3.122   0.705   2.578  0.5034 -0.3153 -0.2196
 5607SOL    HW128454   3.160   0.790   2.555 -0.2587 -0.5327 -2.3883
 5607SOL    HW228455   3.089   0.668   2.496 -1.2618  4.1645 -1.5596
 5608SOL     OW28456   4.446   3.846   1.383 -0.2981  0.0943  0.1962
 5608SOL    HW128457   4.489   3.900   1.316 -1.2531 -1.6276 -1.7875
 5608SOL    HW228458   4.509   3.774   1.376 -1.4572 -0.9086  0.0509
 5609SOL     OW28459   4.272   4.447  10.493  0.1069 -0.0525  0.0965
 5609SOL    HW128460   4.305   4.359  10.473 -1.4067 -1.0444  1.9938
 5609SOL    HW228461   4.343   4.501  10.458  0.7055 -2.0420 -1.8213
 5610SOL     OW28462   4.173   3.965   6.568  0.2013  0.2661 -0.4956
 5610SOL    HW128463   4.249   3.995   6.618  0.3155 -2.1477  0.7860
 5610SOL    HW228464   4.181   3.870   6.582 -0.7973 -0.0289 -1.8910
 5611SOL     OW28465   0.649   3.148   2.054 -0.5251  0.3062  0.4102
 5611SOL    HW128466   0.561   3.142   2.018 -0.2476  1.5095 -0.4490
 5611SOL    HW228467   0.625   3.106   2.137 -0.0819 -0.5710  0.0933
 5612SOL     OW28468   2.044   3.669   6.193 -0.4883 -0.3011 -0.3653
 5612SOL    HW128469   2.109   3.616   6.240 -0.6999 -1.2065 -1.0846
 5612SOL    HW228470   2.090   3.703   6.116  1.2294 -0.4174  0.6159
 5613SOL     OW28471   3.813   1.550   6.247 -0.1298  0.2548  0.6067
 5613SOL    HW128472   3.802   1.456   6.264  0.8878  0.0843  0.3064
 5613SOL    HW228473   3.753   1.564   6.174 -0.9197 -0.5131  1.1121
 5614SOL     OW28474   2.261   2.213   3.721  0.0544  0.5998  0.1182
 5614SOL    HW128475   2.347   2.171   3.715 -1.0098 -1.4933 -0.2864
 5614SOL    HW228476   2.297   2.299   3.745  1.4616  0.5765 -1.8384
 5615SOL     OW28477   1.554   3.216   7.524 -0.1163 -0.6201 -0.8327
 5615SOL    HW128478   1.642   3.182   7.509  0.9011  1.6452  0.0400
 5615SOL    HW228479   1.526   3.249   7.438  1.4156 -0.7330 -1.3850
 5616SOL     OW28480   3.880   3.688   0.972 -0.1194  0.5493  0.0564
 5616SOL    HW128481   3.908   3.703   1.062 -0.1511 -0.2707  0.2079
 5616SOL    HW228482   3.843   3.773   0.950 -0.5899  0.2439 -0.3266
 5617SOL     OW28483   3.179   2.910   9.516  0.0182 -0.6026  0.1728
 5617SOL    HW128484   3.094   2.889   9.476 -0.5149  1.2260  0.3570
 5617SOL    HW228485   3.146   2.982   9.569  1.1132 -0.3452  0.4992
 5618SOL     OW28486   1.574   2.457   8.265  0.4358 -0.2393 -0.2295
 5618SOL    HW128487   1.668   2.466   8.250  0.2085 -1.7700 -2.6142
 5618SOL    HW228488   1.555   2.441   8.358  0.4307  1.0912 -0.0102
 5619SOL     OW28489   3.944   2.017   3.208  0.2119  0.5262  0.4589
 5619SOL    HW128490   3.916   1.926   3.222 -0.7065  0.5971 -0.8920
 5619SOL    HW228491   3.864   2.069   3.215 -1.5656 -2.4058  1.9125
 5620SOL     OW28492   0.600   0.808  13.100 -0.3589 -0.1015 -0.1839
 5620SOL    HW128493   0.556   0.751  13.036  1.5337 -1.6294 -0.1439
 5620SOL    HW228494   0.667   0.743  13.123 -0.0184  0.0661 -0.6931
 5621SOL     OW28495   0.143   0.961  13.619  0.0872 -0.6668  0.5837
 5621SOL    HW128496   0.216   1.020  13.640  0.9651 -0.7552 -2.2200
 5621SOL    HW228497   0.127   0.980  13.527 -1.8631  0.4509  1.1549
 5622SOL     OW28498   4.547   1.444   7.336 -0.5099 -0.1487  0.3147
 5622SOL    HW128499   4.640   1.464   7.350 -0.4968  0.4575 -0.6450
 5622SOL    HW228500   4.515   1.533   7.352  3.2281  0.7558  3.0028
 5623SOL     OW28501   2.911   2.413   7.687 -0.5687  0.1873  0.0625
 5623SOL    HW128502   2.834   2.393   7.635 -1.5613 -1.3257  2.1673
 5623SOL    HW228503   2.916   2.509   7.679 -0.2899  0.2177  0.6182
 5624SOL     OW28504   4.450   1.273   7.516 -0.4925 -0.3791  1.0508
 5624SOL    HW128505   4.388   1.340   7.545 -0.8387 -0.0779 -0.3494
 5624SOL    HW228506   4.499   1.324   7.451  0.9493 -0.2037  2.2865
 5625SOL     OW28507   3.271   3.238  10.518  0.3127 -0.6338 -0.0516
 5625SOL    HW128508   3.366   3.241  10.517  0.3673 -2.6427 -1.6994
 5625SOL    HW228509   3.246   3.330  10.502  2.1707 -0.2412 -0.7008
 5626SOL     OW28510   3.257   1.926   5.541  0.1116 -0.7722  0.1946
 5626SOL    HW128511   3.212   1.970   5.468  1.2671 -2.5208 -1.5612
 5626SOL    HW228512   3.223   1.838   5.530 -0.4561 -0.3378 -1.5674
 5627SOL     OW28513   2.864   0.144   3.535 -0.0194  0.8921 -0.3455
 5627SOL    HW128514   2.882   0.144   3.441  0.1207  0.1509 -0.3216
 5627SOL    HW228515   2.769   0.151   3.542 -0.1098  1.3531 -2.0041
 5628SOL     OW28516   2.076   0.466   6.431 -0.2110 -0.1850 -0.8671
 5628SOL    HW128517   2.143   0.403   6.404  1.0033  0.4382  0.7382
 5628SOL    HW228518   2.118   0.551   6.421 -0.3703  0.1497  1.3463
 5629SOL     OW28519   3.863   0.248  15.297 -0.8488  0.0759  0.0944
 5629SOL    HW128520   3.776   0.288  15.290 -0.5422  0.8639  0.8460
 5629SOL    HW228521   3.886   0.255  15.390  0.3413  2.6077 -0.4114
 5630SOL     OW28522   0.384   4.001   9.363 -0.1145  0.1646  0.0702
 5630SOL    HW128523   0.444   4.073   9.383 -1.6608  1.2643  0.7310
 5630SOL    HW228524   0.417   3.939   9.427 -0.4467  1.6722  1.7050
 5631SOL     OW28525   0.046   1.768  16.502  0.0057  0.3829 -0.7485
 5631SOL    HW128526   0.135   1.803  16.499  0.6714 -0.9544  2.6350
 5631SOL    HW228527   0.010   1.790  16.588  0.1625  0.0625 -0.5988
 5632SOL     OW28528   3.884   0.903   1.866  0.1201 -0.4370  0.3356
 5632SOL    HW128529   3.941   0.851   1.923 -1.2697 -0.2518  1.8853
 5632SOL    HW228530   3.944   0.972   1.838 -2.7137  2.2171  0.9088
 5633SOL     OW28531   3.900   3.590   4.585 -0.0944 -0.4478  0.3141
 5633SOL    HW128532   3.959   3.525   4.624  0.2829 -0.6209 -0.5323
 5633SOL    HW228533   3.964   3.649   4.546 -0.8540 -0.0598 -0.3540
 5634SOL     OW28534   4.354   2.491   5.564 -0.2120  0.2697 -0.3570
 5634SOL    HW128535   4.337   2.400   5.538 -0.1826  0.0805  0.2761
 5634SOL    HW228536   4.308   2.490   5.648  2.6149  0.6877  1.1933
 5635SOL     OW28537   4.337   1.635   7.367  0.2632  0.1601  0.7625
 5635SOL    HW128538   4.340   1.712   7.423 -0.5781 -0.1723  1.2664
 5635SOL    HW228539   4.245   1.621   7.345  0.4859  1.5892 -1.0641
 5636SOL     OW28540   3.024   0.492   6.858  0.0019  0.2161  0.0755
 5636SOL    HW128541   2.933   0.468   6.846  0.9969 -2.3078 -2.3024
 5636SOL    HW228542   3.068   0.441   6.790  1.6839  1.0676  0.5156
 5637SOL     OW28543   3.642   3.264  14.858 -0.0046 -0.0847 -0.1442
 5637SOL    HW128544   3.600   3.205  14.794  1.8041 -1.3926 -0.1208
 5637SOL    HW228545   3.730   3.266  14.822 -0.0374  2.1432 -0.0942
 5638SOL     OW28546   3.787   3.614   3.409 -0.3389  0.2378 -1.1735
 5638SOL    HW128547   3.873   3.575   3.427 -0.1980  1.2463  0.2918
 5638SOL    HW228548   3.737   3.580   3.482  0.8493 -1.9678 -1.3663
 5639SOL     OW28549   0.881   4.095   6.309  0.3406  0.7776  0.2075
 5639SOL    HW128550   0.904   4.119   6.399 -1.3101 -1.3507  1.1898
 5639SOL    HW228551   0.899   4.173   6.257 -0.7827  0.9547  0.0832
 5640SOL     OW28552   1.497   1.198   3.532  0.0566  0.5336 -0.4918
 5640SOL    HW128553   1.523   1.152   3.453  0.0947 -0.3203  0.0196
 5640SOL    HW228554   1.418   1.245   3.505 -1.7986 -1.9996  0.5510
 5641SOL     OW28555   3.786   1.975   1.847 -0.4761 -0.8430  0.3126
 5641SOL    HW128556   3.845   1.900   1.845  1.9586  1.1320 -1.0146
 5641SOL    HW228557   3.762   1.978   1.755  0.1088  0.3584  0.1968
 5642SOL     OW28558   4.093   2.805   4.171  0.1166 -0.7072  0.2525
 5642SOL    HW128559   4.010   2.828   4.212  0.6003  0.5141  0.5527
 5642SOL    HW228560   4.160   2.855   4.218  1.8148 -0.2794 -2.5887
 5643SOL     OW28561   0.115   3.521   8.818  0.2813  0.3382  0.3680
 5643SOL    HW128562   0.134   3.597   8.764 -1.2150  1.0589  0.8492
 5643SOL    HW228563   0.098   3.454   8.752  1.9671  0.0436  0.2351
 5644SOL     OW28564   2.981   0.078  15.851  0.1386 -0.1104  0.1875
 5644SOL    HW128565   2.892   0.056  15.824  0.7872 -2.2932 -0.1690
 5644SOL    HW228566   2.970   0.166  15.887  0.6101  0.8007 -1.8685
 5645SOL     OW28567   3.593   4.199   3.780  0.2214 -0.0477 -0.4482
 5645SOL    HW128568   3.674   4.195   3.731  1.9228  0.6201  2.2937
 5645SOL    HW228569   3.566   4.114   3.747 -0.0398  0.1602 -0.7786
 5646SOL     OW28570   1.847   0.114  14.626 -0.1075  0.0082  0.1607
 5646SOL    HW128571   1.914   0.182  14.634  0.3213  0.0118 -3.3025
 5646SOL    HW228572   1.844   0.102  14.531 -0.3126  1.4144 -0.0138
 5647SOL     OW28573   1.096   0.909   6.394 -0.6026 -0.0244 -0.3092
 5647SOL    HW128574   1.112   0.880   6.304  3.4094  2.3724 -0.3435
 5647SOL    HW228575   1.062   0.826   6.430  0.3561 -0.2622  0.0523
 5648SOL     OW28576   3.455   0.146  10.788  0.1532  0.3580 -0.1120
 5648SOL    HW128577   3.511   0.223  10.779  0.2862  0.2150 -0.5264
 5648SOL    HW228578   3.509   0.075  10.754  1.1355  1.0801 -0.0587
 5649SOL     OW28579   1.993   4.640   2.562 -0.0495  0.3360 -0.3273
 5649SOL    HW128580   2.073   4.679   2.597 -0.8311  2.2882 -0.7013
 5649SOL    HW228581   2.001   4.645   2.467  0.7211 -1.0314 -0.3338
 5650SOL     OW28582   2.319   1.800  12.016 -0.2514 -0.4461  0.5963
 5650SOL    HW128583   2.372   1.879  12.031  0.2560 -1.0066  1.7208
 5650SOL    HW228584   2.289   1.780  12.105  0.6817  1.0337  1.2542
 5651SOL     OW28585   1.530   1.366   6.075  0.2171 -0.3448 -0.4024
 5651SOL    HW128586   1.580   1.430   6.125 -1.1540 -0.0866  0.6455
 5651SOL    HW228587   1.442   1.404   6.082  0.8084  0.5415  2.4897
 5652SOL     OW28588   1.589   2.045   7.956 -0.4605 -0.5062 -0.0076
 5652SOL    HW128589   1.495   2.029   7.949 -0.2883 -1.6736  0.3910
 5652SOL    HW228590   1.622   1.995   8.031 -0.4393 -0.5811 -0.0680
 5653SOL     OW28591   2.257   0.456  16.845 -0.3745  0.0958  0.2796
 5653SOL    HW128592   2.266   0.445  16.751 -1.6974 -0.7352  0.2432
 5653SOL    HW228593   2.263   0.367  16.880  0.5517 -0.1811 -0.5707
 5654SOL     OW28594   3.691   3.054   4.936 -0.4111  1.0318 -0.2103
 5654SOL    HW128595   3.683   2.961   4.917 -0.8152  0.8352  0.9302
 5654SOL    HW228596   3.668   3.072   5.027 -2.2579  0.5483 -0.5884
 5655SOL     OW28597   1.169   1.126   6.739 -0.1963  0.0426  0.2833
 5655SOL    HW128598   1.220   1.106   6.661 -0.6473 -2.6453  0.6572
 5655SOL    HW228599   1.233   1.169   6.796 -1.0513 -0.9487  1.9785
 5656SOL     OW28600   2.464   0.984  16.208  0.7933 -0.4243 -0.3176
 5656SOL    HW128601   2.511   1.043  16.149  2.2761 -1.2209  0.0736
 5656SOL    HW228602   2.501   1.023  16.287  0.0211  0.1991 -0.2649
 5657SOL     OW28603   1.211   4.202   8.616  0.5644  0.4028 -0.6374
 5657SOL    HW128604   1.271   4.131   8.592  0.5646 -0.7498  2.7299
 5657SOL    HW228605   1.161   4.205   8.535 -2.1679 -1.7705  0.9629
 5658SOL     OW28606   1.814   3.833   1.332  0.1778 -0.9013 -0.1577
 5658SOL    HW128607   1.733   3.816   1.382  0.3750 -1.3566  0.0086
 5658SOL    HW228608   1.871   3.771   1.377  0.4107  0.4928  1.4737
 5659SOL     OW28609   4.250   4.171   3.396  0.5084 -0.0896 -0.4944
 5659SOL    HW128610   4.230   4.257   3.432 -0.8061 -0.8174  0.4910
 5659SOL    HW228611   4.344   4.185   3.379  0.6910  1.3938  1.7287
 5660SOL     OW28612   1.234   3.352   6.005  0.1335 -0.1639 -0.2078
 5660SOL    HW128613   1.275   3.266   6.004 -1.0499 -0.7321  1.3122
 5660SOL    HW228614   1.185   3.348   6.087  1.3882 -0.7039  0.5117
 5661SOL     OW28615   3.916   1.388   5.178  0.2449 -0.3894  0.0908
 5661SOL    HW128616   3.959   1.325   5.235  1.4954  0.8761  0.5567
 5661SOL    HW228617   3.829   1.389   5.218  0.6284 -0.1057  0.9192
 5662SOL     OW28618   2.935   0.215   5.007  0.0964 -0.2088  0.3302
 5662SOL    HW128619   3.022   0.249   5.023  1.1204 -2.4965 -0.3533
 5662SOL    HW228620   2.881   0.255   5.075  0.4396  0.5276  0.1589
 5663SOL     OW28621   1.597   4.537  15.847 -0.1617  0.5705 -0.5154
 5663SOL    HW128622   1.537   4.585  15.903  0.3172 -1.3743  1.6400
 5663SOL    HW228623   1.556   4.451  15.840 -0.2597  0.6700 -1.1927
 5664SOL     OW28624   1.745   3.171   0.812 -0.0930  0.1776  0.0421
 5664SOL    HW128625   1.778   3.089   0.775 -0.1554  0.1751 -0.0071
 5664SOL    HW228626   1.694   3.150   0.890 -0.2911  2.1274  0.4405
 5665SOL     OW28627   3.263   3.957   7.134  0.4356 -0.1845 -0.3699
 5665SOL    HW128628   3.281   3.914   7.050 -0.5888  0.3729 -0.8831
 5665SOL    HW228629   3.349   3.950   7.174  1.0024  2.1189 -1.1762
 5666SOL     OW28630   2.556   2.211   4.170  0.1521  0.2132  0.0617
 5666SOL    HW128631   2.581   2.303   4.183  2.5084 -0.5143  0.7108
 5666SOL    HW228632   2.514   2.212   4.084  2.3747 -1.5345 -1.0296
 5667SOL     OW28633   2.610   1.135   8.354 -0.1624 -0.0670  0.2269
 5667SOL    HW128634   2.593   1.086   8.434  0.1385 -2.4806 -1.1913
 5667SOL    HW228635   2.568   1.074   8.294 -0.3517 -1.5735  1.9038
 5668SOL     OW28636   1.311   1.295   7.556 -0.3579  0.0821 -0.1016
 5668SOL    HW128637   1.325   1.324   7.466 -0.0650  1.4800  0.3953
 5668SOL    HW228638   1.229   1.248   7.537 -1.1330  0.8502  1.3732
 5669SOL     OW28639   2.208   1.545   4.277  0.3022 -0.3429 -0.2319
 5669SOL    HW128640   2.160   1.491   4.341 -0.7448 -1.3717 -1.8899
 5669SOL    HW228641   2.177   1.503   4.197 -2.3323  0.3280  0.4241
 5670SOL     OW28642   1.137   4.715  14.918  0.0712  0.2186  0.0754
 5670SOL    HW128643   1.119   0.046  14.851  1.2617 -0.3695 -0.8260
 5670SOL    HW228644   1.101   0.021  14.996 -0.3474  0.9596 -0.5020
 5671SOL     OW28645   0.463   3.911   5.949 -0.1044 -0.4309  0.3471
 5671SOL    HW128646   0.450   3.895   6.042  0.2429  0.1047  0.4929
 5671SOL    HW228647   0.374   3.900   5.916 -0.6049  0.4822  1.3920
 5672SOL     OW28648   1.711   0.745  12.304  0.4178  0.2755 -0.4997
 5672SOL    HW128649   1.771   0.712  12.237  0.1753 -1.1011 -0.0425
 5672SOL    HW228650   1.675   0.660  12.331  0.5088  0.6062  0.6532
 5673SOL     OW28651   2.925   3.086  16.857  0.3852  0.1494  0.0514
 5673SOL    HW128652   2.871   3.131  16.793  0.6975  1.3867  0.6436
 5673SOL    HW228653   3.007   3.136  16.865  1.2662 -1.2654 -0.0503
 5674SOL     OW28654   0.820   1.433   3.576  0.0681  0.5679 -0.3662
 5674SOL    HW128655   0.872   1.499   3.530  0.8202  0.9364  0.9930
 5674SOL    HW228656   0.891   1.377   3.607  0.3153  1.8380  1.3519
 5675SOL     OW28657   2.847   3.194   1.288  0.3472 -0.1841  0.3273
 5675SOL    HW128658   2.928   3.221   1.333 -0.3541  0.5117  1.1821
 5675SOL    HW228659   2.796   3.275   1.286  1.2860  0.4975  3.1255
 5676SOL     OW28660   1.569   2.833   1.660  0.6156  0.2690  0.1929
 5676SOL    HW128661   1.473   2.842   1.654  0.6587 -1.3516 -3.1446
 5676SOL    HW228662   1.604   2.860   1.575  1.9815  1.4907  1.1541
 5677SOL     OW28663   4.647   2.940  16.436 -0.1664 -0.0195  0.2512
 5677SOL    HW128664   4.719   2.881  16.413 -2.2235 -1.3310 -2.8225
 5677SOL    HW228665   4.587   2.880  16.479 -0.9352  0.3473 -0.3120
 5678SOL     OW28666   4.098   2.430  15.850 -0.1922  0.6169 -0.2109
 5678SOL    HW128667   4.119   2.505  15.905 -1.2815  0.5553  0.2978
 5678SOL    HW228668   4.008   2.409  15.874  0.2468 -0.1051  0.8236
 5679SOL     OW28669   3.656   2.150   0.442 -0.3185 -0.1284 -0.0519
 5679SOL    HW128670   3.590   2.092   0.480  0.2244 -0.8813 -0.2793
 5679SOL    HW228671   3.726   2.134   0.505 -1.4654 -1.4863  0.8736
 5680SOL     OW28672   2.839   0.779   6.572 -0.0926 -0.1747  0.1764
 5680SOL    HW128673   2.808   0.780   6.481 -0.4611  2.3166  0.3273
 5680SOL    HW228674   2.764   0.741   6.618  1.6041 -1.3796  1.9401
 5681SOL     OW28675   2.167   3.718  12.565 -0.0716  0.1892 -0.1010
 5681SOL    HW128676   2.115   3.683  12.637 -0.9113  1.1552 -0.2458
 5681SOL    HW228677   2.256   3.700  12.596 -0.7196 -3.2801 -0.2550
 5682SOL     OW28678   3.670   2.711  16.817 -0.2938  0.5287 -0.2498
 5682SOL    HW128679   3.585   2.716  16.772 -3.1515  0.2256  5.1892
 5682SOL    HW228680   3.679   2.798  16.855  0.6541  0.6144 -0.6610
 5683SOL     OW28681   1.915   3.099  13.167  0.7324  0.4229 -0.2456
 5683SOL    HW128682   1.992   3.120  13.220 -2.5528  1.0403  4.3272
 5683SOL    HW228683   1.950   3.045  13.096  0.8162 -0.7124  0.6550
 5684SOL     OW28684   1.183   4.583   4.039 -0.2849  0.0370  0.6204
 5684SOL    HW128685   1.130   4.504   4.035 -0.6129  0.2547  0.6820
 5684SOL    HW228686   1.123   4.631   3.982  0.3656 -0.2443 -0.3093
 5685SOL     OW28687   2.539   4.581  17.215 -0.1185  0.3512 -0.1390
 5685SOL    HW128688   2.501   4.521  17.278  2.0877  0.6111  1.4430
 5685SOL    HW228689   2.631   4.575  17.241 -0.0524  0.8277 -0.2512
 5686SOL     OW28690   2.001   4.669   1.882 -0.1079  0.1044 -0.4562
 5686SOL    HW128691   2.056   4.591   1.875 -1.6014 -0.9834 -0.1217
 5686SOL    HW228692   1.921   4.646   1.834 -1.2395  0.1334  1.3953
 5687SOL     OW28693   3.256   1.123   2.362  0.2031 -0.6463  0.1376
 5687SOL    HW128694   3.345   1.114   2.327  0.0603  0.0109 -0.4068
 5687SOL    HW228695   3.247   1.051   2.424  0.0954 -2.1486 -1.6349
 5688SOL     OW28696   1.458   4.263   1.612 -0.4502  0.2418  0.2289
 5688SOL    HW128697   1.525   4.257   1.544 -2.1993 -1.0374 -1.3912
 5688SOL    HW228698   1.482   4.351   1.639 -1.4277  0.2256  1.1778
 5689SOL     OW28699   3.462   1.623  16.893 -0.1651 -0.2387 -0.2457
 5689SOL    HW128700   3.504   1.537  16.897  2.4790  1.0174 -1.0417
 5689SOL    HW228701   3.368   1.603  16.892 -0.1880 -0.0989 -0.5888
 5690SOL     OW28702   0.396   1.440   1.377  0.4587  0.0304  0.5208
 5690SOL    HW128703   0.402   1.534   1.390 -1.3738 -0.0131  1.6490
 5690SOL    HW228704   0.374   1.438   1.284 -0.8032  1.2955  0.7905
 5691SOL     OW28705   4.677   1.245   7.048 -0.1864  0.2483 -0.0303
 5691SOL    HW128706   4.627   1.213   6.973  0.1545 -0.5697  0.0830
 5691SOL    HW228707   4.673   1.165   7.101 -0.7673 -0.3393 -0.9777
 5692SOL     OW28708   3.788   4.321   7.145  0.3415  0.3423  0.3118
 5692SOL    HW128709   3.799   4.408   7.107  0.5860  0.8119  1.4686
 5692SOL    HW228710   3.864   4.269   7.118  1.1586  1.9901 -0.5567
 5693SOL     OW28711   2.449   2.475   8.766  0.1237 -0.3489 -0.6110
 5693SOL    HW128712   2.493   2.391   8.752  1.8094  0.4044  0.0638
 5693SOL    HW228713   2.447   2.513   8.679  0.1594 -1.0042 -0.9019
 5694SOL     OW28714   4.073   3.408   5.985  0.7628 -0.1888  0.0734
 5694SOL    HW128715   4.001   3.468   5.964  0.5641 -0.9133 -1.2631
 5694SOL    HW228716   4.052   3.332   5.930  0.8924  1.0522 -1.6886
 5695SOL     OW28717   3.804   3.880   5.770 -0.5365 -0.3558 -0.2667
 5695SOL    HW128718   3.783   3.948   5.834  0.3439 -2.1921  1.9535
 5695SOL    HW228719   3.730   3.891   5.711  1.0311  3.3681 -1.5713
 5696SOL     OW28720   4.340   1.773   4.585 -0.2416  0.0557 -0.0238
 5696SOL    HW128721   4.406   1.834   4.552  0.2850 -0.4771  0.0349
 5696SOL    HW228722   4.357   1.777   4.679  0.2224  0.2545 -0.1168
 5697SOL     OW28723   3.715   0.337   5.002  0.3701  0.6392  0.0505
 5697SOL    HW128724   3.701   0.431   5.015  0.1940  0.9400 -2.2580
 5697SOL    HW228725   3.782   0.309   5.063  0.2562 -0.7365 -0.4704
 5698SOL     OW28726   1.769   3.364   4.933 -0.2472  0.1296  0.4334
 5698SOL    HW128727   1.835   3.415   4.886 -0.0992 -0.3968  0.0683
 5698SOL    HW228728   1.794   3.380   5.024 -0.2894 -1.7202  0.7764
 5699SOL     OW28729   0.219   0.153  11.813  0.0871  0.2348  0.4895
 5699SOL    HW128730   0.206   0.237  11.856  0.5501  0.4755  0.1667
 5699SOL    HW228731   0.127   0.129  11.804  0.2499 -0.6291  1.1751
 5700SOL     OW28732   3.303   0.510  15.702 -0.1499 -0.1679  0.2243
 5700SOL    HW128733   3.393   0.520  15.673  0.1200 -2.8711  0.1228
 5700SOL    HW228734   3.290   0.415  15.710  0.3817 -0.3977 -1.7238
 5701SOL     OW28735   3.546   1.561   8.603 -0.1952 -0.0246  0.0704
 5701SOL    HW128736   3.456   1.581   8.575 -0.0342 -2.1209 -1.9026
 5701SOL    HW228737   3.521   1.504   8.675  0.4179 -1.3460 -0.7643
 5702SOL     OW28738   3.513   2.283  14.985 -0.2046 -0.3086  0.2312
 5702SOL    HW128739   3.593   2.299  14.935 -0.6070 -2.8887 -1.2251
 5702SOL    HW228740   3.494   2.191  14.966 -1.3591  0.0560 -0.4092
 5703SOL     OW28741   3.504   2.681   4.100  0.6160 -0.3968 -0.0907
 5703SOL    HW128742   3.509   2.771   4.130 -2.6743 -0.2864  0.1608
 5703SOL    HW228743   3.574   2.652   4.158 -0.6931 -2.3674  0.5544
 5704SOL     OW28744   3.266   2.733   9.012 -0.1806  0.1782  0.1172
 5704SOL    HW128745   3.291   2.770   9.097  1.3088 -0.6216  0.0338
 5704SOL    HW228746   3.172   2.746   9.014 -0.3764 -0.5805 -3.8433
 5705SOL     OW28747   1.003   0.613  11.528 -0.4933 -0.0452  0.7947
 5705SOL    HW128748   0.923   0.581  11.487 -0.2996  1.0133 -0.3936
 5705SOL    HW228749   1.045   0.668  11.462 -0.1835 -1.3745 -0.1057
 5706SOL     OW28750   4.230   3.389   6.986  0.0868  0.4770 -0.2281
 5706SOL    HW128751   4.273   3.333   7.051 -0.9571 -0.1316 -0.0743
 5706SOL    HW228752   4.292   3.459   6.966 -0.3732  0.0526 -3.1106
 5707SOL     OW28753   3.167   2.471   2.633 -0.1364  0.7201 -0.1249
 5707SOL    HW128754   3.232   2.538   2.612  0.4015  0.7866  1.7931
 5707SOL    HW228755   3.225   2.406   2.673 -1.3703  0.5560  1.3849
 5708SOL     OW28756   2.757   3.562   6.602  0.3683  0.3416  0.1951
 5708SOL    HW128757   2.734   3.588   6.513 -1.2800  1.1663  0.8482
 5708SOL    HW228758   2.696   3.493   6.627  1.9611 -0.5450  1.6549
 5709SOL     OW28759   1.354   2.191  13.246 -0.4632  0.4115  0.2680
 5709SOL    HW128760   1.391   2.175  13.159  1.7776  0.6352  1.1939
 5709SOL    HW228761   1.393   2.116  13.290 -0.9272  0.5125  0.8533
 5710SOL     OW28762   4.443   3.750  10.788  0.3947 -0.0701  0.3846
 5710SOL    HW128763   4.504   3.821  10.804 -1.6597  1.8030 -0.0099
 5710SOL    HW228764   4.488   3.678  10.831 -0.2741 -0.9438 -0.3607
 5711SOL     OW28765   1.784   0.729   8.455 -0.2996 -0.4985 -0.2732
 5711SOL    HW128766   1.847   0.695   8.518 -1.9585 -1.3447  0.9542
 5711SOL    HW228767   1.747   0.652   8.413 -1.5042  0.4008 -0.8650
 5712SOL     OW28768   4.417   1.933   9.701 -0.3596 -0.2127 -0.0772
 5712SOL    HW128769   4.454   1.847   9.720  0.2135  0.4142  1.5916
 5712SOL    HW228770   4.392   1.963   9.788 -2.5717 -1.1042 -0.4037
 5713SOL     OW28771   1.067   0.237   4.755 -0.1301  0.0166  0.2663
 5713SOL    HW128772   1.055   0.177   4.681  1.7079 -0.3284  0.2360
 5713SOL    HW228773   1.150   0.207   4.792 -0.5065 -0.6563  0.5777
 5714SOL     OW28774   3.261   3.507   4.101  0.6358 -0.3229  0.1754
 5714SOL    HW128775   3.189   3.444   4.106 -0.3119  0.7789  0.6010
 5714SOL    HW228776   3.233   3.569   4.168  0.1107  1.6738 -1.8597
 5715SOL     OW28777   0.715   3.187   7.313 -1.0810 -0.8352 -0.3846
 5715SOL    HW128778   0.811   3.199   7.311 -1.1888  0.2936  0.9632
 5715SOL    HW228779   0.699   3.184   7.219 -1.1695  0.8472 -0.4302
 5716SOL     OW28780   1.987   3.838  16.442 -0.4192  0.0439 -0.1325
 5716SOL    HW128781   2.024   3.855  16.528 -2.1311  0.4672  0.5239
 5716SOL    HW228782   2.011   3.922  16.403 -1.4101  0.8549  1.0167
 5717SOL     OW28783   2.509   1.543   6.628 -0.3932 -0.0700  0.7670
 5717SOL    HW128784   2.568   1.518   6.557  0.2620  0.4371  1.1364
 5717SOL    HW228785   2.464   1.616   6.586 -0.0610 -0.4550 -0.2519
 5718SOL     OW28786   3.428   4.332  13.165  0.3734  0.5258 -0.2058
 5718SOL    HW128787   3.336   4.358  13.159 -0.2794 -1.4658  1.2792
 5718SOL    HW228788   3.442   4.313  13.072  0.4172  1.9780 -0.5041
 5719SOL     OW28789   3.916   2.874  10.160 -0.3616 -0.0460 -0.8396
 5719SOL    HW128790   3.903   2.872  10.066  1.4192  0.7122 -1.0924
 5719SOL    HW228791   3.896   2.784  10.183 -0.9470  0.3157  0.0913
 5720SOL     OW28792   4.067   4.533   8.831  0.0407 -0.0941 -0.0527
 5720SOL    HW128793   3.974   4.509   8.831 -0.1926  0.8503 -2.8991
 5720SOL    HW228794   4.091   4.479   8.907  0.5046 -0.1841 -0.2625
 5721SOL     OW28795   4.408   2.209   1.600  0.0244 -0.4338  0.5980
 5721SOL    HW128796   4.421   2.116   1.618  1.4416 -0.0634  1.5217
 5721SOL    HW228797   4.463   2.219   1.522 -0.5095  0.0373  0.2745
 5722SOL     OW28798   1.010   3.299   2.890 -0.4792  0.1219  0.0200
 5722SOL    HW128799   1.044   3.387   2.878  2.8385 -0.8915  1.8577
 5722SOL    HW228800   1.069   3.266   2.959  1.0251 -0.6269 -1.6241
 5723SOL     OW28801   4.672   1.571   3.884  0.0663  0.2485  0.1957
 5723SOL    HW128802   4.683   1.552   3.791 -3.1752  0.0128 -0.1378
 5723SOL    HW228803   4.578   1.555   3.896  0.0411  0.1858 -0.0818
 5724SOL     OW28804   2.434   4.532   9.480  1.1859 -0.4409  1.0749
 5724SOL    HW128805   2.340   4.542   9.492  0.9266 -0.1161 -1.3256
 5724SOL    HW228806   2.462   4.580   9.402  1.2671 -0.5874  1.0136
 5725SOL     OW28807   3.901   3.886   4.668 -0.4606 -0.2690 -0.0536
 5725SOL    HW128808   3.839   3.815   4.652 -0.3731 -0.4980  0.6520
 5725SOL    HW228809   3.971   3.881   4.602  1.1093  0.9429  1.5123
 5726SOL     OW28810   2.413   3.225   3.397 -0.0541  0.1811 -0.7296
 5726SOL    HW128811   2.318   3.235   3.403 -0.0477  0.1110 -0.5117
 5726SOL    HW228812   2.427   3.134   3.425 -0.5946 -0.1935 -1.6636
 5727SOL     OW28813   2.831   4.029   2.809 -0.0584 -0.1116  0.2870
 5727SOL    HW128814   2.832   3.985   2.894 -1.4134 -2.2224 -0.7817
 5727SOL    HW228815   2.887   4.105   2.828  0.5711 -0.3707 -0.5188
 5728SOL     OW28816   0.132   3.892   6.617  0.2065 -0.1533  0.3007
 5728SOL    HW128817   0.076   3.949   6.565  1.3824  0.1625 -0.6240
 5728SOL    HW228818   0.208   3.948   6.638  0.1853 -0.0695  0.1524
 5729SOL     OW28819   3.190   4.091   1.985  0.3766  0.1089  0.3294
 5729SOL    HW128820   3.221   4.036   2.056 -0.5328  2.1601  2.3004
 5729SOL    HW228821   3.262   4.154   1.976  0.4479 -0.1308 -0.8810
 5730SOL     OW28822   3.657   2.456   1.675  0.0520  0.1619  0.6707
 5730SOL    HW128823   3.729   2.491   1.729  0.1850 -0.6320  1.0119
 5730SOL    HW228824   3.604   2.534   1.662  0.7198  0.7256  1.2761
 5731SOL     OW28825   3.798   3.002   3.979 -0.2244  0.3824  0.0422
 5731SOL    HW128826   3.715   2.965   3.948 -0.7718 -0.6747  2.7390
 5731SOL    HW228827   3.810   2.958   4.063 -0.7252 -0.9703 -0.5866
 5732SOL     OW28828   2.787   3.083   6.229  0.2822 -0.0118  0.3057
 5732SOL    HW128829   2.835   3.048   6.304  0.9902 -0.1045 -0.1956
 5732SOL    HW228830   2.830   3.030   6.162  1.9464  0.6164  0.8919
 5733SOL     OW28831   1.826   4.229   3.498 -0.3771  0.7429  0.3974
 5733SOL    HW128832   1.790   4.149   3.458 -1.4370  0.6582  1.5357
 5733SOL    HW228833   1.898   4.189   3.546 -1.0588 -1.5712 -0.5160
 5734SOL     OW28834   1.400   1.093   6.933 -0.5043 -0.2354  0.1354
 5734SOL    HW128835   1.390   1.028   6.863  1.9662  0.6347 -1.0391
 5734SOL    HW228836   1.351   1.051   7.003 -0.1630  0.7049  0.9451
 5735SOL     OW28837   4.023   3.785   7.277  0.2190  0.5093 -0.5556
 5735SOL    HW128838   4.076   3.773   7.355  0.7829  0.4315 -0.9481
 5735SOL    HW228839   4.082   3.741   7.215 -0.1165 -0.9750  0.1780
 5736SOL     OW28840   1.679   0.348  11.737  0.1810  0.5289  0.2449
 5736SOL    HW128841   1.763   0.393  11.735 -0.5283  1.7458 -2.1617
 5736SOL    HW228842   1.619   0.412  11.775  0.8130  1.3284 -0.1195
 5737SOL     OW28843   1.591   0.232   6.382 -0.4074 -0.2864 -0.3612
 5737SOL    HW128844   1.668   0.194   6.424 -0.9584 -0.8609  0.1245
 5737SOL    HW228845   1.640   0.281   6.316 -0.1220 -0.6355 -0.4070
 5738SOL     OW28846   2.405   4.129   6.022  0.5048 -0.9072  0.1066
 5738SOL    HW128847   2.493   4.149   6.053  1.3617 -3.0131 -0.9813
 5738SOL    HW228848   2.384   4.214   5.984 -1.4557 -2.1152 -1.4971
 5739SOL     OW28849   3.425   2.428   6.934 -0.2367 -0.1077 -0.0089
 5739SOL    HW128850   3.340   2.385   6.931 -1.1729  1.7183  0.1259
 5739SOL    HW228851   3.392   2.516   6.919  0.7970  0.3596  0.4129
 5740SOL     OW28852   4.238   4.394   6.970  0.8082  0.3230  0.0744
 5740SOL    HW128853   4.177   4.409   6.897 -0.4936 -1.2437  0.8468
 5740SOL    HW228854   4.227   4.478   7.014  0.9259 -0.2597  1.2011
 5741SOL     OW28855   4.204   1.633   6.380  0.5018  0.5344  0.2499
 5741SOL    HW128856   4.158   1.685   6.315  0.4990  2.7629  2.0139
 5741SOL    HW228857   4.279   1.614   6.324  0.9766  0.9070  0.7551
 5742SOL     OW28858   0.406   0.287   3.076 -0.2679  0.1102  0.5014
 5742SOL    HW128859   0.320   0.329   3.082 -0.3949  0.1997 -2.1535
 5742SOL    HW228860   0.431   0.279   3.168  1.9610 -1.7101 -0.2613
 5743SOL     OW28861   4.156   1.959   7.705 -0.0638 -0.4359  0.2041
 5743SOL    HW128862   4.116   2.039   7.672  0.5077 -0.0266  0.5058
 5743SOL    HW228863   4.076   1.936   7.751 -0.1518  1.0406  0.7852
 5744SOL     OW28864   4.177   2.293  17.286 -0.1721  0.1824 -0.2216
 5744SOL    HW128865   4.086   2.325  17.286 -0.5134 -0.8015  0.4364
 5744SOL    HW228866   4.220   2.376  17.266 -0.6931  1.1654  2.8194
 5745SOL     OW28867   0.488   3.283  15.558  0.1398 -0.1968 -0.1622
 5745SOL    HW128868   0.455   3.245  15.477  0.1789  0.3613 -0.4400
 5745SOL    HW228869   0.444   3.368  15.567 -2.3413 -1.3096 -1.7979
 5746SOL     OW28870   2.255   1.011   4.797  0.0583 -0.0061  0.2348
 5746SOL    HW128871   2.276   0.918   4.805 -2.0553 -0.3876  1.2597
 5746SOL    HW228872   2.162   0.991   4.787 -0.0771  1.3393 -1.1379
 5747SOL     OW28873   0.328   1.401   7.312  0.3253 -0.2596  0.2770
 5747SOL    HW128874   0.406   1.404   7.256  0.5572 -0.2439  0.5981
 5747SOL    HW228875   0.260   1.442   7.258 -0.2411 -1.8292 -0.1924
 5748SOL     OW28876   1.055   2.060   2.410  0.2901 -0.4038 -0.1767
 5748SOL    HW128877   1.112   2.110   2.352 -0.8201  1.8349  0.6566
 5748SOL    HW228878   0.981   2.047   2.350 -1.2780 -2.8580  2.2912
 5749SOL     OW28879   3.454   2.366   2.576 -0.1511  0.6414  0.1598
 5749SOL    HW128880   3.397   2.290   2.588  1.5304 -0.9881 -2.0043
 5749SOL    HW228881   3.441   2.392   2.484 -0.2502  0.2937  0.0761
 5750SOL     OW28882   1.082   2.770  10.584  0.3286  0.1954 -0.2125
 5750SOL    HW128883   1.084   2.824  10.662  1.7166 -1.7691  1.1008
 5750SOL    HW228884   0.995   2.792  10.549  0.6531  0.5630 -0.8021
 5751SOL     OW28885   3.958   1.896   7.876  0.3234  0.0573 -0.3224
 5751SOL    HW128886   3.883   1.939   7.917  1.2977  2.0538 -0.6271
 5751SOL    HW228887   3.960   1.810   7.917 -0.8172 -0.8039 -2.0636
 5752SOL     OW28888   0.243   3.051  15.182  0.6060 -0.1110  0.5015
 5752SOL    HW128889   0.290   3.025  15.103 -1.0457 -3.3319  0.5832
 5752SOL    HW228890   0.169   2.991  15.188  0.2600  0.3346  0.6737
 5753SOL     OW28891   1.581   3.033   5.059  0.0711  0.4942  0.2074
 5753SOL    HW128892   1.567   3.122   5.091  0.5693  1.0325 -1.0550
 5753SOL    HW228893   1.677   3.036   5.067  0.0368 -1.0244  1.2501
 5754SOL     OW28894   2.593   2.402  15.701 -0.0788  0.2662  0.0395
 5754SOL    HW128895   2.623   2.378  15.613 -3.8626 -1.8695 -0.6506
 5754SOL    HW228896   2.581   2.495  15.679 -2.5982  0.2024  1.1383
 5755SOL     OW28897   3.590   1.747  13.033  0.3073  0.1734 -0.2280
 5755SOL    HW128898   3.558   1.684  12.968  0.7370 -0.6332  0.3297
 5755SOL    HW228899   3.528   1.818  13.017  0.5980  0.0120 -2.0919
 5756SOL     OW28900   0.191   2.562   7.420 -0.3050 -0.3358 -0.5253
 5756SOL    HW128901   0.099   2.539   7.412 -0.1109 -0.3945 -2.5351
 5756SOL    HW228902   0.229   2.480   7.453 -0.8637 -1.0929 -1.7685
 5757SOL     OW28903   2.024   3.644   2.669  0.2675  0.3006  0.0253
 5757SOL    HW128904   2.050   3.682   2.585 -2.8997 -2.2294 -2.1043
 5757SOL    HW228905   1.931   3.665   2.678  0.2923  0.2617  0.3663
 5758SOL     OW28906   0.441   1.487   4.244 -0.7354  0.0160  0.7192
 5758SOL    HW128907   0.474   1.428   4.176 -1.0865 -1.7568  2.0786
 5758SOL    HW228908   0.413   1.428   4.314  0.7232 -1.7416 -0.1688
 5759SOL     OW28909   3.526   1.248  17.729 -1.1755  0.2188 -0.7276
 5759SOL    HW128910   3.589   1.318  17.709  2.3488 -3.4536 -2.6079
 5759SOL    HW228911   3.476   1.244  17.647 -0.9325 -0.1396 -0.8595
 5760SOL     OW28912   3.664   1.409   2.108 -0.3167 -0.4606 -0.2234
 5760SOL    HW128913   3.632   1.329   2.066  2.3482 -0.2438 -2.7088
 5760SOL    HW228914   3.631   1.473   2.045 -2.0056 -1.3080 -0.1974
 5761SOL     OW28915   2.343   0.220   8.641 -0.0313 -0.3645 -0.0917
 5761SOL    HW128916   2.367   0.312   8.650 -0.3322 -0.3974  1.0253
 5761SOL    HW228917   2.414   0.186   8.586 -0.1279 -0.4417 -0.1683
 5762SOL     OW28918   0.045   2.498   2.404  0.4552 -0.3554 -0.4703
 5762SOL    HW128919   0.004   2.557   2.341  4.0917  2.1996 -0.3742
 5762SOL    HW228920   0.067   2.562   2.471  1.0441  0.2546 -1.2558
 5763SOL     OW28921   2.620   3.582   0.562 -0.6842 -0.4071 -0.4137
 5763SOL    HW128922   2.562   3.522   0.608  1.6660 -2.0797  0.3701
 5763SOL    HW228923   2.691   3.519   0.550  0.0876  0.2371  0.7615
 5764SOL     OW28924   4.625   3.735  12.073  0.3312  0.2802 -0.1747
 5764SOL    HW128925   4.568   3.773  12.141  1.4409  2.5350 -0.4934
 5764SOL    HW228926   4.613   3.791  11.996  1.2310 -0.1315 -0.6088
 5765SOL     OW28927   4.664   4.237   1.975 -0.2319 -0.9186  0.6718
 5765SOL    HW128928   4.733   4.203   2.032  1.0764  0.4852 -0.0734
 5765SOL    HW228929   4.590   4.187   2.011 -1.3601 -0.3593 -0.8685
 5766SOL     OW28930   1.881   2.907  17.673  0.0540 -0.2741 -0.0275
 5766SOL    HW128931   1.943   2.902   0.009 -1.4285 -1.1051  1.1657
 5766SOL    HW228932   1.801   2.935  17.716 -1.9051 -1.8517 -2.6277
 5767SOL     OW28933   3.356   0.552   6.702 -0.5662  0.6789  1.1227
 5767SOL    HW128934   3.277   0.510   6.668 -1.1405  1.6783  1.2082
 5767SOL    HW228935   3.323   0.639   6.680 -1.9102 -0.1219 -0.0551
 5768SOL     OW28936   1.221   0.620   8.893 -0.2420  0.3396  0.0575
 5768SOL    HW128937   1.301   0.645   8.939  1.3475 -0.6058 -2.1716
 5768SOL    HW228938   1.193   0.699   8.849 -0.4492 -1.4021 -2.9295
 5769SOL     OW28939   1.490   2.973   9.965  0.5383  0.0198  0.0536
 5769SOL    HW128940   1.419   3.024   9.925 -0.4237 -2.2997 -1.1837
 5769SOL    HW228941   1.445   2.960  10.048  1.4268  0.9631  0.6898
 5770SOL     OW28942   2.054   4.205  16.827  0.1367 -0.1464 -0.7270
 5770SOL    HW128943   2.074   4.230  16.917 -0.9598 -0.2598 -0.4495
 5770SOL    HW228944   2.037   4.111  16.836 -2.4335  0.3731 -0.2897
 5771SOL     OW28945   1.794   1.688  14.783 -0.5896 -0.2294  0.2655
 5771SOL    HW128946   1.860   1.755  14.764 -1.8152  0.7151 -0.6671
 5771SOL    HW228947   1.728   1.753  14.809 -1.1564 -1.1179  1.0427
 5772SOL     OW28948   1.585   4.022   1.712 -0.5052 -0.0751 -0.2241
 5772SOL    HW128949   1.662   4.069   1.744 -0.7992  0.7942 -0.8036
 5772SOL    HW228950   1.526   4.096   1.721  0.7159  1.1234 -2.0431
 5773SOL     OW28951   2.779   3.045   7.737  0.3481  0.3257 -0.1733
 5773SOL    HW128952   2.764   3.028   7.830 -0.7970 -1.3502 -0.6617
 5773SOL    HW228953   2.870   3.074   7.740  0.3581  0.2753 -0.0012
 5774SOL     OW28954   0.785   4.244   4.179 -0.3269  0.1231  0.3400
 5774SOL    HW128955   0.806   4.155   4.207  1.7262  0.2352 -0.8348
 5774SOL    HW228956   0.692   4.237   4.201 -0.0159 -1.1377  1.2291
 5775SOL     OW28957   4.595   0.097  17.508  0.1130  0.3569 -0.0507
 5775SOL    HW128958   4.687   0.088  17.483  0.6736  0.8963  1.8514
 5775SOL    HW228959   4.552   0.111  17.423  1.3518 -0.4081 -0.8057
 5776SOL     OW28960   0.107   2.467  12.376  0.2918 -0.3254 -0.0285
 5776SOL    HW128961   0.044   2.480  12.304  2.4367  0.0646 -1.8421
 5776SOL    HW228962   0.074   2.539  12.430 -2.4662 -1.2220 -0.5159
 5777SOL     OW28963   4.274   0.201  17.618 -0.2719 -0.1519  0.0154
 5777SOL    HW128964   4.317   0.150  17.687  1.6000  1.1691 -0.1728
 5777SOL    HW228965   4.226   0.130  17.576 -0.1103  0.1015 -0.5945
 5778SOL     OW28966   4.597   4.300   4.465  0.0852 -0.1925 -0.3836
 5778SOL    HW128967   4.557   4.217   4.441  1.0328 -1.3851  2.1681
 5778SOL    HW228968   4.592   4.291   4.560  1.1608  0.2448 -0.2854
 5779SOL     OW28969   2.008   2.662   6.544  0.2554  0.0362 -0.1842
 5779SOL    HW128970   2.029   2.604   6.471  0.5619 -3.4132  2.6861
 5779SOL    HW228971   1.939   2.608   6.583  0.5376  2.0637  3.1229
 5780SOL     OW28972   4.142   0.843   5.078  0.0293 -0.1204  0.2631
 5780SOL    HW128973   4.175   0.820   5.165  1.0525  1.2316  0.2444
 5780SOL    HW228974   4.099   0.926   5.099  3.1789  1.7541 -0.5031
 5781SOL     OW28975   2.630   0.492  15.857 -0.1296 -0.1613  0.1974
 5781SOL    HW128976   2.567   0.514  15.926 -1.0959  0.6026 -0.9315
 5781SOL    HW228977   2.695   0.562  15.860 -1.7054  1.3189  0.3524
 5782SOL     OW28978   0.347   4.678  16.025 -0.1529 -0.7516 -0.1605
 5782SOL    HW128979   0.398   4.624  16.085 -0.0549 -1.9094 -1.2896
 5782SOL    HW228980   0.356   0.025  16.074 -2.0532 -0.0004 -1.0580
 5783SOL     OW28981   2.700   0.715   2.423 -0.5501  0.0110  0.3811
 5783SOL    HW128982   2.701   0.714   2.519  1.3637  2.1735  0.3840
 5783SOL    HW228983   2.625   0.769   2.396 -0.5149 -0.1485 -0.0327
 5784SOL     OW28984   2.820   4.538   1.739  0.1098  0.3810  0.7222
 5784SOL    HW128985   2.741   4.586   1.715 -0.0373 -0.4954 -0.5384
 5784SOL    HW228986   2.868   4.605   1.788  1.0639 -0.8068  1.4037
 5785SOL     OW28987   1.144   3.872   3.433  0.1645 -0.2227 -0.2870
 5785SOL    HW128988   1.182   3.836   3.353  2.3151 -1.2740  1.2114
 5785SOL    HW228989   1.058   3.828   3.433  0.6367 -1.1398  1.9497
 5786SOL     OW28990   4.250   4.572   9.683 -0.4888  0.2557 -0.2541
 5786SOL    HW128991   4.161   4.601   9.661 -0.9324 -0.2197  0.8893
 5786SOL    HW228992   4.295   4.655   9.698  0.7863 -0.6259  0.8045
 5787SOL     OW28993   0.613   3.775   8.995  0.8107  0.5879 -0.2240
 5787SOL    HW128994   0.579   3.861   9.019  0.3103 -0.1394  1.6478
 5787SOL    HW228995   0.644   3.789   8.905  2.1470  1.6644  0.3978
 5788SOL     OW28996   0.074   1.532   2.505  0.4301  0.3019 -0.8024
 5788SOL    HW128997   0.063   1.555   2.597 -0.5054 -1.3474 -0.5017
 5788SOL    HW228998   0.157   1.484   2.509 -0.3365 -0.8798  0.6692
 5789SOL     OW28999   3.549   1.722   3.144 -0.6937 -0.0759  0.5630
 5789SOL    HW129000   3.563   1.686   3.057 -0.9289  0.7920  0.1740
 5789SOL    HW229001   3.492   1.655   3.183 -0.3967 -1.5075 -1.5099
 5790SOL     OW29002   2.281   1.667   6.176 -0.4290  0.1247 -0.0438
 5790SOL    HW129003   2.282   1.761   6.193  3.2598 -0.2017  1.4518
 5790SOL    HW229004   2.370   1.656   6.144 -0.8459 -0.1164 -1.1275
 5791SOL     OW29005   3.298   2.412  13.277  0.6899 -0.1496  0.9056
 5791SOL    HW129006   3.253   2.357  13.342  0.0465  0.2771  0.8140
 5791SOL    HW229007   3.374   2.355  13.262  0.5290 -0.2164  0.3648
 5792SOL     OW29008   3.426   0.365   6.890 -0.3982  0.1295  0.1851
 5792SOL    HW129009   3.506   0.352   6.841  0.2687  0.7122  1.1249
 5792SOL    HW229010   3.367   0.413   6.832  0.3161 -0.0868 -0.7011
 5793SOL     OW29011   1.586   2.465   1.107  0.0905  0.6481 -0.3770
 5793SOL    HW129012   1.527   2.428   1.173 -1.9583  1.0082 -1.9983
 5793SOL    HW229013   1.664   2.420   1.139 -0.5147 -0.5308 -0.5660
 5794SOL     OW29014   0.324   3.696   6.896 -0.1880  0.2902  0.3399
 5794SOL    HW129015   0.261   3.767   6.910  0.0992  0.3710  1.2338
 5794SOL    HW229016   0.293   3.635   6.963  0.2123 -1.3324 -0.9659
 5795SOL     OW29017   0.946   2.197   3.754 -0.3636 -0.7550 -0.5320
 5795SOL    HW129018   0.896   2.253   3.814  0.1183 -0.8143 -0.0727
 5795SOL    HW229019   1.014   2.262   3.734 -0.1878 -1.4756 -2.2438
 5796SOL     OW29020   2.654   3.617   1.943  0.1680  0.0918 -0.4709
 5796SOL    HW129021   2.618   3.659   1.865  0.4488  0.9172 -0.1459
 5796SOL    HW229022   2.691   3.699   1.974  1.6608 -0.8785  0.3428
 5797SOL     OW29023   3.076   4.653  17.723 -0.1402  0.7379 -0.1569
 5797SOL    HW129024   3.171   4.666  17.729  0.0765 -0.8826 -0.1125
 5797SOL    HW229025   3.046   4.646   0.076  1.3763  3.6248  0.6078
 5798SOL     OW29026   4.419   0.549   8.197  0.3593 -0.0849  0.1642
 5798SOL    HW129027   4.500   0.499   8.212  1.1471  0.7220 -1.3670
 5798SOL    HW229028   4.437   0.554   8.103  0.1684  0.5598  0.1630
 5799SOL     OW29029   4.405   4.634   5.660 -0.5965 -0.5625  0.4151
 5799SOL    HW129030   4.458   4.710   5.633  0.1281 -1.4835 -0.7511
 5799SOL    HW229031   4.337   4.636   5.593  1.0222 -0.1391 -1.2306
 5800SOL     OW29032   2.358   2.509   9.006 -0.2708 -0.7805  0.3485
 5800SOL    HW129033   2.272   2.492   8.967 -0.8516  0.0963  1.2368
 5800SOL    HW229034   2.399   2.516   8.920 -1.5863  0.0376 -0.2168
 5801SOL     OW29035   4.125   0.139   7.345 -0.2687  0.2882  0.5381
 5801SOL    HW129036   4.046   0.184   7.375 -0.8115 -1.5506  1.8868
 5801SOL    HW229037   4.183   0.137   7.422 -0.8538 -2.8717  0.9199
 5802SOL     OW29038   1.538   0.463   1.923  0.0820 -0.2924  0.5098
 5802SOL    HW129039   1.481   0.507   1.859 -0.5137 -1.0597  0.5107
 5802SOL    HW229040   1.612   0.431   1.872 -0.3063  0.5854 -0.6231
 5803SOL     OW29041   4.557   3.486   4.095 -1.0827  0.5577  0.4241
 5803SOL    HW129042   4.566   3.499   4.189 -1.5984 -1.0940  0.6904
 5803SOL    HW229043   4.475   3.437   4.085 -0.6033  0.4484 -2.9798
 5804SOL     OW29044   4.643   1.423  11.265  0.0272 -0.2013 -0.1734
 5804SOL    HW129045   4.628   1.397  11.175  1.1676  1.9941 -1.0054
 5804SOL    HW229046   4.638   1.519  11.260 -0.3293 -0.1313  1.3971
 5805SOL     OW29047   0.610   1.608   2.749  0.2376 -0.0560  0.7339
 5805SOL    HW129048   0.530   1.569   2.784  0.2292 -1.5945 -0.9791
 5805SOL    HW229049   0.669   1.611   2.824  0.8841 -0.5360  0.2507
 5806SOL     OW29050   0.025   2.708  12.433  0.1578 -0.6446 -0.0079
 5806SOL    HW129051   4.705   2.753  12.497  0.6156 -0.6776  0.3987
 5806SOL    HW229052   0.053   2.779  12.375 -2.1444 -0.3587 -0.7547
 5807SOL     OW29053   1.152   1.020   0.574 -0.0818  0.2811  0.7892
 5807SOL    HW129054   1.175   0.960   0.645 -2.5900 -3.0038 -1.2011
 5807SOL    HW229055   1.163   0.962   0.499 -0.5878  2.0448 -0.6419
 5808SOL     OW29056   3.065   2.408  16.264 -0.1255 -0.2440  0.3069
 5808SOL    HW129057   3.060   2.503  16.271  0.6568 -0.2885  1.6708
 5808SOL    HW229058   3.159   2.396  16.278 -0.0765 -0.1932  0.0160
 5809SOL     OW29059   0.490   0.280  17.556  0.0960  0.1586 -0.2029
 5809SOL    HW129060   0.464   0.356  17.504 -1.8486  0.2094  0.8121
 5809SOL    HW229061   0.584   0.267  17.543 -0.0730 -0.7664 -0.4613
 5810SOL     OW29062   3.173   0.436   2.074 -0.5782  0.1919 -0.5713
 5810SOL    HW129063   3.168   0.353   2.026  1.7806  0.3319 -1.0435
 5810SOL    HW229064   3.268   0.437   2.081 -0.6143  0.8608 -0.1795
 5811SOL     OW29065   4.702   1.955   2.651  0.0906  0.2545  0.1297
 5811SOL    HW129066   4.637   1.885   2.660  1.2815 -1.0831 -1.7434
 5811SOL    HW229067   4.685   1.977   2.560 -0.0626  1.2719  0.3989
 5812SOL     OW29068   2.995   4.257   7.773 -0.2246 -0.3604  0.1927
 5812SOL    HW129069   2.970   4.314   7.845 -0.8025 -0.0059 -0.2954
 5812SOL    HW229070   3.023   4.180   7.824  0.1994 -1.4992 -1.7414
 5813SOL     OW29071   1.225   2.947   5.048  0.8947 -0.3582 -0.3526
 5813SOL    HW129072   1.275   3.011   5.097 -0.3720 -0.7179  1.4075
 5813SOL    HW229073   1.148   2.997   5.022  0.8872 -0.1753  0.0171
 5814SOL     OW29074   1.170   3.705   2.886 -0.0386 -0.0560  0.0474
 5814SOL    HW129075   1.263   3.681   2.891  0.4090  1.7648  0.4751
 5814SOL    HW229076   1.134   3.634   2.832 -1.2051 -0.3562  1.2205
 5815SOL     OW29077   0.730   3.511   5.177 -0.3596  0.0200  0.3963
 5815SOL    HW129078   0.739   3.416   5.170 -1.1029 -0.1969  2.6119
 5815SOL    HW229079   0.712   3.523   5.270  1.3734  1.7014  0.5263
 5816SOL     OW29080   0.188   4.556   6.243  0.1482  0.2804  0.4041
 5816SOL    HW129081   0.278   4.527   6.258 -0.2680 -1.6098 -0.6885
 5816SOL    HW229082   0.190   4.643   6.282 -2.1657  0.3149  0.4125
 5817SOL     OW29083   3.036   4.168  13.550  0.3055 -0.1981 -0.8701
 5817SOL    HW129084   3.093   4.153  13.475  1.2353 -1.4388  0.0898
 5817SOL    HW229085   3.059   4.098  13.610  0.5770 -0.5264 -1.3567
 5818SOL     OW29086   2.038   3.223   5.014 -0.0116 -0.7111 -0.0069
 5818SOL    HW129087   2.066   3.305   5.054 -1.9067 -0.5551  0.9948
 5818SOL    HW229088   2.080   3.217   4.928  0.5827 -0.2088  0.2532
 5819SOL     OW29089   4.183   2.206  16.710  0.2837  0.0808 -0.4532
 5819SOL    HW129090   4.158   2.128  16.760  0.3198 -0.9136 -1.9575
 5819SOL    HW229091   4.264   2.178  16.666 -0.2569 -2.3364  0.0860
 5820SOL     OW29092   1.700   3.639  10.476 -0.1023 -0.2980  0.1227
 5820SOL    HW129093   1.784   3.658  10.518  1.5481 -1.4837 -2.6707
 5820SOL    HW229094   1.670   3.572  10.538 -1.2975 -0.6811 -0.8779
 5821SOL     OW29095   1.785   2.180  17.505 -0.3346 -0.5769  0.2215
 5821SOL    HW129096   1.877   2.169  17.483  0.3305  1.4313  2.0291
 5821SOL    HW229097   1.781   2.269  17.471 -0.8110 -0.4879  0.5155
 5822SOL     OW29098   1.876   3.939   6.098  0.1755 -0.3647  0.4318
 5822SOL    HW129099   1.808   3.875   6.121  1.6050 -0.7622  3.5492
 5822SOL    HW229100   1.867   3.949   6.003  0.7223  1.2458  0.5617
 5823SOL     OW29101   2.701   1.093   9.981 -0.1761  0.2485  0.1143
 5823SOL    HW129102   2.727   1.184   9.967  0.0254  0.2712  0.6157
 5823SOL    HW229103   2.672   1.075   9.892  1.4393 -0.1158 -0.3362
 5824SOL     OW29104   3.906   2.620   7.091  0.2608  0.7347 -0.1665
 5824SOL    HW129105   3.825   2.653   7.052 -0.1678  0.3100  0.3618
 5824SOL    HW229106   3.914   2.666   7.175  0.2436  1.2725 -0.4571
 5825SOL     OW29107   3.303   0.041   7.631  0.3649  0.0892  0.0911
 5825SOL    HW129108   3.302   0.017   7.538 -1.1149  2.0231 -0.3885
 5825SOL    HW229109   3.218   0.083   7.645 -0.3247 -1.2931  0.0370
 5826SOL     OW29110   4.344   3.879   7.391 -0.1031  0.7198  0.1699
 5826SOL    HW129111   4.282   3.819   7.350  1.8659 -1.0444 -0.2416
 5826SOL    HW229112   4.428   3.844   7.362 -0.4952  0.7369 -0.9854
 5827SOL     OW29113   2.156   0.851   6.475  0.0225 -0.4775 -0.0472
 5827SOL    HW129114   2.066   0.861   6.506  0.5601 -0.8648  1.6262
 5827SOL    HW229115   2.153   0.813   6.387 -0.5932 -1.9453  0.5993
 5828SOL     OW29116   0.235   2.972   8.652  0.0481  0.4788  0.4943
 5828SOL    HW129117   0.294   2.909   8.611 -2.2811 -1.5197  0.2793
 5828SOL    HW229118   0.275   2.998   8.735 -1.8257 -1.4504  1.9793
 5829SOL     OW29119   1.050   3.273  17.692 -0.1047  0.0922  0.6104
 5829SOL    HW129120   1.042   3.277  17.597 -3.7441 -1.6302  0.8500
 5829SOL    HW229121   1.144   3.291  17.687 -0.1343  0.2362  0.5781
 5830SOL     OW29122   1.883   2.714   7.008  0.2585 -0.1053  0.0147
 5830SOL    HW129123   1.850   2.787   6.956 -0.2867 -1.0154 -0.9331
 5830SOL    HW229124   1.959   2.691   6.954 -0.5700  0.0308 -1.2144
 5831SOL     OW29125   1.858   2.443  15.086  0.2590  0.0689 -0.0240
 5831SOL    HW129126   1.818   2.531  15.086  0.7325  0.2835  0.1433
 5831SOL    HW229127   1.856   2.425  15.180 -2.4719  0.8347  0.0864
 5832SOL     OW29128   0.766   3.523   6.775 -0.2950  0.0210  0.1983
 5832SOL    HW129129   0.697   3.589   6.780 -0.2625  0.0638  0.1001
 5832SOL    HW229130   0.744   3.459   6.843 -0.0575  0.7166  0.9306
 5833SOL     OW29131   4.449   0.700   4.047  0.3424 -0.3049  0.2582
 5833SOL    HW129132   4.380   0.711   4.112 -0.7246 -1.8036 -0.6236
 5833SOL    HW229133   4.512   0.649   4.097  1.1878 -0.8271 -1.3578
 5834SOL     OW29134   1.349   0.397   7.466  0.3221 -0.3180 -0.9331
 5834SOL    HW129135   1.304   0.420   7.547  1.3666 -1.0050 -0.1471
 5834SOL    HW229136   1.326   0.475   7.415 -2.0995 -0.5881 -0.2248
 5835SOL     OW29137   2.884   2.258   5.440  0.0149  0.0804 -0.3492
 5835SOL    HW129138   2.889   2.291   5.530  0.0367  0.4253 -0.4757
 5835SOL    HW229139   2.790   2.268   5.427  0.3103  5.4601  1.6630
 5836SOL     OW29140   0.367   1.448   2.622  0.0751  0.0107 -0.0090
 5836SOL    HW129141   0.354   1.368   2.573  2.5896 -0.5868  0.2844
 5836SOL    HW229142   0.462   1.458   2.617  0.1242 -1.0628 -1.1072
 5837SOL     OW29143   1.550   0.680   6.340 -0.2661  0.3872 -0.3681
 5837SOL    HW129144   1.515   0.651   6.256  1.5416 -0.4558 -0.8213
 5837SOL    HW229145   1.507   0.611   6.390  0.1779  0.1973 -0.2589
 5838SOL     OW29146   3.301   4.209  17.041  0.4350  0.2953  0.3922
 5838SOL    HW129147   3.248   4.179  16.967  1.5118  1.3496 -0.8084
 5838SOL    HW229148   3.253   4.289  17.063  2.4546  1.0375  2.0743
 5839SOL     OW29149   3.965   4.705  13.375  0.3473 -0.4171  0.5109
 5839SOL    HW129150   3.944   4.637  13.310 -0.7044  1.9960 -1.7176
 5839SOL    HW229151   3.985   4.654  13.453 -2.2903  0.2224  1.6404
 5840SOL     OW29152   3.889   1.025   4.305 -0.4249  0.1766 -0.0768
 5840SOL    HW129153   3.926   1.111   4.323 -0.7159 -0.0344  1.4761
 5840SOL    HW229154   3.911   0.983   4.388  1.1716 -1.9046 -1.5354
 5841SOL     OW29155   4.727   3.122  17.599  0.0471  0.2461  0.2965
 5841SOL    HW129156   4.651   3.162  17.555  0.5372  0.5435 -0.2731
 5841SOL    HW229157   0.064   3.134  17.537  0.6773 -0.7320  0.8489
 5842SOL     OW29158   1.709   2.873  10.809  0.1871  0.3121  0.2920
 5842SOL    HW129159   1.687   2.895  10.900 -0.7690  0.9130 -0.0858
 5842SOL    HW229160   1.674   2.784  10.814 -0.8304  0.6130 -1.8111
 5843SOL     OW29161   0.095   2.254   0.130 -0.5698  0.2487  0.1919
 5843SOL    HW129162   0.160   2.184   0.120 -0.6483  0.4470 -1.7783
 5843SOL    HW229163   0.033   2.224   0.063  0.5734 -0.7781 -0.4157
 5844SOL     OW29164   2.631   3.947   7.875 -0.0373  0.0027 -0.6942
 5844SOL    HW129165   2.631   3.851   7.868  0.0114  0.0156 -0.8717
 5844SOL    HW229166   2.694   3.965   7.806  2.4386 -0.0931  1.5190
 5845SOL     OW29167   1.597   2.613  10.817  0.5135  0.4569  0.2127
 5845SOL    HW129168   1.618   2.523  10.841  1.7881  1.3014  2.2752
 5845SOL    HW229169   1.516   2.624  10.867  0.7640  0.1965  0.6771
 5846SOL     OW29170   2.449   3.557   8.128 -0.1009 -0.0136 -0.0788
 5846SOL    HW129171   2.380   3.591   8.071  0.3715  0.9286 -0.0989
 5846SOL    HW229172   2.459   3.466   8.101 -2.0534 -0.5129  0.8794
 5847SOL     OW29173   0.612   0.624   7.852  0.2076 -0.3724  0.0667
 5847SOL    HW129174   0.660   0.613   7.934  3.1002  2.9994 -1.1668
 5847SOL    HW229175   0.665   0.695   7.815  0.9077 -2.2604 -2.5348
 5848SOL     OW29176   1.679   2.463  13.603 -0.1802  0.3317 -0.0801
 5848SOL    HW129177   1.642   2.378  13.626 -1.9418  0.9482 -0.6224
 5848SOL    HW229178   1.747   2.483  13.667  0.4721  0.1417 -0.7115
 5849SOL     OW29179   1.547   2.883   3.658 -0.5153  0.2138  0.0616
 5849SOL    HW129180   1.571   2.941   3.586 -0.6668  1.7382  1.2571
 5849SOL    HW229181   1.571   2.938   3.732 -0.9965  1.2236 -0.5446
 5850SOL     OW29182   3.939   3.757   5.106  0.1485 -0.5974  0.2216
 5850SOL    HW129183   3.988   3.728   5.028  0.0348  0.4163 -0.2209
 5850SOL    HW229184   3.892   3.829   5.064  1.6020 -0.4072 -1.0843
 5851SOL     OW29185   4.328   1.065   0.592 -0.1128 -0.5935  0.2516
 5851SOL    HW129186   4.328   1.109   0.678 -1.7637 -1.5441  0.7335
 5851SOL    HW229187   4.262   1.118   0.548  1.9090  3.5683  2.1861
 5852SOL     OW29188   3.403   0.225   3.132 -0.0385 -0.1508 -0.0945
 5852SOL    HW129189   3.460   0.226   3.209  1.8136  0.8564 -1.4627
 5852SOL    HW229190   3.429   0.145   3.087 -2.0432 -1.2009  0.6565
 5853SOL     OW29191   1.757   4.596   3.333 -0.6595 -0.2620  0.0376
 5853SOL    HW129192   1.683   4.538   3.353 -0.6869  0.5578  2.3447
 5853SOL    HW229193   1.805   4.556   3.260 -0.6438 -0.0390 -0.0730
 5854SOL     OW29194   2.589   0.286   3.914 -0.4152 -0.3803 -0.0388
 5854SOL    HW129195   2.534   0.212   3.890  1.0065 -0.6758 -2.4437
 5854SOL    HW229196   2.524   0.333   3.966 -0.1031 -0.5820  0.5395
 5855SOL     OW29197   2.438   2.655  12.978 -0.0766  0.2048  0.1814
 5855SOL    HW129198   2.483   2.574  12.953  0.3633  1.2638 -2.5058
 5855SOL    HW229199   2.352   2.613  12.978  0.1405 -0.2343  0.2868
 5856SOL     OW29200   1.555   1.205   3.872 -0.6678 -0.0374 -0.0077
 5856SOL    HW129201   1.600   1.226   3.790 -0.0404  0.5270  0.4787
 5856SOL    HW229202   1.487   1.273   3.877  0.1784  0.8717 -0.8804
 5857SOL     OW29203   0.078   3.859  14.675 -0.6762 -0.2288 -0.0131
 5857SOL    HW129204   0.055   3.885  14.764  0.4812 -0.6440  0.4149
 5857SOL    HW229205   0.013   3.803  14.631 -0.5080 -1.9640  1.9649
 5858SOL     OW29206   0.573   1.885  11.093 -0.0149 -0.1671  0.4597
 5858SOL    HW129207   0.576   1.805  11.145  0.1191  0.0755  0.8248
 5858SOL    HW229208   0.641   1.939  11.134 -0.7266  1.7999 -0.9486
 5859SOL     OW29209   4.521   4.486   3.219 -0.9112 -0.1632 -0.2678
 5859SOL    HW129210   4.545   4.578   3.229  1.0749 -0.6251 -0.6434
 5859SOL    HW229211   4.450   4.493   3.155  1.1002  0.2425 -2.4516
 5860SOL     OW29212   3.898   2.233  10.432  0.4535  0.1292 -0.0591
 5860SOL    HW129213   3.980   2.183  10.436 -0.1764 -1.0410 -1.9888
 5860SOL    HW229214   3.832   2.166  10.444  2.5525 -1.8508  0.4792
 5861SOL     OW29215   2.949   0.284  16.214  0.2332 -0.4884  0.4501
 5861SOL    HW129216   2.893   0.223  16.167 -2.6519  0.5049  2.6351
 5861SOL    HW229217   2.886   0.341  16.258 -3.1075 -3.5964 -0.4118
 5862SOL     OW29218   2.128   4.141   3.542  1.1269 -0.7501 -0.0404
 5862SOL    HW129219   2.091   4.054   3.559 -0.2715 -0.0758  0.4092
 5862SOL    HW229220   2.218   4.125   3.571  1.4083  1.3622  0.3002
 5863SOL     OW29221   2.189   1.457  11.263 -0.1272  0.3759 -0.0506
 5863SOL    HW129222   2.223   1.455  11.174  1.7011  0.0338  0.6494
 5863SOL    HW229223   2.105   1.502  11.259 -0.2996 -0.0686 -1.2665
 5864SOL     OW29224   2.395   4.672   7.730  0.1106 -0.4826 -0.2574
 5864SOL    HW129225   2.337   4.608   7.690  0.2009  0.1394 -1.3621
 5864SOL    HW229226   2.448   4.689   7.653 -1.0723  1.8458 -0.5621
 5865SOL     OW29227   1.035   3.552   4.841  0.3052  0.7920  0.2794
 5865SOL    HW129228   1.027   3.599   4.924  0.3913 -0.8793  1.2547
 5865SOL    HW229229   0.980   3.475   4.860  0.0070  1.3510  1.6783
 5866SOL     OW29230   0.946   0.849   8.963  0.3375  1.0073 -0.3093
 5866SOL    HW129231   0.956   0.944   8.966 -0.5327  1.0957 -0.1311
 5866SOL    HW229232   0.854   0.858   8.938 -0.4579  1.4224  2.8238
 5867SOL     OW29233   3.812   0.339   6.197  0.2999 -0.2015  0.1398
 5867SOL    HW129234   3.896   0.304   6.227 -0.2115  0.5380  2.4083
 5867SOL    HW229235   3.752   0.282   6.244 -1.2027  1.1543 -0.1724
 5868SOL     OW29236   2.143   0.350   2.686 -0.0843  0.3679 -0.2654
 5868SOL    HW129237   2.173   0.342   2.776 -1.0954  1.3638  0.1657
 5868SOL    HW229238   2.226   0.375   2.645  1.1622 -2.1731  0.7248
 5869SOL     OW29239   1.197   4.426   1.277 -0.4091 -0.1632 -0.2920
 5869SOL    HW129240   1.283   4.385   1.273 -0.1352  0.4444 -0.7901
 5869SOL    HW229241   1.194   4.469   1.362  0.6329 -0.6784  0.0014
 5870SOL     OW29242   0.154   2.910   5.513  0.2175 -0.0160  0.4879
 5870SOL    HW129243   0.246   2.933   5.501  0.5920 -0.9658  1.5416
 5870SOL    HW229244   0.134   2.934   5.604  1.5918 -1.3163  1.1358
 5871SOL     OW29245   2.387   1.270   6.549 -0.4262  0.8038 -0.5352
 5871SOL    HW129246   2.302   1.243   6.583 -0.6160  1.6674 -0.3191
 5871SOL    HW229247   2.404   1.358   6.584  0.4364  1.0615 -1.5815
 5872SOL     OW29248   1.624   0.156   4.548 -0.3799 -0.1944  0.0053
 5872SOL    HW129249   1.547   0.119   4.505 -0.3071  0.5973 -0.8266
 5872SOL    HW229250   1.593   0.246   4.538  0.1238 -0.0232 -0.0183
 5873SOL     OW29251   2.814   1.136   7.594  0.7875  0.1992 -0.2833
 5873SOL    HW129252   2.735   1.175   7.630  0.3179  0.0451 -1.1728
 5873SOL    HW229253   2.850   1.200   7.533  2.6551  1.3135  1.9620
 5874SOL     OW29254   4.570   3.036   7.315 -0.3720  0.5982 -0.8111
 5874SOL    HW129255   4.623   3.107   7.280 -2.2335  1.5420 -1.7618
 5874SOL    HW229256   4.545   2.990   7.234  0.1194  0.5893 -0.9539
 5875SOL     OW29257   3.473   0.612   0.512  0.0324  0.5677 -0.2901
 5875SOL    HW129258   3.490   0.696   0.555 -2.2703  1.0385 -0.2974
 5875SOL    HW229259   3.550   0.561   0.537  0.6804  0.5877 -2.2480
 5876SOL     OW29260   2.748   2.502   5.744 -0.0281 -0.0512  0.1375
 5876SOL    HW129261   2.772   2.410   5.754 -0.8797 -0.0403  2.2852
 5876SOL    HW229262   2.834   2.539   5.726 -0.0873  0.3226  0.6489
 5877SOL     OW29263   0.157   1.352   0.809 -0.2860 -0.0346 -0.0483
 5877SOL    HW129264   0.107   1.423   0.852 -0.8844 -0.9147  0.7084
 5877SOL    HW229265   0.141   1.368   0.716 -3.0571 -0.9383  0.2781
 5878SOL     OW29266   2.623   2.873   8.650  0.0614  0.0134  0.4620
 5878SOL    HW129267   2.536   2.900   8.680  0.1773  0.2716  0.5623
 5878SOL    HW229268   2.637   2.795   8.704 -0.7845 -0.8096 -0.5073
 5879SOL     OW29269   2.288   2.981   0.860 -0.2605  0.1455  0.0465
 5879SOL    HW129270   2.371   2.968   0.907  0.4397  2.4092 -0.5628
 5879SOL    HW229271   2.225   2.952   0.925  0.4997 -0.8108  0.3625
 5880SOL     OW29272   0.747   1.053   3.595 -0.2907  0.5362 -0.3526
 5880SOL    HW129273   0.657   1.052   3.626 -0.4314  0.8022 -0.7689
 5880SOL    HW229274   0.739   1.084   3.505 -1.3261 -2.0150 -1.1371
 5881SOL     OW29275   0.363   1.152   3.880  0.3045  0.2213 -0.6284
 5881SOL    HW129276   0.371   1.219   3.947  0.8375 -0.0484 -0.4254
 5881SOL    HW229277   0.305   1.089   3.923  0.4746 -0.4744 -1.4086
 5882SOL     OW29278   2.860   4.455   6.700 -0.1074 -0.2932  0.6685
 5882SOL    HW129279   2.857   4.472   6.606  0.7407  1.0989  0.8934
 5882SOL    HW229280   2.951   4.481   6.716  0.3290 -1.4393  0.1334
 5883SOL     OW29281   2.505   3.234   8.863 -0.4784  0.4083  0.0071
 5883SOL    HW129282   2.572   3.302   8.875  0.8938 -0.4536 -2.9461
 5883SOL    HW229283   2.491   3.196   8.950 -1.2423 -0.3883 -0.4660
 5884SOL     OW29284   3.148   4.260  11.269 -0.2371  0.1720  0.0130
 5884SOL    HW129285   3.196   4.203  11.209  0.9774 -0.1693  1.3365
 5884SOL    HW229286   3.075   4.205  11.297  0.4418 -0.2072  1.0239
 5885SOL     OW29287   0.114   0.319  15.137 -0.3288 -0.4655  0.2252
 5885SOL    HW129288   0.150   0.268  15.209  0.8132 -0.2834 -0.2081
 5885SOL    HW229289   0.120   0.405  15.179  1.1616 -0.9501  0.9937
 5886SOL     OW29290   4.361   0.455   5.691 -0.2877 -0.2439 -0.5120
 5886SOL    HW129291   4.326   0.408   5.616 -1.3179 -0.8467  0.3603
 5886SOL    HW229292   4.311   0.537   5.698 -0.2126 -0.1979 -0.5091
 5887SOL     OW29293   2.924   2.349   6.336 -0.4302  0.3046  0.8514
 5887SOL    HW129294   2.899   2.274   6.390  1.7684 -1.3729 -0.5100
 5887SOL    HW229295   2.844   2.359   6.284 -0.2492 -0.4728  0.4268
 5888SOL     OW29296   4.726   0.089   5.374 -0.5149  0.3493  0.4951
 5888SOL    HW129297   4.729   0.170   5.322 -1.1768 -1.2272 -2.0329
 5888SOL    HW229298   4.670   0.029   5.325 -0.9119 -0.1374  1.5459
 5889SOL     OW29299   1.364   2.445  13.320  0.3522  0.9881  0.2868
 5889SOL    HW129300   1.346   2.354  13.294 -0.6922  1.5374 -0.8760
 5889SOL    HW229301   1.457   2.456  13.300  0.7906 -0.8758  1.2608
 5890SOL     OW29302   0.562   2.553   2.608 -0.1734  0.6570  0.1568
 5890SOL    HW129303   0.488   2.493   2.609  0.8922 -0.6484  1.2539
 5890SOL    HW229304   0.576   2.569   2.514  0.1323  0.8475  0.2356
 5891SOL     OW29305   1.840   0.395  12.252  0.2488  0.4042 -0.2126
 5891SOL    HW129306   1.862   0.434  12.337  1.0642  2.9015 -1.5699
 5891SOL    HW229307   1.877   0.307  12.257 -3.1362 -1.0203 -0.3227
 5892SOL     OW29308   2.733   4.096   6.626  0.1465  0.4094 -0.3400
 5892SOL    HW129309   2.793   4.022   6.619  1.4051  1.5040 -1.2764
 5892SOL    HW229310   2.798   4.166   6.616  0.6261  0.0223  0.0957
 5893SOL     OW29311   0.206   1.184   8.762 -0.3854 -0.5308  0.2056
 5893SOL    HW129312   0.201   1.214   8.853 -0.9098 -2.1253  0.7005
 5893SOL    HW229313   0.191   1.264   8.712  1.0724 -0.4003 -0.0406
 5894SOL     OW29314   0.035   2.414   6.427  0.3784 -0.3817 -0.0470
 5894SOL    HW129315   0.039   2.410   6.332 -3.1056 -0.5200 -0.2016
 5894SOL    HW229316   0.049   2.504   6.456  0.6908 -0.9995  1.7356
 5895SOL     OW29317   3.645   4.544  10.272  0.5937 -0.4890  0.1075
 5895SOL    HW129318   3.551   4.547  10.257  0.6897  0.2120 -0.3199
 5895SOL    HW229319   3.685   4.540  10.185  1.2141  0.5642  0.3494
 5896SOL     OW29320   1.253   0.943   7.148 -0.4654 -0.1592  0.0339
 5896SOL    HW129321   1.168   0.900   7.152  0.0268 -0.9215  2.4359
 5896SOL    HW229322   1.296   0.877   7.202  0.0964  0.1334 -0.0576
 5897SOL     OW29323   0.366   4.318   5.467 -0.2460  0.1463  0.2188
 5897SOL    HW129324   0.457   4.292   5.480 -0.3646 -0.3392  0.0893
 5897SOL    HW229325   0.363   4.413   5.478 -0.3077 -0.0010  1.4181
 5898SOL     OW29326   3.376   1.016   1.872  0.0181  0.0916  0.1289
 5898SOL    HW129327   3.396   0.943   1.813 -0.4901  0.2419 -0.2289
 5898SOL    HW229328   3.333   0.972   1.946  1.2122  1.6783  1.7560
 5899SOL     OW29329   2.185   0.247  13.722  0.3455 -0.5476  0.4661
 5899SOL    HW129330   2.260   0.187  13.723  0.4629 -0.3423  2.4186
 5899SOL    HW229331   2.222   0.312  13.661 -1.8588  1.5977  1.4272
 5900SOL     OW29332   1.604   3.723   7.594 -0.3494  0.3542 -0.0263
 5900SOL    HW129333   1.593   3.738   7.688  0.3479 -0.1783  0.1417
 5900SOL    HW229334   1.618   3.628   7.604 -0.9552  0.4691  1.9290
 5901SOL     OW29335   3.342   0.388  14.097  1.3787  0.2971  0.4363
 5901SOL    HW129336   3.380   0.300  14.099  1.2066  0.2047 -0.4285
 5901SOL    HW229337   3.411   0.445  14.064  0.8969  0.5448 -0.1394
 5902SOL     OW29338   1.418   1.269  10.888  0.0085 -0.1477 -0.3316
 5902SOL    HW129339   1.460   1.313  10.814  0.8223 -0.4799 -0.0631
 5902SOL    HW229340   1.457   1.305  10.968 -0.9171  0.2689 -0.0650
 5903SOL     OW29341   4.436   3.414  12.270  0.4708  0.0487  0.4472
 5903SOL    HW129342   4.488   3.398  12.191  0.4382  0.7447  0.2824
 5903SOL    HW229343   4.451   3.336  12.323  2.5218  0.2687  0.2043
 5904SOL     OW29344   1.695   1.227   5.460  0.2007  0.2220 -0.2958
 5904SOL    HW129345   1.687   1.299   5.397  0.6699  1.0374  0.5721
 5904SOL    HW229346   1.605   1.194   5.461  0.7130 -1.2717 -2.4843
 5905SOL     OW29347   0.127   4.212   2.201  0.4918 -0.2873 -0.5972
 5905SOL    HW129348   0.185   4.281   2.171 -0.5868  0.9104  0.0711
 5905SOL    HW229349   0.163   4.205   2.289  0.2618 -0.4012 -0.5109
 5906SOL     OW29350   1.485   2.763  10.595  0.1850  0.2953 -0.1639
 5906SOL    HW129351   1.526   2.721  10.670 -1.0168  0.7091  0.7299
 5906SOL    HW229352   1.548   2.746  10.525 -0.3486  1.7305 -1.0017
 5907SOL     OW29353   1.265   0.558   1.936 -0.1660 -0.3607 -0.4680
 5907SOL    HW129354   1.271   0.551   1.840 -2.0458  1.4325 -0.7114
 5907SOL    HW229355   1.274   0.653   1.941  0.2721 -0.4645  0.7806
 5908SOL     OW29356   4.235   3.085   4.550  0.8721 -0.7630 -0.1355
 5908SOL    HW129357   4.264   3.052   4.635 -0.4368 -0.4767  0.4271
 5908SOL    HW229358   4.195   3.162   4.592 -0.0442 -0.5698 -1.3688
 5909SOL     OW29359   0.696   3.922   5.162  0.2258  0.1291 -0.6397
 5909SOL    HW129360   0.705   3.863   5.087 -0.4011 -0.6352 -0.1106
 5909SOL    HW229361   0.777   3.904   5.210 -0.0387  1.1750  0.2079
 5910SOL     OW29362   4.713   3.390   7.776  0.5458  0.1967 -0.2954
 5910SOL    HW129363   4.637   3.378   7.718 -0.9911  0.2704  1.7207
 5910SOL    HW229364   0.000   3.297   7.770  0.4205  0.2255 -1.1978
 5911SOL     OW29365   0.742   0.005   8.881  0.3316 -0.7429  0.4288
 5911SOL    HW129366   0.681   4.693   8.938  0.8773  1.1637  2.5603
 5911SOL    HW229367   0.687   0.024   8.805 -0.7034  0.0120  1.3560
 5912SOL     OW29368   2.618   1.006  10.380  0.3703 -0.0307 -0.1381
 5912SOL    HW129369   2.668   1.064  10.437 -2.0176  0.4588  1.4892
 5912SOL    HW229370   2.570   0.959  10.449  0.6706  2.3603  1.7057
 5913SOL     OW29371   0.097   0.759  13.795 -0.1934 -0.2917  0.5707
 5913SOL    HW129372   0.096   0.824  13.724  0.0131 -1.9041 -0.9116
 5913SOL    HW229373   0.189   0.779  13.811  0.1509 -1.9713  0.6788
 5914SOL     OW29374   2.212   4.552   6.573  0.2067  0.6217 -0.1254
 5914SOL    HW129375   2.157   4.482   6.608  0.6720  0.0785 -0.4697
 5914SOL    HW229376   2.284   4.543   6.635  1.1492 -1.2174 -1.4750
 5915SOL     OW29377   4.382   1.910   4.851  0.0811 -0.0641  0.3429
 5915SOL    HW129378   4.363   1.878   4.940 -0.6525 -0.4838  0.0392
 5915SOL    HW229379   4.441   1.982   4.874 -1.1642  1.0650 -0.0016
 5916SOL     OW29380   1.150   2.405   3.714  0.2847  0.1820  0.2383
 5916SOL    HW129381   1.219   2.400   3.648 -1.0287  0.7926 -1.1756
 5916SOL    HW229382   1.206   2.400   3.792  1.1149  1.5961 -0.2532
 5917SOL     OW29383   1.229   0.093   7.380 -0.1120  0.0616  0.0805
 5917SOL    HW129384   1.285   0.098   7.457 -1.6284 -2.1986  1.3369
 5917SOL    HW229385   1.294   0.130   7.321 -1.2236  0.3434 -0.9849
 5918SOL     OW29386   3.701   1.419   1.499 -0.4717 -0.0592  0.7286
 5918SOL    HW129387   3.676   1.483   1.565 -1.7842  1.2735 -1.0846
 5918SOL    HW229388   3.641   1.344   1.503  0.3144 -0.7126  0.4178
 5919SOL     OW29389   1.335   3.875   5.017 -0.2865 -0.2072  0.0730
 5919SOL    HW129390   1.322   3.908   5.106  1.6248 -0.1239  0.3233
 5919SOL    HW229391   1.375   3.789   5.025  1.1042  0.6818  2.5236
 5920SOL     OW29392   3.105   0.947   3.071 -0.6137 -0.2493  0.5386
 5920SOL    HW129393   3.139   0.870   3.117  1.5173  0.2418 -0.1888
 5920SOL    HW229394   3.015   0.915   3.062 -0.2026 -1.0792 -0.6134
 5921SOL     OW29395   1.899   2.018   4.238  0.6315  0.4163 -0.4384
 5921SOL    HW129396   1.882   2.000   4.146 -1.0260 -2.6495  0.4573
 5921SOL    HW229397   1.898   1.929   4.275 -0.9816 -0.6215 -2.9804
 5922SOL     OW29398   1.459   0.271  13.055 -0.3259  0.5967  0.4645
 5922SOL    HW129399   1.424   0.230  12.975  0.1675  2.0595 -0.5070
 5922SOL    HW229400   1.369   0.287  13.084 -0.7071  1.3538 -1.1418
 5923SOL     OW29401   1.284   2.708  16.429 -0.4101  0.1362  0.5720
 5923SOL    HW129402   1.279   2.688  16.336 -0.1137  0.0983  0.5657
 5923SOL    HW229403   1.375   2.690  16.449 -0.2954  0.6053  0.4754
 5924SOL     OW29404   1.334   0.358   9.168 -0.2073 -0.7677  0.7612
 5924SOL    HW129405   1.359   0.428   9.229 -0.4190  0.7088 -0.8639
 5924SOL    HW229406   1.239   0.368   9.162 -0.2390 -0.6714  1.3726
 5925SOL     OW29407   4.022   4.098  14.313  0.2094 -0.3833 -0.0764
 5925SOL    HW129408   4.106   4.055  14.296  2.1565  2.6640  1.9648
 5925SOL    HW229409   3.984   4.027  14.364  2.9460 -1.5008  0.4176
 5926SOL     OW29410   1.530   2.744   6.804 -0.5949  0.5797 -0.0278
 5926SOL    HW129411   1.475   2.685   6.857 -3.1539  2.5081 -0.5345
 5926SOL    HW229412   1.609   2.692   6.790 -1.3733 -0.2860 -1.2129
 5927SOL     OW29413   1.465   2.100   5.558 -0.0633  0.2755 -0.0687
 5927SOL    HW129414   1.514   2.044   5.497 -0.7006  2.3368 -2.4674
 5927SOL    HW229415   1.466   2.183   5.512 -0.0872 -0.2179 -0.9724
 5928SOL     OW29416   0.042   4.628  15.325 -0.2843  0.1907 -0.0672
 5928SOL    HW129417   4.693   4.665  15.296 -0.2646 -1.2076 -1.8754
 5928SOL    HW229418   0.021   4.552  15.379  0.0110  0.1845  0.0355
 5929SOL     OW29419   1.096   3.680  14.126 -0.2380  0.0886  0.4534
 5929SOL    HW129420   1.151   3.689  14.203  0.0533  0.0782  0.2467
 5929SOL    HW229421   1.110   3.767  14.087  0.6538  1.0383  2.9361
 5930SOL     OW29422   4.528   1.509  14.813  0.2596  0.0311 -0.0563
 5930SOL    HW129423   4.476   1.558  14.876  0.5507  1.6990 -1.1373
 5930SOL    HW229424   4.539   1.573  14.743 -2.2110  0.7761  0.2111
 5931SOL     OW29425   4.214   3.231   2.005 -0.3995  0.4973 -0.2404
 5931SOL    HW129426   4.295   3.215   2.053 -0.4608  0.1159 -0.2611
 5931SOL    HW229427   4.230   3.191   1.919 -1.3486 -1.0795  0.3229
 5932SOL     OW29428   4.646   3.350  11.215 -0.1241  0.3269 -0.0290
 5932SOL    HW129429   0.003   3.361  11.241  0.0579 -1.2020  0.0149
 5932SOL    HW229430   4.642   3.419  11.149  0.8544 -1.3213 -1.8339
 5933SOL     OW29431   2.311   0.164  11.972  0.4229  0.4129 -0.0325
 5933SOL    HW129432   2.375   0.141  12.038  1.2749 -0.1945 -1.0614
 5933SOL    HW229433   2.286   0.074  11.952  0.3458  0.0905  1.5436
 5934SOL     OW29434   3.158   2.205  15.882 -0.1539 -0.2068  0.0523
 5934SOL    HW129435   3.083   2.226  15.938 -0.7436 -1.1906 -0.3722
 5934SOL    HW229436   3.182   2.291  15.847  1.3742 -0.3700  0.7094
 5935SOL     OW29437   1.744   2.689   8.083  0.8629 -0.9652 -0.1653
 5935SOL    HW129438   1.796   2.737   8.147 -0.2565 -1.5422  1.1763
 5935SOL    HW229439   1.780   2.600   8.090  0.6829 -0.8637  2.1415
 5936SOL     OW29440   1.807   4.180   2.091  1.0017 -0.2265  0.0116
 5936SOL    HW129441   1.846   4.094   2.076  2.0396 -0.0068  1.5135
 5936SOL    HW229442   1.884   4.235   2.105 -0.1780  0.8132  2.4024
 5937SOL     OW29443   1.885   0.166   0.898 -0.3224  0.3497  0.5900
 5937SOL    HW129444   1.916   0.250   0.864  4.1397 -1.9227 -0.9290
 5937SOL    HW229445   1.966   0.116   0.906 -0.5117 -0.0636 -0.0568
 5938SOL     OW29446   0.455   1.006   7.997 -0.0817  0.0066 -0.1352
 5938SOL    HW129447   0.517   0.953   8.047  1.5200 -0.5587 -2.7125
 5938SOL    HW229448   0.372   0.962   8.017 -0.0947  0.2743  0.3904
 5939SOL     OW29449   1.301   4.625   7.941  0.2917 -0.0415  0.2731
 5939SOL    HW129450   1.319   4.698   7.882 -3.6432  0.0176 -0.8392
 5939SOL    HW229451   1.286   4.550   7.884 -1.5774 -0.6923  1.6285
 5940SOL     OW29452   3.935   4.201  14.065 -0.1726 -0.2556 -0.0310
 5940SOL    HW129453   4.007   4.234  14.011 -1.3522  0.6395 -1.0619
 5940SOL    HW229454   3.986   4.174  14.141 -1.0947 -0.4803  0.5016
 5941SOL     OW29455   1.133   0.749   8.468  0.1129 -0.1228 -0.4474
 5941SOL    HW129456   1.111   0.745   8.561 -0.1480  3.4571 -0.3544
 5941SOL    HW229457   1.046   0.762   8.430 -0.5789 -1.4470  0.7276
 5942SOL     OW29458   4.668   2.751   2.769  0.0047 -0.2860  0.1359
 5942SOL    HW129459   4.722   2.785   2.697 -0.2284  0.6124  0.3877
 5942SOL    HW229460   0.007   2.744   2.829  1.0020  0.6320 -0.9547
 5943SOL     OW29461   1.007   2.802  11.279  0.3061 -0.5211  0.1278
 5943SOL    HW129462   1.009   2.879  11.223  0.6370  0.2100  1.1353
 5943SOL    HW229463   1.088   2.808  11.329 -0.6442 -0.2695  1.6444
 5944SOL     OW29464   1.211   2.071   3.624  0.2180 -0.0841 -0.1094
 5944SOL    HW129465   1.171   2.084   3.710  1.9300 -1.0963  0.8425
 5944SOL    HW229466   1.293   2.030   3.652  0.4655  0.4697 -0.0160
 5945SOL     OW29467   3.137   4.296   3.354 -0.2609 -0.3316 -0.5602
 5945SOL    HW129468   3.142   4.358   3.427 -1.3245 -0.9945  0.0654
 5945SOL    HW229469   3.218   4.313   3.305 -0.6703  0.0489 -1.1072
 5946SOL     OW29470   1.058   4.567   8.814 -0.3541 -0.0902 -0.4718
 5946SOL    HW129471   1.114   4.494   8.840 -0.2486  0.1337 -0.0658
 5946SOL    HW229472   1.004   4.518   8.752 -1.2214 -0.1181  0.3015
 5947SOL     OW29473   1.572   0.389   0.285 -0.7054 -0.7048 -0.2633
 5947SOL    HW129474   1.604   0.303   0.314  0.2116 -0.0298  0.7122
 5947SOL    HW229475   1.538   0.378   0.196 -2.0375 -0.7941  0.2495
 5948SOL     OW29476   3.975   4.499   0.611 -0.4573  0.0260  0.0698
 5948SOL    HW129477   3.888   4.517   0.577 -0.3047  1.6801  0.5801
 5948SOL    HW229478   4.023   4.573   0.574  0.5592 -1.3809 -1.4203
 5949SOL     OW29479   4.032   2.647   3.370 -0.2995 -0.3207 -0.2223
 5949SOL    HW129480   3.964   2.594   3.328  1.0866 -1.8854 -0.4726
 5949SOL    HW229481   3.997   2.644   3.459  0.3983  0.2101  0.0691
 5950SOL     OW29482   0.586   3.437   8.480  0.5005 -0.0513  0.2218
 5950SOL    HW129483   0.509   3.411   8.429  1.2756  1.6769 -1.8346
 5950SOL    HW229484   0.542   3.452   8.563  1.1064  0.5557  0.4312
 5951SOL     OW29485   0.998   1.154  10.194  0.5106 -0.2036 -0.0064
 5951SOL    HW129486   0.912   1.136  10.157  0.6198 -1.8196  0.5272
 5951SOL    HW229487   1.031   1.210  10.124 -0.7192 -0.2614 -0.6431
 5952SOL     OW29488   4.326   2.653  11.341 -0.1903 -0.2217 -0.3285
 5952SOL    HW129489   4.302   2.681  11.429 -1.7456 -2.1913 -0.1201
 5952SOL    HW229490   4.310   2.559  11.353 -3.1649  0.5573  1.9082
 5953SOL     OW29491   2.345   0.654   5.808  0.7341 -0.2516 -0.3266
 5953SOL    HW129492   2.425   0.627   5.764 -0.3547 -1.0838 -1.8064
 5953SOL    HW229493   2.279   0.629   5.743 -0.1650  2.0601 -0.2868
 5954SOL     OW29494   1.235   0.074   6.953  0.1135 -0.1295 -0.6178
 5954SOL    HW129495   1.192   0.022   7.021 -1.8067  1.7082 -0.4231
 5954SOL    HW229496   1.324   0.085   6.988 -0.5970 -0.9651  1.4931
 5955SOL     OW29497   1.573   1.610   8.327  0.0915 -0.5203  0.1880
 5955SOL    HW129498   1.480   1.613   8.304  0.1186 -2.1352 -0.1323
 5955SOL    HW229499   1.589   1.701   8.352  0.8653 -0.8173  0.7878
 5956SOL     OW29500   3.397   3.873  11.416 -0.1465 -0.9072 -0.1141
 5956SOL    HW129501   3.342   3.949  11.435 -0.1395 -1.3543  1.7559
 5956SOL    HW229502   3.458   3.882  11.489  1.1857  2.7094 -1.7326
 5957SOL     OW29503   1.203   1.011   2.478 -0.3201  0.1033 -0.5540
 5957SOL    HW129504   1.235   0.982   2.563 -1.9585  0.2682  0.1153
 5957SOL    HW229505   1.211   1.104   2.499  0.0960 -0.4500  1.7199
 5958SOL     OW29506   3.636   0.845   1.287 -0.3068 -0.3969  0.1828
 5958SOL    HW129507   3.562   0.785   1.277 -0.0437 -0.4521 -1.4353
 5958SOL    HW229508   3.707   0.789   1.316 -0.7082 -0.6481  0.6664
 5959SOL     OW29509   4.155   2.989   1.281  0.3764 -0.3746 -0.0286
 5959SOL    HW129510   4.116   2.918   1.331  0.4993  1.2838  2.3778
 5959SOL    HW229511   4.193   2.928   1.217  0.8440 -1.2327  1.0692
 5960SOL     OW29512   4.005   2.456   5.764 -0.1745 -0.4139  0.2700
 5960SOL    HW129513   3.916   2.479   5.792  0.6619  1.5734  1.2996
 5960SOL    HW229514   4.028   2.544   5.736  1.5947 -0.1657  2.5424
 5961SOL     OW29515   3.210   3.194  10.968 -0.1299 -0.1217 -0.5159
 5961SOL    HW129516   3.225   3.276  10.921  1.2910 -0.9250 -1.5081
 5961SOL    HW229517   3.299   3.187  11.003  0.1803  1.7715 -0.9386
 5962SOL     OW29518   1.243   0.117   5.933 -0.0546  0.0133  0.2429
 5962SOL    HW129519   1.226   0.023   5.939  1.0163 -0.1707  0.3838
 5962SOL    HW229520   1.303   0.123   5.859 -1.6551  0.4952 -1.0134
 5963SOL     OW29521   0.506   2.453   6.938 -0.0508 -0.2329  0.2138
 5963SOL    HW129522   0.566   2.525   6.958  0.4714 -0.5788 -0.1075
 5963SOL    HW229523   0.516   2.447   6.843  0.1759  0.6202  0.1863
 5964SOL     OW29524   4.207   1.326  11.134 -0.3780 -0.6780 -0.6382
 5964SOL    HW129525   4.290   1.289  11.105 -0.3842  0.6427 -2.3678
 5964SOL    HW229526   4.225   1.348  11.225 -1.6505 -0.9323 -0.3296
 5965SOL     OW29527   1.877   0.631   4.159 -0.1327 -0.2233 -0.0610
 5965SOL    HW129528   1.890   0.539   4.138  3.2257 -0.2671  2.1567
 5965SOL    HW229529   1.787   0.641   4.130 -0.0913  0.1294 -0.0752
 5966SOL     OW29530   4.656   4.144   6.665 -0.1064  0.4691  0.1411
 5966SOL    HW129531   4.710   4.072   6.696  0.6978  0.8997 -0.2574
 5966SOL    HW229532   4.709   4.218   6.695  0.9176  0.7636 -2.4076
 5967SOL     OW29533   0.436   1.832   0.208  0.1658 -0.4611 -0.4491
 5967SOL    HW129534   0.379   1.909   0.204  0.4725 -0.2938 -1.6036
 5967SOL    HW229535   0.440   1.797   0.297 -1.6089 -0.9744 -0.5567
 5968SOL     OW29536   1.862   1.321   2.261 -0.2564  0.0517 -0.2636
 5968SOL    HW129537   1.914   1.400   2.275 -0.1922  0.2023 -1.3479
 5968SOL    HW229538   1.814   1.349   2.183  0.9080  1.8958 -0.3274
 5969SOL     OW29539   3.757   2.119   0.996 -0.1414 -0.6357  0.2740
 5969SOL    HW129540   3.761   2.212   0.972  2.8287 -0.0919  2.8569
 5969SOL    HW229541   3.839   2.113   1.046 -0.1063  1.5083  0.4595
 5970SOL     OW29542   2.383   0.987   7.765  0.1875  0.7941  0.2046
 5970SOL    HW129543   2.304   0.987   7.712 -1.5098  0.6683  2.7082
 5970SOL    HW229544   2.348   0.932   7.836  0.6757 -1.7955 -1.5363
 5971SOL     OW29545   1.830   2.484   3.526 -0.0861 -0.1353  0.3652
 5971SOL    HW129546   1.810   2.546   3.455 -0.0113 -1.6006 -0.9279
 5971SOL    HW229547   1.741   2.450   3.538 -1.0447  2.3462  0.3082
 5972SOL     OW29548   2.691   0.604   8.860  0.4355  0.0085  0.0976
 5972SOL    HW129549   2.691   0.633   8.768  0.4979 -1.4751 -0.3659
 5972SOL    HW229550   2.680   0.510   8.845 -3.7895  0.8173 -1.8982
 5973SOL     OW29551   1.441   4.337   8.559  0.1397  0.1656  0.1580
 5973SOL    HW129552   1.353   4.316   8.590 -0.5800 -0.6025 -2.3706
 5973SOL    HW229553   1.460   4.263   8.501  2.2424  0.0036  1.0631
 5974SOL     OW29554   4.545   4.720  15.762 -0.6949 -0.0978 -0.0544
 5974SOL    HW129555   4.602   0.035  15.703 -1.1820 -1.3684 -1.5946
 5974SOL    HW229556   4.524   4.648  15.703 -0.5160  0.6754 -1.0624
 5975SOL     OW29557   3.411   1.879   6.046 -0.8440  0.8147  0.2569
 5975SOL    HW129558   3.464   1.957   6.064  0.5936 -0.1646  0.2140
 5975SOL    HW229559   3.392   1.854   6.136  0.8577  1.6909  0.8628
 5976SOL     OW29560   0.952   2.616   3.014  0.0921 -0.1343  0.3711
 5976SOL    HW129561   0.939   2.557   3.088 -0.7440  0.8874  1.0346
 5976SOL    HW229562   0.919   2.694   3.058 -0.5808 -0.6556  0.7983
 5977SOL     OW29563   3.135   3.203   7.394 -0.2272 -0.0165  0.0407
 5977SOL    HW129564   3.144   3.296   7.414 -1.6844 -0.4894  2.9795
 5977SOL    HW229565   3.041   3.185   7.397 -0.3352  0.5659  0.0879
 5978SOL     OW29566   0.479   1.498   8.468  0.0358 -0.3578 -0.0031
 5978SOL    HW129567   0.418   1.572   8.458  0.1008 -0.4072 -0.6946
 5978SOL    HW229568   0.491   1.510   8.563  3.1438  0.6440 -0.5560
 5979SOL     OW29569   3.482   1.154   8.711 -0.0975 -0.1996  0.1376
 5979SOL    HW129570   3.502   1.225   8.772  1.1854  0.8822 -1.5802
 5979SOL    HW229571   3.512   1.075   8.758 -0.4697  0.1719  1.0055
 5980SOL     OW29572   2.073   1.785   3.447 -0.0695 -0.3013  0.0562
 5980SOL    HW129573   2.049   1.791   3.354 -1.2601  1.9226  0.5197
 5980SOL    HW229574   2.168   1.793   3.438 -0.5685  1.3993 -3.7399
 5981SOL     OW29575   0.875   1.948  11.003 -0.1157  0.1788 -0.2527
 5981SOL    HW129576   0.922   2.020  10.961 -0.6530  2.5225  3.1215
 5981SOL    HW229577   0.940   1.906  11.060 -1.2674 -2.9537 -1.2657
 5982SOL     OW29578   4.629   0.630  15.512 -0.1341 -0.1594  0.5983
 5982SOL    HW129579   4.553   0.688  15.506  0.1540  0.2642  1.0510
 5982SOL    HW229580   4.591   0.561  15.567 -2.6479  1.8872  1.4356
 5983SOL     OW29581   1.146   0.338   2.043 -0.0105 -0.1463  0.3473
 5983SOL    HW129582   1.171   0.425   2.009  0.2861 -0.1043  0.6723
 5983SOL    HW229583   1.192   0.278   1.984 -0.5963  1.0054 -1.2915
 5984SOL     OW29584   0.265   3.307   4.205  0.4074 -0.1110  0.0950
 5984SOL    HW129585   0.178   3.272   4.186  0.9113 -0.5971 -1.3180
 5984SOL    HW229586   0.253   3.398   4.232 -0.3136 -0.0791 -0.3545
 5985SOL     OW29587   2.604   3.578   3.144  0.1469 -0.2050 -0.6562
 5985SOL    HW129588   2.584   3.490   3.112 -2.9701  0.9391 -1.8573
 5985SOL    HW229589   2.527   3.598   3.197  0.8823  0.3368  0.1964
 5986SOL     OW29590   3.657   4.451   7.584  0.1793 -0.2051 -0.0069
 5986SOL    HW129591   3.614   4.431   7.501  2.4151  0.2100 -1.2846
 5986SOL    HW229592   3.690   4.365   7.612  0.8524  0.7967  2.2740
 5987SOL     OW29593   0.066   3.344   7.395 -0.3346  0.4871 -0.3996
 5987SOL    HW129594   0.119   3.264   7.394 -1.5389 -0.3278  0.7761
 5987SOL    HW229595   0.131   3.413   7.405 -3.9728  3.9347 -0.5928
 5988SOL     OW29596   1.205   0.899   5.537 -0.4527  0.1290  0.4752
 5988SOL    HW129597   1.157   0.830   5.582 -0.9036  0.5258  0.6082
 5988SOL    HW229598   1.138   0.967   5.542 -0.2881  0.4268 -1.4551
 5989SOL     OW29599   0.629   2.260   0.074 -0.2638 -0.1112 -0.2386
 5989SOL    HW129600   0.535   2.269   0.063 -0.0614  2.5068  0.1269
 5989SOL    HW229601   0.657   2.226  17.726  1.0164  0.8641 -0.2094
 5990SOL     OW29602   4.694   0.539   7.564  0.1401 -0.4729  0.1342
 5990SOL    HW129603   4.709   0.548   7.470 -2.6013  1.7627 -0.0729
 5990SOL    HW229604   4.618   0.482   7.568  0.8273 -1.3773  0.4312
 5991SOL     OW29605   3.557   1.758   6.903 -0.0744  0.3386  0.0123
 5991SOL    HW129606   3.487   1.772   6.967  0.6661  2.0131  0.4546
 5991SOL    HW229607   3.589   1.847   6.890 -0.2091  0.6734  1.9397
 5992SOL     OW29608   1.178   4.146   6.721 -0.5218  0.3799  1.0348
 5992SOL    HW129609   1.205   4.075   6.779  2.3213  2.2470  1.9984
 5992SOL    HW229610   1.263   4.185   6.703 -1.2070  2.0113  1.3675
 5993SOL     OW29611   3.157   3.578   9.061 -0.4853 -0.2722 -0.7921
 5993SOL    HW129612   3.142   3.486   9.042 -0.6073 -0.6811  1.3884
 5993SOL    HW229613   3.156   3.572   9.156  1.9575 -0.3991 -0.7848
 5994SOL     OW29614   2.165   3.660   5.368  0.4851 -0.1601 -0.3122
 5994SOL    HW129615   2.167   3.616   5.452  0.0587 -0.0015 -0.2205
 5994SOL    HW229616   2.127   3.745   5.390  1.7805  1.4366 -4.0253
 5995SOL     OW29617   2.596   3.471  12.047 -0.0412 -0.1485 -0.0987
 5995SOL    HW129618   2.686   3.479  12.017  0.0321 -1.1697 -0.1621
 5995SOL    HW229619   2.603   3.384  12.085  0.9868  0.4241  1.0206
 5996SOL     OW29620   1.305   4.118  11.840  0.2764  0.0421  0.1261
 5996SOL    HW129621   1.255   4.104  11.760 -1.6880 -0.4384  1.4347
 5996SOL    HW229622   1.286   4.044  11.897  3.4667 -0.5937  0.3890
 5997SOL     OW29623   4.555   3.875   6.450  0.3625  0.1016  0.5316
 5997SOL    HW129624   4.549   3.802   6.511 -0.2164  0.4482  0.8826
 5997SOL    HW229625   4.482   3.848   6.394  0.4696  0.4290  0.2285
 5998SOL     OW29626   4.726   0.830   6.400  0.1504  0.1415 -0.0227
 5998SOL    HW129627   4.640   0.790   6.383  1.1458 -1.1177 -2.0836
 5998SOL    HW229628   0.031   0.802   6.318  0.8350  1.9804 -0.3146
 5999SOL     OW29629   1.710   3.452   2.495 -0.4021 -0.1260  0.1804
 5999SOL    HW129630   1.689   3.538   2.459 -1.7386 -1.4777 -2.3433
 5999SOL    HW229631   1.701   3.475   2.587  1.0177  2.5311 -0.3372
 6000SOL     OW29632   0.562   3.083   6.380  0.0780  0.0598 -0.0867
 6000SOL    HW129633   0.596   3.036   6.456 -0.8820 -0.6418 -0.0840
 6000SOL    HW229634   0.506   3.151   6.419 -1.3124  0.2659 -2.4344
 6001SOL     OW29635   2.063   3.099   4.476 -0.1874 -0.7426  0.2280
 6001SOL    HW129636   2.037   3.023   4.528  0.6503 -0.0284  1.6608
 6001SOL    HW229637   2.033   3.083   4.386 -1.3056  1.2447  0.2396
 6002SOL     OW29638   2.585   2.083   0.942 -0.0652 -0.0507 -0.0065
 6002SOL    HW129639   2.563   1.997   0.975  2.9442  0.3466  3.0696
 6002SOL    HW229640   2.678   2.062   0.928  0.5504  1.8206  1.1910
 6003SOL     OW29641   0.509   1.812  17.526  0.0576  0.1459  0.1878
 6003SOL    HW129642   0.450   1.887  17.514  0.7110  0.9326  1.8348
 6003SOL    HW229643   0.592   1.853  17.548 -0.7981  1.0437  1.7860
 6004SOL     OW29644   3.926   4.172   2.014 -0.3775  0.1367 -0.4038
 6004SOL    HW129645   3.986   4.238   2.048 -0.4267 -0.3605  0.6561
 6004SOL    HW229646   3.909   4.198   1.923  0.6723  1.8313 -0.1217
 6005SOL     OW29647   1.831   4.166   7.173  0.4265 -0.4554  0.1178
 6005SOL    HW129648   1.814   4.081   7.132  1.0258  0.0332 -1.1367
 6005SOL    HW229649   1.764   4.172   7.242 -0.6806  1.4574 -1.1399
 6006SOL     OW29650   3.485   0.759   0.916  0.0158  0.0100  0.2584
 6006SOL    HW129651   3.418   0.738   0.980 -1.6661  2.3388 -0.7200
 6006SOL    HW229652   3.527   0.673   0.922  0.0408 -0.0114 -0.1891
 6007SOL     OW29653   0.765   1.030  17.238 -0.1996 -0.2876 -0.5868
 6007SOL    HW129654   0.678   0.994  17.255  0.6828 -1.1400  2.0542
 6007SOL    HW229655   0.775   1.068  17.325 -4.1981  1.0684 -0.7016
 6008SOL     OW29656   3.530   0.658   5.700  0.0202 -0.5155  0.5350
 6008SOL    HW129657   3.559   0.728   5.642 -0.2256 -1.7758 -1.1198
 6008SOL    HW229658   3.436   0.668   5.687 -0.2972 -0.3164  3.0025
 6009SOL     OW29659   2.697   2.055   7.792  0.2668 -0.3535  0.1497
 6009SOL    HW129660   2.788   2.046   7.818 -0.0813 -0.2703  1.4142
 6009SOL    HW229661   2.690   2.150   7.803  2.5153 -0.3926  1.9726
 6010SOL     OW29662   0.488   2.854   2.361  0.0376 -0.3456 -0.5884
 6010SOL    HW129663   0.510   2.765   2.332  1.5748  0.4821 -1.9409
 6010SOL    HW229664   0.460   2.903   2.284  0.5142 -0.0068 -0.5481
 6011SOL     OW29665   0.411   1.016   2.189 -0.2833 -0.5885 -0.1868
 6011SOL    HW129666   0.470   0.970   2.130 -0.5778  1.7460 -2.3410
 6011SOL    HW229667   0.471   1.071   2.239  0.5038 -0.8792 -0.8185
 6012SOL     OW29668   2.389   2.664   3.990 -0.6857 -0.1953  0.0460
 6012SOL    HW129669   2.360   2.754   3.977  1.9449  1.0263  2.8196
 6012SOL    HW229670   2.480   2.689   4.005 -0.7080  0.4770 -0.9025
 6013SOL     OW29671   3.749   4.525   5.177 -0.3917  0.1131 -0.5467
 6013SOL    HW129672   3.789   4.538   5.264  0.1480  0.4722 -0.8460
 6013SOL    HW229673   3.750   4.618   5.153  0.6684  1.0301  2.9690
 6014SOL     OW29674   3.123   2.215  13.370 -0.2331 -0.1253 -0.2186
 6014SOL    HW129675   3.085   2.127  13.366  0.8842 -0.6065 -0.0614
 6014SOL    HW229676   3.086   2.245  13.287 -0.3691 -0.9271 -0.4464
 6015SOL     OW29677   4.590   3.463  12.021 -0.0696 -0.3082  0.1598
 6015SOL    HW129678   4.550   3.460  11.934  1.0942  0.0604 -0.3966
 6015SOL    HW229679   4.630   3.550  12.015 -1.5657  0.2968 -1.1784
 6016SOL     OW29680   2.625   3.996  17.596  0.0834  0.1971 -0.2912
 6016SOL    HW129681   2.612   4.085  17.561  0.5759  0.6347  0.6513
 6016SOL    HW229682   2.720   3.991  17.604  0.0936  1.1774  0.2631
 6017SOL     OW29683   1.921   4.404   8.413 -0.1913 -0.1984 -0.1273
 6017SOL    HW129684   1.870   4.477   8.379  1.1458 -0.0724 -1.8614
 6017SOL    HW229685   1.851   4.368   8.468 -0.9759  3.2852  1.1442
 6018SOL     OW29686   2.691   2.830   4.875 -0.4812  0.4314 -0.5332
 6018SOL    HW129687   2.778   2.835   4.837 -0.4050 -2.4763 -0.7500
 6018SOL    HW229688   2.696   2.889   4.950  0.2271 -1.4664  0.9127
 6019SOL     OW29689   4.280   0.840   6.022 -0.1133 -0.0569  0.4237
 6019SOL    HW129690   4.265   0.928   5.987 -1.4496 -0.6469 -0.4743
 6019SOL    HW229691   4.298   0.852   6.115 -0.3134 -1.6107  0.6629
 6020SOL     OW29692   4.301   0.134   4.457 -0.4028  0.1214  0.3292
 6020SOL    HW129693   4.373   0.166   4.403 -1.5851  0.6014 -0.9577
 6020SOL    HW229694   4.278   0.045   4.430  0.4612  0.1324 -0.4340
 6021SOL     OW29695   1.606   1.958   4.760  0.0470  0.3410 -0.4990
 6021SOL    HW129696   1.573   2.027   4.702  0.4958  0.9836  0.0020
 6021SOL    HW229697   1.589   1.881   4.707 -1.7715  0.1787  0.3063
 6022SOL     OW29698   3.079   0.020   8.483 -0.1709 -0.3632  0.0645
 6022SOL    HW129699   3.131   4.675   8.487  0.9038  0.2256 -2.1226
 6022SOL    HW229700   3.052   0.023   8.575  0.0800  3.0358  0.0379
 6023SOL     OW29701   2.460   1.470   6.870 -0.4082 -0.0514 -0.2383
 6023SOL    HW129702   2.465   1.500   6.779  1.0353 -2.2465 -0.8732
 6023SOL    HW229703   2.543   1.424   6.882 -0.6771 -0.5441 -0.2998
 6024SOL     OW29704   1.525   1.968  15.095  0.2298  0.5428  0.0647
 6024SOL    HW129705   1.605   1.944  15.142  1.9156  0.1650 -3.0047
 6024SOL    HW229706   1.458   1.935  15.155  1.6503 -0.5661  1.0603
 6025SOL     OW29707   3.345   3.467   6.822 -0.6035 -0.4583 -0.1033
 6025SOL    HW129708   3.261   3.421   6.828  0.1883 -1.5838  2.7084
 6025SOL    HW229709   3.414   3.400   6.818  0.0679  0.2465 -0.2884
 6026SOL     OW29710   1.188   1.177   5.746 -0.2352  0.2507  0.4384
 6026SOL    HW129711   1.121   1.242   5.768  0.6959  0.7330  1.8709
 6026SOL    HW229712   1.136   1.106   5.706 -2.7800  1.9141  0.8024
 6027SOL     OW29713   4.231   2.869   5.777 -0.5919  1.0622  0.2327
 6027SOL    HW129714   4.263   2.897   5.863 -0.5825  1.3680  0.1296
 6027SOL    HW229715   4.298   2.909   5.721 -0.2120  1.9688  1.3252
 6028SOL     OW29716   4.338   3.091   2.627  0.5134  0.3873  0.8033
 6028SOL    HW129717   4.360   3.087   2.720  0.6835 -1.0179  0.7120
 6028SOL    HW229718   4.262   3.033   2.634 -0.9416  2.3250  0.9248
 6029SOL     OW29719   1.688   2.711   5.371 -0.4051 -0.0150  0.2777
 6029SOL    HW129720   1.686   2.616   5.383 -1.2423 -0.2119 -1.3400
 6029SOL    HW229721   1.783   2.712   5.354 -0.5253  2.1290 -0.2148
 6030SOL     OW29722   3.380   0.202   7.835 -0.2471  0.4243  0.7492
 6030SOL    HW129723   3.359   0.286   7.794 -0.8012  0.5914  1.3893
 6030SOL    HW229724   3.365   0.141   7.762  0.4120 -1.1185  1.8871
 6031SOL     OW29725   1.857   4.453   5.624 -0.1627 -0.7176  0.2408
 6031SOL    HW129726   1.827   4.432   5.713 -1.0904 -1.2255 -0.1982
 6031SOL    HW229727   1.833   4.546   5.618 -0.1468 -0.7904 -0.8578
 6032SOL     OW29728   4.612   1.219  11.446  0.0093  0.1271 -0.2392
 6032SOL    HW129729   4.620   1.288  11.380 -2.6835  1.5907  0.9715
 6032SOL    HW229730   4.662   1.146  11.410  1.9622  0.7192  1.3177
 6033SOL     OW29731   4.472   2.356  10.536  0.5949  0.1202  0.2597
 6033SOL    HW129732   4.521   2.392  10.462  0.3443 -0.3648 -0.1373
 6033SOL    HW229733   4.454   2.271  10.497  1.2688 -0.1195  0.4634
 6034SOL     OW29734   1.709   2.818   8.772  1.0341 -0.4690 -0.4449
 6034SOL    HW129735   1.620   2.821   8.737  1.0173  0.8116 -0.2976
 6034SOL    HW229736   1.701   2.873   8.850 -1.8063 -1.2614 -0.1833
 6035SOL     OW29737   2.650   3.707   4.944 -0.0747 -0.1066  0.1054
 6035SOL    HW129738   2.670   3.622   4.905  0.7983  0.5654 -0.9109
 6035SOL    HW229739   2.565   3.733   4.910 -0.0926  0.9960  1.0064
 6036SOL     OW29740   1.545   3.929   3.054 -0.0230 -0.7982  0.1929
 6036SOL    HW129741   1.586   4.000   3.004 -0.9445  0.0051  0.5773
 6036SOL    HW229742   1.528   3.982   3.132  1.8770  1.1098 -0.6614
 6037SOL     OW29743   1.244   4.273   1.912 -0.1625 -0.5618  0.2960
 6037SOL    HW129744   1.271   4.307   1.827  2.1948 -2.1180  0.4410
 6037SOL    HW229745   1.269   4.342   1.973 -0.5040 -0.2326  0.0632
 6038SOL     OW29746   0.847   0.838   4.788  0.7370  0.4334  0.7873
 6038SOL    HW129747   0.921   0.899   4.792 -0.5608  2.1379 -0.8338
 6038SOL    HW229748   0.794   0.863   4.712 -0.1040 -3.1426  0.1948
 6039SOL     OW29749   1.060   0.990   4.733 -0.3113 -0.2199  0.0018
 6039SOL    HW129750   1.097   0.962   4.648  2.3629  2.4582  0.2945
 6039SOL    HW229751   1.126   1.048   4.771 -1.0991 -0.0520  1.0936
 6040SOL     OW29752   2.442   1.480   2.780  0.2916  0.2076 -0.0615
 6040SOL    HW129753   2.534   1.502   2.767  0.8366 -1.8325  0.3546
 6040SOL    HW229754   2.431   1.408   2.718 -0.6930 -0.8481  1.3345
 6041SOL     OW29755   4.170   4.178   9.326  0.1532  0.0089 -0.8050
 6041SOL    HW129756   4.256   4.221   9.326  0.9132 -1.5066 -0.5938
 6041SOL    HW229757   4.178   4.127   9.246 -1.4289  0.9817 -1.5670
 6042SOL     OW29758   3.888   0.672   2.558  0.0559 -0.0270 -0.0391
 6042SOL    HW129759   3.894   0.720   2.641  1.6007 -1.6529  0.8045
 6042SOL    HW229760   3.829   0.599   2.575  1.1540 -1.2920 -1.6907
 6043SOL     OW29761   1.638   0.848  16.089 -0.3499  0.1655 -0.4614
 6043SOL    HW129762   1.569   0.866  16.154  0.4417 -1.8104  0.9062
 6043SOL    HW229763   1.704   0.804  16.142 -1.4254 -1.9459 -0.9001
 6044SOL     OW29764   3.824   0.400  10.504  0.0168 -0.0019 -0.2279
 6044SOL    HW129765   3.843   0.438  10.589 -1.1894 -1.0786  0.5246
 6044SOL    HW229766   3.784   0.317  10.531  1.2734 -0.6164 -0.2579
 6045SOL     OW29767   4.275   0.891  14.033  0.5033  0.0299 -0.2912
 6045SOL    HW129768   4.236   0.903  13.946  0.8075 -3.4347 -0.8899
 6045SOL    HW229769   4.308   0.978  14.057 -1.3068  0.8446 -0.7041
 6046SOL     OW29770   4.587   0.564   0.819 -0.4974  0.0722 -0.7375
 6046SOL    HW129771   4.629   0.478   0.828 -0.3945  0.3943  1.6446
 6046SOL    HW229772   4.503   0.542   0.860  1.4525 -2.4582  1.8248
 6047SOL     OW29773   0.329   0.142   6.779  0.1396  0.1390 -0.2825
 6047SOL    HW129774   0.318   0.215   6.841  0.3285  0.8709 -1.1135
 6047SOL    HW229775   0.347   0.198   6.704 -0.8014  0.2273 -0.4402
 6048SOL     OW29776   4.030   2.097   1.546  0.7875  0.4608 -0.2424
 6048SOL    HW129777   4.011   2.090   1.453  0.6854 -1.0964 -0.1007
 6048SOL    HW229778   3.985   2.175   1.579 -2.3410 -1.5630  0.3438
 6049SOL     OW29779   1.510   1.034   1.875 -0.1971  0.5094 -0.1153
 6049SOL    HW129780   1.537   1.120   1.907  1.1772 -0.5546  1.5580
 6049SOL    HW229781   1.580   0.987   1.920 -1.1293 -1.4582 -0.7384
 6050SOL     OW29782   1.791   4.698   9.181 -0.1375 -0.6479 -0.5524
 6050SOL    HW129783   1.734   4.731   9.250 -0.4982 -0.0171 -1.1570
 6050SOL    HW229784   1.731   4.642   9.134  0.2876 -0.6755 -1.0555
 6051SOL     OW29785   0.521   2.558   3.382  0.3571 -0.2121 -0.1918
 6051SOL    HW129786   0.615   2.576   3.381  0.0613  1.2210 -2.1139
 6051SOL    HW229787   0.517   2.463   3.390 -1.2729 -0.1808 -0.6374
 6052SOL     OW29788   4.399   1.277  14.814  0.8097 -0.4335 -0.1789
 6052SOL    HW129789   4.460   1.204  14.803  0.4626 -0.3288 -2.8108
 6052SOL    HW229790   4.457   1.353  14.821 -0.1332  0.0155  2.9658
 6053SOL     OW29791   1.316   0.908   3.905 -0.3352  0.2196 -0.2576
 6053SOL    HW129792   1.306   0.986   3.851 -2.6257 -0.4330 -0.8035
 6053SOL    HW229793   1.399   0.933   3.945  0.0946 -1.1174 -0.3224
 6054SOL     OW29794   0.474   0.936   1.202 -0.5302  0.6106 -0.3319
 6054SOL    HW129795   0.569   0.922   1.206 -0.5224  0.7053 -0.1714
 6054SOL    HW229796   0.450   0.917   1.112 -1.7499 -0.5576  0.2495
 6055SOL     OW29797   4.196   1.911   2.264 -0.0788  0.2402  0.3965
 6055SOL    HW129798   4.214   1.819   2.243  0.6632  0.7312 -1.1238
 6055SOL    HW229799   4.142   1.896   2.342  0.3372  0.9959  0.8284
 6056SOL     OW29800   1.257   2.572   6.865  0.2765  0.2654  0.2489
 6056SOL    HW129801   1.202   2.531   6.799  0.2716 -0.0169  0.4244
 6056SOL    HW229802   1.225   2.554   6.954 -0.9518 -0.9653 -0.4574
 6057SOL     OW29803   3.815   1.186   3.800 -0.3077  0.0829 -0.5861
 6057SOL    HW129804   3.810   1.263   3.744  1.6251 -2.1870 -3.8507
 6057SOL    HW229805   3.821   1.219   3.890  0.1992 -0.1359 -0.5408
 6058SOL     OW29806   1.759   4.695  16.618  0.1792  0.5988 -0.5831
 6058SOL    HW129807   1.792   0.009  16.543  0.2145  1.9420  0.2932
 6058SOL    HW229808   1.667   4.721  16.620  0.2714  1.0289 -2.1463
 6059SOL     OW29809   3.319   2.225   5.605 -0.4448  0.2621 -0.1517
 6059SOL    HW129810   3.317   2.130   5.592 -1.7940 -0.0388  2.2398
 6059SOL    HW229811   3.410   2.249   5.586 -0.0772 -0.3508  0.8337
 6060SOL     OW29812   1.128   1.362  17.315 -0.3890 -0.2094 -0.6615
 6060SOL    HW129813   1.147   1.427  17.247  0.0735  2.7779  2.2800
 6060SOL    HW229814   1.040   1.340  17.283 -0.0084 -2.2937 -0.2770
 6061SOL     OW29815   1.116   3.159  10.430 -0.1518 -0.3181 -0.2226
 6061SOL    HW129816   1.172   3.234  10.415  0.7960 -1.4398 -2.2337
 6061SOL    HW229817   1.183   3.096  10.457 -0.0734  0.2967  1.0275
 6062SOL     OW29818   2.140   4.088   3.221  0.2664  0.7671 -1.0282
 6062SOL    HW129819   2.108   4.127   3.302  2.2428  0.1462  0.0460
 6062SOL    HW229820   2.083   4.125   3.154  1.3089  1.6830 -1.4054
 6063SOL     OW29821   3.011   1.411   1.759  0.1497  0.0182 -0.5412
 6063SOL    HW129822   3.087   1.354   1.770  0.6723  1.0840  1.3364
 6063SOL    HW229823   3.002   1.413   1.663  0.6648 -1.7090 -0.6188
 6064SOL     OW29824   3.038   0.926   1.396  0.2347  0.1063  0.2669
 6064SOL    HW129825   2.968   0.910   1.333 -2.1429 -1.5669  3.3480
 6064SOL    HW229826   3.101   0.977   1.345 -1.3940 -1.3098 -3.1966
 6065SOL     OW29827   3.890   1.071   5.203  0.3769 -0.0121 -0.2642
 6065SOL    HW129828   3.797   1.053   5.216  0.5119  0.0004  0.7360
 6065SOL    HW229829   3.890   1.105   5.114 -1.0478 -0.1913 -0.3341
 6066SOL     OW29830   3.049   0.196   2.770 -0.0771  0.1507  0.1384
 6066SOL    HW129831   3.070   0.226   2.682  2.7426 -2.6160 -0.1573
 6066SOL    HW229832   3.027   0.105   2.748 -1.2083  0.8425 -1.5330
 6067SOL     OW29833   3.988   1.151  14.539 -0.7017  0.5619 -0.5173
 6067SOL    HW129834   4.078   1.150  14.569 -0.3782 -0.2894 -1.5250
 6067SOL    HW229835   3.981   1.226  14.480 -0.1055  1.0297  0.0048
 6068SOL     OW29836   3.045   0.477   4.791 -0.0906 -0.8429 -0.0012
 6068SOL    HW129837   3.017   0.386   4.778  1.7230 -1.0201 -2.7539
 6068SOL    HW229838   3.139   0.470   4.775 -0.1332  0.0835 -0.6839
 6069SOL     OW29839   3.716   1.872  14.847 -0.1958  0.4044  0.1111
 6069SOL    HW129840   3.646   1.865  14.912  1.7431 -0.0859  2.1441
 6069SOL    HW229841   3.667   1.883  14.765  0.3791  1.5808 -0.0847
 6070SOL     OW29842   3.140   2.979   2.485  0.0835  0.1186  0.1035
 6070SOL    HW129843   3.201   2.996   2.557  1.9993  0.2219 -1.5467
 6070SOL    HW229844   3.198   3.012   2.416 -0.8848  2.5839  0.4553
 6071SOL     OW29845   1.751   1.821   6.998  0.2780  0.4393  0.0321
 6071SOL    HW129846   1.737   1.753   6.932  3.4824  0.2783 -0.5009
 6071SOL    HW229847   1.666   1.849   7.031  0.4791 -0.3248  1.1770
 6072SOL     OW29848   2.926   0.885  11.574 -0.0338 -0.0524  0.5465
 6072SOL    HW129849   2.995   0.819  11.572  0.1781  0.2612 -2.2693
 6072SOL    HW229850   2.972   0.966  11.550 -0.1334  0.2830  1.4506
 6073SOL     OW29851   3.748   3.244   7.483  0.3102 -0.4619 -0.4794
 6073SOL    HW129852   3.699   3.323   7.504 -0.7529 -1.6015  1.2745
 6073SOL    HW229853   3.733   3.187   7.558 -1.0928  0.1925 -0.2644
 6074SOL     OW29854   3.799   3.234  12.526  0.0831  0.7207 -0.3965
 6074SOL    HW129855   3.745   3.289  12.583 -1.6335 -1.7085  0.2840
 6074SOL    HW229856   3.789   3.144  12.556  0.6113 -0.6564 -4.3386
 6075SOL     OW29857   3.611   3.559   5.762  0.1813 -0.3912  0.0607
 6075SOL    HW129858   3.528   3.532   5.802 -0.3290  0.0717 -0.6744
 6075SOL    HW229859   3.593   3.552   5.668  1.6195 -2.4611 -0.0609
 6076SOL     OW29860   1.563   0.150  16.179  0.2355 -0.2668 -0.8127
 6076SOL    HW129861   1.634   0.212  16.197  0.7763 -1.6156  1.6994
 6076SOL    HW229862   1.506   0.174  16.252  0.2950 -0.3865 -0.7280
 6077SOL     OW29863   3.812   1.087   0.331  0.2547  0.0629  0.1169
 6077SOL    HW129864   3.836   1.126   0.415  2.3017 -1.0631  0.0768
 6077SOL    HW229865   3.729   1.129   0.311  0.2283 -0.1628 -0.2542
 6078SOL     OW29866   0.991   0.884  17.255  0.1745 -0.1315 -0.7090
 6078SOL    HW129867   0.916   0.942  17.264  0.8048  0.6307 -0.3025
 6078SOL    HW229868   1.010   0.907  17.164 -0.8411  1.0627 -0.6262
 6079SOL     OW29869   1.632   2.195  17.215  0.1789  0.2687 -0.1308
 6079SOL    HW129870   1.575   2.218  17.289  0.8066 -2.1438  1.1020
 6079SOL    HW229871   1.719   2.205  17.253  0.3044  0.3303 -0.4373
 6080SOL     OW29872   4.150   0.166   5.989  0.4012 -0.3610  0.1456
 6080SOL    HW129873   4.094   0.230   5.946 -0.2244 -1.8352 -1.2371
 6080SOL    HW229874   4.150   0.184   6.083 -1.2302  2.4128 -0.3929
 6081SOL     OW29875   3.731   4.654   8.912 -0.0447  0.1664  0.3805
 6081SOL    HW129876   3.779   0.001   8.911  0.8063 -0.3463 -0.1848
 6081SOL    HW229877   3.645   4.680   8.945 -0.8379 -2.1356  0.1301
 6082SOL     OW29878   2.710   3.864   9.004 -0.0504 -0.2925 -0.2046
 6082SOL    HW129879   2.618   3.846   9.025  0.1479 -0.2362  0.7202
 6082SOL    HW229880   2.729   3.914   9.083  1.2659 -0.9767 -0.1018
 6083SOL     OW29881   3.937   1.123   6.041  0.4556 -0.3101 -0.0039
 6083SOL    HW129882   3.854   1.077   6.053  1.1948 -1.0786  2.1818
 6083SOL    HW229883   3.984   1.079   6.112 -1.9155  0.7871  2.2478
 6084SOL     OW29884   0.853   1.155   4.939  0.3747  0.5468 -0.6432
 6084SOL    HW129885   0.924   1.134   5.001 -0.7308 -2.8250 -0.4993
 6084SOL    HW229886   0.803   1.223   4.985  0.4384  0.6929 -0.7925
 6085SOL     OW29887   4.013   3.515  15.065 -0.7377  0.7312 -0.4631
 6085SOL    HW129888   3.935   3.550  15.107 -0.7797 -1.3478  1.1991
 6085SOL    HW229889   4.077   3.587  15.068 -1.0696  0.9442  1.3512
 6086SOL     OW29890   2.030   1.875   7.939 -0.1036 -0.9524  0.3096
 6086SOL    HW129891   2.072   1.793   7.964 -1.2107 -2.2831 -2.1659
 6086SOL    HW229892   2.090   1.939   7.977 -0.0758 -2.2782  2.5266
 6087SOL     OW29893   3.910   0.322   5.929  0.3089 -0.2475  0.3991
 6087SOL    HW129894   3.900   0.336   6.023 -3.7987 -0.2027 -0.0393
 6087SOL    HW229895   3.879   0.406   5.894  1.2741 -0.7252 -1.5913
 6088SOL     OW29896   3.226   3.054   4.134  0.2614  0.0962 -0.0814
 6088SOL    HW129897   3.180   3.083   4.212 -0.2833  1.9008 -1.0720
 6088SOL    HW229898   3.292   3.008   4.184 -1.2715 -2.1261 -0.0879
 6089SOL     OW29899   4.198   0.806   1.562  0.2303 -0.3266 -0.4270
 6089SOL    HW129900   4.291   0.784   1.555  0.4694  0.6591 -0.3709
 6089SOL    HW229901   4.194   0.822   1.468 -0.6126  0.6885 -0.2075
 6090SOL     OW29902   3.867   0.035   6.146  0.2054 -0.9239 -0.0697
 6090SOL    HW129903   3.931   0.084   6.198  0.2827 -3.1852  1.9340
 6090SOL    HW229904   3.897   0.022   6.056 -2.3276 -1.9489 -0.7757
 6091SOL     OW29905   0.704   0.254   6.976  0.1352  0.0728 -0.0262
 6091SOL    HW129906   0.766   0.265   7.049 -1.6747  3.2617  1.0327
 6091SOL    HW229907   0.753   0.278   6.897  0.2708  0.6601  0.2311
 6092SOL     OW29908   2.582   1.682  15.073  0.0156 -0.6462 -0.3837
 6092SOL    HW129909   2.630   1.624  15.014 -0.4494 -0.8080 -0.6096
 6092SOL    HW229910   2.505   1.627  15.091  0.2344 -1.1570 -0.9980
 6093SOL     OW29911   0.729   3.506  12.177 -0.3651 -0.0432  0.0700
 6093SOL    HW129912   0.745   3.564  12.252  0.7061 -0.3329  0.0709
 6093SOL    HW229913   0.704   3.572  12.111  1.0411 -0.1536 -0.5800
 6094SOL     OW29914   1.411   3.537   2.888  0.5112 -0.2041  0.3058
 6094SOL    HW129915   1.386   3.480   2.961 -0.7004  0.9998  0.8196
 6094SOL    HW229916   1.418   3.469   2.820  2.5006 -1.1410  1.4518
 6095SOL     OW29917   3.805   1.383  17.721 -0.1927  0.1268 -0.1316
 6095SOL    HW129918   3.786   1.431   0.064 -1.9524  1.1897 -1.1744
 6095SOL    HW229919   3.853   1.451  17.674 -0.1201  0.3844  0.3180
 6096SOL     OW29920   3.163   0.684   3.940 -0.0864  0.2316 -0.0115
 6096SOL    HW129921   3.143   0.612   3.882 -1.0291 -0.3733  1.0634
 6096SOL    HW229922   3.245   0.718   3.903 -1.3281  0.7366 -2.2734
 6097SOL     OW29923   1.061   0.436  13.742 -0.4271 -0.2561  0.0789
 6097SOL    HW129924   1.147   0.473  13.726 -0.2304 -0.3071  1.0376
 6097SOL    HW229925   1.006   0.513  13.759  0.1248  0.7543 -2.6245
 6098SOL     OW29926   4.643   2.174   6.013 -0.0975 -0.6130 -0.0979
 6098SOL    HW129927   4.636   2.218   5.928 -1.4539  0.7567  0.7319
 6098SOL    HW229928   4.665   2.084   5.987  0.1409  0.1115 -2.3421
 6099SOL     OW29929   0.659   2.395  12.828  0.9879 -0.1399  0.1669
 6099SOL    HW129930   0.714   2.392  12.907 -0.5880 -1.1768  1.2188
 6099SOL    HW229931   0.640   2.301  12.829  0.7993 -0.1104 -1.7209
 6100SOL     OW29932   1.024   1.022   5.131  0.4072 -0.9291 -0.1808
 6100SOL    HW129933   1.081   1.040   5.205  1.3394 -0.7596 -0.9350
 6100SOL    HW229934   1.061   0.955   5.074  0.3551 -0.5727 -0.6351
 6101SOL     OW29935   4.394   3.731   4.319  0.1141  0.0610  0.4064
 6101SOL    HW129936   4.489   3.747   4.312 -0.5074  3.4547 -0.3709
 6101SOL    HW229937   4.369   3.767   4.234  0.4029 -0.9410 -0.0973
 6102SOL     OW29938   1.308   3.556  12.947 -0.3541  0.0461  0.1470
 6102SOL    HW129939   1.400   3.571  12.969 -0.2050  1.2337 -1.3239
 6102SOL    HW229940   1.265   3.597  13.022  0.0900  0.5989  0.0974
 6103SOL     OW29941   0.465   2.749   3.614  0.2162  0.4512  0.0440
 6103SOL    HW129942   0.387   2.797   3.585  0.4491  0.5248 -0.4562
 6103SOL    HW229943   0.506   2.729   3.530  1.1981  1.3951  0.3072
 6104SOL     OW29944   1.623   2.514   1.478  0.2842  0.9851 -0.3051
 6104SOL    HW129945   1.616   2.572   1.554 -1.8433  0.4319 -0.0688
 6104SOL    HW229946   1.715   2.487   1.470  0.0060 -0.6766  1.9523
 6105SOL     OW29947   3.965   3.545   7.004 -0.0483  0.7095  0.3621
 6105SOL    HW129948   3.963   3.450   6.991 -2.5219  0.9544 -1.0724
 6105SOL    HW229949   4.025   3.555   7.078  1.5298  1.2432 -0.9789
 6106SOL     OW29950   0.295   0.147   4.712  0.2744  0.6755  0.2141
 6106SOL    HW129951   0.335   0.111   4.791  0.6595  1.1615  0.2404
 6106SOL    HW229952   0.206   0.168   4.741  0.9012  1.1951  1.8059
 6107SOL     OW29953   0.181   2.194   9.064  0.0608 -0.0364 -0.3506
 6107SOL    HW129954   0.258   2.141   9.046 -0.0545 -0.7512  1.2087
 6107SOL    HW229955   0.141   2.194   8.977  0.0737  1.8743 -0.3477
 6108SOL     OW29956   1.667   2.238   6.073 -0.4119 -0.0413  0.4079
 6108SOL    HW129957   1.592   2.234   6.132 -1.8803  1.0128 -1.4158
 6108SOL    HW229958   1.644   2.314   6.020 -0.3865 -0.7870 -0.6946
 6109SOL     OW29959   2.828   4.180   0.554 -0.2794  0.3050 -0.4009
 6109SOL    HW129960   2.751   4.147   0.599 -1.3443  4.0608  0.5149
 6109SOL    HW229961   2.892   4.133   0.607 -0.7568  0.3458  0.2050
 6110SOL     OW29962   3.352   0.003   3.462 -0.8730 -0.3862  0.1058
 6110SOL    HW129963   3.263   4.725   3.493 -0.8960 -0.5223 -0.0165
 6110SOL    HW229964   3.405   4.699   3.532  0.1645  3.4869  1.4387
 6111SOL     OW29965   1.583   0.352   3.515 -0.0614 -0.6039 -0.2763
 6111SOL    HW129966   1.612   0.421   3.455  0.5442 -0.4325  0.2140
 6111SOL    HW229967   1.641   0.279   3.495 -2.0471 -3.0648  2.9615
 6112SOL     OW29968   0.305   1.595  17.475 -0.2466  0.0256 -0.0675
 6112SOL    HW129969   0.220   1.627  17.507 -0.7143 -1.7535  0.4901
 6112SOL    HW229970   0.373   1.660  17.488 -1.0138  0.5569  1.3361
 6113SOL     OW29971   3.209   2.244   8.457  0.1955 -0.3417 -0.1594
 6113SOL    HW129972   3.213   2.311   8.389  2.0271 -0.5736 -0.2780
 6113SOL    HW229973   3.169   2.175   8.404  0.4982  0.1417 -1.0225
 6114SOL     OW29974   0.479   3.851   2.018 -0.2601 -0.0619 -0.1986
 6114SOL    HW129975   0.566   3.884   1.995 -0.8123  1.4734 -0.1266
 6114SOL    HW229976   0.430   3.929   1.992 -0.5206 -0.2272 -0.2047
 6115SOL     OW29977   3.527   0.092   8.344  0.0288 -0.1073 -0.7687
 6115SOL    HW129978   3.441   0.051   8.356  0.1139  0.1125  0.6277
 6115SOL    HW229979   3.550   0.096   8.252  2.0298 -0.4448 -0.2817
 6116SOL     OW29980   2.219   1.255   3.380  0.2562 -0.0163 -0.3957
 6116SOL    HW129981   2.305   1.213   3.389 -0.2055 -0.3944  2.1568
 6116SOL    HW229982   2.248   1.342   3.352  0.0015  0.2520  0.1731
 6117SOL     OW29983   0.110   2.985   7.484  0.0446 -0.0923 -0.0015
 6117SOL    HW129984   0.176   2.925   7.451  0.3300  0.3167 -0.1681
 6117SOL    HW229985   0.150   3.006   7.568  1.2500 -1.1541 -0.3207
 6118SOL     OW29986   1.943   1.255   2.625 -0.0282 -0.2832  0.3103
 6118SOL    HW129987   1.892   1.190   2.575  0.9601 -1.4804  0.8610
 6118SOL    HW229988   1.950   1.219   2.714  0.9875 -1.0182 -0.0639
 6119SOL     OW29989   0.845   1.002   8.013 -0.1866  0.2506 -0.2267
 6119SOL    HW129990   0.778   0.937   8.036  1.5545 -1.4537  0.0095
 6119SOL    HW229991   0.800   1.077   8.052 -0.4977  0.2224 -0.5257
 6120SOL     OW29992   2.363   3.714   4.819  0.2482 -0.0330  0.6817
 6120SOL    HW129993   2.289   3.758   4.861  0.5425  1.8751 -0.8517
 6120SOL    HW229994   2.333   3.625   4.840 -1.4645  0.4592  0.3402
 6121SOL     OW29995   4.100   2.259  15.625  0.3691 -0.0153 -0.4874
 6121SOL    HW129996   4.121   2.320  15.696  0.2350 -1.4529  0.7793
 6121SOL    HW229997   4.081   2.316  15.550  0.8539 -0.1666 -0.7263
 6122SOL     OW29998   3.513   3.201   7.707  0.4668 -0.5239 -0.1255
 6122SOL    HW129999   3.450   3.155   7.762  1.0493  0.7173  1.5426
 6122SOL    HW230000   3.493   3.153   7.626 -0.0784 -1.5473  0.6172
 6123SOL     OW30001   1.163   1.992  12.175 -0.0348  0.1418  0.2113
 6123SOL    HW130002   1.099   2.003  12.105  1.0054 -2.2732 -1.1128
 6123SOL    HW230003   1.100   1.960  12.240  1.8678 -1.0460  1.4716
 6124SOL     OW30004   2.455   1.248   4.029  0.6663 -0.0155  0.2410
 6124SOL    HW130005   2.438   1.188   4.102 -2.8091 -0.0348 -0.5903
 6124SOL    HW230006   2.536   1.287   4.061  0.3086  0.7789  0.1834
 6125SOL     OW30007   3.358   4.045  11.796 -0.8466  0.5468  0.3388
 6125SOL    HW130008   3.417   3.989  11.746 -0.6439  0.0234  1.1778
 6125SOL    HW230009   3.396   4.037  11.883 -0.2103  0.7852  0.0825
 6126SOL     OW30010   1.737   2.437  12.737 -0.1461  0.4237 -0.1903
 6126SOL    HW130011   1.705   2.510  12.683 -2.0842 -0.4559 -0.2154
 6126SOL    HW230012   1.652   2.425  12.777  0.9166  0.1117  1.9726
 6127SOL     OW30013   4.601   1.905   5.953 -0.0277  0.3164  0.1879
 6127SOL    HW130014   4.520   1.865   5.984 -0.4154 -0.0531 -1.3248
 6127SOL    HW230015   4.576   1.927   5.863  0.7975 -2.6597 -0.7520
 6128SOL     OW30016   2.907   1.341  10.737  0.6255  0.2186 -0.4376
 6128SOL    HW130017   2.899   1.397  10.814 -1.4813 -0.7190  0.0354
 6128SOL    HW230018   2.815   1.336  10.713  1.0111 -0.9676 -1.6823
 6129SOL     OW30019   1.766   2.044   7.297  0.1028 -0.0219 -0.1110
 6129SOL    HW130020   1.747   2.125   7.345 -1.9286  0.9192 -2.4938
 6129SOL    HW230021   1.847   2.019   7.342  1.4152  1.1718 -1.8546
 6130SOL     OW30022   4.052   1.348   4.859 -0.1953  0.1623 -0.0468
 6130SOL    HW130023   4.008   1.429   4.884 -2.1319 -0.2331 -2.1186
 6130SOL    HW230024   4.053   1.355   4.763  0.7397  0.3630 -0.0254
 6131SOL     OW30025   3.553   3.688  17.124 -0.4718 -0.5501  0.1547
 6131SOL    HW130026   3.575   3.728  17.208  0.2598 -1.2055  0.2685
 6131SOL    HW230027   3.518   3.760  17.071  3.1018  0.1871 -1.2205
 6132SOL     OW30028   2.048   3.203  17.701  0.1633  0.4733 -0.4023
 6132SOL    HW130029   2.017   3.138  17.638 -2.6669 -0.0091  1.5103
 6132SOL    HW230030   1.970   3.220   0.016 -0.4619 -0.6065 -1.0063
 6133SOL     OW30031   2.578   1.647   5.463 -0.1819  0.2419 -0.4452
 6133SOL    HW130032   2.614   1.697   5.390 -0.9802  0.8117 -0.4540
 6133SOL    HW230033   2.662   1.609   5.488 -0.8983  0.5154  2.4488
 6134SOL     OW30034   3.874   0.496   7.245 -0.5715  0.8688 -0.1477
 6134SOL    HW130035   3.836   0.455   7.323 -1.6024  1.3444 -0.4044
 6134SOL    HW230036   3.966   0.471   7.254 -0.6878  0.6997  0.5923
 6135SOL     OW30037   0.384   1.708   2.304  0.0366  0.4781 -0.5632
 6135SOL    HW130038   0.361   1.626   2.260 -0.2462  0.6774 -0.7890
 6135SOL    HW230039   0.455   1.675   2.359  0.2287  0.4210 -0.8446
 6136SOL     OW30040   4.539   4.533   8.981  0.2526  0.0923 -0.6239
 6136SOL    HW130041   4.542   4.556   9.075  0.1892  0.5682 -0.7353
 6136SOL    HW230042   4.509   4.616   8.944 -0.9672 -0.5464 -1.0633
 6137SOL     OW30043   2.345   1.628   4.956  0.5446 -0.2249 -0.5860
 6137SOL    HW130044   2.253   1.650   4.943  0.7923  0.5515 -1.0088
 6137SOL    HW230045   2.369   1.614   4.864 -0.4162  1.5113 -1.0920
 6138SOL     OW30046   3.753   4.415   3.653  0.6456  0.0215  0.4740
 6138SOL    HW130047   3.666   4.426   3.615  0.9252 -0.7325 -0.3694
 6138SOL    HW230048   3.805   4.488   3.618  0.2548  0.1117  0.0865
 6139SOL     OW30049   3.191   1.675   7.716 -0.3081  0.5145  0.1848
 6139SOL    HW130050   3.185   1.580   7.711 -0.4143  0.4972  0.6687
 6139SOL    HW230051   3.173   1.689   7.623 -0.9350 -2.0028 -0.0766
 6140SOL     OW30052   2.549   2.579   5.349  0.4916 -0.3637  0.6822
 6140SOL    HW130053   2.541   2.550   5.258  1.7630  1.3569  0.0083
 6140SOL    HW230054   2.579   2.667   5.324 -2.7002  0.0461 -1.7552
 6141SOL     OW30055   1.852   0.951   3.311  0.1860  0.2100  0.1312
 6141SOL    HW130056   1.902   1.007   3.370 -0.1153  0.9365 -0.3033
 6141SOL    HW230057   1.793   1.014   3.268  0.9415  0.8586  0.0493
 6142SOL     OW30058   1.234   3.098   9.760  0.2740 -0.0820 -0.3150
 6142SOL    HW130059   1.199   3.142   9.683 -1.1805  2.4666  1.7729
 6142SOL    HW230060   1.262   3.172   9.816  1.1705 -2.1910  2.0278
 6143SOL     OW30061   0.220   0.080   3.589 -0.1418 -0.1963  0.4006
 6143SOL    HW130062   0.201   4.731   3.631 -2.0546 -0.8357 -1.7227
 6143SOL    HW230063   0.238   0.045   3.502 -0.4702 -1.9890  1.0552
 6144SOL     OW30064   3.524   4.264  13.788 -0.0167 -0.0617  0.1372
 6144SOL    HW130065   3.612   4.250  13.753  0.0408  0.6581 -0.0084
 6144SOL    HW230066   3.510   4.358  13.778  0.4285  0.4294  4.0142
 6145SOL     OW30067   4.690   2.857  12.653 -0.8532 -0.4509  1.0212
 6145SOL    HW130068   4.657   2.808  12.729  0.1835 -1.7351  0.6558
 6145SOL    HW230069   0.048   2.832  12.662 -0.7666 -0.6531 -0.3826
 6146SOL     OW30070   1.743   2.421  17.356  0.5160 -0.0146  0.4156
 6146SOL    HW130071   1.816   2.482  17.357 -0.4907  1.2133 -1.2024
 6146SOL    HW230072   1.710   2.441  17.268  0.0779 -1.3250  0.2775
 6147SOL     OW30073   0.349   0.382  15.913 -0.0156  0.1071  0.2765
 6147SOL    HW130074   0.303   0.456  15.873 -0.8361  0.2194  1.4226
 6147SOL    HW230075   0.301   0.302  15.892 -3.0219  2.1609 -0.6469
 6148SOL     OW30076   3.262   3.753  12.279 -0.1634  0.1531  0.2167
 6148SOL    HW130077   3.241   3.842  12.253  1.9596  0.7299  0.4976
 6148SOL    HW230078   3.200   3.729  12.349  1.4882 -1.0378  1.2741
 6149SOL     OW30079   0.414   2.921   4.671  0.3650 -0.1300  0.6502
 6149SOL    HW130080   0.363   2.840   4.675 -2.4024  1.5606  0.1859
 6149SOL    HW230081   0.366   2.979   4.730  1.9377  0.8556  0.9394
 6150SOL     OW30082   0.377   0.189   1.080  0.3104  0.2510 -0.3651
 6150SOL    HW130083   0.389   0.098   1.052  1.6348  0.3617 -0.1571
 6150SOL    HW230084   0.376   0.178   1.175  0.4691  0.3089 -0.3568
 6151SOL     OW30085   2.096   1.675   5.322 -0.1593  0.2355  0.4390
 6151SOL    HW130086   2.056   1.724   5.250 -1.5112  1.2512  1.8923
 6151SOL    HW230087   2.189   1.679   5.298 -0.7686 -2.2534 -2.3484
 6152SOL     OW30088   3.679   4.542   8.089  0.6874  0.4166 -0.0301
 6152SOL    HW130089   3.655   4.522   8.179  1.5621  2.2347  0.5888
 6152SOL    HW230090   3.663   4.461   8.039 -1.8279  1.0845 -0.2910
 6153SOL     OW30091   0.997   0.761   1.954  0.6803 -0.0337  0.2052
 6153SOL    HW130092   1.091   0.773   1.952  0.5891  0.8937  2.0078
 6153SOL    HW230093   0.974   0.775   2.045 -1.2486  0.2108 -0.3141
 6154SOL     OW30094   3.508   2.868  11.186  0.1842 -0.1988  0.1535
 6154SOL    HW130095   3.554   2.784  11.185  1.5518  0.5472  0.9673
 6154SOL    HW230096   3.549   2.902  11.106 -1.5066  0.6334 -0.3596
 6155SOL     OW30097   3.434   0.155  11.579 -0.6729  0.7198 -0.7393
 6155SOL    HW130098   3.399   0.190  11.498  0.0840  0.6833 -1.0859
 6155SOL    HW230099   3.357   0.135  11.632 -0.3103 -0.6556 -0.7335
 6156SOL     OW30100   1.717   0.358   7.923  0.3019 -0.4538  0.8284
 6156SOL    HW130101   1.738   0.445   7.891 -2.2292 -0.4844 -0.9562
 6156SOL    HW230102   1.746   0.368   8.014 -0.0520 -0.3776  0.9324
 6157SOL     OW30103   1.445   3.474  12.403  0.2823  0.5587 -0.1100
 6157SOL    HW130104   1.540   3.471  12.394  0.5586  1.2846  2.5469
 6157SOL    HW230105   1.441   3.485  12.498  0.5776  1.7547 -0.2322
 6158SOL     OW30106   3.389   0.374  17.008 -0.1021  0.1554  0.1768
 6158SOL    HW130107   3.317   0.424  16.969 -0.5250 -1.4357 -1.1104
 6158SOL    HW230108   3.445   0.357  16.933  2.4903  3.8408  1.2997
 6159SOL     OW30109   3.927   0.869   6.607  0.8182 -0.3212 -0.0096
 6159SOL    HW130110   3.895   0.820   6.532 -2.4326 -0.1848  1.2974
 6159SOL    HW230111   3.842   0.867   6.651  0.3157 -1.1754 -1.0385
 6160SOL     OW30112   1.386   2.642   5.409  0.2168  0.1967  0.4946
 6160SOL    HW130113   1.465   2.677   5.369 -0.0964 -1.2867 -1.4195
 6160SOL    HW230114   1.326   2.646   5.335 -1.2150 -0.4654  1.6263
 6161SOL     OW30115   3.723   2.753  16.460 -0.4656  0.3531 -0.0041
 6161SOL    HW130116   3.648   2.806  16.486 -0.5597  0.4569 -0.4874
 6161SOL    HW230117   3.789   2.792  16.518  1.2495 -2.4137 -0.1178
 6162SOL     OW30118   4.530   2.839   7.943 -0.3782  0.0001  0.6260
 6162SOL    HW130119   4.454   2.795   7.906  1.2566  0.7492 -3.6100
 6162SOL    HW230120   4.508   2.931   7.929 -0.7265 -0.6478 -3.0629
 6163SOL     OW30121   1.756   1.000   1.621  0.3005 -0.5734 -0.5965
 6163SOL    HW130122   1.814   1.040   1.685 -1.8374  1.4072  0.0944
 6163SOL    HW230123   1.709   1.070   1.577  0.2398 -0.7290 -0.7827
 6164SOL     OW30124   0.853   3.951   3.642 -0.6304  0.2741  0.4992
 6164SOL    HW130125   0.839   4.034   3.596  0.0756 -1.1517 -2.2687
 6164SOL    HW230126   0.936   3.963   3.689 -0.6544  0.3346  0.5266
 6165SOL     OW30127   4.302   2.546   3.410  0.0462  0.1412 -0.0937
 6165SOL    HW130128   4.208   2.561   3.399 -0.1715 -0.5288  0.8734
 6165SOL    HW230129   4.310   2.520   3.502  1.3761  0.0827 -0.2376
 6166SOL     OW30130   0.970   0.966   7.110 -0.0433 -0.1069 -0.4837
 6166SOL    HW130131   0.978   0.879   7.071  0.7188 -1.6918  3.1477
 6166SOL    HW230132   0.881   0.962   7.146  1.2698 -0.0906  2.7467
 6167SOL     OW30133   2.391   3.479   9.145 -0.3733 -0.6673  0.2858
 6167SOL    HW130134   2.472   3.491   9.095  0.1299  1.8742  1.6851
 6167SOL    HW230135   2.327   3.488   9.074  0.9792  1.5386 -0.6506
 6168SOL     OW30136   1.400   1.567  17.075  0.1368  0.2236 -0.2272
 6168SOL    HW130137   1.305   1.561  17.080  0.2415 -2.2954 -0.8624
 6168SOL    HW230138   1.430   1.488  17.029 -0.7833 -1.0679  1.4324
 6169SOL     OW30139   3.488   1.217   6.129  0.1812 -0.4279  0.1426
 6169SOL    HW130140   3.484   1.307   6.096  3.5239  0.1070  1.2222
 6169SOL    HW230141   3.438   1.217   6.210 -1.0215  0.3010 -0.5911
 6170SOL     OW30142   1.673   0.655  16.531  0.4234 -0.2028  0.2955
 6170SOL    HW130143   1.670   0.751  16.532 -0.3007 -0.2203 -1.9914
 6170SOL    HW230144   1.730   0.635  16.606  0.0520  0.7211  0.8266
 6171SOL     OW30145   0.115   3.341   7.031  0.2746 -0.0258 -0.5132
 6171SOL    HW130146   0.153   3.292   6.958  1.4141  1.5935 -0.9956
 6171SOL    HW230147   0.149   3.288   7.102 -0.4154 -0.8276 -0.7783
 6172SOL     OW30148   2.049   1.810   3.182 -0.3836  0.6987  1.2324
 6172SOL    HW130149   2.038   1.905   3.169 -0.0658  0.1802 -2.7586
 6172SOL    HW230150   2.089   1.791   3.097  0.6226  0.2467  1.8050
 6173SOL     OW30151   2.714   3.678   7.801 -0.1676 -0.2659  0.5012
 6173SOL    HW130152   2.728   3.583   7.801 -2.4248 -0.5856  2.3392
 6173SOL    HW230153   2.805   3.703   7.816 -0.2080 -0.8790  1.7491
 6174SOL     OW30154   2.396   0.288   5.136  0.0341  0.7124 -0.1787
 6174SOL    HW130155   2.393   0.363   5.077 -0.3492  1.7777  1.2216
 6174SOL    HW230156   2.437   0.229   5.072 -1.3441  0.6278 -0.9974
 6175SOL     OW30157   4.715   4.103  16.511  0.2325  0.1935  0.1122
 6175SOL    HW130158   4.664   4.169  16.559  0.1703 -1.9889  3.0245
 6175SOL    HW230159   0.040   4.167  16.471 -1.2161  1.4713 -0.0039
 6176SOL     OW30160   2.875   3.184   7.422  0.3421  0.3295  0.3187
 6176SOL    HW130161   2.831   3.248   7.478 -0.0477 -0.4842  0.9326
 6176SOL    HW230162   2.812   3.199   7.351  1.0325  1.7320 -0.0164
 6177SOL     OW30163   0.712   3.896   5.871  0.0107 -0.0055  0.0054
 6177SOL    HW130164   0.744   3.872   5.958  0.7598  0.5058 -0.1265
 6177SOL    HW230165   0.619   3.897   5.890 -0.1294  0.4510 -0.6988
 6178SOL     OW30166   1.540   0.052   8.990 -0.7199 -0.1081 -0.3940
 6178SOL    HW130167   1.563   4.694   8.991  0.7447  0.2610 -0.7219
 6178SOL    HW230168   1.475   0.056   9.060  1.3154  1.1566  1.4194
 6179SOL     OW30169   0.129   3.834   8.948  0.1117  0.6178 -0.1601
 6179SOL    HW130170   0.170   3.890   8.882  2.4031  0.2602  0.9850
 6179SOL    HW230171   0.182   3.863   9.021  0.7054 -1.1896  0.1078
 6180SOL     OW30172   2.309   1.945   6.159  0.0086 -0.1639  0.5498
 6180SOL    HW130173   2.262   2.012   6.109  1.7365 -0.1127 -1.0261
 6180SOL    HW230174   2.346   1.997   6.230 -1.7130  3.4585 -1.1957
 6181SOL     OW30175   1.887   3.196   6.457  0.2527 -0.7743 -0.2705
 6181SOL    HW130176   1.894   3.106   6.486 -1.6326 -0.3344  1.5377
 6181SOL    HW230177   1.928   3.248   6.527 -1.9567  0.7922 -0.1247
 6182SOL     OW30178   4.684   1.093  15.314 -0.0416  0.5226  0.7334
 6182SOL    HW130179   0.041   1.121  15.316  0.7069 -1.8736 -0.1856
 6182SOL    HW230180   4.649   1.182  15.317 -0.2053  0.5010 -0.3071
 6183SOL     OW30181   1.997   4.404   5.274 -0.1815  0.3142 -0.3054
 6183SOL    HW130182   1.977   4.497   5.282 -0.0160  0.2975  0.2945
 6183SOL    HW230183   1.952   4.372   5.352  1.7410  0.2795  0.7871
 6184SOL     OW30184   2.201   2.864   9.280  0.0183  0.3178 -0.0628
 6184SOL    HW130185   2.156   2.948   9.290 -0.3905  0.0983 -0.0334
 6184SOL    HW230186   2.127   2.810   9.253 -0.5128  0.9071  0.2153
 6185SOL     OW30187   1.767   3.681   2.683 -0.3113  0.0121 -0.1037
 6185SOL    HW130188   1.750   3.728   2.601  1.4274  1.7583  0.5714
 6185SOL    HW230189   1.704   3.725   2.740  0.3140  1.3220 -0.4476
 6186SOL     OW30190   0.794   1.900   6.379  0.4479 -0.1603  0.2743
 6186SOL    HW130191   0.875   1.949   6.363 -1.5776  2.8381 -0.8403
 6186SOL    HW230192   0.719   1.960   6.382  0.5600 -0.0438  0.7102
 6187SOL     OW30193   4.726   1.822  13.144  0.0804 -0.2791 -0.3169
 6187SOL    HW130194   4.692   1.736  13.123 -0.8813  0.1509 -0.5356
 6187SOL    HW230195   4.726   1.859  13.056  1.4395 -1.6690 -0.8887
 6188SOL     OW30196   3.260   3.107  15.205 -0.0641  0.0800  0.5938
 6188SOL    HW130197   3.313   3.112  15.284 -1.1474  0.4835  1.2921
 6188SOL    HW230198   3.250   3.199  15.181 -0.1910  0.0781  0.6409
 6189SOL     OW30199   2.399   1.779  14.888 -0.3993  0.3505  0.1071
 6189SOL    HW130200   2.479   1.776  14.942  0.4850 -0.9707 -1.2923
 6189SOL    HW230201   2.426   1.775  14.796  0.7527  0.5799  0.4297
 6190SOL     OW30202   1.238   4.492  12.563 -0.4996  1.1788  0.3023
 6190SOL    HW130203   1.193   4.453  12.638 -1.5397  0.5856 -0.6129
 6190SOL    HW230204   1.306   4.430  12.537  0.0466  1.9125  0.0070
 6191SOL     OW30205   3.667   2.597   3.443 -0.1619  0.2350 -0.1641
 6191SOL    HW130206   3.617   2.530   3.396 -0.1558  0.8962 -1.1249
 6191SOL    HW230207   3.604   2.654   3.487 -0.1549 -0.4858  0.7844
 6192SOL     OW30208   2.381   0.296  14.372  0.5527 -0.4686 -0.4228
 6192SOL    HW130209   2.374   0.218  14.427 -1.1407 -0.9741 -1.3814
 6192SOL    HW230210   2.411   0.360  14.437  1.1530 -0.8868 -0.2864
 6193SOL     OW30211   1.312   3.488  12.161  0.0200 -0.3469  0.8387
 6193SOL    HW130212   1.344   3.483  12.251 -2.1610  0.1406  1.6459
 6193SOL    HW230213   1.396   3.493  12.116 -1.0716  0.7123 -1.0828
 6194SOL     OW30214   0.012   2.530  13.297 -0.4117  0.1703  0.0390
 6194SOL    HW130215   0.042   2.618  13.272 -2.4007  1.4027  2.0142
 6194SOL    HW230216   0.078   2.464  13.275 -0.5035 -0.6773  2.4100
 6195SOL     OW30217   0.778   4.183   5.794  0.5762  0.0252 -0.2905
 6195SOL    HW130218   0.743   4.236   5.865 -1.4616  1.1958 -2.1793
 6195SOL    HW230219   0.773   4.097   5.835  1.0549 -0.4178 -1.1606
 6196SOL     OW30220   3.345   3.352  16.539  0.5001 -0.2085 -0.2345
 6196SOL    HW130221   3.416   3.372  16.599 -1.0669 -1.8752  2.1537
 6196SOL    HW230222   3.354   3.417  16.469  0.0554 -0.7077 -0.7623
 6197SOL     OW30223   3.719   1.248   5.840  0.1172 -0.0109 -0.1340
 6197SOL    HW130224   3.675   1.168   5.809  1.8445 -0.9859 -0.0810
 6197SOL    HW230225   3.748   1.221   5.927  0.8898  1.3929  0.0432
 6198SOL     OW30226   3.999   1.398  10.630  0.0993 -0.5257  0.4418
 6198SOL    HW130227   3.993   1.315  10.678  0.1103 -0.6876  0.1631
 6198SOL    HW230228   3.968   1.466  10.690  2.2747 -0.4144  1.4298
 6199SOL     OW30229   0.848   0.276   6.098  0.5671  0.2414  0.3176
 6199SOL    HW130230   0.918   0.332   6.132  1.0016 -0.0442 -0.1003
 6199SOL    HW230231   0.787   0.277   6.172 -0.2248 -0.7363 -0.3244
 6200SOL     OW30232   1.354   3.181   3.469  0.0518 -0.1482  0.0291
 6200SOL    HW130233   1.439   3.218   3.445  0.3747 -0.9938 -0.1320
 6200SOL    HW230234   1.365   3.088   3.451  0.3515  0.4180 -2.6717
 6201SOL     OW30235   2.823   2.191   8.573  0.6241 -0.1945  0.4925
 6201SOL    HW130236   2.882   2.141   8.629 -0.3776 -1.4553  0.4315
 6201SOL    HW230237   2.844   2.149   8.490 -1.5632 -2.5604  1.1420
 6202SOL     OW30238   4.655   4.657   6.110 -0.2544  0.3737  0.4406
 6202SOL    HW130239   4.666   4.569   6.073 -1.3252  0.7767 -0.8800
 6202SOL    HW230240   4.718   4.651   6.181 -0.9679  0.0452  1.0495
 6203SOL     OW30241   4.250   1.694   9.049  0.4691 -0.1020  0.1451
 6203SOL    HW130242   4.308   1.768   9.028  2.6874 -1.7265  0.5517
 6203SOL    HW230243   4.283   1.678   9.138  0.5504 -1.4167 -0.1242
 6204SOL     OW30244   1.028   3.682   8.537  0.0056 -0.0193 -0.5221
 6204SOL    HW130245   1.017   3.598   8.492  0.1464 -0.4063  0.1584
 6204SOL    HW230246   0.965   3.743   8.498 -3.1979 -2.2942  1.0067
 6205SOL     OW30247   3.931   0.281   5.537 -0.1137  0.2815  0.0958
 6205SOL    HW130248   4.026   0.269   5.526 -0.3113 -0.9066 -0.3048
 6205SOL    HW230249   3.900   0.212   5.479 -0.8039 -0.1076  0.9392
 6206SOL     OW30250   1.275   0.774  16.490  0.1462 -0.2810 -0.4624
 6206SOL    HW130251   1.201   0.723  16.458  0.2681 -0.6034 -0.2304
 6206SOL    HW230252   1.232   0.856  16.513  1.6362  0.7868 -1.4852
 6207SOL     OW30253   1.326   0.040   4.205  0.3734 -0.3548  0.3734
 6207SOL    HW130254   1.263   4.731   4.148 -0.8717  0.1816  1.3340
 6207SOL    HW230255   1.403   4.722   4.188 -0.2686 -1.2944  0.3921
 6208SOL     OW30256   1.191   4.582   5.051 -0.2437  0.2316 -0.2625
 6208SOL    HW130257   1.140   4.635   5.113  1.8928  0.3604  1.3907
 6208SOL    HW230258   1.129   4.558   4.983 -0.0980 -1.8388  0.3517
 6209SOL     OW30259   1.303   2.483   0.898 -0.0642 -0.5555 -0.0954
 6209SOL    HW130260   1.395   2.484   0.871 -0.6240 -1.3438 -2.0247
 6209SOL    HW230261   1.300   2.439   0.982 -0.9282 -2.2960 -1.0482
 6210SOL     OW30262   1.351   1.282   8.170  0.4616  0.1467 -0.7007
 6210SOL    HW130263   1.274   1.228   8.151  1.3872 -1.4509  0.0796
 6210SOL    HW230264   1.312   1.369   8.171  0.0394 -0.0442  0.3230
 6211SOL     OW30265   2.133   2.344   1.090  0.4001  0.0705 -0.0038
 6211SOL    HW130266   2.166   2.313   1.174 -0.4769 -2.9919 -0.8085
 6211SOL    HW230267   2.212   2.367   1.040  0.0236  0.9284 -0.2068
 6212SOL     OW30268   3.027   1.588   6.686  0.7013  0.0767 -0.2317
 6212SOL    HW130269   2.993   1.675   6.710  1.6802  0.3642  0.0895
 6212SOL    HW230270   2.985   1.569   6.602  1.6062  0.2713 -0.7257
 6213SOL     OW30271   2.722   3.558  10.229  0.1269  0.0957  0.3227
 6213SOL    HW130272   2.667   3.617  10.177 -2.2713 -1.7195  0.8089
 6213SOL    HW230273   2.666   3.481  10.242 -0.6067  0.7402  1.0316
 6214SOL     OW30274   4.254   2.548  11.785 -0.1607 -0.5215 -0.7109
 6214SOL    HW130275   4.273   2.600  11.863 -3.2861 -0.2385 -0.1309
 6214SOL    HW230276   4.285   2.603  11.713 -0.6300  1.6712  0.7385
 6215SOL     OW30277   1.100   3.793   4.275 -0.2616  0.6624 -0.3218
 6215SOL    HW130278   1.071   3.824   4.360  1.4193 -2.8622  1.5069
 6215SOL    HW230279   1.164   3.731   4.310 -0.6417  1.7210  2.1802
 6216SOL     OW30280   3.476   3.805   5.749  0.0777 -0.4082 -0.3970
 6216SOL    HW130281   3.541   3.739   5.725 -1.3078 -2.3473  1.1672
 6216SOL    HW230282   3.399   3.751   5.731 -1.0946  1.6759 -1.6192
 6217SOL     OW30283   4.382   0.427   5.037 -0.1002 -0.3643  0.2941
 6217SOL    HW130284   4.416   0.485   4.968 -2.1104  0.8922  0.3668
 6217SOL    HW230285   4.334   0.357   4.994  1.2451 -0.8344 -0.4540
 6218SOL     OW30286   1.729   4.361   5.866  0.1800  0.2727 -0.1336
 6218SOL    HW130287   1.707   4.358   5.959 -0.4859 -0.8231 -0.3262
 6218SOL    HW230288   1.653   4.400   5.822  0.1545  1.0004  0.5555
 6219SOL     OW30289   1.010   3.653   2.026  0.8707  0.7556  0.0435
 6219SOL    HW130290   0.974   3.583   2.081  1.4413  1.2260  1.0220
 6219SOL    HW230291   1.073   3.600   1.976 -0.1623  0.2186 -0.6748
 6220SOL     OW30292   4.689   2.082  17.704 -0.5916 -0.4726  0.1019
 6220SOL    HW130293   4.595   2.063  17.715 -0.7552  1.2650  1.8083
 6220SOL    HW230294   4.708   2.028  17.628  2.9731  0.4928  0.3073
 6221SOL     OW30295   2.404   0.740   6.920  0.4263  0.8368  0.5164
 6221SOL    HW130296   2.344   0.756   6.847  2.0979 -2.1400 -1.5224
 6221SOL    HW230297   2.376   0.654   6.950 -0.0763  1.5550  2.1342
 6222SOL     OW30298   0.488   3.575   9.152  0.3108  0.0392  0.2260
 6222SOL    HW130299   0.408   3.627   9.162  1.0781  1.3968 -0.7263
 6222SOL    HW230300   0.543   3.623   9.091 -0.8785  1.1089 -0.0187
 6223SOL     OW30301   4.347   0.765   2.170  0.3148 -0.3812  0.3935
 6223SOL    HW130302   4.267   0.804   2.134 -2.4947 -2.5314  4.2609
 6223SOL    HW230303   4.397   0.754   2.089  1.0178 -0.0257  0.7786
 6224SOL     OW30304   2.357   2.038  15.301 -0.0943 -0.6504 -0.1116
 6224SOL    HW130305   2.447   2.021  15.274  0.2077  0.1884  0.3995
 6224SOL    HW230306   2.324   1.951  15.324  0.0700 -0.3812  1.1091
 6225SOL     OW30307   0.587   4.168   9.291 -0.3177  0.2651 -0.0683
 6225SOL    HW130308   0.629   4.151   9.206 -2.1476 -0.2483 -0.8682
 6225SOL    HW230309   0.654   4.117   9.337  0.4481 -0.4195 -1.9097
 6226SOL     OW30310   2.269   4.573   4.328 -0.0514 -0.1771  0.4228
 6226SOL    HW130311   2.242   4.663   4.313  1.9562  0.2708 -0.5521
 6226SOL    HW230312   2.328   4.561   4.253  0.6271 -0.8342  1.0708
 6227SOL     OW30313   3.776   2.980  16.907  0.1856 -0.6574  0.1919
 6227SOL    HW130314   3.748   3.064  16.945  1.4758 -0.0583 -0.2138
 6227SOL    HW230315   3.817   2.933  16.980 -0.5999 -2.0265 -0.2509
 6228SOL     OW30316   0.430   0.576   0.838  0.7237  0.0503 -0.1102
 6228SOL    HW130317   0.432   0.540   0.927  0.7763  0.4283  0.0384
 6228SOL    HW230318   0.515   0.541   0.812  1.4716  1.4918  0.4146
 6229SOL     OW30319   2.206   2.153   4.825 -0.0963  0.0884 -0.0978
 6229SOL    HW130320   2.278   2.191   4.775 -0.7531  1.1128 -0.2658
 6229SOL    HW230321   2.132   2.168   4.767 -0.9071 -0.8526  0.7032
 6230SOL     OW30322   0.364   0.529   6.253  0.2295 -0.6440 -0.1638
 6230SOL    HW130323   0.298   0.536   6.184 -0.8545 -0.2441  0.9221
 6230SOL    HW230324   0.339   0.438   6.269 -0.1519 -0.3346  0.9323
 6231SOL     OW30325   3.382   1.242   6.887 -0.1827 -0.3603  0.0402
 6231SOL    HW130326   3.295   1.219   6.921  0.0437 -0.6518  0.4119
 6231SOL    HW230327   3.412   1.307   6.950 -0.1241  1.6643 -2.0391
 6232SOL     OW30328   3.113   2.086   4.908 -0.6286  0.0862  0.4768
 6232SOL    HW130329   3.182   2.116   4.849  0.0463 -3.7278 -0.7210
 6232SOL    HW230330   3.076   2.020   4.848  2.6815 -1.2213 -0.1349
 6233SOL     OW30331   4.280   1.562  11.570 -0.7630 -0.5604  0.2294
 6233SOL    HW130332   4.273   1.651  11.536  2.4822  0.2201  1.5860
 6233SOL    HW230333   4.188   1.540  11.559 -1.1811  1.2540  0.1846
 6234SOL     OW30334   0.374   0.633   4.471  0.0839  0.0074  0.3503
 6234SOL    HW130335   0.377   0.631   4.375  0.7795  0.7306  0.3580
 6234SOL    HW230336   0.308   0.565   4.482  1.6217 -1.1304  2.4631
 6235SOL     OW30337   4.495   4.265  11.598 -0.1171 -0.6938 -0.3914
 6235SOL    HW130338   4.404   4.277  11.570 -0.5171 -1.8503  0.4440
 6235SOL    HW230339   4.536   4.309  11.523  0.1669  0.7963  0.6583
 6236SOL     OW30340   1.156   4.245   4.653 -0.1883 -0.0242 -0.1728
 6236SOL    HW130341   1.203   4.169   4.687  1.3083  1.1982  0.4831
 6236SOL    HW230342   1.067   4.211   4.642  0.1262 -0.5848 -0.9880
 6237SOL     OW30343   1.207   1.658   5.645  0.8329 -0.0552 -0.4920
 6237SOL    HW130344   1.230   1.751   5.640  0.9261  0.0183  1.4556
 6237SOL    HW230345   1.265   1.628   5.715 -0.1468 -2.3014 -0.6598
 6238SOL     OW30346   3.939   1.072   9.900 -0.2829  0.4546  0.3804
 6238SOL    HW130347   3.996   1.148   9.889 -0.7480  1.0120  1.8301
 6238SOL    HW230348   4.003   1.006   9.928  2.4316  1.7670 -2.6654
 6239SOL     OW30349   1.997   4.646   7.241  0.3388  0.6319 -0.3127
 6239SOL    HW130350   1.944   4.587   7.188  0.5960 -1.5939  1.9045
 6239SOL    HW230351   2.075   4.595   7.264  0.7154  2.8265  3.1323
 6240SOL     OW30352   0.676   0.497   2.600  0.2887  0.2439 -0.0996
 6240SOL    HW130353   0.648   0.408   2.622  1.1926  0.2479  1.0909
 6240SOL    HW230354   0.724   0.523   2.679  1.0216  3.2353 -1.5565
 6241SOL     OW30355   1.283   1.880   5.265  0.7272 -0.3797 -0.0170
 6241SOL    HW130356   1.372   1.884   5.299  0.4834  1.2447  0.4541
 6241SOL    HW230357   1.287   1.934   5.186  1.7904 -0.0084  0.2875
 6242SOL     OW30358   3.135   1.043  13.434 -0.6368 -0.1022 -0.2528
 6242SOL    HW130359   3.069   1.035  13.365 -0.9737 -2.0170  0.2932
 6242SOL    HW230360   3.220   1.042  13.389 -0.8911 -0.4220 -0.7276
 6243SOL     OW30361   2.197   0.145   9.488 -0.3428  0.4139 -0.3103
 6243SOL    HW130362   2.275   0.094   9.511 -0.4833 -0.9139 -2.7216
 6243SOL    HW230363   2.203   0.192   9.405  0.9095  0.5014 -0.1636
 6244SOL     OW30364   1.220   1.921  10.684 -0.8880 -0.0408 -0.0157
 6244SOL    HW130365   1.211   2.009  10.646  0.4292 -0.4735 -1.3236
 6244SOL    HW230366   1.128   1.903  10.705 -1.4458  0.3534 -2.0891
 6245SOL     OW30367   4.538   0.350  14.039 -0.4136  0.4498 -0.5216
 6245SOL    HW130368   4.586   0.340  13.957 -0.2467  0.8949 -0.4776
 6245SOL    HW230369   4.550   0.444  14.055 -0.8721  0.4873 -0.4091
 6246SOL     OW30370   1.659   2.350   3.995 -0.8004 -0.3575 -0.4703
 6246SOL    HW130371   1.681   2.444   3.994  1.6776 -0.9154  1.4874
 6246SOL    HW230372   1.741   2.302   3.988 -1.2778 -1.0654 -1.1076
 6247SOL     OW30373   0.235   4.501  15.586  0.0322 -0.0528  0.1366
 6247SOL    HW130374   0.201   4.534  15.670 -0.0635  0.8896 -0.2704
 6247SOL    HW230375   0.319   4.546  15.572 -0.5286  0.4705 -1.4996
 6248SOL     OW30376   2.668   3.645  11.710  0.3570 -0.1393 -0.4823
 6248SOL    HW130377   2.643   3.580  11.644  0.7046 -0.4237 -0.3348
 6248SOL    HW230378   2.602   3.628  11.777  1.9332 -0.3040  1.0136
 6249SOL     OW30379   4.221   1.470  16.593 -0.6770 -0.0912 -0.2807
 6249SOL    HW130380   4.180   1.421  16.522 -0.8937  1.4184 -1.1814
 6249SOL    HW230381   4.287   1.410  16.628 -0.4384  0.3806  0.0865
 6250SOL     OW30382   4.275   0.727  11.546 -0.0112  0.4156  0.3737
 6250SOL    HW130383   4.253   0.636  11.524  2.9671 -0.2002 -0.0474
 6250SOL    HW230384   4.217   0.780  11.491 -0.0681  1.2248  1.2146
 6251SOL     OW30385   1.505   3.405   8.324  0.1991  0.4343 -0.0110
 6251SOL    HW130386   1.585   3.449   8.294 -0.8823  1.1114 -1.8528
 6251SOL    HW230387   1.538   3.342   8.389 -1.1659  0.3848  0.6275
 6252SOL     OW30388   3.290   4.589   5.627  0.0922 -0.2036  0.2320
 6252SOL    HW130389   3.325   4.564   5.713  2.6733  1.3972 -0.3445
 6252SOL    HW230390   3.335   4.673   5.616 -2.6046  1.1496 -0.2966
 6253SOL     OW30391   0.114   4.072   0.189 -0.3943 -0.4126  0.0227
 6253SOL    HW130392   0.156   4.153   0.163 -1.6682 -0.6453 -2.8105
 6253SOL    HW230393   0.066   4.050   0.108 -1.8812 -0.7987  0.9940
 6254SOL     OW30394   0.196   4.328   8.646 -0.4678  0.5535 -0.0970
 6254SOL    HW130395   0.149   4.378   8.714 -2.9870 -1.4009 -0.3755
 6254SOL    HW230396   0.135   4.333   8.572  0.6506 -1.4241 -1.1374
 6255SOL     OW30397   2.382   2.824  13.686  0.2172  0.1710 -0.4560
 6255SOL    HW130398   2.339   2.838  13.771 -0.1289 -1.1490 -0.4145
 6255SOL    HW230399   2.318   2.858  13.623  0.3920  0.6980 -0.3477
 6256SOL     OW30400   1.879   2.421   5.686 -0.9507  0.4817 -0.3566
 6256SOL    HW130401   1.927   2.344   5.715 -1.0786  0.5408  0.0251
 6256SOL    HW230402   1.821   2.419   5.763 -0.9396 -1.0239 -0.3853
 6257SOL     OW30403   3.425   1.653   3.636 -0.7051 -0.6771  0.3697
 6257SOL    HW130404   3.488   1.717   3.667 -0.2313  0.7044 -3.3822
 6257SOL    HW230405   3.473   1.622   3.559  0.8573  0.8065  0.7605
 6258SOL     OW30406   2.446   1.475   9.094 -0.2888  0.3390 -0.2373
 6258SOL    HW130407   2.518   1.528   9.130  2.2788 -1.3138 -2.9320
 6258SOL    HW230408   2.434   1.505   9.004 -0.7371  0.8363 -0.0136
 6259SOL     OW30409   3.715   2.690   8.399 -0.2055 -0.0276  0.5552
 6259SOL    HW130410   3.663   2.710   8.476  0.4480 -0.5177  1.1267
 6259SOL    HW230411   3.780   2.760   8.403 -0.6296  0.4520 -0.9222
 6260SOL     OW30412   2.434   3.271   1.319 -0.0326 -0.2552  0.0847
 6260SOL    HW130413   2.489   3.349   1.311 -1.1220  0.5128  0.0765
 6260SOL    HW230414   2.446   3.247   1.411 -2.3082  2.9430  1.2233
 6261SOL     OW30415   2.942   2.914   7.488  0.2208  0.2472 -0.1475
 6261SOL    HW130416   2.996   2.935   7.564  0.0176 -2.8935  0.8576
 6261SOL    HW230417   2.905   3.002   7.480  0.8011  0.4508 -0.5834
 6262SOL     OW30418   1.027   0.313  13.511  0.1973  0.2758 -0.0960
 6262SOL    HW130419   0.960   0.262  13.555  0.0399  0.3738 -0.2207
 6262SOL    HW230420   1.060   0.362  13.587 -2.6470  1.6304  0.2580
 6263SOL     OW30421   0.249   0.463  17.446  0.0948 -0.0552  0.1088
 6263SOL    HW130422   0.205   0.465  17.361  1.2425  1.3961 -0.4389
 6263SOL    HW230423   0.169   0.466  17.499 -0.4380  0.1963 -0.7114
 6264SOL     OW30424   2.556   3.298   8.108 -0.0799  0.1044  0.0482
 6264SOL    HW130425   2.538   3.230   8.173  0.7575  0.9176  1.1380
 6264SOL    HW230426   2.519   3.255   8.031 -1.1484  1.6580 -0.3118
 6265SOL     OW30427   1.632   2.057   3.864  0.6184  0.1151 -0.3010
 6265SOL    HW130428   1.704   2.118   3.877  1.5045 -1.0525  0.3093
 6265SOL    HW230429   1.652   1.996   3.935 -1.8719 -3.0414 -2.2748
 6266SOL     OW30430   2.527   4.213   1.474  0.0643 -0.1398  0.2413
 6266SOL    HW130431   2.609   4.212   1.522  0.5227 -1.6852 -0.5654
 6266SOL    HW230432   2.514   4.302   1.442  0.5830  0.6133  2.1337
 6267SOL     OW30433   3.874   3.984   7.579 -0.6709  0.4982  0.2960
 6267SOL    HW130434   3.825   3.915   7.535  0.7498 -0.2771 -0.0512
 6267SOL    HW230435   3.892   4.043   7.506 -1.9536 -3.1883 -2.9865
 6268SOL     OW30436   2.512   0.796   5.274 -0.2001  0.5080 -0.1155
 6268SOL    HW130437   2.420   0.815   5.257  0.2130  0.7742 -2.0123
 6268SOL    HW230438   2.514   0.817   5.368  1.1721 -1.4447  0.2951
 6269SOL     OW30439   2.420   3.503   1.583 -0.4915 -0.1548  0.7143
 6269SOL    HW130440   2.459   3.554   1.654  1.2254 -2.2852  1.3104
 6269SOL    HW230441   2.456   3.415   1.599  1.2325  0.6639  1.3347
 6270SOL     OW30442   4.525   0.318   4.750  0.1223 -0.3936  0.4718
 6270SOL    HW130443   4.549   0.320   4.657  2.0357  1.1569  0.9946
 6270SOL    HW230444   4.494   0.409   4.752 -0.8982 -0.6716 -1.9789
 6271SOL     OW30445   0.455   2.994   3.731  0.4634  0.0111 -0.0114
 6271SOL    HW130446   0.493   2.916   3.691  1.2555  1.0392 -1.2471
 6271SOL    HW230447   0.462   2.973   3.824 -2.2272 -2.2074 -0.3201
 6272SOL     OW30448   0.781   4.381  12.251 -0.1456 -0.1609  0.3758
 6272SOL    HW130449   0.834   4.432  12.190  0.2728 -1.9711 -0.7792
 6272SOL    HW230450   0.822   4.294  12.243  1.7755  0.9566 -2.1270
 6273SOL     OW30451   1.875   0.958   3.975 -0.2277  0.5670 -0.0241
 6273SOL    HW130452   1.881   0.868   4.009  0.2587  1.6408  2.6618
 6273SOL    HW230453   1.953   0.994   4.017  0.9129  1.1976 -2.6364
 6274SOL     OW30454   1.472   2.997   8.100 -0.0123  0.0805  0.2176
 6274SOL    HW130455   1.537   3.045   8.048 -1.8665  1.4698 -0.7994
 6274SOL    HW230456   1.516   2.994   8.185 -1.1769  1.9046  0.8935
 6275SOL     OW30457   0.317   2.199  17.656  0.0734 -0.3253 -0.5083
 6275SOL    HW130458   0.265   2.279  17.661 -0.4882 -0.7580  0.5575
 6275SOL    HW230459   0.298   2.184  17.563 -1.6293 -2.8394  0.2331
 6276SOL     OW30460   2.622   3.032   7.517  0.2334  0.4696 -0.3191
 6276SOL    HW130461   2.566   3.107   7.538  0.7498  0.9673 -0.7068
 6276SOL    HW230462   2.680   3.034   7.593 -1.7506  2.1743  1.1757
 6277SOL     OW30463   3.109   2.502  10.300  0.8971  0.1525  0.5047
 6277SOL    HW130464   3.081   2.586  10.338 -0.2136 -0.2693  0.6231
 6277SOL    HW230465   3.192   2.489  10.346  0.6468 -2.7990  0.0998
 6278SOL     OW30466   3.219   4.226   2.284 -0.0898 -0.1079  0.5286
 6278SOL    HW130467   3.199   4.307   2.237  0.6674 -0.7538 -0.9110
 6278SOL    HW230468   3.299   4.198   2.239  1.3317  2.0705  1.7139
 6279SOL     OW30469   4.630   2.473  10.347 -0.4405 -0.4841 -0.3740
 6279SOL    HW130470   4.645   2.565  10.325  0.8357 -0.2275  1.5358
 6279SOL    HW230471   4.659   2.431  10.266  1.3896  4.2389 -2.1785
 6280SOL     OW30472   1.043   3.914   4.865 -0.2338  0.4945  0.1285
 6280SOL    HW130473   1.124   3.905   4.915 -1.1711 -2.7261  1.0779
 6280SOL    HW230474   0.996   3.986   4.909 -1.5842 -0.5270  0.3570
 6281SOL     OW30475   3.315   1.094   0.502 -0.4050  0.2472 -0.3504
 6281SOL    HW130476   3.224   1.107   0.476 -0.6801 -1.9081 -0.5008
 6281SOL    HW230477   3.344   1.180   0.531 -0.2292  0.1244 -0.1598
 6282SOL     OW30478   2.526   2.001   2.708  0.1014 -0.4808  0.0369
 6282SOL    HW130479   2.532   1.973   2.799  0.9861 -0.9427 -0.1678
 6282SOL    HW230480   2.449   2.057   2.720  0.7351 -0.0250  1.9936
 6283SOL     OW30481   2.133   2.423  15.038 -0.3315 -0.6115 -0.4880
 6283SOL    HW130482   2.132   2.337  15.082  0.4085  0.8531  2.4054
 6283SOL    HW230483   2.044   2.454  15.055 -0.0205  1.3797 -2.5631
 6284SOL     OW30484   4.557   3.573  10.979  0.2636  0.0135  0.3344
 6284SOL    HW130485   4.630   3.608  11.029 -1.8511  0.2757  3.2597
 6284SOL    HW230486   4.478   3.595  11.028  0.3610  0.0425  0.4766
 6285SOL     OW30487   4.687   1.115   8.858  0.7481 -0.1476  0.1665
 6285SOL    HW130488   4.671   1.165   8.779 -1.5819  1.7517  1.8369
 6285SOL    HW230489   0.032   1.065   8.841  0.3099 -1.0915  0.8455
 6286SOL     OW30490   1.873   2.044  13.189  0.6067 -0.1082 -0.2810
 6286SOL    HW130491   1.924   2.027  13.268 -0.8716  2.2250  1.1934
 6286SOL    HW230492   1.793   1.993  13.201  1.3578 -1.2283 -0.0630
 6287SOL     OW30493   2.854   3.370   5.536 -0.2687 -0.6134 -0.0146
 6287SOL    HW130494   2.806   3.424   5.599 -2.0697 -0.3752 -1.6080
 6287SOL    HW230495   2.861   3.434   5.465 -0.7811 -1.6106 -0.9531
 6288SOL     OW30496   3.862   1.151   9.583 -0.0191  0.1303 -0.2583
 6288SOL    HW130497   3.823   1.200   9.655  0.4720 -1.7008  1.2708
 6288SOL    HW230498   3.838   1.059   9.600 -1.1530  0.4941  0.1370
 6289SOL     OW30499   1.648   1.146   2.740 -1.0552  0.3197 -0.3008
 6289SOL    HW130500   1.554   1.150   2.760 -0.9107  0.6353  0.3290
 6289SOL    HW230501   1.653   1.175   2.649 -0.4130  2.0506  0.2927
 6290SOL     OW30502   3.133   2.383  17.553  0.0312 -0.1153 -0.5235
 6290SOL    HW130503   3.198   2.413  17.617 -0.7699  0.4784  0.0104
 6290SOL    HW230504   3.194   2.330  17.502  1.4190  1.3094 -0.3497
 6291SOL     OW30505   2.888   0.337   8.215 -0.3083  0.3056  0.1526
 6291SOL    HW130506   2.946   0.268   8.184  0.2559  0.3121  1.1620
 6291SOL    HW230507   2.868   0.388   8.137  0.7520 -1.3214 -1.1710
 6292SOL     OW30508   0.308   3.550   3.611 -0.2217 -0.2771 -0.7550
 6292SOL    HW130509   0.270   3.473   3.653 -0.1394 -0.1864 -0.5123
 6292SOL    HW230510   0.399   3.520   3.604  0.9146  3.2306 -1.0116
 6293SOL     OW30511   1.578   0.416   1.172  0.1079 -0.7193  0.0313
 6293SOL    HW130512   1.658   0.460   1.145  1.2381 -1.3939  2.2968
 6293SOL    HW230513   1.591   0.322   1.160 -2.4643 -1.0566 -0.2030
 6294SOL     OW30514   4.238   4.329   6.006  0.0431  0.3170  0.0700
 6294SOL    HW130515   4.307   4.286   6.057  0.9445 -0.3850 -1.7185
 6294SOL    HW230516   4.281   4.322   5.920 -0.0373 -0.4136  0.0856
 6295SOL     OW30517   4.337   3.679   6.622  0.4301  0.1893  0.3708
 6295SOL    HW130518   4.379   3.644   6.543 -0.4972  2.0485 -0.9417
 6295SOL    HW230519   4.272   3.613   6.646  1.5504 -0.6917  0.9608
 6296SOL     OW30520   3.898   2.809  12.393 -0.9373 -0.1296 -0.7849
 6296SOL    HW130521   3.861   2.785  12.478 -0.7290 -0.6358 -0.8387
 6296SOL    HW230522   3.823   2.794  12.335 -1.4677  0.4126 -0.2368
 6297SOL     OW30523   3.164   1.982   7.378  0.0461  0.0089 -0.2553
 6297SOL    HW130524   3.216   1.902   7.382  0.1017  0.0546 -0.0567
 6297SOL    HW230525   3.183   2.024   7.294  1.8351  0.5403  0.4229
 6298SOL     OW30526   4.264   1.837   8.019  0.2862  0.2951 -0.7353
 6298SOL    HW130527   4.326   1.904   7.992 -0.2704 -0.6312 -4.2411
 6298SOL    HW230528   4.199   1.900   8.050  2.4701  1.3231  1.7406
 6299SOL     OW30529   0.058   0.692   5.316  0.0517  0.2763  0.6755
 6299SOL    HW130530   0.001   0.615   5.329  0.4736 -0.2387 -0.4858
 6299SOL    HW230531   0.075   0.711   5.408  1.1223  1.4577  0.2232
 6300SOL     OW30532   1.260   4.128   3.479  0.0597 -0.1233  0.0539
 6300SOL    HW130533   1.193   4.171   3.532 -0.3808 -2.5137  1.4243
 6300SOL    HW230534   1.226   4.039   3.480 -1.5140  0.4532 -1.4235
 6301SOL     OW30535   1.936   1.491   6.389 -0.3035 -0.0748 -0.0529
 6301SOL    HW130536   1.889   1.485   6.306 -0.1865 -2.4088  0.0446
 6301SOL    HW230537   1.964   1.400   6.403  1.2942  0.5767  1.0990
 6302SOL     OW30538   2.374   2.154   6.574  0.2770  0.0389 -0.5157
 6302SOL    HW130539   2.306   2.218   6.555  2.5456  3.1861  2.0727
 6302SOL    HW230540   2.325   2.102   6.638 -0.3364 -0.8838 -1.7242
 6303SOL     OW30541   3.878   0.995   5.477 -0.0150  0.4582 -0.4816
 6303SOL    HW130542   3.891   0.971   5.385  1.5135  1.9929 -0.6633
 6303SOL    HW230543   3.852   0.918   5.528 -0.4738 -0.2753 -1.8031
 6304SOL     OW30544   3.296   0.381   2.566  0.4294  0.6330  0.1180
 6304SOL    HW130545   3.365   0.315   2.559  0.1857  0.3501  0.3813
 6304SOL    HW230546   3.223   0.326   2.537 -0.5132  0.3655  2.9202
 6305SOL     OW30547   0.729   0.628   4.926 -0.6400 -0.4994  0.1779
 6305SOL    HW130548   0.784   0.687   4.874 -0.4477 -1.3677 -0.5995
 6305SOL    HW230549   0.683   0.593   4.850  0.3122 -0.3543 -0.4740
 6306SOL     OW30550   3.682   2.366   4.041 -0.0164  0.1098  0.2358
 6306SOL    HW130551   3.766   2.363   3.995  1.0798 -0.3423  2.2311
 6306SOL    HW230552   3.628   2.403   3.971  1.3119 -1.6154 -1.7116
 6307SOL     OW30553   1.187   4.025   7.141 -0.1450 -0.2619 -0.0310
 6307SOL    HW130554   1.224   4.096   7.193  0.7207 -2.8643  2.9125
 6307SOL    HW230555   1.106   4.011   7.191 -0.8053 -1.6130 -1.4731
 6308SOL     OW30556   1.909   2.802   2.265 -0.7105 -0.3679 -0.0818
 6308SOL    HW130557   1.871   2.837   2.185 -0.6845  1.3658  0.6514
 6308SOL    HW230558   1.847   2.734   2.290 -2.0993  0.7098 -0.6068
 6309SOL     OW30559   1.176   1.080   6.108 -0.1169  0.0764 -0.5478
 6309SOL    HW130560   1.234   1.005   6.115 -0.5134 -0.2868 -1.1284
 6309SOL    HW230561   1.215   1.146   6.166  0.1502 -0.3801 -0.2139
 6310SOL     OW30562   2.817   1.359   1.399  0.4243 -0.1760  0.7404
 6310SOL    HW130563   2.801   1.357   1.304 -1.0902  2.1793  0.9421
 6310SOL    HW230564   2.909   1.385   1.401  0.3805  0.2952 -3.0600
 6311SOL     OW30565   4.210   1.123   7.676  0.4489  0.2160 -0.1379
 6311SOL    HW130566   4.136   1.181   7.661  0.2810  0.3211  1.1421
 6311SOL    HW230567   4.279   1.167   7.626  1.6119 -1.5798 -0.1359
 6312SOL     OW30568   3.825   1.094   2.745  0.3564  0.3408  0.0838
 6312SOL    HW130569   3.899   1.062   2.692  0.8880 -0.1423  1.1052
 6312SOL    HW230570   3.759   1.104   2.677  1.6800  0.7496 -1.1501
 6313SOL     OW30571   4.407   4.012   2.347  0.0759  0.0384  0.8793
 6313SOL    HW130572   4.494   4.016   2.307  0.0769  1.3708  0.9958
 6313SOL    HW230573   4.405   4.098   2.390 -2.8253  1.1023 -1.4331
 6314SOL     OW30574   1.955   2.869   0.350 -0.3613 -0.2540 -0.2420
 6314SOL    HW130575   1.866   2.865   0.384 -0.4680 -2.1566 -0.8015
 6314SOL    HW230576   2.002   2.854   0.432 -0.9583 -1.2377 -0.0838
 6315SOL     OW30577   1.387   1.797  12.141 -0.6543 -0.2270 -0.2275
 6315SOL    HW130578   1.302   1.841  12.148 -1.4157 -1.5035 -1.3565
 6315SOL    HW230579   1.359   1.740  12.213 -0.2624 -1.2458 -0.8910
 6316SOL     OW30580   1.424   3.346   2.442 -0.1782 -0.0681  0.6940
 6316SOL    HW130581   1.402   3.422   2.388 -3.4707 -1.7919 -0.3909
 6316SOL    HW230582   1.491   3.313   2.383 -0.5990  0.3660 -0.0196
 6317SOL     OW30583   0.303   0.733   5.856  0.3953 -0.7437  0.2564
 6317SOL    HW130584   0.259   0.755   5.938  1.4555 -0.8994  0.8649
 6317SOL    HW230585   0.392   0.718   5.885  0.7792 -0.2628 -0.6725
 6318SOL     OW30586   2.873   1.375  17.187 -0.1346  0.2009 -0.0329
 6318SOL    HW130587   2.880   1.374  17.091  0.2760  0.4225 -0.0033
 6318SOL    HW230588   2.962   1.348  17.209 -0.3162 -0.7015 -0.3894
 6319SOL     OW30589   1.255   0.981   9.938 -0.6289 -0.1265 -0.0979
 6319SOL    HW130590   1.175   0.928   9.932 -0.5601 -0.3665  1.1026
 6319SOL    HW230591   1.209   1.065   9.943 -1.2892 -0.5448  1.0143
 6320SOL     OW30592   0.296   3.474   3.248  1.0901  0.0719 -0.0425
 6320SOL    HW130593   0.303   3.394   3.300  4.2789 -0.8200 -1.8447
 6320SOL    HW230594   0.351   3.537   3.293 -0.1008  0.0440  1.4571
 6321SOL     OW30595   3.866   1.434   8.315 -0.1870 -0.4993 -0.2034
 6321SOL    HW130596   3.771   1.438   8.307 -0.1201  1.5701 -0.0720
 6321SOL    HW230597   3.894   1.378   8.243 -1.6327 -3.3415  1.4063
 6322SOL     OW30598   2.597   4.306   4.077  0.4567  0.0471  0.1903
 6322SOL    HW130599   2.650   4.232   4.105 -1.1575 -1.0917  0.2016
 6322SOL    HW230600   2.675   4.362   4.074 -0.8560  1.9075  0.5251
 6323SOL     OW30601   1.451   1.527   4.434 -0.2427 -0.8906  0.2874
 6323SOL    HW130602   1.357   1.510   4.437 -0.2043 -0.7590  2.7500
 6323SOL    HW230603   1.485   1.462   4.496  0.0085 -2.2934 -1.3283
 6324SOL     OW30604   0.504   0.316   9.085  0.6713  0.6575 -0.3573
 6324SOL    HW130605   0.597   0.319   9.106  0.6130  1.9721 -0.2781
 6324SOL    HW230606   0.488   0.405   9.052  0.3433  1.3576  1.6891
 6325SOL     OW30607   3.727   4.571   7.014 -0.4459  0.2415  0.0767
 6325SOL    HW130608   3.641   4.601   6.985 -0.2264 -0.9988 -1.8831
 6325SOL    HW230609   3.755   4.640   7.074 -0.9753  0.7086 -0.2190
 6326SOL     OW30610   0.858   0.720   0.842 -1.0378  0.0493  0.1298
 6326SOL    HW130611   0.928   0.751   0.900 -1.9589  1.3786  0.5472
 6326SOL    HW230612   0.904   0.719   0.759 -0.0388 -0.9874  0.7083
 6327SOL     OW30613   3.672   0.614  11.880 -0.2413  0.4473  0.1525
 6327SOL    HW130614   3.625   0.649  11.804 -0.6724 -0.0464  0.1917
 6327SOL    HW230615   3.657   0.682  11.946  0.3428 -0.9169  1.7013
 6328SOL     OW30616   4.683   4.026   8.639  0.0060  0.2272  0.0791
 6328SOL    HW130617   4.628   4.078   8.581  2.4512  1.4603 -1.1622
 6328SOL    HW230618   4.698   4.076   8.719 -0.8610  2.3659 -1.1022
 6329SOL     OW30619   1.369   2.836   7.501  0.3701  0.3588  0.5042
 6329SOL    HW130620   1.446   2.862   7.550  0.0452 -0.1681  1.2951
 6329SOL    HW230621   1.408   2.774   7.440 -1.0180  2.1461 -2.2608
 6330SOL     OW30622   2.483   2.871  11.040 -0.0883 -0.9514  0.4075
 6330SOL    HW130623   2.435   2.795  11.007 -0.4752 -0.5693  0.0946
 6330SOL    HW230624   2.445   2.943  10.990 -0.3025 -0.9471  0.5734
 6331SOL     OW30625   3.593   3.475  13.393 -0.3927  0.4012 -0.4305
 6331SOL    HW130626   3.539   3.402  13.422 -0.9247  0.5736 -0.9849
 6331SOL    HW230627   3.649   3.479  13.471 -2.4021 -0.5962  1.0797
 6332SOL     OW30628   0.534   4.439  16.540 -0.3248 -0.0449 -0.1190
 6332SOL    HW130629   0.603   4.395  16.591  0.9870 -0.7393 -2.4905
 6332SOL    HW230630   0.462   4.399  16.589 -0.3133 -1.0973 -0.9378
 6333SOL     OW30631   3.861   2.478   7.917 -0.7140  0.2131 -0.2243
 6333SOL    HW130632   3.771   2.488   7.887 -0.7248  0.4919 -0.1008
 6333SOL    HW230633   3.849   2.474   8.012  1.3498 -1.6645 -0.0521
 6334SOL     OW30634   0.070   4.265   7.873 -0.1633 -0.6637 -0.3154
 6334SOL    HW130635   0.159   4.302   7.876 -1.1742  1.6873  1.0264
 6334SOL    HW230636   0.085   4.177   7.838  1.3038 -0.0747 -1.1995
 6335SOL     OW30637   0.720   0.631   3.550 -0.5990  0.0890  0.0260
 6335SOL    HW130638   0.686   0.599   3.466 -0.7093 -1.8561  0.7925
 6335SOL    HW230639   0.673   0.713   3.558  3.4156  2.3812  0.0809
 6336SOL     OW30640   3.256   1.043  16.024 -0.1053  0.2851  0.1693
 6336SOL    HW130641   3.193   0.980  15.989 -0.3022  0.4859  0.1670
 6336SOL    HW230642   3.341   1.009  15.993 -2.0351 -3.1862 -1.3125
 6337SOL     OW30643   4.301   1.004  11.922 -0.7866  0.1500  0.3689
 6337SOL    HW130644   4.326   1.021  11.831 -0.7770  1.0585  0.5416
 6337SOL    HW230645   4.214   0.967  11.903  0.5958 -2.6754 -0.3444
 6338SOL     OW30646   2.946   2.389   2.749 -0.7538  0.2541  0.4366
 6338SOL    HW130647   3.026   2.416   2.705 -0.8222 -1.7291 -0.8827
 6338SOL    HW230648   2.981   2.379   2.838  0.0612  0.0253  0.0852
 6339SOL     OW30649   1.986   1.670   7.453  0.1633  0.3867  0.3609
 6339SOL    HW130650   1.989   1.656   7.359 -1.1277 -1.7402  0.6271
 6339SOL    HW230651   2.013   1.761   7.451 -0.8425  0.6179 -2.1333
 6340SOL     OW30652   1.918   1.591   5.512  0.9009  0.5450  0.6222
 6340SOL    HW130653   1.975   1.522   5.546  0.5562  0.4731  1.0547
 6340SOL    HW230654   1.962   1.626   5.435 -1.3878  0.4337 -0.7292
 6341SOL     OW30655   3.916   4.223   5.646 -0.5699 -0.4954  0.2131
 6341SOL    HW130656   3.968   4.289   5.692  2.5358 -0.0611 -3.8933
 6341SOL    HW230657   3.966   4.141   5.658 -1.2423 -0.8076  0.8648
 6342SOL     OW30658   0.491   3.312  16.672  0.0894 -0.0150  0.4249
 6342SOL    HW130659   0.542   3.284  16.597  0.9794  2.3430  0.1732
 6342SOL    HW230660   0.453   3.398  16.656 -4.5356 -1.4000  3.7720
 6343SOL     OW30661   1.384   1.412   7.251 -0.0780  0.2690 -0.2135
 6343SOL    HW130662   1.334   1.374   7.179 -1.2191 -1.5040  1.5230
 6343SOL    HW230663   1.369   1.505   7.233 -0.2249  0.0918 -1.0235
 6344SOL     OW30664   2.601   4.306  10.958  0.3907  0.8623  0.1972
 6344SOL    HW130665   2.655   4.265  11.025 -0.5247  2.4344  1.9034
 6344SOL    HW230666   2.640   4.392  10.966 -0.2677  1.2568 -0.8617
 6345SOL     OW30667   3.276   1.002   8.599 -0.3509  0.0199  0.3126
 6345SOL    HW130668   3.327   1.075   8.633 -0.8117  0.3230  0.3610
 6345SOL    HW230669   3.333   0.936   8.639 -1.1813 -0.9722 -0.1392
 6346SOL     OW30670   1.749   0.633   7.903  0.0168 -0.1209  0.3027
 6346SOL    HW130671   1.675   0.629   7.964  1.0510  1.7398  1.6822
 6346SOL    HW230672   1.709   0.625   7.817 -1.4707  2.2211  0.7916
 6347SOL     OW30673   1.437   2.082   8.605  0.6156  0.2985  0.1191
 6347SOL    HW130674   1.417   2.023   8.678 -2.0251 -1.1417 -1.7393
 6347SOL    HW230675   1.525   2.051   8.586 -0.3321 -1.5673 -1.2960
 6348SOL     OW30676   1.762   3.101  10.656 -0.1313  0.0348 -0.1406
 6348SOL    HW130677   1.729   3.021  10.695 -3.1139  1.3406 -0.0454
 6348SOL    HW230678   1.831   3.120  10.720  0.1971 -1.6800  0.0183
 6349SOL     OW30679   3.941   0.957   7.708  0.2881  0.2668  0.2193
 6349SOL    HW130680   3.878   0.890   7.683  0.4833 -0.4257  1.5886
 6349SOL    HW230681   3.906   1.028   7.654  1.6161  0.5611 -0.2770
 6350SOL     OW30682   2.256   1.539   3.249  0.1109  0.2665 -0.0258
 6350SOL    HW130683   2.280   1.611   3.306 -1.0917 -0.8434  1.8868
 6350SOL    HW230684   2.189   1.587   3.201 -0.0312 -1.1296 -1.2383
 6351SOL     OW30685   3.137   4.083   7.378  0.4531 -0.1341 -0.1784
 6351SOL    HW130686   3.174   4.037   7.303 -2.8103 -0.6941 -1.4238
 6351SOL    HW230687   3.134   4.017   7.447 -2.0136  1.3498  1.1300
 6352SOL     OW30688   4.131   1.254  15.196  0.0749 -0.2607  0.3715
 6352SOL    HW130689   4.060   1.264  15.258  0.9749  0.3949  1.2902
 6352SOL    HW230690   4.165   1.169  15.224  1.5705 -0.1402 -1.0608
 6353SOL     OW30691   4.440   1.719   8.234  0.2130  0.2950  0.4279
 6353SOL    HW130692   4.454   1.627   8.212  0.0491  0.8724 -2.0421
 6353SOL    HW230693   4.373   1.755   8.176  0.3602 -0.6197 -0.3002
 6354SOL     OW30694   0.315   0.631   3.633 -0.1301  0.1055 -0.0517
 6354SOL    HW130695   0.406   0.616   3.661  0.0611 -1.0094 -1.2658
 6354SOL    HW230696   0.330   0.647   3.540 -0.2934 -0.5957 -0.1997
 6355SOL     OW30697   4.313   1.421   4.295  0.0178 -0.1014 -0.0241
 6355SOL    HW130698   4.376   1.465   4.352 -0.1886 -0.3719  0.4093
 6355SOL    HW230699   4.365   1.347   4.263 -0.0110  0.3443 -1.1175
 6356SOL     OW30700   3.000   0.366  16.538 -0.3135  0.1190 -0.5283
 6356SOL    HW130701   2.992   0.444  16.594  0.3094 -0.4915  0.4032
 6356SOL    HW230702   2.912   0.378  16.503  0.4148  0.0322 -2.3965
 6357SOL     OW30703   1.913   3.683  17.076 -0.6688 -0.7934 -0.3906
 6357SOL    HW130704   1.889   3.684  16.983  1.3947  1.5229 -0.9047
 6357SOL    HW230705   1.829   3.665  17.118  0.2848  0.5304  2.0680
 6358SOL     OW30706   2.786   0.444  12.617 -0.4369 -0.2075  0.9518
 6358SOL    HW130707   2.767   0.523  12.565  0.1635 -0.5934  0.1562
 6358SOL    HW230708   2.784   0.483  12.704  2.4466  0.4815  0.6969
 6359SOL     OW30709   2.792   1.287   1.885  0.3818  0.6484  0.1816
 6359SOL    HW130710   2.829   1.349   1.822  0.6536  0.2467 -0.0557
 6359SOL    HW230711   2.733   1.344   1.934 -0.7207 -0.6885  0.3930
 6360SOL     OW30712   3.645   2.727  11.915  0.3597 -0.0411  0.8075
 6360SOL    HW130713   3.730   2.715  11.958 -0.0465  0.1515  1.6573
 6360SOL    HW230714   3.594   2.672  11.974  0.9009 -1.1999  0.2010
 6361SOL     OW30715   2.842   4.438   8.508  0.1617  0.6318  0.2591
 6361SOL    HW130716   2.882   4.412   8.591  0.3338 -3.2271 -1.0424
 6361SOL    HW230717   2.898   4.391   8.447  0.5205  0.4620  0.7276
 6362SOL     OW30718   2.496   3.384   6.223  0.1917  0.0686  0.2313
 6362SOL    HW130719   2.478   3.296   6.255  1.7464 -0.2316  0.2734
 6362SOL    HW230720   2.573   3.385   6.167  1.1452 -0.2362  1.5271
 6363SOL     OW30721   0.380   3.094   1.899 -0.0564  0.1619  0.6873
 6363SOL    HW130722   0.294   3.104   1.939 -0.1640  0.7189  0.3034
 6363SOL    HW230723   0.366   3.028   1.831 -1.0106  0.6112  0.4604
 6364SOL     OW30724   3.208   0.960   7.890 -0.1482 -0.1618 -0.1202
 6364SOL    HW130725   3.233   1.052   7.881  1.0663 -0.3505  1.2991
 6364SOL    HW230726   3.185   0.959   7.983  1.1077  0.1827  0.1955
 6365SOL     OW30727   2.102   1.152   0.591 -0.3925 -0.1713 -0.0815
 6365SOL    HW130728   2.102   1.230   0.536  3.1202  0.6347  1.0616
 6365SOL    HW230729   2.191   1.155   0.628  0.3743 -0.8242 -1.8666
 6366SOL     OW30730   1.179   3.630   4.598  0.1205 -0.5283 -0.1868
 6366SOL    HW130731   1.097   3.664   4.562  0.5747 -1.4004 -2.0887
 6366SOL    HW230732   1.152   3.600   4.685 -1.1475 -1.6032 -0.9581
 6367SOL     OW30733   3.752   0.932   3.865 -0.0985 -0.3165  0.0595
 6367SOL    HW130734   3.773   1.024   3.847  3.3252 -1.4264 -1.6485
 6367SOL    HW230735   3.724   0.942   3.956 -1.8236 -1.2672 -0.3795
 6368SOL     OW30736   3.321   0.003  12.375 -0.1176 -0.5429  0.0032
 6368SOL    HW130737   3.300   0.095  12.390 -0.2882 -0.6065  0.1538
 6368SOL    HW230738   3.378   4.730  12.451 -3.4508 -0.4049  2.5092
 6369SOL     OW30739   4.652   0.648   1.839  0.2841 -0.1951 -0.2549
 6369SOL    HW130740   4.597   0.637   1.761 -0.7176 -0.8500  0.5533
 6369SOL    HW230741   0.006   0.650   1.801  0.4841 -0.3131  0.1994
 6370SOL     OW30742   0.024   4.115  14.152  0.2615 -0.5426 -0.0964
 6370SOL    HW130743   0.034   4.153  14.239 -1.7350 -0.0793 -0.0708
 6370SOL    HW230744   4.679   4.160  14.125  0.7063 -0.5696 -1.4750
 6371SOL     OW30745   3.344   3.222   2.903  0.4615  0.1646 -0.4730
 6371SOL    HW130746   3.437   3.236   2.885  0.4167  0.7736 -0.2365
 6371SOL    HW230747   3.320   3.306   2.942 -0.4144  0.7645 -2.3028
 6372SOL     OW30748   0.133   4.103  10.944  0.3175  0.0539 -0.0629
 6372SOL    HW130749   0.187   4.108  11.023 -0.0040 -1.7893  0.2679
 6372SOL    HW230750   0.166   4.178  10.895  0.0616  0.0805 -0.1989
 6373SOL     OW30751   4.194   0.951  11.126 -0.9277  0.1653 -0.1533
 6373SOL    HW130752   4.188   0.860  11.154 -2.6749 -0.0828 -1.3567
 6373SOL    HW230753   4.279   0.980  11.157 -0.4124 -1.4759 -0.0403
 6374SOL     OW30754   0.473   2.418  14.902  0.1799  0.4053 -0.3891
 6374SOL    HW130755   0.394   2.472  14.891 -1.0473 -1.7746 -2.3792
 6374SOL    HW230756   0.540   2.477  14.934  0.2991  0.0363  0.0323
 6375SOL     OW30757   1.794   2.582   3.869 -0.1376  0.1966  0.0005
 6375SOL    HW130758   1.823   2.672   3.882  1.7041 -0.3309 -0.5455
 6375SOL    HW230759   1.869   2.536   3.832 -2.0950 -0.1200 -3.5888
 6376SOL     OW30760   2.485   2.391   3.707  0.2215  0.1526 -0.1173
 6376SOL    HW130761   2.483   2.472   3.656 -2.4605 -0.3805 -0.8529
 6376SOL    HW230762   2.572   2.366   3.676 -0.4422 -0.0453 -1.8128
 6377SOL     OW30763   1.398   2.095   3.337 -0.1885  0.4001  0.3817
 6377SOL    HW130764   1.320   2.062   3.292 -0.7295  0.5790  1.2029
 6377SOL    HW230765   1.411   2.025   3.402 -1.1170  0.7205  0.8971
 6378SOL     OW30766   0.932   0.904   8.323  0.2932 -0.0328 -0.2534
 6378SOL    HW130767   0.897   0.876   8.407  2.1747 -0.3993  0.3999
 6378SOL    HW230768   0.875   0.979   8.306  1.4494  0.9272  0.1176
 6379SOL     OW30769   0.529   0.820   5.540  0.1945 -0.9190 -0.0101
 6379SOL    HW130770   0.624   0.807   5.549 -0.0457 -3.7420 -1.5599
 6379SOL    HW230771   0.492   0.734   5.561 -2.2708 -0.4123 -2.3060
 6380SOL     OW30772   2.574   3.088  10.787  0.2619 -0.0926  0.0397
 6380SOL    HW130773   2.608   2.998  10.788 -0.3970 -0.3420 -0.3886
 6380SOL    HW230774   2.590   3.115  10.877  1.9477  0.0257 -0.2867
 6381SOL     OW30775   1.670   1.403   8.627 -0.0469  0.6909 -0.3863
 6381SOL    HW130776   1.681   1.386   8.720 -1.7112 -2.7429 -0.8055
 6381SOL    HW230777   1.681   1.496   8.605 -0.7993  0.7847 -0.3730
 6382SOL     OW30778   0.739   3.283   2.823 -0.4283  0.0147  0.0081
 6382SOL    HW130779   0.724   3.210   2.883  3.0642  0.1446  1.0446
 6382SOL    HW230780   0.835   3.281   2.821 -0.4183  0.2820  0.0985
 6383SOL     OW30781   4.622   2.912   5.041 -0.1171 -0.3040  0.3328
 6383SOL    HW130782   4.543   2.967   5.049 -0.7277 -1.1699  0.2901
 6383SOL    HW230783   4.680   2.962   5.099 -0.6951 -1.0917  1.5992
 6384SOL     OW30784   1.982   2.414  11.614 -0.2317 -0.2638  0.2266
 6384SOL    HW130785   1.951   2.504  11.610 -0.0057 -0.2017 -0.1516
 6384SOL    HW230786   2.025   2.407  11.700  0.8636  0.5181 -0.2594
 6385SOL     OW30787   2.084   3.655  11.603  0.1459 -0.1298  0.0332
 6385SOL    HW130788   2.091   3.730  11.662 -0.8065  0.7376 -0.9541
 6385SOL    HW230789   1.996   3.621  11.620  0.0040  0.6504  0.8753
 6386SOL     OW30790   4.131   3.920   3.430  0.2295  0.0935 -0.6860
 6386SOL    HW130791   4.055   3.948   3.380 -0.4674  0.9929  0.8935
 6386SOL    HW230792   4.197   3.989   3.425  0.1393  0.3831  2.1976
 6387SOL     OW30793   2.007   1.861   3.981 -0.2333  0.1273  0.1339
 6387SOL    HW130794   2.059   1.879   4.059 -1.6585 -0.1368  1.1688
 6387SOL    HW230795   2.065   1.878   3.908 -1.0205  2.0546 -0.0275
 6388SOL     OW30796   0.659   4.609  17.629 -0.1715  0.0170 -0.3458
 6388SOL    HW130797   0.579   4.658  17.608 -0.7195 -0.6992  0.1009
 6388SOL    HW230798   0.719   4.683  17.619  0.2830 -0.1929  0.8289
 6389SOL     OW30799   4.208   2.010   3.961  0.7581 -0.1970 -0.3719
 6389SOL    HW130800   4.167   2.004   4.048 -0.2543 -1.4403 -0.9278
 6389SOL    HW230801   4.278   2.067   3.993  1.0287 -0.6968 -0.0557
 6390SOL     OW30802   0.684   4.223   0.729  0.6338 -0.5546 -0.4229
 6390SOL    HW130803   0.631   4.270   0.794  3.4223  2.3487 -0.2545
 6390SOL    HW230804   0.759   4.281   0.715  0.7663 -0.2160  1.6453
 6391SOL     OW30805   2.028   3.766   8.187  0.3866 -0.2056  0.4444
 6391SOL    HW130806   2.078   3.847   8.192 -1.2058  0.7620  0.5402
 6391SOL    HW230807   2.052   3.733   8.274  0.8466 -0.4341  0.2286
 6392SOL     OW30808   3.347   0.057   8.064  0.7929  0.1054 -0.1756
 6392SOL    HW130809   3.321   4.708   8.025  0.0484 -1.0708  2.8804
 6392SOL    HW230810   3.380   0.107   7.989  1.0406 -3.0003 -2.1453
 6393SOL     OW30811   4.319   3.199   3.248 -0.1509  0.2233  0.1398
 6393SOL    HW130812   4.232   3.238   3.260  0.4536  1.8469 -0.7560
 6393SOL    HW230813   4.348   3.213   3.338  0.2054 -0.3078  0.1044
 6394SOL     OW30814   1.112   1.610   4.272 -0.1605  0.1321 -0.2582
 6394SOL    HW130815   1.092   1.692   4.317  3.4843  0.1038  1.3905
 6394SOL    HW230816   1.030   1.599   4.224  0.9272 -1.6660 -1.6775
 6395SOL     OW30817   4.360   4.549   7.421  0.0785 -0.2709 -0.9637
 6395SOL    HW130818   4.341   4.501   7.502 -0.8618  0.5219 -0.7124
 6395SOL    HW230819   4.404   4.486   7.365 -2.1178 -2.4430 -0.2556
 6396SOL     OW30820   4.502   1.963   4.495 -0.0737 -0.1444  0.3046
 6396SOL    HW130821   4.551   1.965   4.412  1.6961 -1.2325  1.3071
 6396SOL    HW230822   4.565   2.002   4.556  0.7936 -1.2605  0.1425
 6397SOL     OW30823   4.590   0.761  17.118  0.3604 -0.3276 -0.3726
 6397SOL    HW130824   4.616   0.771  17.210 -2.0560  0.6426  0.2113
 6397SOL    HW230825   4.600   0.666  17.114 -2.8863 -0.7181  0.9212
 6398SOL     OW30826   1.349   0.504  16.270  0.0370  0.4384 -0.2525
 6398SOL    HW130827   1.270   0.532  16.316  0.8251 -0.4574  1.6566
 6398SOL    HW230828   1.392   0.589  16.281 -1.2370  1.0903 -0.2890
 6399SOL     OW30829   1.638   1.056   4.085  0.7324 -0.2333  0.1242
 6399SOL    HW130830   1.718   1.007   4.070  1.0402 -0.4654  2.4027
 6399SOL    HW230831   1.617   1.097   4.002 -0.4578  0.8811  0.9792
 6400SOL     OW30832   2.612   1.864   8.161  0.3145 -0.0188  0.2227
 6400SOL    HW130833   2.601   1.916   8.081 -0.4531  0.5874  0.7142
 6400SOL    HW230834   2.612   1.773   8.132  1.9473 -0.1680  0.6865
 6401SOL     OW30835   1.285   1.289   3.408 -0.0309 -0.5548 -0.0612
 6401SOL    HW130836   1.326   1.372   3.384 -0.1026 -1.1210 -2.1294
 6401SOL    HW230837   1.236   1.281   3.326 -1.6087 -2.2934  1.0414
 6402SOL     OW30838   1.861   2.418   1.619  0.1275 -0.8733  0.8961
 6402SOL    HW130839   1.953   2.395   1.627  0.3877 -0.3212 -0.4269
 6402SOL    HW230840   1.840   2.355   1.551 -0.0675  1.0490 -0.8473
 6403SOL     OW30841   1.982   3.834   3.242  0.0274 -0.7570 -0.1638
 6403SOL    HW130842   1.960   3.807   3.153  0.3129 -0.0204 -0.4564
 6403SOL    HW230843   1.955   3.925   3.242  1.6083 -0.2937  0.5103
 6404SOL     OW30844   1.596   0.959   5.019 -0.3135 -0.2636  0.4915
 6404SOL    HW130845   1.547   0.947   4.938 -0.8232  0.3035  0.7092
 6404SOL    HW230846   1.603   0.868   5.047 -1.7424  0.4759  3.2125
 6405SOL     OW30847   3.026   3.315   4.913 -0.0336  0.6328  0.0407
 6405SOL    HW130848   3.038   3.292   5.005  0.5280  0.2951 -0.1186
 6405SOL    HW230849   3.056   3.406   4.909  1.5173  0.2021  1.9837
 6406SOL     OW30850   0.378   4.694   2.415 -0.0725  0.3151 -0.1772
 6406SOL    HW130851   0.460   4.668   2.375  1.4009  0.2387  2.9241
 6406SOL    HW230852   0.336   0.014   2.348 -0.4734 -0.3223 -0.4489
 6407SOL     OW30853   3.618   2.990  11.981 -0.1822 -0.4397 -0.0913
 6407SOL    HW130854   3.600   2.899  11.960  0.6146 -0.5624 -0.2302
 6407SOL    HW230855   3.698   2.985  12.033  0.1501 -0.3235 -0.5899
 6408SOL     OW30856   4.117   1.999  10.853 -0.1488 -0.2299  0.7194
 6408SOL    HW130857   4.042   2.013  10.794  0.4751  0.7396  0.1395
 6408SOL    HW230858   4.186   1.971  10.792 -0.0410  3.1593 -0.7771
 6409SOL     OW30859   4.253   3.284  11.670  0.7335 -0.5142 -0.0331
 6409SOL    HW130860   4.293   3.282  11.757  0.9812 -3.3980 -0.1841
 6409SOL    HW230861   4.233   3.376  11.653 -0.3588 -1.1797 -2.3068
 6410SOL     OW30862   2.000   1.034  12.650 -0.0422 -0.0501  0.2480
 6410SOL    HW130863   2.072   1.077  12.604 -0.2556 -1.1059 -1.0751
 6410SOL    HW230864   1.927   1.058  12.593  0.2526  2.3427  0.8984
 6411SOL     OW30865   0.452   2.108   7.720  0.4189 -0.7607 -0.1766
 6411SOL    HW130866   0.400   2.050   7.666 -0.3463 -0.0151 -0.2509
 6411SOL    HW230867   0.471   2.054   7.797 -1.3576 -0.9814  0.1047
 6412SOL     OW30868   4.088   3.760  14.296  0.3046 -0.0557  0.3202
 6412SOL    HW130869   4.023   3.804  14.351  0.3259  0.8287 -0.3773
 6412SOL    HW230870   4.152   3.830  14.284  0.3067  0.0498  0.9528
 6413SOL     OW30871   4.390   1.939   1.702  0.0302  0.2569  0.4669
 6413SOL    HW130872   4.404   1.953   1.796  2.3749  1.9638 -0.1244
 6413SOL    HW230873   4.329   1.866   1.710 -0.6318  0.5828 -1.7485
 6414SOL     OW30874   2.795   4.633  10.221 -0.0819  0.0804 -0.7671
 6414SOL    HW130875   2.730   4.565  10.204 -0.8321  0.6277 -0.0876
 6414SOL    HW230876   2.746   4.710  10.192 -0.2150  0.6195  0.8697
 6415SOL     OW30877   2.921   3.711   1.347 -0.0778  0.4212  0.4049
 6415SOL    HW130878   2.888   3.703   1.436 -0.9667  0.0629  0.0384
 6415SOL    HW230879   2.848   3.750   1.298  1.0045  1.7424 -0.1948
 6416SOL     OW30880   1.940   4.507  14.118 -0.2347 -0.5566  0.6378
 6416SOL    HW130881   1.875   4.460  14.170  0.8367 -1.8500  0.8265
 6416SOL    HW230882   1.993   4.545  14.188 -1.0224 -1.4320  1.7026
 6417SOL     OW30883   0.180   0.940   1.766 -0.7869 -0.0222  0.1168
 6417SOL    HW130884   0.090   0.969   1.750 -1.1267 -0.9783  0.3167
 6417SOL    HW230885   0.206   0.970   1.854 -2.8213  1.8654  0.0798
 6418SOL     OW30886   2.622   1.694   2.189 -1.0594 -0.8351  0.3331
 6418SOL    HW130887   2.622   1.789   2.202  0.1491 -1.0387  1.8168
 6418SOL    HW230888   2.554   1.682   2.123  0.2087 -0.5818 -1.0075
 6419SOL     OW30889   1.835   2.359   1.206  0.1597  0.3171  0.2950
 6419SOL    HW130890   1.920   2.400   1.197 -0.5896  1.7774 -0.1135
 6419SOL    HW230891   1.859   2.268   1.190 -0.3155 -0.1261  2.0684
 6420SOL     OW30892   4.394   0.565   1.264 -0.3078 -0.5894  0.4042
 6420SOL    HW130893   4.481   0.579   1.301  0.1360  1.8295 -1.5545
 6420SOL    HW230894   4.364   0.479   1.292  0.2473 -0.5014  1.2551
 6421SOL     OW30895   1.443   2.361   1.318  0.2354  0.2648  0.0040
 6421SOL    HW130896   1.390   2.295   1.362  1.0106 -0.3637 -0.0151
 6421SOL    HW230897   1.493   2.402   1.388  0.3400 -2.4114  1.4842
 6422SOL     OW30898   4.167   4.091   7.635  0.3414 -0.1369  0.4420
 6422SOL    HW130899   4.115   4.136   7.702 -0.0115  0.8548 -0.4836
 6422SOL    HW230900   4.085   4.049   7.611  1.7089 -2.5514 -0.0192
 6423SOL     OW30901   3.294   3.630  11.082 -0.4218 -0.0816 -0.3105
 6423SOL    HW130902   3.357   3.561  11.101 -1.7545 -1.8120 -2.1315
 6423SOL    HW230903   3.354   3.704  11.078 -0.1372 -0.4597 -2.9150
 6424SOL     OW30904   3.035   0.691   5.346 -0.4513 -0.1247 -0.0954
 6424SOL    HW130905   2.950   0.734   5.336 -0.1198  0.6522  0.4184
 6424SOL    HW230906   3.039   0.637   5.267 -1.9236 -1.3170  0.6389
 6425SOL     OW30907   2.496   4.064   8.913  0.0282 -0.1753 -0.0242
 6425SOL    HW130908   2.483   4.128   8.984 -0.4840 -0.4938  0.1692
 6425SOL    HW230909   2.449   4.100   8.839  1.4185 -2.1970 -1.8902
 6426SOL     OW30910   2.599   1.539   3.215  0.2314  0.6375 -0.0275
 6426SOL    HW130911   2.515   1.535   3.261  0.1113 -3.7116 -0.6206
 6426SOL    HW230912   2.578   1.618   3.165 -1.7683  0.2231  0.1518
 6427SOL     OW30913   2.811   0.933   5.660  0.6175  0.1552  0.5971
 6427SOL    HW130914   2.788   0.843   5.635 -0.3346 -0.3476  3.2400
 6427SOL    HW230915   2.797   0.927   5.755  1.7264  3.9187  1.0129
 6428SOL     OW30916   4.373   1.356   6.740  0.2618 -0.1201  0.1677
 6428SOL    HW130917   4.285   1.335   6.772  0.7299  0.2368  1.7182
 6428SOL    HW230918   4.390   1.438   6.786  0.7734  0.3242 -0.8099
 6429SOL     OW30919   0.203   3.718   5.615  0.0082  0.9448  0.0861
 6429SOL    HW130920   0.217   3.810   5.596  0.5642  0.7858 -0.2865
 6429SOL    HW230921   0.126   3.716   5.672 -0.3609  1.4390 -0.4072
 6430SOL     OW30922   1.198   0.190  10.524  0.2198 -0.0114 -0.1196
 6430SOL    HW130923   1.289   0.212  10.548 -0.3764 -1.5079  3.5096
 6430SOL    HW230924   1.160   0.270  10.489 -0.0963 -0.0735  0.0894
 6431SOL     OW30925   2.919   2.981  14.529 -0.1555 -0.3641  0.0324
 6431SOL    HW130926   2.961   2.900  14.498  0.2282  0.7888 -2.4383
 6431SOL    HW230927   2.996   3.034  14.548 -0.8672  1.4416 -2.2805
 6432SOL     OW30928   0.914   1.001   2.401  0.1707 -0.0627  0.0804
 6432SOL    HW130929   0.963   1.082   2.415 -2.2003  1.1327  1.3468
 6432SOL    HW230930   0.936   0.946   2.476  0.0901  1.2897  1.0746
 6433SOL     OW30931   0.287   3.051   4.356 -0.6566 -0.3013 -0.4273
 6433SOL    HW130932   0.259   3.127   4.306 -1.2892 -0.3768 -0.1916
 6433SOL    HW230933   0.213   2.992   4.340 -0.2471 -0.0028 -3.3169
 6434SOL     OW30934   0.245   0.157  11.546 -0.2305  0.6939 -0.2063
 6434SOL    HW130935   0.228   0.151  11.640  3.0678 -0.1765  0.3510
 6434SOL    HW230936   0.252   0.251  11.529  1.8111  0.8356  1.4219
 6435SOL     OW30937   0.436   0.877   4.649  0.3434  0.2868 -0.0321
 6435SOL    HW130938   0.461   0.839   4.734 -0.6208  0.3926  0.2988
 6435SOL    HW230939   0.409   0.797   4.604 -0.3296 -0.2727  1.3432
 6436SOL     OW30940   2.065   2.062   3.067  0.9198  0.1457  0.7020
 6436SOL    HW130941   1.992   2.120   3.088  2.1114  2.6251 -2.0332
 6436SOL    HW230942   2.074   2.069   2.972 -1.8224  1.6312  0.5770
 6437SOL     OW30943   1.062   2.526   6.658 -0.5871 -0.0433 -0.4391
 6437SOL    HW130944   1.057   2.444   6.609  0.2111 -0.5500  0.3248
 6437SOL    HW230945   0.968   2.542   6.672 -0.1324  0.9740  1.5493
 6438SOL     OW30946   2.060   2.341  17.396 -0.6789 -0.3048 -0.0372
 6438SOL    HW130947   2.072   2.265  17.453  1.4187 -0.3378 -0.4988
 6438SOL    HW230948   2.006   2.301  17.328  0.3700  0.4144 -1.2805
 6439SOL     OW30949   2.415   4.130   1.731 -0.1005  0.4110 -0.2467
 6439SOL    HW130950   2.423   4.165   1.643  0.2215 -0.6101 -0.6239
 6439SOL    HW230951   2.432   4.205   1.788 -0.2129 -0.8762  1.4960
 6440SOL     OW30952   0.067   3.492   3.934  0.5891 -0.2033  0.2729
 6440SOL    HW130953   0.069   3.578   3.891 -1.4306 -0.5137 -0.4579
 6440SOL    HW230954   4.726   3.504   3.991  2.5770  1.0391  2.6247
 6441SOL     OW30955   0.931   1.801   5.949  0.1813  0.2808 -0.0959
 6441SOL    HW130956   0.996   1.857   5.906 -0.0207  0.9996  0.5494
 6441SOL    HW230957   0.856   1.858   5.962  1.6143  2.2866 -0.7194
 6442SOL     OW30958   0.246   2.410  12.134 -0.4499 -0.2243 -0.3070
 6442SOL    HW130959   0.228   2.440  12.223  0.5407  0.6154 -0.3860
 6442SOL    HW230960   0.214   2.485  12.084  0.8148  1.7330  1.7986
 6443SOL     OW30961   3.442   0.422   2.128  0.7960  0.0874 -0.4638
 6443SOL    HW130962   3.517   0.381   2.171  0.2529  0.4196  0.8288
 6443SOL    HW230963   3.409   0.455   2.212 -0.7153 -2.6572  0.0186
 6444SOL     OW30964   1.286   4.467   2.102 -0.2530  0.7291  0.3338
 6444SOL    HW130965   1.263   4.444   2.192  0.1565  2.9126  0.9934
 6444SOL    HW230966   1.296   4.561   2.116  2.4752  0.1796  2.0158
 6445SOL     OW30967   4.271   3.755  16.164  0.0723  0.4716 -0.5044
 6445SOL    HW130968   4.318   3.704  16.098  1.0319 -1.5119  1.6907
 6445SOL    HW230969   4.180   3.729  16.153 -0.0400 -0.5276  2.6161
 6446SOL     OW30970   4.539   4.045   4.133 -0.4238 -0.2010 -0.3326
 6446SOL    HW130971   4.469   3.988   4.104 -1.4704  0.9296 -0.0342
 6446SOL    HW230972   4.528   4.125   4.081  1.4158 -1.0336 -2.0186
 6447SOL     OW30973   0.210   0.343   5.295 -0.4275  0.3050 -0.5537
 6447SOL    HW130974   0.184   0.376   5.381  1.3442 -0.0806  0.1312
 6447SOL    HW230975   0.250   0.423   5.261  1.7137  0.0687  1.4167
 6448SOL     OW30976   1.425   2.225   4.851  0.0530  0.5062 -0.2877
 6448SOL    HW130977   1.360   2.193   4.789  0.6642  0.3157 -0.8403
 6448SOL    HW230978   1.462   2.301   4.806 -0.1039  0.4822 -0.4552
 6449SOL     OW30979   3.383   3.117  16.372 -0.1112  0.1425 -0.1281
 6449SOL    HW130980   3.342   3.145  16.290 -0.7262 -0.6566 -0.0893
 6449SOL    HW230981   3.383   3.199  16.421 -1.3381 -1.0938  1.9377
 6450SOL     OW30982   2.063   2.329  11.886  0.2780  0.3011  0.0951
 6450SOL    HW130983   2.079   2.393  11.956 -0.0447  2.3668 -1.7156
 6450SOL    HW230984   2.134   2.265  11.891  0.7794  0.9691  1.4914
 6451SOL     OW30985   4.669   3.291   2.717  0.0878  0.0084  0.0109
 6451SOL    HW130986   4.598   3.354   2.706  0.0969 -0.2868 -1.7196
 6451SOL    HW230987   0.007   3.353   2.725 -0.2319  0.1442  1.8620
 6452SOL     OW30988   4.089   1.193  13.037  0.5232  0.3566  0.3080
 6452SOL    HW130989   4.171   1.158  13.072  0.4918 -0.4298 -0.4049
 6452SOL    HW230990   4.116   1.232  12.954 -0.0657  0.3038  0.0957
 6453SOL     OW30991   0.966   1.933  12.364  0.3464 -0.7346 -0.3967
 6453SOL    HW130992   0.891   1.941  12.305  0.9332  0.5656 -0.9648
 6453SOL    HW230993   0.930   1.867  12.424  2.1550 -1.9352 -0.6372
 6454SOL     OW30994   3.150   3.499   7.348  0.2711  0.2984 -0.4716
 6454SOL    HW130995   3.129   3.515   7.256  1.0392 -0.8099 -0.8449
 6454SOL    HW230996   3.228   3.555   7.345  0.7978 -0.4129 -0.1804
 6455SOL     OW30997   1.735   1.467   2.096  0.2589 -0.0588  0.1976
 6455SOL    HW130998   1.658   1.434   2.050 -0.7907  0.1486  1.7964
 6455SOL    HW230999   1.690   1.499   2.174 -0.9251  0.3230 -0.6466
 6456SOL     OW31000   0.359   0.062   4.964  0.0672  0.6550 -0.0700
 6456SOL    HW131001   0.415   0.090   5.037 -0.9144  1.1970  0.4769
 6456SOL    HW231002   0.323   4.711   4.989 -0.6149  1.2146  0.8579
 6457SOL     OW31003   2.628   3.338   6.689 -0.4977 -0.0447 -0.2110
 6457SOL    HW131004   2.536   3.355   6.667 -0.2161 -0.0358 -1.3799
 6457SOL    HW231005   2.655   3.305   6.603 -1.5325  1.3553 -1.0942
 6458SOL     OW31006   3.155   2.033   1.885  0.0454  0.1819  0.4001
 6458SOL    HW131007   3.093   2.106   1.886 -2.5099 -1.9747  0.5246
 6458SOL    HW231008   3.234   2.060   1.931 -0.6289  2.3978  0.2284
 6459SOL     OW31009   3.123   3.297  12.777 -0.2029 -0.0153  0.1047
 6459SOL    HW131010   3.195   3.261  12.726 -0.1094  1.2107 -0.6222
 6459SOL    HW231011   3.172   3.338  12.848 -0.8977 -0.5122  0.8679
 6460SOL     OW31012   0.125   1.519   3.030 -0.5204 -0.3975 -0.4111
 6460SOL    HW131013   0.163   1.472   3.105 -0.4350 -0.0803 -0.2563
 6460SOL    HW231014   0.074   1.580   3.083  2.9206  1.6632  0.5617
 6461SOL     OW31015   2.347   0.805   4.096 -0.2905 -0.0347  0.4961
 6461SOL    HW131016   2.261   0.847   4.092  0.2219  1.0492  0.9172
 6461SOL    HW231017   2.324   0.719   4.130  2.0129 -1.3862 -1.3529
 6462SOL     OW31018   0.377   3.216   6.531 -0.2771 -0.3868 -0.0304
 6462SOL    HW131019   0.342   3.294   6.488 -1.7170  1.0540  3.8144
 6462SOL    HW231020   0.404   3.255   6.614  4.1212 -1.5418 -0.9154
 6463SOL     OW31021   3.806   2.444  13.952  0.3532  0.7122  0.4947
 6463SOL    HW131022   3.862   2.399  14.015  2.1172  0.2737 -1.3941
 6463SOL    HW231023   3.870   2.497  13.905  0.4114 -0.6830 -1.0082
 6464SOL     OW31024   1.952   2.565   4.584  0.2077 -0.0395  0.8827
 6464SOL    HW131025   2.044   2.587   4.569  0.3009 -1.2974 -0.4071
 6464SOL    HW231026   1.908   2.598   4.506 -0.9986  2.4192  2.6220
 6465SOL     OW31027   4.481   2.750   6.006 -0.7685 -0.2009 -0.2687
 6465SOL    HW131028   4.530   2.754   5.924 -1.8576 -1.3536 -0.9691
 6465SOL    HW231029   4.523   2.824   6.050 -1.5079  0.8250 -1.2857
 6466SOL     OW31030   2.366   2.913   4.344  0.3606  0.4321  0.0532
 6466SOL    HW131031   2.302   2.845   4.365  1.3202  0.0970  1.9279
 6466SOL    HW231032   2.331   2.945   4.261  0.1087  2.1672  0.8278
 6467SOL     OW31033   0.143   2.160  10.987  0.7986  0.3454  0.5734
 6467SOL    HW131034   0.091   2.174  11.066 -0.5379  0.1585 -0.2553
 6467SOL    HW231035   0.193   2.242  10.984  0.1932  0.7013 -0.1348
 6468SOL     OW31036   4.548   4.709  15.169  0.1464  0.0046 -0.2587
 6468SOL    HW131037   4.513   0.063  15.178 -2.5218 -1.2322  1.3516
 6468SOL    HW231038   4.620   4.724  15.107 -0.3964  0.9494 -0.6659
 6469SOL     OW31039   2.377   3.324   6.585 -0.6837  0.1660  0.0749
 6469SOL    HW131040   2.384   3.229   6.591  1.4870  0.3227 -0.0543
 6469SOL    HW231041   2.284   3.336   6.568 -0.5561 -0.5426 -1.1504
 6470SOL     OW31042   4.126   4.134   8.097 -0.1131  0.1754  0.2761
 6470SOL    HW131043   4.186   4.157   8.168 -2.6240 -1.4136  2.9116
 6470SOL    HW231044   4.046   4.172   8.132 -0.5186 -1.1067  0.7479
 6471SOL     OW31045   2.754   1.145   6.025  0.1161  0.2149 -0.1253
 6471SOL    HW131046   2.727   1.068   5.975 -0.4593 -0.2023  0.8135
 6471SOL    HW231047   2.845   1.149   5.997  0.3649  1.6295  0.8934
 6472SOL     OW31048   2.155   2.932   2.659 -0.1656 -0.6550 -0.1189
 6472SOL    HW131049   2.121   2.945   2.570 -1.7269  1.8757  0.8609
 6472SOL    HW231050   2.169   2.837   2.652 -2.4216 -1.0328  0.3095
 6473SOL     OW31051   4.435   3.216  17.588  0.2614  0.0459 -0.3653
 6473SOL    HW131052   4.341   3.236  17.589  1.0446  3.5544  2.2628
 6473SOL    HW231053   4.447   3.172  17.672 -0.5069 -1.3192 -0.9594
 6474SOL     OW31054   1.807   2.493   7.181  0.0423 -0.3171 -0.1820
 6474SOL    HW131055   1.832   2.570   7.131  3.1692 -2.2739 -1.5662
 6474SOL    HW231056   1.741   2.470   7.115 -1.0519  0.8872  0.4737
 6475SOL     OW31057   0.232   0.733   1.392 -0.1348 -0.8494  0.8154
 6475SOL    HW131058   0.199   0.820   1.372  2.7532  0.6189  2.5310
 6475SOL    HW231059   0.233   0.699   1.302 -0.6824  0.1829  0.4190
 6476SOL     OW31060   4.354   2.000   5.393 -0.0326 -0.0141 -0.1013
 6476SOL    HW131061   4.325   1.936   5.327 -0.1774 -2.0574  1.9496
 6476SOL    HW231062   4.428   2.032   5.342 -0.0159 -0.6339 -0.4704
 6477SOL     OW31063   0.010   3.384   1.871  0.1221  0.5891 -0.4618
 6477SOL    HW131064   0.085   3.401   1.927 -1.3124  2.2442  0.9653
 6477SOL    HW231065   0.056   3.378   1.787  1.9644 -4.2657  0.9243
 6478SOL     OW31066   2.086   2.439   7.286  0.3000 -0.3734  0.7713
 6478SOL    HW131067   2.133   2.499   7.228 -1.4098 -2.1288 -2.4631
 6478SOL    HW231068   2.038   2.381   7.226 -1.7550 -1.3055  3.3391
 6479SOL     OW31069   1.658   4.219   3.867 -0.0155  0.2711  0.1707
 6479SOL    HW131070   1.686   4.129   3.850 -0.1680  0.0780  0.9383
 6479SOL    HW231071   1.580   4.211   3.922  0.3945  1.3022  0.9146
 6480SOL     OW31072   1.591   3.395   8.011  0.3525 -0.1774 -0.1811
 6480SOL    HW131073   1.496   3.398   8.011  0.3589 -0.0007 -2.9838
 6480SOL    HW231074   1.610   3.475   7.963 -2.5751  1.2915  1.1333
 6481SOL     OW31075   0.567   4.205   3.436 -0.2098  0.0702 -0.5614
 6481SOL    HW131076   0.536   4.124   3.396 -0.2140 -0.1220 -0.1738
 6481SOL    HW231077   0.617   4.250   3.368 -0.2892  0.1810 -0.5460
 6482SOL     OW31078   1.529   0.093  12.550 -0.1540 -0.2735  0.6657
 6482SOL    HW131079   1.623   0.109  12.552  0.2361 -2.2949 -1.5229
 6482SOL    HW231080   1.507   0.137  12.468  2.4621  0.7959  0.5473
 6483SOL     OW31081   3.951   2.571  16.675 -0.2806 -0.3082  0.4127
 6483SOL    HW131082   3.986   2.508  16.613 -1.1969  1.9277 -2.3507
 6483SOL    HW231083   3.963   2.661  16.644 -1.7878 -0.3467 -0.2991
 6484SOL     OW31084   2.119   0.923   6.085 -0.0910 -0.5881  0.1160
 6484SOL    HW131085   2.061   0.956   6.017 -1.4152  0.6392  1.8225
 6484SOL    HW231086   2.136   1.005   6.132 -0.6864 -1.2237  1.4653
 6485SOL     OW31087   0.478   1.548   4.606  0.3018 -0.4169 -0.7931
 6485SOL    HW131088   0.502   1.602   4.531  3.0501 -0.3537  0.1405
 6485SOL    HW231089   0.561   1.505   4.624  0.5029  0.4962  0.5047
 6486SOL     OW31090   3.184   3.930   3.697 -0.3459 -0.0465  0.0696
 6486SOL    HW131091   3.094   3.941   3.668 -0.2511 -0.2608 -0.3004
 6486SOL    HW231092   3.229   3.990   3.637 -1.7566  0.5879 -0.3604
 6487SOL     OW31093   2.885   2.307  17.488 -0.3329 -0.1744  0.8892
 6487SOL    HW131094   2.966   2.318  17.539 -1.0668 -2.4373  2.5517
 6487SOL    HW231095   2.888   2.378  17.424 -1.2701  1.0128  2.1528
 6488SOL     OW31096   3.559   1.128   7.258  0.3283 -0.6019 -0.2647
 6488SOL    HW131097   3.478   1.168   7.289  0.8224 -0.5277  0.9285
 6488SOL    HW231098   3.569   1.045   7.305  1.1986 -1.0139 -1.1650
 6489SOL     OW31099   1.551   3.277   5.155 -0.1226  0.0996  0.0206
 6489SOL    HW131100   1.505   3.336   5.095  1.0183  1.6468  0.6820
 6489SOL    HW231101   1.628   3.332   5.173 -0.1183  0.6305 -1.5944
 6490SOL     OW31102   0.156   1.834  12.805  0.1802  0.3180  0.3278
 6490SOL    HW131103   0.190   1.863  12.890  1.3434  2.5353 -0.8961
 6490SOL    HW231104   0.187   1.911  12.759 -0.3961 -0.4960 -1.4213
 6491SOL     OW31105   1.935   1.008  16.290  0.1634  0.6001  0.2416
 6491SOL    HW131106   1.913   0.929  16.241 -0.6309  1.4062 -0.6946
 6491SOL    HW231107   2.019   0.978  16.325 -0.5133 -1.6363 -0.0482
 6492SOL     OW31108   2.426   4.271  14.913  0.0560  0.0167  0.0008
 6492SOL    HW131109   2.512   4.267  14.954  0.4608 -1.1712 -0.9472
 6492SOL    HW231110   2.412   4.178  14.891  0.2458  0.0982 -0.4652
 6493SOL     OW31111   1.558   0.623   7.736 -0.0897 -0.1282  0.4163
 6493SOL    HW131112   1.476   0.605   7.783  0.4054 -0.3881  1.1929
 6493SOL    HW231113   1.525   0.685   7.672  0.4822  0.4887  0.7222
 6494SOL     OW31114   3.480   4.294  15.524 -0.5225  0.0404 -0.3588
 6494SOL    HW131115   3.419   4.303  15.451  0.6197 -0.8679 -1.4173
 6494SOL    HW231116   3.427   4.241  15.584  1.5946  0.2524  1.6845
 6495SOL     OW31117   0.416   2.950  11.599  0.2970  0.2117  0.1762
 6495SOL    HW131118   0.402   2.860  11.572 -1.1199  0.5252 -0.1494
 6495SOL    HW231119   0.494   2.946  11.655 -1.3542  1.3708  2.5871
 6496SOL     OW31120   3.988   2.279   6.884 -0.4255 -0.2736 -0.1828
 6496SOL    HW131121   4.039   2.360   6.874 -0.5057 -0.3956 -1.6565
 6496SOL    HW231122   3.913   2.312   6.933 -0.4977  1.2560 -1.2975
 6497SOL     OW31123   2.946   2.456   8.358  1.0344  0.3899 -0.0706
 6497SOL    HW131124   2.994   2.411   8.288  2.0382  0.6647  0.4334
 6497SOL    HW231125   2.981   2.402   8.430 -1.8279  0.9569  1.7686
 6498SOL     OW31126   3.989   1.377   7.815 -0.2151  0.0933  0.1739
 6498SOL    HW131127   3.978   1.372   7.720  0.6903 -0.6815  0.1065
 6498SOL    HW231128   3.910   1.332   7.845  0.4638 -0.9471  0.3858
 6499SOL     OW31129   1.339   3.274   9.936  0.0580  0.3281  0.1020
 6499SOL    HW131130   1.414   3.329   9.915  1.7955 -1.8596  0.6183
 6499SOL    HW231131   1.348   3.284  10.031  3.4523  0.0919 -0.2161
 6500SOL     OW31132   3.634   3.598   3.910 -0.3547 -0.1502  0.3456
 6500SOL    HW131133   3.566   3.532   3.896 -0.1653 -0.3308  0.2824
 6500SOL    HW231134   3.633   3.646   3.828  0.1509 -0.6287  0.0601
 6501SOL     OW31135   2.663   3.298  14.292 -0.1539  0.1234  0.0861
 6501SOL    HW131136   2.756   3.292  14.268 -0.1304  2.6380 -0.4910
 6501SOL    HW231137   2.638   3.215  14.333 -0.0516 -0.1080 -0.3266
 6502SOL     OW31138   1.356   4.521   8.190 -0.1571 -0.0772  0.0144
 6502SOL    HW131139   1.350   4.576   8.113 -0.8235 -1.2200 -0.7451
 6502SOL    HW231140   1.281   4.551   8.241  0.1511  2.3676 -0.9713
 6503SOL     OW31141   4.056   0.800   4.640 -0.2642 -0.7328 -0.0222
 6503SOL    HW131142   4.054   0.760   4.553 -1.9704 -2.7119  0.9232
 6503SOL    HW231143   4.013   0.735   4.697  1.2487 -2.0847 -0.4212
 6504SOL     OW31144   1.617   0.196   4.010  0.3266 -0.3708  0.3104
 6504SOL    HW131145   1.647   0.220   4.097 -1.1750  0.5696  0.5695
 6504SOL    HW231146   1.619   0.286   3.976  2.0729  0.0426  1.5081
 6505SOL     OW31147   1.823   2.702   7.605  0.4478 -0.4163  0.0143
 6505SOL    HW131148   1.756   2.662   7.661  1.2538 -3.0207 -0.8813
 6505SOL    HW231149   1.846   2.633   7.543 -1.3306  1.1077 -2.3553
 6506SOL     OW31150   0.052   3.057   8.474 -0.3564  0.2654 -0.3734
 6506SOL    HW131151   0.122   3.056   8.539  0.5747  1.5230 -1.3687
 6506SOL    HW231152   0.073   2.992   8.406  0.3487 -1.5145  1.5561
 6507SOL     OW31153   4.108   1.342  17.262  0.1291  0.5467  0.3477
 6507SOL    HW131154   4.137   1.432  17.245 -0.0702  0.3158 -1.2319
 6507SOL    HW231155   4.167   1.287  17.210 -0.2838 -0.8516  1.3607
 6508SOL     OW31156   1.675   1.819   6.081 -0.4411 -0.1072 -0.6666
 6508SOL    HW131157   1.625   1.837   6.002 -0.0258 -0.9467 -1.1176
 6508SOL    HW231158   1.762   1.832   6.045 -0.6193  1.7552 -0.4134
 6509SOL     OW31159   1.925   0.870   6.592 -0.2818 -0.0254 -0.3102
 6509SOL    HW131160   1.830   0.872   6.586 -0.4902 -0.1007  3.3773
 6509SOL    HW231161   1.934   0.934   6.663 -1.4056 -1.9375  1.5489
 6510SOL     OW31162   1.689   0.196   3.235 -0.6266  0.0364 -0.4440
 6510SOL    HW131163   1.729   0.115   3.267 -0.5043  0.6399  0.9331
 6510SOL    HW231164   1.751   0.222   3.167  0.3737  0.6085  0.6854
 6511SOL     OW31165   1.756   2.576   3.263  0.7480 -0.9012 -0.1409
 6511SOL    HW131166   1.755   2.534   3.177 -1.0428  2.6489 -1.8230
 6511SOL    HW231167   1.837   2.626   3.254 -0.4416  1.1127  0.3049
 6512SOL     OW31168   4.398   1.243   5.477 -0.2612 -0.3699 -0.1203
 6512SOL    HW131169   4.426   1.193   5.400  1.4263  1.2099 -0.5401
 6512SOL    HW231170   4.380   1.182   5.548  0.8694  0.4640  0.8903
 6513SOL     OW31171   1.728   1.971   6.645 -0.2523  0.0262  0.4166
 6513SOL    HW131172   1.800   1.988   6.583  0.1627 -0.2747  0.8136
 6513SOL    HW231173   1.777   1.970   6.727  0.7553  1.2523 -0.1604
 6514SOL     OW31174   1.759   3.446   5.191  0.1178  0.4032  0.0593
 6514SOL    HW131175   1.738   3.539   5.190  0.1262  0.4287  3.3489
 6514SOL    HW231176   1.834   3.456   5.250 -0.2445  0.1745  0.5561
 6515SOL     OW31177   2.948   4.177  12.396  0.2725 -0.1689  0.5268
 6515SOL    HW131178   2.963   4.270  12.379  2.3057 -0.9335 -1.8667
 6515SOL    HW231179   3.037   4.141  12.388  0.9552  1.3168  1.4172
 6516SOL     OW31180   2.673   3.891   5.559  0.5527 -0.5423 -0.4364
 6516SOL    HW131181   2.721   3.973   5.569 -0.2260  0.2394 -3.1589
 6516SOL    HW231182   2.674   3.876   5.465 -0.3802 -2.9628 -0.0639
 6517SOL     OW31183   4.644   2.196   3.627  0.0076 -0.2627  0.3205
 6517SOL    HW131184   4.635   2.255   3.702 -0.1961  0.4967 -0.2982
 6517SOL    HW231185   4.644   2.106   3.660  0.0938 -0.2900  0.2470
 6518SOL     OW31186   0.108   2.402   4.009  0.1607 -0.3483 -0.3260
 6518SOL    HW131187   0.128   2.479   3.957 -0.3272 -2.1718 -3.2083
 6518SOL    HW231188   0.113   2.421   4.103  0.2716 -0.5188 -0.2958
 6519SOL     OW31189   3.010   0.169  17.640  0.1252 -0.1191 -0.6999
 6519SOL    HW131190   2.952   0.137  17.570  0.7219 -4.7350  0.8989
 6519SOL    HW231191   3.052   0.090  17.675 -0.9562 -1.0294 -1.4349
 6520SOL     OW31192   4.352   1.311   6.337  0.1903 -0.2024 -0.2327
 6520SOL    HW131193   4.330   1.236   6.392  2.2000 -0.9045 -0.3665
 6520SOL    HW231194   4.263   1.340   6.317 -0.6205 -0.6314  2.7246
 6521SOL     OW31195   4.185   2.050   4.519 -0.0946 -0.4989  0.5804
 6521SOL    HW131196   4.104   2.086   4.555 -0.0252 -0.3309  0.5706
 6521SOL    HW231197   4.176   1.972   4.574  0.4663 -0.9570  0.0149
 6522SOL     OW31198   3.954   3.626   2.110 -0.6071 -0.3379  0.1399
 6522SOL    HW131199   4.031   3.596   2.062 -1.2021  0.2150 -1.1541
 6522SOL    HW231200   3.958   3.722   2.105 -2.2872 -0.4121 -2.6785
 6523SOL     OW31201   3.881   4.116   5.081  0.1755 -0.4751  0.2814
 6523SOL    HW131202   3.831   4.124   5.162  0.6170 -1.7015  0.6918
 6523SOL    HW231203   3.910   4.206   5.071  1.1985 -0.9062 -0.7191
 6524SOL     OW31204   0.369   0.137   8.235  0.3089  0.4539 -0.1221
 6524SOL    HW131205   0.415   0.054   8.228  0.0772  0.3534 -0.4736
 6524SOL    HW231206   0.415   0.181   8.163  2.6691 -0.2160  0.9892
 6525SOL     OW31207   2.114   0.077   0.040 -0.4575 -0.0033 -0.3588
 6525SOL    HW131208   2.172   0.070   0.116 -0.1298 -0.4370 -0.6529
 6525SOL    HW231209   2.043   0.017   0.066  0.2876 -0.3578  0.8715
 6526SOL     OW31210   4.343   1.104   2.345  0.2638 -0.2737  0.2326
 6526SOL    HW131211   4.375   1.111   2.255 -1.4202 -0.8185 -0.4161
 6526SOL    HW231212   4.326   1.197   2.357  1.3532  0.3022 -2.4701
 6527SOL     OW31213   3.047   3.687  17.673  0.1675 -0.0359 -0.5195
 6527SOL    HW131214   3.004   3.698   0.020  0.5008  0.7942 -0.4581
 6527SOL    HW231215   3.120   3.630  17.696  0.2298  0.2683  0.0459
 6528SOL     OW31216   0.287   1.296  12.193 -0.1067 -0.0620 -0.8854
 6528SOL    HW131217   0.193   1.308  12.179 -0.4489 -0.7646  0.8891
 6528SOL    HW231218   0.333   1.314  12.111  1.8377 -0.3979  0.1331
 6529SOL     OW31219   3.070   3.526   1.253 -0.1901 -0.1569  0.0173
 6529SOL    HW131220   3.015   3.587   1.302 -0.7608 -1.2828  0.7935
 6529SOL    HW231221   2.995   3.497   1.201 -0.1298  0.5455 -0.4653
 6530SOL     OW31222   0.595   1.306  12.557 -0.4304  0.4046 -0.6683
 6530SOL    HW131223   0.605   1.263  12.472 -2.6223 -1.1051 -0.1707
 6530SOL    HW231224   0.516   1.259  12.585  1.1308 -0.5703  2.0895
 6531SOL     OW31225   4.614   0.519   7.003 -0.2465 -0.4853 -0.6353
 6531SOL    HW131226   4.692   0.576   7.001  0.0265 -0.8261  0.7028
 6531SOL    HW231227   4.557   0.589   6.971 -1.1097  0.1601  2.3379
 6532SOL     OW31228   1.977   3.210   2.033  0.1292  0.1817  0.3936
 6532SOL    HW131229   2.024   3.240   2.112  0.7927  0.4985 -0.1223
 6532SOL    HW231230   1.989   3.116   2.045 -2.0157 -0.1804 -0.3606
 6533SOL     OW31231   0.978   3.106   2.626  0.1127 -0.1715  0.5545
 6533SOL    HW131232   0.960   3.108   2.720 -0.3514 -0.2812  0.4693
 6533SOL    HW231233   0.970   3.012   2.611  0.8112 -0.3731  1.4625
 6534SOL     OW31234   0.455   4.678  14.724 -0.2993  0.5787  0.2078
 6534SOL    HW131235   0.534   4.631  14.698 -0.1801  1.1680 -0.4915
 6534SOL    HW231236   0.393   4.634  14.666  0.3129  0.2745 -0.2133
 6535SOL     OW31237   1.674   3.997  12.945  0.1542  0.1854 -0.0169
 6535SOL    HW131238   1.607   3.941  12.906  0.7600 -0.1015 -0.6483
 6535SOL    HW231239   1.648   4.002  13.036  1.6435 -1.4967  0.5146
 6536SOL     OW31240   1.118   2.942   9.991  0.1086  0.2291  0.1332
 6536SOL    HW131241   1.146   2.975   9.905 -0.1733  1.5228  0.5423
 6536SOL    HW231242   1.079   3.016  10.037 -2.6111 -0.1940 -1.4830
 6537SOL     OW31243   3.072   4.211   2.763 -0.2405  0.1389 -0.4115
 6537SOL    HW131244   3.167   4.216   2.751 -0.3478  0.6132 -1.0637
 6537SOL    HW231245   3.032   4.256   2.689 -0.2449 -0.3779 -0.7208
 6538SOL     OW31246   2.969   2.116   7.033  0.4497  0.9241  0.3682
 6538SOL    HW131247   3.052   2.068   7.026  0.0701  0.6611 -2.4567
 6538SOL    HW231248   2.970   2.163   7.116 -0.3596  0.9766  0.3534
 6539SOL     OW31249   0.006   0.529   7.295  0.6995 -0.1633  0.4385
 6539SOL    HW131250   4.672   0.583   7.256  1.6852  1.0146  0.3086
 6539SOL    HW231251   0.024   0.464   7.227  1.0227  0.7276 -0.3288
 6540SOL     OW31252   3.439   1.679   0.536  0.0150 -0.3960  0.5049
 6540SOL    HW131253   3.402   1.592   0.549  2.0702 -0.9184  2.8663
 6540SOL    HW231254   3.362   1.737   0.535 -0.9191 -1.6360  0.7771
 6541SOL     OW31255   4.647   3.080   5.914  0.2745 -0.3048  0.1369
 6541SOL    HW131256   4.694   3.161   5.894  0.7771 -0.2330  1.6219
 6541SOL    HW231257   4.708   3.014   5.946  1.3806  0.9793  0.6791
 6542SOL     OW31258   4.580   2.953   7.600 -0.2751 -0.3673 -0.9204
 6542SOL    HW131259   4.567   2.859   7.590 -2.6543 -0.2663  1.1236
 6542SOL    HW231260   4.648   2.957   7.534  1.5157 -0.5478  0.9092
 6543SOL     OW31261   2.536   4.673   4.491  0.2067 -0.5397 -0.2350
 6543SOL    HW131262   2.513   4.685   4.399 -0.8960 -0.4837  0.0544
 6543SOL    HW231263   2.580   4.588   4.485  0.9125 -0.1306 -0.9072
 6544SOL     OW31264   4.460   3.039   7.009  0.1367  0.3046 -0.3616
 6544SOL    HW131265   4.522   3.111   7.021  0.3962 -0.2590  1.6404
 6544SOL    HW231266   4.426   3.076   6.927  2.6857  1.6102 -0.8201
 6545SOL     OW31267   3.529   0.960  16.330  0.7862 -0.0685 -0.0039
 6545SOL    HW131268   3.596   0.950  16.397  1.9312 -1.0836 -1.3107
 6545SOL    HW231269   3.571   1.023  16.271  1.5595 -0.6780 -0.1078
 6546SOL     OW31270   1.664   0.149  11.930 -0.5386  0.0341 -0.5882
 6546SOL    HW131271   1.748   0.106  11.912  0.2481  1.0020  0.7878
 6546SOL    HW231272   1.644   0.179  11.841 -2.0385 -0.5167 -0.4290
 6547SOL     OW31273   3.705   4.095   5.904 -0.2749  0.0505 -0.3115
 6547SOL    HW131274   3.771   4.133   5.963  0.5139 -0.1660 -1.0586
 6547SOL    HW231275   3.634   4.059   5.957  0.2997  0.4570  0.7541
 6548SOL     OW31276   3.927   0.069   8.242  0.3559 -0.2231 -0.1612
 6548SOL    HW131277   3.995   0.002   8.244 -1.1759 -1.7901 -1.1111
 6548SOL    HW231278   3.866   0.039   8.309  1.6932 -2.9150 -0.1567
 6549SOL     OW31279   0.297   0.998   1.396 -0.0437 -0.1460 -0.2947
 6549SOL    HW131280   0.237   1.013   1.323 -0.7468 -1.0030  0.1072
 6549SOL    HW231281   0.370   0.974   1.339 -0.3364 -1.8493  0.0416
 6550SOL     OW31282   3.893   4.351   3.321 -0.1925 -0.0466  0.0155
 6550SOL    HW131283   3.977   4.388   3.346 -1.7219  1.8932  2.2763
 6550SOL    HW231284   3.832   4.390   3.383  0.6024 -0.2297  0.9014
 6551SOL     OW31285   1.477   2.641   4.352  0.1096 -0.4863  0.1671
 6551SOL    HW131286   1.532   2.656   4.429  1.0350  0.0456 -0.5936
 6551SOL    HW231287   1.528   2.567   4.316  0.8134 -1.2252  2.6687
 6552SOL     OW31288   0.151   0.705   0.020  0.2350  0.5354 -0.1912
 6552SOL    HW131289   0.207   0.633  17.730  0.7778  1.4345 -1.4174
 6552SOL    HW231290   0.205   0.752   0.083  2.6317  0.2715 -2.0584
 6553SOL     OW31291   3.576   0.936   8.357  0.2325 -0.1465 -0.3580
 6553SOL    HW131292   3.656   0.987   8.373  0.4143 -0.7530  0.7040
 6553SOL    HW231293   3.611   0.859   8.403 -0.0296 -0.1429 -0.1564
 6554SOL     OW31294   4.228   1.504   2.985  0.0564  0.0327  0.2672
 6554SOL    HW131295   4.236   1.443   3.059 -0.5780  1.6459  1.6636
 6554SOL    HW231296   4.235   1.448   2.908 -1.6632 -1.0605  0.9035
 6555SOL     OW31297   0.516   2.336  13.085  0.2286 -0.0824  0.2544
 6555SOL    HW131298   0.472   2.418  13.066  1.3751  1.0400  2.3777
 6555SOL    HW231299   0.525   2.357  13.178 -0.2153 -0.8862  0.4764
 6556SOL     OW31300   2.296   3.503  16.344 -0.0035 -0.4362  0.0509
 6556SOL    HW131301   2.225   3.504  16.409 -1.1222  2.7546 -1.2022
 6556SOL    HW231302   2.329   3.591  16.365  0.5460 -0.5124 -0.5138
 6557SOL     OW31303   4.444   1.135  14.033  0.4767  0.1087 -0.1518
 6557SOL    HW131304   4.457   1.221  14.072  0.6488  0.1228 -0.2416
 6557SOL    HW231305   4.521   1.118  13.980  0.9424  0.2794  0.4695
 6558SOL     OW31306   2.324   0.750   3.273  0.4913  0.4713 -0.0531
 6558SOL    HW131307   2.233   0.773   3.256  0.7114  0.1411 -1.6388
 6558SOL    HW231308   2.316   0.658   3.299 -0.5271  0.7346  0.5169
 6559SOL     OW31309   2.348   0.933  10.889 -0.3237  0.0101 -0.0298
 6559SOL    HW131310   2.265   0.977  10.909  0.2575  1.3282 -0.5476
 6559SOL    HW231311   2.298   0.852  10.877 -1.9791  1.0859 -0.4791
 6560SOL     OW31312   2.405   4.136   5.032 -0.5238  0.0295  0.0167
 6560SOL    HW131313   2.477   4.199   5.023  0.0421 -0.8389 -1.4341
 6560SOL    HW231314   2.414   4.094   5.118  1.5929  0.4533  0.0035
 6561SOL     OW31315   0.878   0.326   6.774  0.0121 -0.2966 -0.3100
 6561SOL    HW131316   0.868   0.317   6.679 -2.1224  1.0882 -0.2267
 6561SOL    HW231317   0.901   0.418   6.792 -0.8125  0.3410 -2.4645
 6562SOL     OW31318   2.552   2.703  10.715  0.1304 -0.0649  0.0530
 6562SOL    HW131319   2.636   2.730  10.752 -0.7234 -0.7885  2.5425
 6562SOL    HW231320   2.541   2.616  10.754 -2.7378 -0.7683 -2.2976
 6563SOL     OW31321   0.190   3.790  15.551  1.0016 -0.2129 -0.2862
 6563SOL    HW131322   0.193   3.827  15.462  0.4474 -0.4649 -0.4081
 6563SOL    HW231323   0.107   3.830  15.577  0.3447  0.2101 -3.0609
 6564SOL     OW31324   2.842   1.548   2.103 -0.4399 -0.0396 -0.3548
 6564SOL    HW131325   2.847   1.500   2.186 -0.8245 -0.9796 -0.8700
 6564SOL    HW231326   2.786   1.623   2.124 -2.6256 -0.8693 -3.1429
 6565SOL     OW31327   3.219   2.870  13.017  0.3064  0.1718 -0.0092
 6565SOL    HW131328   3.312   2.846  13.018  0.6661  1.5591 -1.0487
 6565SOL    HW231329   3.177   2.812  13.081 -4.0415  1.5862 -1.5829
 6566SOL     OW31330   4.159   2.349   7.198 -0.0009  0.1948  0.0619
 6566SOL    HW131331   4.158   2.403   7.119  0.2974 -0.2489 -0.2491
 6566SOL    HW231332   4.215   2.393   7.262  1.7650  0.6740 -1.7865
 6567SOL     OW31333   1.699   3.371  10.619  0.1182  0.1184 -0.0125
 6567SOL    HW131334   1.793   3.381  10.606  0.0910 -0.3808 -0.5601
 6567SOL    HW231335   1.700   3.276  10.608  1.9844 -0.1340  2.3374
 6568SOL     OW31336   0.543   4.394   0.946  0.3876  0.0362  0.1116
 6568SOL    HW131337   0.462   4.354   0.977 -0.0997  1.4173  0.6183
 6568SOL    HW231338   0.599   4.339   1.001 -0.0537  0.7561  1.2904
 6569SOL     OW31339   2.441   2.986   0.240 -0.2479 -0.2896 -0.2177
 6569SOL    HW131340   2.466   3.075   0.216 -1.8517  0.1714 -0.1828
 6569SOL    HW231341   2.422   2.954   0.152  1.4916 -1.2682 -0.2407
 6570SOL     OW31342   1.822   3.304   5.578 -0.3088 -0.1080  0.3102
 6570SOL    HW131343   1.737   3.288   5.537 -0.6780  4.3691 -0.6531
 6570SOL    HW231344   1.864   3.354   5.507  0.7207 -1.7616 -0.2495
 6571SOL     OW31345   1.239   3.039   8.576 -0.0535 -0.3936  0.0708
 6571SOL    HW131346   1.154   3.007   8.608 -1.0484  1.5661 -0.6184
 6571SOL    HW231347   1.240   3.009   8.485 -0.0616  0.1099 -0.0948
 6572SOL     OW31348   4.406   0.779  15.479 -0.3165 -0.2976 -0.5123
 6572SOL    HW131349   4.393   0.837  15.404  3.7366 -0.2049 -1.1334
 6572SOL    HW231350   4.344   0.709  15.459 -0.8958  0.5329 -1.6344
 6573SOL     OW31351   4.123   2.067   4.239 -0.0326  0.1143 -0.0563
 6573SOL    HW131352   4.127   2.161   4.226  0.3994  0.3105  1.4418
 6573SOL    HW231353   4.119   2.072   4.335 -0.4790 -3.9712  0.1583
 6574SOL     OW31354   4.093   2.060  17.160  0.4929 -0.1844  0.0159
 6574SOL    HW131355   4.127   2.139  17.200 -0.9370 -0.8562  2.6011
 6574SOL    HW231356   4.051   2.022  17.238 -0.7702  0.9573 -0.1121
 6575SOL     OW31357   0.384   1.355  17.735  0.3741  0.4934 -0.1462
 6575SOL    HW131358   0.394   1.447  17.709  0.8568  0.6920  0.7455
 6575SOL    HW231359   0.458   1.342   0.056  0.1487  0.9408  0.2367
 6576SOL     OW31360   0.148   1.353   5.227 -0.4538 -0.2921 -0.3832
 6576SOL    HW131361   0.163   1.356   5.133  0.9508 -2.2829 -0.2096
 6576SOL    HW231362   0.229   1.316   5.263 -0.0764  0.4276 -0.4949
 6577SOL     OW31363   2.847   1.831   5.440 -0.2841 -0.5202  0.2248
 6577SOL    HW131364   2.878   1.760   5.384  0.5061  0.2873 -0.3710
 6577SOL    HW231365   2.910   1.901   5.424 -0.7142  0.0799  1.1524
 6578SOL     OW31366   3.370   2.850   8.231 -0.4262 -0.5232 -0.4758
 6578SOL    HW131367   3.309   2.778   8.213  0.6908 -1.2792 -1.1945
 6578SOL    HW231368   3.396   2.831   8.322  0.2687  1.0045 -0.3665
 6579SOL     OW31369   0.780   0.320   3.666 -0.1605 -0.0701 -0.1196
 6579SOL    HW131370   0.846   0.376   3.708  0.9419 -2.3622  1.1998
 6579SOL    HW231371   0.807   0.316   3.575 -0.8732 -0.3191 -0.3196
 6580SOL     OW31372   2.041   2.072  17.522 -0.1993  0.4901  0.3374
 6580SOL    HW131373   2.102   2.044  17.590 -0.6044  2.8709  1.6999
 6580SOL    HW231374   2.073   2.021  17.448 -1.0787  0.8940 -0.3122
 6581SOL     OW31375   0.210   2.110   4.114  0.5379  0.2510  0.1869
 6581SOL    HW131376   0.179   2.131   4.202  0.3753 -0.9054  0.4037
 6581SOL    HW231377   0.192   2.195   4.075  0.7603 -1.1263 -2.9728
 6582SOL     OW31378   0.544   2.709   3.101 -0.2497  0.4225  0.2799
 6582SOL    HW131379   0.571   2.621   3.128  0.9808  0.9877  0.9024
 6582SOL    HW231380   0.534   2.686   3.009 -0.2692 -1.4470  0.7415
 6583SOL     OW31381   0.421   3.006   7.594 -0.2254  0.3059 -0.3330
 6583SOL    HW131382   0.411   3.060   7.516 -0.1275  0.3959 -0.2828
 6583SOL    HW231383   0.477   3.071   7.636 -1.8564  0.2262  1.9805
 6584SOL     OW31384   0.482   3.885  15.558  0.8013 -0.4978 -0.4144
 6584SOL    HW131385   0.402   3.843  15.524 -0.3115  2.4951 -1.4373
 6584SOL    HW231386   0.485   3.974  15.523 -1.4397 -0.0998  0.3688
 6585SOL     OW31387   0.119   4.033   9.293 -0.5762 -0.3924  0.6804
 6585SOL    HW131388   0.092   3.948   9.327 -1.4288  0.3507  1.8741
 6585SOL    HW231389   0.211   4.030   9.320 -0.5259  0.4588  0.5896
 6586SOL     OW31390   4.045   0.528   1.938 -0.0563  0.1912 -0.8373
 6586SOL    HW131391   4.045   0.617   1.972  1.1732  0.1021 -0.6142
 6586SOL    HW231392   3.969   0.495   1.986  0.3919 -0.2955 -0.4647
 6587SOL     OW31393   3.175   1.786   5.940 -0.1956 -0.1381  0.8067
 6587SOL    HW131394   3.228   1.707   5.929  0.9649  0.6499  0.6809
 6587SOL    HW231395   3.246   1.842   5.971 -0.5296  1.2246 -0.9355
 6588SOL     OW31396   0.572   1.455   6.197 -0.4993  0.3997  0.0422
 6588SOL    HW131397   0.576   1.400   6.275  1.4037 -0.3813 -0.6050
 6588SOL    HW231398   0.658   1.442   6.156 -0.9643 -2.6581  0.0264
 6589SOL     OW31399   3.550   4.244  11.543  0.1913 -0.5031 -0.0654
 6589SOL    HW131400   3.572   4.160  11.584 -0.6522 -0.6551  0.0880
 6589SOL    HW231401   3.570   4.302  11.616  1.2234 -0.5187 -0.3397
 6590SOL     OW31402   2.009   2.660   5.634  0.1408  0.1116 -0.3223
 6590SOL    HW131403   1.963   2.578   5.650  1.7471 -0.7640 -0.1648
 6590SOL    HW231404   2.089   2.642   5.684  2.3107  1.9908 -3.1070
 6591SOL     OW31405   3.672   1.702   4.419 -0.3308 -0.4627  0.0592
 6591SOL    HW131406   3.700   1.753   4.343  0.3643  1.2854  1.4747
 6591SOL    HW231407   3.741   1.637   4.418  0.4517  0.3498  1.1896
 6592SOL     OW31408   1.953   1.075   7.192  0.4132  0.0806 -0.1159
 6592SOL    HW131409   2.047   1.057   7.201  0.1313 -0.2350  2.2647
 6592SOL    HW231410   1.939   1.086   7.098 -0.4139 -0.1343 -0.0165
 6593SOL     OW31411   1.678   0.506   8.386  0.0283  0.2224  0.3324
 6593SOL    HW131412   1.699   0.449   8.460 -2.3280  0.2098  0.9799
 6593SOL    HW231413   1.588   0.531   8.405 -1.0502 -3.5270  0.1161
 6594SOL     OW31414   4.113   1.508  12.411  0.7055  0.8104 -0.1301
 6594SOL    HW131415   4.204   1.499  12.382  0.7371 -2.1609  0.8761
 6594SOL    HW231416   4.072   1.468  12.334 -1.5211 -1.7314  2.3485
 6595SOL     OW31417   3.263   1.980   8.999  0.4152 -0.4902 -0.1374
 6595SOL    HW131418   3.358   1.989   9.012  0.4432 -2.0727  0.8173
 6595SOL    HW231419   3.233   1.927   9.073  0.7455 -1.4935 -0.7122
 6596SOL     OW31420   1.476   3.525   3.395 -0.2993  0.0631  0.0858
 6596SOL    HW131421   1.558   3.491   3.359 -0.0915  0.7554 -0.0984
 6596SOL    HW231422   1.405   3.494   3.339  0.6183 -0.6701 -0.6751
 6597SOL     OW31423   4.214   2.557  13.616  0.0586 -0.2035  0.9075
 6597SOL    HW131424   4.210   2.513  13.531  2.2569 -0.9128  1.1651
 6597SOL    HW231425   4.252   2.641  13.590  0.9458 -0.8210  0.1580
 6598SOL     OW31426   2.688   2.947   8.967 -0.2354 -0.4386  0.1865
 6598SOL    HW131427   2.656   2.878   8.909  1.6406 -2.1245  1.1837
 6598SOL    HW231428   2.608   2.982   9.007 -0.3707 -1.4788  0.8232
 6599SOL     OW31429   4.191   0.542   6.245  0.2984 -0.1391 -0.9339
 6599SOL    HW131430   4.133   0.618   6.237  0.6628  0.2472  0.0791
 6599SOL    HW231431   4.219   0.547   6.336 -1.5208  2.6523 -0.5118
 6600SOL     OW31432   4.019   2.826   1.461  0.0017 -0.0482 -0.3801
 6600SOL    HW131433   3.968   2.841   1.540 -0.8784 -0.1208 -0.9303
 6600SOL    HW231434   4.099   2.784   1.494 -0.7885 -0.5613  0.8424
 6601SOL     OW31435   2.617   0.896   1.916  0.0097 -0.6246 -0.0517
 6601SOL    HW131436   2.651   0.811   1.943  0.0943 -1.1056 -1.6156
 6601SOL    HW231437   2.524   0.878   1.900  0.2619 -0.3240 -1.8953
 6602SOL     OW31438   1.724   3.613   2.230  0.1705  0.1863  0.3500
 6602SOL    HW131439   1.668   3.649   2.162  0.3866  1.4384  0.8300
 6602SOL    HW231440   1.698   3.522   2.218 -1.8010  0.5388  1.8383
 6603SOL     OW31441   1.163   2.988   7.035 -0.5254 -0.1245 -0.6165
 6603SOL    HW131442   1.135   2.953   6.951  0.7719 -1.3475 -0.5289
 6603SOL    HW231443   1.258   2.992   7.023 -0.6597  0.1774 -1.6060
 6604SOL     OW31444   4.368   4.327  10.932  0.3135  0.0868 -0.0117
 6604SOL    HW131445   4.345   4.249  10.882 -0.9126 -1.1075  2.4403
 6604SOL    HW231446   4.444   4.284  10.973  0.4967  0.4006 -0.0207
 6605SOL     OW31447   1.296   0.646   6.633  0.1511  0.0034  0.1949
 6605SOL    HW131448   1.348   0.580   6.588 -0.5413  0.5348 -1.3921
 6605SOL    HW231449   1.250   0.596   6.700  1.0008  0.3690  1.0488
 6606SOL     OW31450   2.306   1.357  13.415  0.3242 -0.3795  0.2382
 6606SOL    HW131451   2.246   1.417  13.460 -1.6708 -1.3527 -1.1586
 6606SOL    HW231452   2.241   1.302  13.372  1.6139 -0.6234 -1.4026
 6607SOL     OW31453   4.470   0.685   6.811  0.1459 -0.3501 -0.5018
 6607SOL    HW131454   4.491   0.776   6.831  0.8207 -0.4266 -0.8536
 6607SOL    HW231455   4.544   0.673   6.752 -0.8842  1.2106 -2.1163
 6608SOL     OW31456   2.793   2.832   0.994  0.1932  0.8710  0.9549
 6608SOL    HW131457   2.847   2.884   1.053  0.2761  0.2361  1.4225
 6608SOL    HW231458   2.853   2.830   0.919  0.9366 -0.0808  1.5938
 6609SOL     OW31459   0.615   1.547   0.793 -0.6044  0.6638 -0.5715
 6609SOL    HW131460   0.658   1.546   0.708 -0.3993  2.3428 -0.4802
 6609SOL    HW231461   0.577   1.462   0.816  0.0903  0.6449  0.4681
 6610SOL     OW31462   3.793   2.934   2.182 -0.3825 -0.0183  1.0396
 6610SOL    HW131463   3.850   2.953   2.257  3.3385 -2.7954 -1.1242
 6610SOL    HW231464   3.763   2.847   2.206 -3.2009  1.6317  3.5084
 6611SOL     OW31465   4.555   3.968  10.479  0.4877  0.3583  0.3593
 6611SOL    HW131466   4.478   3.937  10.432  1.2596 -2.2060  0.8040
 6611SOL    HW231467   4.628   3.915  10.448 -0.8920 -1.0045 -0.5661
 6612SOL     OW31468   0.496   2.666   3.896 -0.4317  0.4853  0.5421
 6612SOL    HW131469   0.458   2.579   3.910  2.1050 -0.6266  0.4131
 6612SOL    HW231470   0.461   2.682   3.808  0.5053  0.2049  0.1217
 6613SOL     OW31471   0.679   4.542   7.451 -0.1463 -0.0796 -0.2098
 6613SOL    HW131472   0.640   4.496   7.376  1.9590 -0.0655 -1.3050
 6613SOL    HW231473   0.603   4.576   7.498 -0.9856  1.6348 -2.8020
 6614SOL     OW31474   2.022   4.606  15.964  0.2111  0.6648 -0.1283
 6614SOL    HW131475   2.106   4.581  15.927 -0.7104 -0.2336 -1.6336
 6614SOL    HW231476   2.025   4.561  16.049  1.2959 -1.4604 -1.2962
 6615SOL     OW31477   0.042   1.409   4.456 -0.4889 -0.0885  0.4327
 6615SOL    HW131478   0.127   1.382   4.490  0.2318  0.2175 -1.1443
 6615SOL    HW231479   0.061   1.434   4.365 -1.3786  1.5898  0.7050
 6616SOL     OW31480   2.473   2.685   9.878 -0.0094  0.8223  0.3337
 6616SOL    HW131481   2.385   2.652   9.899  0.0006  0.4369 -0.2110
 6616SOL    HW231482   2.460   2.779   9.887  1.6037  1.1732 -1.0477
 6617SOL     OW31483   0.752   0.517  12.779 -0.2859  0.0527 -0.0333
 6617SOL    HW131484   0.731   0.432  12.817  0.4255  0.4510  1.2549
 6617SOL    HW231485   0.841   0.500  12.749 -1.4986 -1.0173 -3.1063
 6618SOL     OW31486   2.849   0.583   2.639  0.3137  0.1577 -0.1957
 6618SOL    HW131487   2.869   0.504   2.588 -0.3045 -0.7022  0.9067
 6618SOL    HW231488   2.937   0.620   2.638 -0.0807  1.1349  1.7129
 6619SOL     OW31489   0.370   3.675   8.647  0.0561  0.2266 -0.5847
 6619SOL    HW131490   0.439   3.731   8.611  1.0523 -0.2449  0.6481
 6619SOL    HW231491   0.296   3.736   8.645 -0.1333 -0.0542 -2.6354
 6620SOL     OW31492   2.686   3.931  13.751  0.9669  0.2916 -0.3835
 6620SOL    HW131493   2.647   3.855  13.795  1.3672  0.1088 -0.3510
 6620SOL    HW231494   2.685   3.904  13.660  1.2577  0.3778 -0.4125
 6621SOL     OW31495   4.243   1.754   5.801 -0.1098  0.0766  0.0121
 6621SOL    HW131496   4.276   1.676   5.756  0.6579  1.5558 -1.9992
 6621SOL    HW231497   4.240   1.817   5.729 -0.9063  0.2756  0.2235
 6622SOL     OW31498   2.922   0.361   3.694  0.2040  0.1771 -0.0686
 6622SOL    HW131499   2.992   0.355   3.760  0.4558  1.7010 -0.2147
 6622SOL    HW231500   2.921   0.272   3.659  0.0555 -0.1682  0.8053
 6623SOL     OW31501   1.611   1.497  11.807  0.3407  0.1667 -0.1909
 6623SOL    HW131502   1.617   1.587  11.840 -1.7388  1.4661 -3.4292
 6623SOL    HW231503   1.694   1.469  11.845  0.7430 -0.2832 -1.4018
 6624SOL     OW31504   3.808   0.745  14.148  0.6606  0.2055 -0.1040
 6624SOL    HW131505   3.902   0.734  14.162  1.1726  0.5695 -3.2491
 6624SOL    HW231506   3.793   0.828  14.191  1.8078  0.7173 -0.6854
 6625SOL     OW31507   0.451   4.498   6.774  0.2794 -0.3273  0.2013
 6625SOL    HW131508   0.367   4.544   6.776 -0.1746 -1.0802 -1.6500
 6625SOL    HW231509   0.513   4.562   6.809 -2.2926  1.6107  1.2261
 6626SOL     OW31510   2.637   3.019   4.139 -0.5481  0.4310  0.3250
 6626SOL    HW131511   2.713   3.077   4.136 -0.4118  0.1267 -2.3915
 6626SOL    HW231512   2.567   3.083   4.147  0.2289  1.0961  1.8194
 6627SOL     OW31513   0.405   2.524   8.056 -0.0193  0.5216  0.4075
 6627SOL    HW131514   0.365   2.480   7.981  0.5395 -0.0919  0.4638
 6627SOL    HW231515   0.481   2.467   8.069 -1.5461 -2.2697 -2.7122
 6628SOL     OW31516   2.249   1.987   4.102  0.0979 -0.2496  0.0405
 6628SOL    HW131517   2.309   1.915   4.081 -1.1656 -0.9162 -1.2535
 6628SOL    HW231518   2.204   1.958   4.181  0.2703  0.9847  0.5903
 6629SOL     OW31519   0.351   0.038   2.956 -0.1646 -0.4233 -0.5371
 6629SOL    HW131520   0.385   0.111   3.007  3.4041 -1.7804 -0.9726
 6629SOL    HW231521   0.429   4.728   2.922  0.1096 -0.3729  0.0346
 6630SOL     OW31522   1.929   3.810  14.627 -0.5932 -0.1293  0.3960
 6630SOL    HW131523   1.900   3.825  14.717  0.5984  0.0550  0.7401
 6630SOL    HW231524   1.948   3.902  14.608  0.1304 -0.7814 -1.9820
 6631SOL     OW31525   1.281   3.729  14.671  0.1785 -0.2874 -0.4260
 6631SOL    HW131526   1.232   3.648  14.687 -0.0413  0.0802  0.7790
 6631SOL    HW231527   1.286   3.764  14.760 -0.6159  0.1299 -0.5441
 6632SOL     OW31528   1.294   4.035   4.773  0.7338  0.4405 -0.1793
 6632SOL    HW131529   1.300   3.994   4.860 -2.1049 -0.3413 -0.3381
 6632SOL    HW231530   1.388   4.027   4.756  0.7112  2.7957 -1.3781
 6633SOL     OW31531   2.852   0.659   8.395 -0.0768 -0.4871 -0.2147
 6633SOL    HW131532   2.880   0.747   8.419  0.3934 -0.3053 -1.4084
 6633SOL    HW231533   2.930   0.608   8.419 -0.4702 -0.4367  1.1441
 6634SOL     OW31534   1.892   3.085   3.942 -0.0602  0.1865  0.0547
 6634SOL    HW131535   1.967   3.112   3.890 -1.0202 -0.3456 -1.5988
 6634SOL    HW231536   1.834   3.161   3.935  2.1062  1.5579 -2.9349
 6635SOL     OW31537   2.893   3.193  14.180  0.6160 -0.3816 -0.2977
 6635SOL    HW131538   2.982   3.203  14.145  0.3890 -0.0213 -0.7899
 6635SOL    HW231539   2.840   3.207  14.101  0.1636 -0.9496 -0.0899
 6636SOL     OW31540   2.427   2.677   8.549 -0.4087  0.8139 -0.3420
 6636SOL    HW131541   2.492   2.615   8.514 -0.5427 -0.6428  2.0120
 6636SOL    HW231542   2.462   2.763   8.527 -0.9947  0.0787 -4.1558
 6637SOL     OW31543   3.876   1.766   3.197 -0.3742  0.1387 -0.0075
 6637SOL    HW131544   3.892   1.672   3.193  1.0652  0.3013  2.0825
 6637SOL    HW231545   3.856   1.790   3.106  1.1602 -0.7122 -0.5639
 6638SOL     OW31546   3.671   2.960   7.096  0.5926  0.2180 -0.2544
 6638SOL    HW131547   3.692   2.868   7.079 -2.7109 -0.5766  0.0116
 6638SOL    HW231548   3.748   2.987   7.146 -0.0492  1.9898 -0.2293
 6639SOL     OW31549   4.262   3.077   6.439  0.2043  0.1574 -0.0837
 6639SOL    HW131550   4.205   3.091   6.364 -0.2690 -1.6398 -0.0659
 6639SOL    HW231551   4.339   3.127   6.411 -0.8418  1.1310 -1.2073
 6640SOL     OW31552   1.555   0.463   5.119 -0.3339  0.3575 -0.4479
 6640SOL    HW131553   1.559   0.375   5.080 -1.7464 -1.0187  2.5541
 6640SOL    HW231554   1.550   0.445   5.213  0.1721 -2.5373 -0.9510
 6641SOL     OW31555   2.673   2.448   2.449 -0.1538  0.0229 -0.0208
 6641SOL    HW131556   2.768   2.444   2.452 -0.1803 -1.5121 -1.4497
 6641SOL    HW231557   2.656   2.536   2.483  1.8159  0.4392 -0.1514
 6642SOL     OW31558   1.519   0.425   4.521 -0.5963  0.5955  0.1256
 6642SOL    HW131559   1.487   0.500   4.472  0.7790  0.5845 -0.7976
 6642SOL    HW231560   1.528   0.464   4.608 -0.3080  1.6554 -0.3830
 6643SOL     OW31561   4.250   2.549  17.218 -0.5378  0.0091  0.1068
 6643SOL    HW131562   4.294   2.535  17.134  1.9486  0.3348  1.3428
 6643SOL    HW231563   4.254   2.644  17.222  0.1830  0.0080 -0.6261
 6644SOL     OW31564   0.251   2.415   6.600 -0.0590 -0.4550 -0.1988
 6644SOL    HW131565   0.212   2.407   6.687  0.3252 -0.7267 -0.0501
 6644SOL    HW231566   0.185   2.382   6.540  0.8984 -1.4507 -0.6918
 6645SOL     OW31567   4.204   1.013   3.071  0.0742 -0.5944  0.2479
 6645SOL    HW131568   4.225   0.970   3.153  0.3852  0.6651  0.8375
 6645SOL    HW231569   4.204   0.937   3.012  1.0524 -0.0089 -0.5186
 6646SOL     OW31570   3.279   0.870   5.953 -0.4279  0.0085 -0.1059
 6646SOL    HW131571   3.346   0.850   6.019  1.1475  0.4264 -1.5873
 6646SOL    HW231572   3.297   0.802   5.888  2.2567  0.5458  0.0872
 6647SOL     OW31573   3.398   0.021   1.630  0.0117 -0.3579  0.1379
 6647SOL    HW131574   3.448   0.076   1.690 -0.2537 -1.6356  1.5427
 6647SOL    HW231575   3.417   0.069   1.550  0.5693  2.8093  2.1657
 6648SOL     OW31576   0.117   1.838   3.411  0.8990  0.4200 -0.5035
 6648SOL    HW131577   0.057   1.911   3.396  1.8638  1.2591 -0.3163
 6648SOL    HW231578   0.163   1.861   3.492  1.8755 -1.3194 -0.5719
 6649SOL     OW31579   4.589   3.480   7.330 -0.2083  0.0413 -0.1290
 6649SOL    HW131580   4.676   3.440   7.336 -0.8981 -0.7679  4.1180
 6649SOL    HW231581   4.554   3.459   7.417 -1.2710 -0.4080 -0.6592
 6650SOL     OW31582   0.981   4.256   2.905 -0.0948 -0.4774  0.9878
 6650SOL    HW131583   0.960   4.171   2.866 -0.8509 -1.4859  3.6057
 6650SOL    HW231584   0.890   4.276   2.928 -0.0278  0.3108  0.5774
 6651SOL     OW31585   4.260   1.832  15.007  0.5941  0.1464 -0.5416
 6651SOL    HW131586   4.166   1.817  14.994 -0.0054  2.4788  0.9775
 6651SOL    HW231587   4.272   1.890  14.932  0.0881  0.6653 -0.2243
 6652SOL     OW31588   1.430   2.634   5.935  0.3512  0.2962  0.3560
 6652SOL    HW131589   1.366   2.596   5.875 -1.0919  1.5279  1.1224
 6652SOL    HW231590   1.483   2.679   5.869  1.1613 -0.0148  0.7947
 6653SOL     OW31591   4.490   2.992   5.681 -0.0478  0.0563 -0.2016
 6653SOL    HW131592   4.533   3.043   5.749 -2.6402 -1.2758  2.4079
 6653SOL    HW231593   4.550   3.024   5.613  0.8584  0.4717  0.7880
 6654SOL     OW31594   1.755   1.153   7.364  0.1375 -0.0203  0.1338
 6654SOL    HW131595   1.749   1.224   7.300 -2.5120 -1.7183 -1.5377
 6654SOL    HW231596   1.828   1.102   7.329 -1.2275 -0.7822 -1.6300
 6655SOL     OW31597   0.137   0.883   7.179  0.1054 -0.3914 -0.3851
 6655SOL    HW131598   0.058   0.927   7.208  0.0226 -0.7031 -0.1486
 6655SOL    HW231599   0.096   0.817   7.123  1.6064 -1.3113 -0.3949
 6656SOL     OW31600   2.566   1.419  17.259 -0.0552 -0.2168  0.0246
 6656SOL    HW131601   2.583   1.386  17.347 -2.2718 -2.9473 -0.5648
 6656SOL    HW231602   2.636   1.367  17.218  0.9080  0.2436  1.0922
 6657SOL     OW31603   1.614   1.271   8.107 -0.0898  0.1485  0.1340
 6657SOL    HW131604   1.657   1.327   8.171 -1.5310 -0.2452  1.4407
 6657SOL    HW231605   1.523   1.280   8.134 -0.4228 -0.9797 -0.6265
 6658SOL     OW31606   1.482   2.167  12.786 -0.4180 -0.1857  0.0661
 6658SOL    HW131607   1.431   2.231  12.735  0.6095  1.0603  0.5890
 6658SOL    HW231608   1.416   2.148  12.852  1.0058 -1.6933  1.0533
 6659SOL     OW31609   3.154   1.465  15.607 -0.5060 -0.3951 -0.1619
 6659SOL    HW131610   3.126   1.409  15.534  0.6105 -1.8144  0.4828
 6659SOL    HW231611   3.239   1.487  15.569 -0.9442  0.3989 -0.6819
 6660SOL     OW31612   3.763   1.341  16.244  0.2128 -0.1914  0.2584
 6660SOL    HW131613   3.823   1.365  16.173  0.3077 -2.6551 -0.4930
 6660SOL    HW231614   3.703   1.279  16.202  0.9881 -2.4173  2.4412
 6661SOL     OW31615   3.598   0.288   6.682  0.0431 -0.2023  0.3510
 6661SOL    HW131616   3.692   0.302   6.674  0.1017 -1.6283 -1.4469
 6661SOL    HW231617   3.571   0.305   6.592 -0.7093 -1.3111  0.3671
 6662SOL     OW31618   1.454   0.377  13.331  0.7022 -0.5696 -0.5406
 6662SOL    HW131619   1.481   0.358  13.242 -0.5216  1.6445 -1.3855
 6662SOL    HW231620   1.498   0.320  13.394 -3.6134 -0.6357  2.5057
 6663SOL     OW31621   1.968   3.965  12.578 -0.6624  0.1061 -0.0558
 6663SOL    HW131622   1.942   3.941  12.667 -1.2436  0.9037 -0.0116
 6663SOL    HW231623   2.012   3.884  12.552 -1.3280 -0.4832  0.6491
 6664SOL     OW31624   1.995   3.326   5.816  0.5086  0.3022  0.2135
 6664SOL    HW131625   1.936   3.273   5.869  2.0988 -1.8624 -0.1749
 6664SOL    HW231626   1.951   3.333   5.731 -2.1714  0.1661  1.5866
 6665SOL     OW31627   0.136   3.994   1.190 -0.4369 -0.0266 -0.3606
 6665SOL    HW131628   0.142   3.939   1.268 -3.2134 -0.3954 -0.3757
 6665SOL    HW231629   0.142   3.926   1.122  1.7929  0.2583 -0.4488
 6666SOL     OW31630   3.470   4.551   1.210  0.0354 -0.2319 -0.1247
 6666SOL    HW131631   3.530   4.477   1.211  0.9965  0.5680  0.8914
 6666SOL    HW231632   3.520   4.599   1.276 -0.3865 -1.0459  0.7847
 6667SOL     OW31633   0.370   2.916  16.599  0.1737  0.0553  0.3987
 6667SOL    HW131634   0.417   2.913  16.683 -0.6973 -0.9431  0.8513
 6667SOL    HW231635   0.305   2.986  16.609  1.2375  1.2269 -0.8477
 6668SOL     OW31636   4.005   3.078  12.379 -0.3768 -0.3886  0.6730
 6668SOL    HW131637   3.963   2.997  12.409 -1.2997 -0.4428 -0.7077
 6668SOL    HW231638   3.956   3.146  12.425  0.4655  1.2328 -0.8094
 6669SOL     OW31639   3.372   1.824  12.496  0.6430 -0.2688 -0.6803
 6669SOL    HW131640   3.304   1.865  12.549  2.7419 -0.1287  1.9569
 6669SOL    HW231641   3.442   1.887  12.514  0.0218 -0.0589  1.0276
 6670SOL     OW31642   1.330   2.762  13.583  0.1512  0.0864  0.5604
 6670SOL    HW131643   1.304   2.762  13.491  1.3940  0.1668  0.2059
 6670SOL    HW231644   1.254   2.790  13.634 -0.2890  0.1927 -0.1391
 6671SOL     OW31645   4.583   1.237  12.218  0.0036 -0.4776 -0.7897
 6671SOL    HW131646   4.604   1.162  12.163  0.0496 -2.0217  1.3072
 6671SOL    HW231647   4.558   1.301  12.151  1.4638  0.7511 -0.1578
 6672SOL     OW31648   1.314   4.168   0.364 -0.5927 -0.1760  0.1276
 6672SOL    HW131649   1.276   4.123   0.439 -1.2926 -0.2702 -0.2811
 6672SOL    HW231650   1.233   4.184   0.316 -0.1941 -0.4035 -0.6328
 6673SOL     OW31651   3.180   3.343   7.703  0.4141 -0.0157 -0.2194
 6673SOL    HW131652   3.118   3.401   7.659  0.6398  1.5765  1.5455
 6673SOL    HW231653   3.227   3.411   7.752 -0.6265  0.9571 -0.5719
 6674SOL     OW31654   0.774   3.869   6.225 -0.5361 -0.1068 -0.1958
 6674SOL    HW131655   0.708   3.865   6.293 -0.9202 -1.1776 -0.6219
 6674SOL    HW231656   0.811   3.953   6.252 -2.7256  0.0829  2.1217
 6675SOL     OW31657   3.141   1.041   6.909  0.8479 -0.6929  0.7899
 6675SOL    HW131658   3.099   1.068   6.991  2.1117  2.3983  0.4107
 6675SOL    HW231659   3.111   0.950   6.904 -0.7427 -0.0384 -1.6572
 6676SOL     OW31660   1.530   0.632   8.099 -0.0073  0.4834 -0.2373
 6676SOL    HW131661   1.467   0.681   8.045 -0.6477  0.0072  0.0751
 6676SOL    HW231662   1.472   0.608   8.171 -0.8010  0.2848 -0.9359
 6677SOL     OW31663   0.252   3.746   3.827  0.5299  0.0992  0.1723
 6677SOL    HW131664   0.324   3.732   3.888 -0.0821  1.1806  1.1510
 6677SOL    HW231665   0.269   3.680   3.760  0.4764 -0.1587  0.4173
 6678SOL     OW31666   2.190   4.353   7.304 -0.5077 -0.5077 -0.1067
 6678SOL    HW131667   2.266   4.391   7.348  0.2387 -1.0448 -0.9510
 6678SOL    HW231668   2.200   4.377   7.212 -1.3966  1.1758  0.2277
 6679SOL     OW31669   1.733   3.369   2.148 -0.1461  0.7988  0.4840
 6679SOL    HW131670   1.641   3.341   2.143  0.0121  0.1204  1.5381
 6679SOL    HW231671   1.772   3.362   2.061  1.5089 -0.0713  1.2971
 6680SOL     OW31672   3.577   0.196   8.754 -0.3910  0.0066  0.0619
 6680SOL    HW131673   3.545   0.266   8.812 -2.3311  0.4387 -1.5559
 6680SOL    HW231674   3.491   0.166   8.725  0.5079 -0.0301 -2.5582
 6681SOL     OW31675   0.078   4.184  14.398 -0.5587  0.0766 -0.2269
 6681SOL    HW131676   0.100   4.095  14.426 -0.9734  0.2570  0.6773
 6681SOL    HW231677   0.096   4.226  14.482  0.5698  1.4940 -1.1726
 6682SOL     OW31678   1.874   0.799  11.953 -0.8185 -0.2851 -0.6084
 6682SOL    HW131679   1.917   0.885  11.957 -0.8879 -0.2548 -0.5106
 6682SOL    HW231680   1.866   0.790  11.858  1.4596  1.2788 -0.9683
 6683SOL     OW31681   3.809   3.396  16.222  0.2407 -0.7300 -0.2877
 6683SOL    HW131682   3.796   3.386  16.128 -1.8406  1.0748 -0.2049
 6683SOL    HW231683   3.815   3.491  16.234  2.7189 -0.8321 -0.8426
 6684SOL     OW31684   1.787   1.712   6.515 -0.5380 -0.0484  0.1264
 6684SOL    HW131685   1.779   1.790   6.459  1.7979 -0.6805 -1.0916
 6684SOL    HW231686   1.823   1.652   6.450 -0.6718 -0.4587  0.4388
 6685SOL     OW31687   2.729   4.038   9.219  0.1504 -0.2208  0.0761
 6685SOL    HW131688   2.709   4.125   9.184 -0.7854 -0.0394  1.0712
 6685SOL    HW231689   2.666   4.016   9.287  1.7168  0.8499  1.8758
 6686SOL     OW31690   2.624   0.376  10.992 -0.2166 -0.0166  0.2325
 6686SOL    HW131691   2.553   0.373  11.056 -0.0400 -0.4395  0.4123
 6686SOL    HW231692   2.680   0.306  11.024  1.2829  1.0377 -0.1060
 6687SOL     OW31693   2.676   1.369   9.873 -0.4922  0.0460 -0.0746
 6687SOL    HW131694   2.740   1.398   9.809 -0.5942  1.6148  0.5326
 6687SOL    HW231695   2.605   1.342   9.816 -0.4777  2.4884 -1.2607
 6688SOL     OW31696   4.101   1.715   3.482 -0.1246 -0.1417 -0.1181
 6688SOL    HW131697   4.108   1.716   3.386  0.9400  3.8007 -0.0075
 6688SOL    HW231698   4.104   1.622   3.504 -3.0597  0.2927  2.0157
 6689SOL     OW31699   1.242   1.048   8.469 -0.0327  0.0144  0.1200
 6689SOL    HW131700   1.310   1.048   8.402 -1.6410  2.0979 -1.5518
 6689SOL    HW231701   1.207   0.959   8.466 -1.1031  0.4989 -1.9034
 6690SOL     OW31702   3.937   3.299  14.149  0.3880 -0.4898  0.1849
 6690SOL    HW131703   3.932   3.394  14.157  1.0943 -0.3866 -0.5503
 6690SOL    HW231704   3.851   3.275  14.115 -0.2037  1.4566  0.3327
 6691SOL     OW31705   1.219   2.737   8.419  0.5856 -0.2136 -0.0207
 6691SOL    HW131706   1.228   2.664   8.357  0.4724 -0.4692  0.2640
 6691SOL    HW231707   1.125   2.754   8.418 -0.0034 -3.4680 -0.1056
 6692SOL     OW31708   4.101   0.068   8.823  0.5005 -0.4848  0.6765
 6692SOL    HW131709   4.092   4.707   8.831 -0.5012 -0.3871  0.7050
 6692SOL    HW231710   4.022   0.092   8.873 -1.2824  2.0359 -3.4312
 6693SOL     OW31711   4.341   3.861   5.083  0.2951  0.3965  0.4859
 6693SOL    HW131712   4.352   3.858   4.988  1.5809 -0.0789  0.6443
 6693SOL    HW231713   4.288   3.782   5.085  0.5479  0.2961  2.9985
 6694SOL     OW31714   0.002   2.606   8.235 -0.6974 -0.0817 -0.0267
 6694SOL    HW131715   4.694   2.530   8.275  2.1261 -0.6039  1.9606
 6694SOL    HW231716   4.714   2.600   8.142 -0.2306  0.1685 -0.1522
 6695SOL     OW31717   0.408   0.991   8.696  0.2740  0.3769 -0.4131
 6695SOL    HW131718   0.360   1.073   8.687  0.6231  0.8120  1.6406
 6695SOL    HW231719   0.485   1.017   8.746  0.3585  1.8506 -1.3434
 6696SOL     OW31720   3.831   4.610   3.484  0.0898  0.5012 -0.0104
 6696SOL    HW131721   3.808   4.609   3.391 -0.4216 -2.1659  0.1512
 6696SOL    HW231722   3.916   4.653   3.477  0.5038  0.0609  2.4693
 6697SOL     OW31723   3.352   3.309   9.110  0.2534  0.3354  0.3683
 6697SOL    HW131724   3.368   3.323   9.203  0.5696  0.5175  0.2858
 6697SOL    HW231725   3.265   3.270   9.113 -0.3446  1.6048 -0.7889
 6698SOL     OW31726   2.648   2.196   9.145 -0.1095  0.4236  0.0370
 6698SOL    HW131727   2.599   2.114   9.132 -1.3755  1.5344 -2.1651
 6698SOL    HW231728   2.618   2.223   9.231  2.2370  1.0475  0.6552
 6699SOL     OW31729   0.596   4.675   8.254 -0.3296 -0.3804 -0.4855
 6699SOL    HW131730   0.630   4.600   8.206 -0.8884 -1.5384  0.9551
 6699SOL    HW231731   0.666   0.005   8.247 -2.5379  2.1015  0.0036
 6700SOL     OW31732   0.874   4.679   9.141 -0.0591 -0.0179  0.5831
 6700SOL    HW131733   0.878   0.039   9.146 -1.1984  0.0706 -0.0970
 6700SOL    HW231734   0.855   4.674   9.047 -1.0071  2.7509  0.6281
 6701SOL     OW31735   0.301   0.243   3.782 -0.2057 -0.0111  0.2513
 6701SOL    HW131736   0.362   0.259   3.710 -0.1586 -0.0485  0.2824
 6701SOL    HW231737   0.270   0.157   3.754  2.8951 -0.9808 -0.2167
 6702SOL     OW31738   2.936   0.131   3.255 -0.2695  0.0470 -0.1505
 6702SOL    HW131739   2.862   0.075   3.229  0.5467 -1.4812  0.8849
 6702SOL    HW231740   2.969   0.167   3.173  2.7306  0.4100  1.2510
 6703SOL     OW31741   1.181   2.875   6.519 -0.6239  0.1121 -0.6389
 6703SOL    HW131742   1.149   2.824   6.445  0.0241  0.5962 -1.2533
 6703SOL    HW231743   1.186   2.965   6.486 -0.1192  0.3347  0.0492
 6704SOL     OW31744   0.295   1.064   3.443  0.7515  0.4095  0.0990
 6704SOL    HW131745   0.351   1.044   3.368  0.0357 -2.6975  0.3791
 6704SOL    HW231746   0.213   1.092   3.402  0.1688  2.1273  2.4038
 6705SOL     OW31747   3.490   0.717   8.700 -0.5025 -0.2823 -0.5647
 6705SOL    HW131748   3.534   0.774   8.764  1.1954  0.5466 -2.4734
 6705SOL    HW231749   3.555   0.706   8.630  1.3799 -1.9864  1.4425
 6706SOL     OW31750   3.613   4.705  14.564 -0.7651 -0.2150 -0.3527
 6706SOL    HW131751   3.524   4.680  14.585 -1.0970 -0.2075 -1.7639
 6706SOL    HW231752   3.647   4.718  14.652 -2.7003  1.4163  0.1487
 6707SOL     OW31753   3.939   3.362   5.429  0.5631  0.1666  0.0817
 6707SOL    HW131754   3.895   3.397   5.506  1.3410  3.9912 -1.2036
 6707SOL    HW231755   3.933   3.266   5.435  1.8537  0.1275  0.6420
 6708SOL     OW31756   1.719   4.488   7.361  0.4013 -0.3695 -0.1560
 6708SOL    HW131757   1.774   4.465   7.285  2.0349 -0.8017  1.1623
 6708SOL    HW231758   1.684   4.576   7.348  0.6084 -0.4608 -1.3252
 6709SOL     OW31759   3.617   0.350  10.783 -0.2265  0.2573  0.1530
 6709SOL    HW131760   3.707   0.375  10.802 -0.5310  0.9626  0.6801
 6709SOL    HW231761   3.608   0.399  10.701 -0.4966 -1.6127 -0.9355
 6710SOL     OW31762   2.726   0.496   3.814  0.3391 -0.4304 -0.3840
 6710SOL    HW131763   2.686   0.419   3.855  2.2753 -0.6341  1.1501
 6710SOL    HW231764   2.800   0.456   3.767 -0.5098 -0.2913 -1.8225
 6711SOL     OW31765   2.910   3.976  17.640 -0.0616  0.1971 -0.3132
 6711SOL    HW131766   2.979   4.040  17.623 -0.9119  1.6258  1.6330
 6711SOL    HW231767   2.959   3.899  17.668 -0.5407  0.5304  1.4504
 6712SOL     OW31768   0.577   2.561   8.581 -0.0995 -0.3793 -0.1923
 6712SOL    HW131769   0.659   2.600   8.550  0.8312  0.0332  2.8655
 6712SOL    HW231770   0.546   2.515   8.503  1.7939  0.3879 -1.4079
 6713SOL     OW31771   0.255   2.789  14.866 -0.3907  0.0436 -0.2711
 6713SOL    HW131772   0.251   2.693  14.868 -1.1589  0.1164  1.9218
 6713SOL    HW231773   0.304   2.797  14.785  0.2366 -0.7438  0.0257
 6714SOL     OW31774   1.876   1.767   4.371  0.1093 -0.0596 -0.3094
 6714SOL    HW131775   1.858   1.783   4.463  2.5191  0.4925  0.0634
 6714SOL    HW231776   1.794   1.724   4.349  0.4497 -0.7840 -0.1692
 6715SOL     OW31777   0.205   4.218   2.742  0.1431  0.2527 -0.3735
 6715SOL    HW131778   0.196   4.126   2.769  1.3144  0.0364 -0.7346
 6715SOL    HW231779   0.245   4.252   2.822  0.7568  0.4978 -0.7896
 6716SOL     OW31780   4.424   2.336   8.054  0.6064 -0.1617 -0.1994
 6716SOL    HW131781   4.355   2.400   8.042  0.7233  0.4768  2.6882
 6716SOL    HW231782   4.422   2.307   8.145  0.0604  2.0239  0.4777
 6717SOL     OW31783   2.099   2.068   4.559  0.0517 -0.7185 -0.4416
 6717SOL    HW131784   2.185   2.043   4.525  0.0785  0.6267 -1.3676
 6717SOL    HW231785   2.061   2.128   4.495 -0.4873  1.5913  2.0436
 6718SOL     OW31786   3.793   3.970   8.511  0.1274 -0.0037 -0.1243
 6718SOL    HW131787   3.734   3.995   8.582 -1.7078  1.2292 -2.1034
 6718SOL    HW231788   3.817   3.880   8.533  0.8101  0.6912  2.0052
 6719SOL     OW31789   2.041   4.104   9.343 -0.2727  0.3428  0.5172
 6719SOL    HW131790   2.038   4.053   9.424  0.2986 -1.6653 -0.7250
 6719SOL    HW231791   1.973   4.172   9.347 -1.9079 -1.2481 -0.0706
 6720SOL     OW31792   3.940   4.049   1.691  0.0388  0.7192 -0.1519
 6720SOL    HW131793   3.867   3.998   1.724 -0.6833  2.3408  0.7472
 6720SOL    HW231794   3.975   4.001   1.615  0.7757 -1.0310  1.3044
 6721SOL     OW31795   0.074   1.568   6.110  0.0769  0.0855  0.3819
 6721SOL    HW131796   4.721   1.580   6.073  0.8379  1.2895 -0.9992
 6721SOL    HW231797   0.049   1.496   6.169  0.3943  0.8884  1.4991
 6722SOL     OW31798   4.453   2.767   5.204 -0.0541  0.5960 -0.3911
 6722SOL    HW131799   4.421   2.700   5.144  0.5747  0.6079 -0.7411
 6722SOL    HW231800   4.501   2.811   5.134  2.9277 -2.1952 -0.0450
 6723SOL     OW31801   0.207   4.557   3.694  0.2390 -0.1872  0.1328
 6723SOL    HW131802   0.166   4.538   3.779  0.6148  0.5174  0.4736
 6723SOL    HW231803   0.222   4.467   3.665  0.5663 -0.1263  0.1146
 6724SOL     OW31804   3.370   2.740   7.934 -0.0391  0.1080  0.0411
 6724SOL    HW131805   3.462   2.730   7.961  0.2434  2.1805 -0.1643
 6724SOL    HW231806   3.353   2.831   7.912 -2.2238 -0.8702 -2.1954
 6725SOL     OW31807   4.311   4.595  13.582  0.1210  0.0188  0.1405
 6725SOL    HW131808   4.295   4.632  13.669  1.1570 -2.1752  1.2478
 6725SOL    HW231809   4.337   4.675  13.537 -1.0389  0.2178 -0.1763
 6726SOL     OW31810   3.162   2.222   6.015 -0.4899  0.1882  0.1474
 6726SOL    HW131811   3.155   2.189   6.105  2.0352  1.8258  0.9393
 6726SOL    HW231812   3.241   2.172   5.996 -0.3090  0.2968  0.6202
 6727SOL     OW31813   3.631   2.193  16.484 -0.3454 -0.3121 -0.1515
 6727SOL    HW131814   3.673   2.261  16.537 -1.3192  0.0888  0.1018
 6727SOL    HW231815   3.710   2.142  16.468  0.6113  1.2366 -0.3854
 6728SOL     OW31816   4.613   1.993  12.920 -0.4379  0.1772 -1.0333
 6728SOL    HW131817   4.682   2.025  12.862  0.6060 -0.0679  0.0742
 6728SOL    HW231818   4.543   2.058  12.921 -0.0075  0.6241  1.5475
 6729SOL     OW31819   1.460   2.006  16.808  0.2801 -0.1059  0.2285
 6729SOL    HW131820   1.533   1.945  16.813  1.4376  1.3030  0.6023
 6729SOL    HW231821   1.445   2.026  16.900  0.6841  0.8743  0.0898
 6730SOL     OW31822   3.083   2.338   5.727 -0.3707  0.5077  0.1715
 6730SOL    HW131823   3.160   2.304   5.681 -2.3636 -0.3029 -2.5975
 6730SOL    HW231824   3.081   2.276   5.800  0.0473  1.0839  0.6661
 6731SOL     OW31825   1.444   1.204   4.201 -0.7094 -0.3007  0.2732
 6731SOL    HW131826   1.508   1.157   4.147 -0.2434  1.8367 -1.0832
 6731SOL    HW231827   1.400   1.258   4.135  1.7869  1.2914 -0.1232
 6732SOL     OW31828   1.283   1.973   5.922  0.4686 -0.0220  0.0398
 6732SOL    HW131829   1.368   1.933   5.904 -0.5403 -1.6367 -1.0982
 6732SOL    HW231830   1.235   1.944   5.845  1.0702 -1.0508  0.0564
 6733SOL     OW31831   2.785   1.875   9.807  0.0853  0.5622  0.0399
 6733SOL    HW131832   2.845   1.938   9.847 -0.3104 -0.7267  2.6096
 6733SOL    HW231833   2.726   1.856   9.879  0.2315 -1.2606 -0.3414
 6734SOL     OW31834   3.698   4.539   4.556 -0.1405  0.1092 -0.4527
 6734SOL    HW131835   3.673   4.448   4.542  0.3960  0.0007 -0.7024
 6734SOL    HW231836   3.655   4.553   4.641 -0.5273 -1.7212 -0.3545
 6735SOL     OW31837   2.165   0.389  12.211 -0.4411 -0.6627  0.0464
 6735SOL    HW131838   2.122   0.458  12.161 -0.1795 -0.9804 -0.6128
 6735SOL    HW231839   2.152   0.307  12.162 -0.2736  0.0955 -1.2537
 6736SOL     OW31840   4.210   4.002   3.737  0.2592  0.7688 -0.0436
 6736SOL    HW131841   4.291   4.052   3.751 -0.8499  2.4595  0.4366
 6736SOL    HW231842   4.187   4.017   3.646 -0.6796 -0.8766 -0.0613
 6737SOL     OW31843   4.685   4.649   2.034 -0.2482  0.0314 -0.4442
 6737SOL    HW131844   4.636   4.567   2.038 -0.2494  0.0118 -0.8978
 6737SOL    HW231845   4.616   4.715   2.025 -0.7846 -0.6238 -1.1360
 6738SOL     OW31846   1.349   1.512   2.712  0.1518 -0.6510  0.0898
 6738SOL    HW131847   1.276   1.551   2.760  0.5591  0.9886 -0.6362
 6738SOL    HW231848   1.374   1.585   2.656  0.6384 -0.4547  0.5587
 6739SOL     OW31849   3.824   1.604   4.150  0.4966 -0.7463 -0.1645
 6739SOL    HW131850   3.879   1.678   4.174 -1.1775  0.1862  0.7704
 6739SOL    HW231851   3.892   1.539   4.132  2.1995  0.6612  1.2596
 6740SOL     OW31852   3.159   2.452   9.350  0.3299 -0.3163 -0.1042
 6740SOL    HW131853   3.128   2.476   9.263 -0.7110 -0.1597  0.3148
 6740SOL    HW231854   3.198   2.533   9.383  2.2911 -1.2797 -0.0081
 6741SOL     OW31855   4.369   1.396  11.373 -0.4639 -0.7204 -0.3584
 6741SOL    HW131856   4.341   1.453  11.445  0.6706 -1.1773  0.4598
 6741SOL    HW231857   4.419   1.328  11.420 -0.3375  0.2149  0.8560
 6742SOL     OW31858   3.540   4.278  14.050  0.2388  0.1857  0.2514
 6742SOL    HW131859   3.568   4.269  13.958 -1.3660  0.0674 -0.2269
 6742SOL    HW231860   3.452   4.314  14.043 -1.1627 -3.4721 -0.7253
 6743SOL     OW31861   1.875   0.747   4.980  0.0910  0.1672  0.2279
 6743SOL    HW131862   1.824   0.718   4.905  1.0218 -1.5612  0.2589
 6743SOL    HW231863   1.813   0.736   5.052 -1.3440 -0.3026 -1.0711
 6744SOL     OW31864   3.200   2.301   6.833  0.2660  0.2111  0.1112
 6744SOL    HW131865   3.221   2.209   6.813  1.3878  0.7097 -1.0189
 6744SOL    HW231866   3.106   2.285   6.836  0.2953 -0.2384 -0.9864
 6745SOL     OW31867   1.208   1.734   0.178 -0.7361 -0.1938  0.0812
 6745SOL    HW131868   1.299   1.711   0.161 -0.9406  1.3117 -3.0015
 6745SOL    HW231869   1.184   1.659   0.233 -0.0643 -1.2097 -1.0048
 6746SOL     OW31870   0.233   3.593   4.292 -0.6987  0.0692 -0.0264
 6746SOL    HW131871   0.162   3.636   4.338 -0.5490 -0.4858  0.7114
 6746SOL    HW231872   0.305   3.611   4.353  0.4642  0.6246 -1.5507
 6747SOL     OW31873   0.108   3.886   3.190  0.2584 -0.7970 -0.1198
 6747SOL    HW131874   0.146   3.824   3.252  2.3718  0.8145  0.2272
 6747SOL    HW231875   0.018   3.862   3.171 -0.9495  1.7066  2.5867
 6748SOL     OW31876   0.709   1.036   8.402 -0.1771  0.2944  0.1882
 6748SOL    HW131877   0.633   1.093   8.414  0.3084  1.1001 -0.5195
 6748SOL    HW231878   0.764   1.072   8.471 -1.3322 -0.2852  1.4013
 6749SOL     OW31879   3.863   4.525  14.577 -0.2194 -0.0671 -0.2886
 6749SOL    HW131880   3.901   4.441  14.555  1.3581  1.3806 -3.0749
 6749SOL    HW231881   3.784   4.495  14.622  0.2034  0.5075  0.8486
 6750SOL     OW31882   0.316   3.788   9.158 -0.1766 -0.6120  0.1870
 6750SOL    HW131883   0.348   3.852   9.095  1.8026 -1.0614  0.7308
 6750SOL    HW231884   0.348   3.824   9.241 -2.5042 -1.4896  1.4701
 6751SOL     OW31885   4.219   1.712   6.642 -0.2632 -0.7608 -0.1160
 6751SOL    HW131886   4.129   1.734   6.665 -0.3306 -0.5443 -0.5832
 6751SOL    HW231887   4.219   1.678   6.552 -0.0682  0.7309 -0.6786
 6752SOL     OW31888   4.156   3.945  14.019 -0.8086  0.7031 -0.5988
 6752SOL    HW131889   4.219   3.896  13.968  0.3341  0.3376  1.1612
 6752SOL    HW231890   4.155   4.032  13.977  0.6890  1.2331  0.4636
 6753SOL     OW31891   4.169   2.949   7.298  0.2929 -0.2707  0.2997
 6753SOL    HW131892   4.218   2.999   7.364  1.6537 -0.3918 -0.6196
 6753SOL    HW231893   4.194   2.863   7.333 -0.4038 -0.9527 -0.8732
 6754SOL     OW31894   0.626   1.364   6.944  0.1758 -0.3507 -0.3269
 6754SOL    HW131895   0.619   1.418   7.023 -0.1576 -0.6342 -0.1652
 6754SOL    HW231896   0.533   1.366   6.924  1.0000  2.3734 -3.9544
 6755SOL     OW31897   1.315   2.296   3.519  0.4555  0.1513  0.3362
 6755SOL    HW131898   1.291   2.203   3.517  3.4604 -0.6581  1.7392
 6755SOL    HW231899   1.279   2.332   3.438  1.9400 -3.4748 -1.9872
 6756SOL     OW31900   1.491   1.494   6.680 -0.0891  0.0820 -0.3328
 6756SOL    HW131901   1.478   1.445   6.761 -0.3577  0.0321 -0.4045
 6756SOL    HW231902   1.555   1.439   6.636  2.2126  1.7452  0.9371
 6757SOL     OW31903   4.571   2.051   5.221 -0.5048  0.0138  0.5840
 6757SOL    HW131904   4.581   1.956   5.224 -2.5621 -0.2234  0.3299
 6757SOL    HW231905   4.654   2.085   5.253 -0.8435  1.8971 -0.5107
 6758SOL     OW31906   4.332   2.163   7.373  0.0120  0.2391  0.5074
 6758SOL    HW131907   4.283   2.151   7.454  0.0986 -1.7947  0.2626
 6758SOL    HW231908   4.368   2.251   7.384  1.2932 -0.3725  1.2219
 6759SOL     OW31909   1.902   0.671   4.452 -0.2268 -0.2322 -0.3150
 6759SOL    HW131910   1.933   0.758   4.427  0.6415 -0.0219  1.4964
 6759SOL    HW231911   1.936   0.618   4.380  1.9270 -0.5963  0.9819
 6760SOL     OW31912   0.151   0.223  12.586  0.4830  0.4669 -0.1612
 6760SOL    HW131913   0.095   0.145  12.583 -0.5161  1.1779  0.2966
 6760SOL    HW231914   0.198   0.213  12.502  0.0702  0.2584 -0.3679
 6761SOL     OW31915   1.722   0.279   9.988  0.3588 -0.3484  0.1828
 6761SOL    HW131916   1.711   0.191   9.950 -1.1889 -0.7589  1.5760
 6761SOL    HW231917   1.816   0.288  10.005  0.4146  0.5012 -0.5529
 6762SOL     OW31918   2.119   3.787   1.559 -0.0376  0.4358  0.1258
 6762SOL    HW131919   2.208   3.754   1.565 -0.4849 -0.8272 -0.1783
 6762SOL    HW231920   2.092   3.759   1.471  3.8891 -0.9354 -0.6165
 6763SOL     OW31921   3.606   3.886   6.182 -0.2282 -0.2788 -0.3241
 6763SOL    HW131922   3.547   3.823   6.142  1.3331 -2.7624  1.2531
 6763SOL    HW231923   3.660   3.829   6.238  0.4958 -1.1571 -1.9145
 6764SOL     OW31924   0.919   1.924   1.356 -0.0377 -0.2113  0.4566
 6764SOL    HW131925   0.857   1.895   1.289  0.3269  0.1846 -0.0609
 6764SOL    HW231926   0.864   1.969   1.420 -0.6613 -0.7258  0.2760
 6765SOL     OW31927   2.245   0.704   6.687 -0.0934  0.1323 -0.0631
 6765SOL    HW131928   2.184   0.710   6.760  0.2734  0.0231  0.2496
 6765SOL    HW231929   2.206   0.768   6.627 -0.0476  1.3500  1.2088
 6766SOL     OW31930   2.778   1.582   5.781 -0.0601  0.7774 -0.0633
 6766SOL    HW131931   2.847   1.593   5.846  0.3351 -1.2366 -0.1626
 6766SOL    HW231932   2.806   1.503   5.735 -2.4141 -0.1889  0.1673
 6767SOL     OW31933   2.844   2.286   3.506  0.3934 -0.6610 -0.1261
 6767SOL    HW131934   2.769   2.240   3.469 -1.1989  0.7675  1.3703
 6767SOL    HW231935   2.808   2.308   3.592  1.0815 -0.2525  0.0667
 6768SOL     OW31936   0.349   3.934   3.048 -0.2205  0.3947  0.0034
 6768SOL    HW131937   0.312   3.908   2.963 -0.4803 -0.9727  0.5325
 6768SOL    HW231938   0.268   3.939   3.098  0.2942 -1.0441  0.9844
 6769SOL     OW31939   4.318   1.281   3.957  0.1007  0.6742  0.4434
 6769SOL    HW131940   4.380   1.258   4.025  1.1031 -0.7305 -0.9467
 6769SOL    HW231941   4.235   1.247   3.990 -0.4581  1.4910 -0.1150
 6770SOL     OW31942   1.905   1.364   0.062 -0.0811  0.4960 -0.5037
 6770SOL    HW131943   1.967   1.431   0.032  0.7960  1.1351  2.7230
 6770SOL    HW231944   1.933   1.287   0.013 -0.4402 -0.9439  1.5207
 6771SOL     OW31945   2.217   4.064   7.272 -0.3574 -0.4132 -0.3247
 6771SOL    HW131946   2.304   4.054   7.235 -0.1494 -1.6160  0.4890
 6771SOL    HW231947   2.224   4.158   7.291  2.8589 -0.5257 -1.0882
 6772SOL     OW31948   0.232   1.161   6.447 -0.1983  0.3332 -0.0839
 6772SOL    HW131949   0.234   1.250   6.483 -1.2359  0.2749  0.1119
 6772SOL    HW231950   0.143   1.138   6.472 -0.8241  1.4756 -1.2852
 6773SOL     OW31951   4.544   2.470  13.898  0.2806 -0.1720  0.2097
 6773SOL    HW131952   4.536   2.464  13.993 -1.3200 -2.5510 -0.0779
 6773SOL    HW231953   4.455   2.487  13.865  0.1706 -2.7357 -0.7514
 6774SOL     OW31954   0.065   4.491  12.796 -0.1252  0.1073  0.0135
 6774SOL    HW131955   0.078   4.415  12.740 -0.3711  1.4393 -1.8556
 6774SOL    HW231956   0.101   4.466  12.881 -0.9853  0.6809  0.5529
 6775SOL     OW31957   4.730   2.288   5.020 -0.0604 -0.5268 -0.2958
 6775SOL    HW131958   4.719   2.359   5.083  5.1523 -0.1084  0.1965
 6775SOL    HW231959   0.079   2.249   5.048 -0.3580 -0.9957 -0.0624
 6776SOL     OW31960   3.550   3.804   9.452  0.0112  0.1512  0.2772
 6776SOL    HW131961   3.629   3.763   9.487 -0.0313 -1.0498 -1.0753
 6776SOL    HW231962   3.599   3.865   9.398  0.2964 -0.1698  0.1783
 6777SOL     OW31963   1.437   2.656   4.031 -0.1866  0.1840  0.5112
 6777SOL    HW131964   1.467   2.642   3.941  0.8010 -0.1685  0.8831
 6777SOL    HW231965   1.504   2.613   4.085 -0.5772 -0.5959  0.3800
 6778SOL     OW31966   3.822   0.941   1.579  0.3200  0.1036  0.3883
 6778SOL    HW131967   3.868   0.901   1.652 -0.0248  1.0946  1.1466
 6778SOL    HW231968   3.860   0.892   1.506  0.9733  2.7963 -1.0948
 6779SOL     OW31969   4.060   1.874   9.755  0.4629 -0.2438  0.1794
 6779SOL    HW131970   4.129   1.940   9.758 -1.0661  1.4094 -1.1715
 6779SOL    HW231971   4.097   1.803   9.808  0.2838 -0.5911 -0.1533
 6780SOL     OW31972   1.462   0.462   4.781  0.0481 -0.3381  0.0746
 6780SOL    HW131973   1.516   0.390   4.812  0.9496  0.2301 -0.1715
 6780SOL    HW231974   1.402   0.494   4.848 -0.0661  0.9346 -0.6422
 6781SOL     OW31975   2.723   0.284   5.207  0.0521  0.2195  0.1999
 6781SOL    HW131976   2.727   0.189   5.202  0.8711  0.1987  1.2979
 6781SOL    HW231977   2.632   0.306   5.230 -0.5943 -2.5882  0.3486
 6782SOL     OW31978   2.235   3.735  17.034 -0.2292 -0.4420 -0.4317
 6782SOL    HW131979   2.141   3.722  17.040 -0.5211  0.9196 -2.1294
 6782SOL    HW231980   2.241   3.778  16.949  1.7281 -1.8215 -0.9987
 6783SOL     OW31981   3.848   4.299   6.044  0.6492  0.4441  0.1360
 6783SOL    HW131982   3.814   4.329   6.128  1.7478  3.3819 -0.4770
 6783SOL    HW231983   3.897   4.371   6.004 -0.1208 -0.1303 -1.8248
 6784SOL     OW31984   1.222   0.155   5.180 -0.4606  0.6795  0.0443
 6784SOL    HW131985   1.241   0.119   5.093  0.3887  1.3353 -0.0423
 6784SOL    HW231986   1.127   0.167   5.178 -0.4229  0.8558 -0.6126
 6785SOL     OW31987   2.578   4.135   6.323 -0.2500 -0.0027 -0.0390
 6785SOL    HW131988   2.483   4.133   6.330 -0.2641  0.0964 -0.2185
 6785SOL    HW231989   2.607   4.043   6.321 -1.0360 -0.2412 -0.3813
 6786SOL     OW31990   1.185   3.464   5.767  0.2798  0.2023  0.2107
 6786SOL    HW131991   1.257   3.435   5.711 -0.9075 -2.2571  0.0024
 6786SOL    HW231992   1.217   3.444   5.855 -0.6248 -2.1250 -0.0135
 6787SOL     OW31993   4.054   1.251   1.309  0.9556 -0.0337 -0.3917
 6787SOL    HW131994   3.984   1.188   1.328 -0.2286  0.8362 -1.8405
 6787SOL    HW231995   4.022   1.335   1.343 -1.3482 -1.1693  0.3021
 6788SOL     OW31996   4.320   4.119   8.339  0.2542 -0.0816 -0.6811
 6788SOL    HW131997   4.335   4.050   8.274 -0.2581  1.2294 -2.1684
 6788SOL    HW231998   4.258   4.079   8.401  0.0922  1.0827 -0.0965
 6789SOL     OW31999   0.819   1.159   8.613 -0.7875  0.4080  0.4994
 6789SOL    HW132000   0.908   1.192   8.599 -1.1796  1.6999  1.0490
 6789SOL    HW232001   0.766   1.238   8.602  0.0049  0.8876  0.1310
 6790SOL     OW32002   0.614   0.947  10.593  0.2837  0.1180  0.4844
 6790SOL    HW132003   0.618   1.043  10.592 -1.5829  0.1906 -0.1684
 6790SOL    HW232004   0.700   0.908  10.608  0.2217  0.0444  0.6536
 6791SOL     OW32005   2.116   2.782  16.141  1.0681 -0.2239 -0.6283
 6791SOL    HW132006   2.049   2.784  16.073 -0.1002  1.1981  0.5593
 6791SOL    HW232007   2.159   2.867  16.132 -0.9867  0.9527  0.6973
 6792SOL     OW32008   1.169   3.634   8.762 -0.7533  0.2342 -0.2507
 6792SOL    HW132009   1.112   3.651   8.688  0.3426  1.0966 -0.8952
 6792SOL    HW232010   1.175   3.712   8.819  0.6460 -0.9545  1.2332
 6793SOL     OW32011   4.065   4.604   8.375  0.0822  0.1810  0.4585
 6793SOL    HW132012   4.115   4.649   8.443 -1.3253 -1.7473  2.7670
 6793SOL    HW232013   4.098   4.514   8.377 -2.2884 -0.6866  0.8062
 6794SOL     OW32014   0.522   2.357   6.393 -0.0489  0.3052 -0.2979
 6794SOL    HW132015   0.438   2.326   6.427  0.5134 -0.7002  0.1930
 6794SOL    HW232016   0.562   2.271   6.377  1.4733  1.5917 -3.2532
 6795SOL     OW32017   3.636   2.782   8.094  0.0837 -0.0387 -0.1025
 6795SOL    HW132018   3.678   2.709   8.139 -1.0314 -0.0574  0.9309
 6795SOL    HW232019   3.569   2.805   8.158 -0.1874 -0.5971 -0.1865
 6796SOL     OW32020   4.297   3.981   8.718  0.0066  0.1225 -0.9575
 6796SOL    HW132021   4.333   3.893   8.727  0.8964  0.5213 -0.6354
 6796SOL    HW232022   4.357   4.030   8.774 -2.3436  1.3340  0.4912
 6797SOL     OW32023   3.134   0.101   5.422  0.3407 -0.1966  0.2821
 6797SOL    HW132024   3.059   0.142   5.465 -1.1607 -0.4177 -2.1523
 6797SOL    HW232025   3.198   0.101   5.493  0.4405 -0.4556  0.1934
 6798SOL     OW32026   4.122   0.823   6.774  0.2240  0.0721 -0.2891
 6798SOL    HW132027   4.077   0.793   6.852 -1.1562  0.8102 -0.8152
 6798SOL    HW232028   4.053   0.840   6.710 -0.0161 -1.1429 -0.3601
 6799SOL     OW32029   2.368   2.795  16.327 -0.5502  0.6887 -0.1928
 6799SOL    HW132030   2.332   2.760  16.409  1.1660  1.1787  0.7726
 6799SOL    HW232031   2.323   2.741  16.262  1.2485 -2.1073  0.8349
 6800SOL     OW32032   1.443   0.722   7.520 -0.6411 -0.0974  0.9250
 6800SOL    HW132033   1.432   0.714   7.426  2.3276 -2.8829  0.8323
 6800SOL    HW232034   1.462   0.815   7.534 -0.8113  0.1650 -0.6079
 6801SOL     OW32035   2.216   0.184   3.832 -0.0436 -0.4289 -0.0425
 6801SOL    HW132036   2.217   0.162   3.925  0.4308  1.7938  0.4938
 6801SOL    HW232037   2.248   0.274   3.842 -0.1160 -0.3687 -0.3371
 6802SOL     OW32038   0.198   4.210   1.891 -0.3676 -0.4529  0.1136
 6802SOL    HW132039   0.268   4.269   1.917 -0.3288 -1.2184  1.7442
 6802SOL    HW232040   0.141   4.275   1.850  2.6476  0.9722 -1.7585
 6803SOL     OW32041   1.574   2.269   3.252 -0.1149 -0.0935 -0.0965
 6803SOL    HW132042   1.516   2.207   3.297 -0.2234  1.2190  1.5567
 6803SOL    HW232043   1.570   2.339   3.317 -0.6729  0.7273 -1.0025
 6804SOL     OW32044   0.197   4.626  17.097 -0.1648  0.4110  0.0886
 6804SOL    HW132045   0.247   4.609  17.177 -0.9002  3.4390  1.2044
 6804SOL    HW232046   0.241   4.703  17.062 -0.2638  0.9338  1.0968
 6805SOL     OW32047   0.375   0.835   2.400  0.3545  0.3212  0.2139
 6805SOL    HW132048   0.388   0.903   2.333 -0.3473  1.0849  0.8426
 6805SOL    HW232049   0.284   0.845   2.430 -0.0270 -1.3308 -0.4506
 6806SOL     OW32050   3.553   1.601   6.415  0.1077 -0.4325 -0.3134
 6806SOL    HW132051   3.589   1.618   6.502 -0.9353  0.4534 -0.0540
 6806SOL    HW232052   3.504   1.681   6.397  0.4354 -0.3701 -0.9431
 6807SOL     OW32053   4.652   4.413  15.831 -0.0704 -0.2637  0.1970
 6807SOL    HW132054   4.689   4.343  15.779  2.6451  0.7375  0.7707
 6807SOL    HW232055   4.558   4.396  15.825  0.0993 -1.2448  0.3659
 6808SOL     OW32056   0.374   0.173   8.517  0.1952 -0.3001  0.0649
 6808SOL    HW132057   0.336   0.261   8.509 -1.2042 -0.9470 -0.4518
 6808SOL    HW232058   0.407   0.157   8.429  2.1570  1.7643  0.4097
 6809SOL     OW32059   0.287   4.539   4.995  0.8247  0.1951 -0.1816
 6809SOL    HW132060   0.231   4.568   5.067 -1.6841  0.6506 -2.3270
 6809SOL    HW232061   0.325   4.459   5.033  1.6491  0.5875 -0.1882
 6810SOL     OW32062   3.208   1.209   7.800  0.0553 -0.9959 -0.0981
 6810SOL    HW132063   3.191   1.263   7.723  0.5780 -0.6855  0.0087
 6810SOL    HW232064   3.266   1.268   7.848  1.6347 -0.3891 -2.7563
 6811SOL     OW32065   2.043   3.933  16.971  0.0340  0.2331  0.3348
 6811SOL    HW132066   1.983   3.889  17.031 -0.6390 -0.5453 -0.9300
 6811SOL    HW232067   2.058   4.013  17.022 -1.7244  0.0596  1.1138
 6812SOL     OW32068   2.490   3.892  16.678 -0.0313  0.3133 -0.6202
 6812SOL    HW132069   2.431   3.829  16.719 -0.8834  2.4498  1.4635
 6812SOL    HW232070   2.425   3.950  16.639  0.1410 -0.0642 -1.4665
 6813SOL     OW32071   4.038   4.654   0.838 -0.3085 -0.5543  0.2363
 6813SOL    HW132072   3.987   4.582   0.800  1.8677 -0.9237 -2.0274
 6813SOL    HW232073   4.130   4.630   0.827 -0.7617 -2.4973  0.6893
 6814SOL     OW32074   2.833   0.405   7.950 -0.2641  0.3337  0.4497
 6814SOL    HW132075   2.912   0.416   7.897 -0.3962  1.4981  0.4762
 6814SOL    HW232076   2.792   0.335   7.900 -2.3644  0.8073  1.4775
 6815SOL     OW32077   2.193   3.078  11.746  0.4294 -0.2258 -0.2263
 6815SOL    HW132078   2.234   3.030  11.818 -1.1057  0.0109  0.8044
 6815SOL    HW232079   2.194   3.018  11.671  1.3793  1.8455 -1.8853
 6816SOL     OW32080   2.617   4.183  17.221 -0.1161 -0.5030 -0.3043
 6816SOL    HW132081   2.623   4.098  17.177 -1.5025 -0.9778  0.4329
 6816SOL    HW232082   2.668   4.165  17.300  0.5370 -1.0399 -0.8549
 6817SOL     OW32083   4.249   1.389   2.374  0.3772 -0.3678  0.3497
 6817SOL    HW132084   4.290   1.420   2.293  0.8256 -2.8655 -0.3835
 6817SOL    HW232085   4.287   1.447   2.440 -0.1911 -0.0345  0.3835
 6818SOL     OW32086   4.068   2.455   6.646 -0.4116  0.7130 -0.2598
 6818SOL    HW132087   4.003   2.388   6.628  1.5308 -0.5901 -2.3479
 6818SOL    HW232088   4.147   2.401   6.650 -0.8258  0.1766  0.6774
 6819SOL     OW32089   1.640   0.882   5.792 -0.1405  0.4494 -0.5725
 6819SOL    HW132090   1.699   0.817   5.828 -2.4616 -1.3358  0.0189
 6819SOL    HW232091   1.638   0.928   5.876 -0.5134  2.3197 -1.5918
 6820SOL     OW32092   1.109   4.100   0.155 -0.0183 -0.2532 -0.2995
 6820SOL    HW132093   1.156   4.119   0.074  0.1496  0.0637 -0.1258
 6820SOL    HW232094   1.023   4.140   0.142 -1.3912 -2.1735  3.0028
 6821SOL     OW32095   2.786   4.125   2.335 -0.6113  0.3084  0.2919
 6821SOL    HW132096   2.728   4.202   2.336 -0.9174  0.0707  0.5539
 6821SOL    HW232097   2.744   4.086   2.411 -0.6455  1.1737  0.7178
 6822SOL     OW32098   4.532   4.288   2.361  0.0666 -0.2140  0.4656
 6822SOL    HW132099   4.589   4.253   2.429 -0.0875 -0.1514  0.6265
 6822SOL    HW232100   4.593   4.354   2.329  0.2599  0.3455  2.0020
 6823SOL     OW32101   4.373   2.539  16.983 -0.3278  0.4361  0.2168
 6823SOL    HW132102   4.452   2.488  16.965 -0.3077  0.8070 -0.7379
 6823SOL    HW232103   4.317   2.523  16.907 -1.0907  1.8930  0.4631
 6824SOL     OW32104   1.165   1.621   3.957  0.3004 -0.1504 -0.3632
 6824SOL    HW132105   1.123   1.642   4.040  1.3702 -0.6383  0.2972
 6824SOL    HW232106   1.145   1.529   3.942 -3.4266  0.5476  0.4561
 6825SOL     OW32107   3.187   2.667  13.220 -0.0801 -0.1335  0.3364
 6825SOL    HW132108   3.211   2.575  13.208 -2.2009 -0.7881  1.0817
 6825SOL    HW232109   3.202   2.697  13.310  2.0569 -1.4132  0.3968
 6826SOL     OW32110   3.838   1.841   4.909 -0.0807 -0.0320  0.3837
 6826SOL    HW132111   3.745   1.827   4.928  0.0887  0.0244  1.2386
 6826SOL    HW232112   3.844   1.936   4.900  1.6667  0.1491  3.5049
 6827SOL     OW32113   4.178   1.678   3.220  0.0585  0.1448  0.1856
 6827SOL    HW132114   4.199   1.587   3.244  2.0223  0.4638 -0.3454
 6827SOL    HW232115   4.137   1.663   3.135 -1.1038  1.1304  0.5754
 6828SOL     OW32116   4.320   3.877   4.543  0.0930 -0.1305  0.2643
 6828SOL    HW132117   4.228   3.859   4.558  0.3212 -1.0385  0.5961
 6828SOL    HW232118   4.355   3.808   4.486  0.5129  0.2397  0.0716
 6829SOL     OW32119   4.447   4.467   8.191 -0.2424 -0.1669  0.4006
 6829SOL    HW132120   4.402   4.534   8.139 -1.9588  0.3299  2.5371
 6829SOL    HW232121   4.525   4.448   8.139 -0.3546 -2.2040  0.9762
 6830SOL     OW32122   0.954   1.650   6.433  0.0090 -0.4914  0.5038
 6830SOL    HW132123   0.966   1.652   6.338 -0.0728 -1.6167  0.4682
 6830SOL    HW232124   0.867   1.691   6.430  1.2075  1.7970 -2.4725
 6831SOL     OW32125   4.444   3.532   7.111 -0.5525  0.2177 -0.2137
 6831SOL    HW132126   4.503   3.578   7.051 -0.7313 -2.3491 -2.3616
 6831SOL    HW232127   4.493   3.507   7.189 -0.3296  1.2012 -0.0287
 6832SOL     OW32128   0.886   3.076  12.782  0.3290  0.5676  0.6875
 6832SOL    HW132129   0.914   3.164  12.806  1.0305  0.1009  1.5267
 6832SOL    HW232130   0.880   3.082  12.686 -1.4751  0.4256  0.7774
 6833SOL     OW32131   3.466   0.706   2.686  0.0181 -0.1365 -0.4502
 6833SOL    HW132132   3.521   0.716   2.609 -0.6273  0.7685 -0.7874
 6833SOL    HW232133   3.381   0.693   2.643  0.1268  1.2887 -1.0650
 6834SOL     OW32134   3.407   3.950  13.858 -0.2227  0.3462  0.0018
 6834SOL    HW132135   3.353   4.026  13.838 -1.3341 -0.8800 -1.6002
 6834SOL    HW232136   3.426   3.958  13.952  0.6798 -1.1559 -0.0597
 6835SOL     OW32137   3.251   1.275   2.087  0.6544  0.2046 -0.4051
 6835SOL    HW132138   3.223   1.363   2.062  0.2733  0.6365  1.5126
 6835SOL    HW232139   3.334   1.282   2.041  0.2661 -1.8817 -1.4148
 6836SOL     OW32140   3.127   4.638   2.543 -0.1449 -0.2293 -0.2393
 6836SOL    HW132141   3.130   4.649   2.638 -1.5147  0.2943 -0.2662
 6836SOL    HW232142   3.059   4.570   2.541  0.8734 -1.2059 -2.0995
 6837SOL     OW32143   0.585   2.926  16.837 -0.0197 -0.4189 -0.2280
 6837SOL    HW132144   0.576   2.908  16.931  0.6669  1.9041  0.2832
 6837SOL    HW232145   0.564   2.841  16.797  0.6413  0.4705 -2.4361
 6838SOL     OW32146   2.322   0.384  16.567 -0.3553  0.1390 -0.1018
 6838SOL    HW132147   2.379   0.446  16.522 -0.7163  1.3241  1.0959
 6838SOL    HW232148   2.362   0.302  16.538 -0.3931 -0.0686  0.4305
 6839SOL     OW32149   3.764   2.756   3.156  0.1028  0.2374 -0.0004
 6839SOL    HW132150   3.832   2.722   3.097  3.1211  2.3571  2.2985
 6839SOL    HW232151   3.727   2.820   3.095 -1.2420 -0.7543 -0.2332
 6840SOL     OW32152   0.209   0.718  14.520 -0.4546  0.0173  0.2195
 6840SOL    HW132153   0.274   0.788  14.518  0.5391 -0.8194  2.8585
 6840SOL    HW232154   0.250   0.655  14.460  1.9966  1.9196 -0.1130
 6841SOL     OW32155   3.641   0.360  13.241 -0.0199  0.1569  0.0903
 6841SOL    HW132156   3.733   0.333  13.238 -0.2213 -0.6956  1.9431
 6841SOL    HW232157   3.604   0.293  13.184  1.8869 -0.0220 -0.9513
 6842SOL     OW32158   0.386   4.714   0.602  0.0128 -0.6327 -0.2021
 6842SOL    HW132159   0.434   4.639   0.636 -1.0018 -0.9862  0.4355
 6842SOL    HW232160   0.348   0.017   0.682  2.9698  1.5499  0.1861
 6843SOL     OW32161   3.630   4.372   8.733  0.1154  0.6457 -0.1709
 6843SOL    HW132162   3.617   4.307   8.802  0.7677 -0.6711 -1.2843
 6843SOL    HW232163   3.726   4.373   8.728 -0.0222  1.2900 -2.7475
 6844SOL     OW32164   3.491   2.007   0.595  0.4992  0.1143  0.4050
 6844SOL    HW132165   3.446   2.031   0.676  1.9727  1.3926  0.8550
 6844SOL    HW232166   3.429   1.942   0.561 -0.9951  0.5620  2.2778
 6845SOL     OW32167   3.127   0.547  14.183 -0.0160  0.0587 -0.3506
 6845SOL    HW132168   3.205   0.498  14.157  0.3845 -0.1798  1.3414
 6845SOL    HW232169   3.064   0.478  14.205  0.7595 -0.0654  1.4076
 6846SOL     OW32170   4.373   3.695  13.431  0.7370 -0.1307  0.3531
 6846SOL    HW132171   4.284   3.663  13.419 -0.1301  2.3565  0.2132
 6846SOL    HW232172   4.348   3.770  13.485 -1.1564 -0.1594 -0.4891
 6847SOL     OW32173   4.062   1.642   8.327  0.3881  0.0713  0.2085
 6847SOL    HW132174   4.062   1.675   8.237  0.5636  2.4735  1.1023
 6847SOL    HW232175   3.977   1.599   8.332 -0.7531  1.9881 -2.8892
 6848SOL     OW32176   0.051   3.608  11.099 -0.0851  0.0027 -0.3414
 6848SOL    HW132177   0.146   3.605  11.097 -0.1227 -0.7654 -0.8362
 6848SOL    HW232178   0.043   3.632  11.192  1.0613 -0.9337 -0.0025
 6849SOL     OW32179   0.143   3.024   2.039  0.4416  0.2860  0.5233
 6849SOL    HW132180   0.068   3.079   2.015  1.2532  0.8014 -0.8794
 6849SOL    HW232181   0.134   3.012   2.133 -0.0915 -1.5029  0.2319
 6850SOL     OW32182   0.032   4.241  13.442 -0.0681 -0.1466  0.1488
 6850SOL    HW132183   4.725   4.155  13.450 -0.6910  0.1544  0.1134
 6850SOL    HW232184   0.108   4.225  13.385 -0.5296  0.1192 -0.5440
 6851SOL     OW32185   2.759   2.503  10.577  0.7385  0.2213 -0.3134
 6851SOL    HW132186   2.698   2.490  10.649  0.7261  2.9890  0.1680
 6851SOL    HW232187   2.723   2.587  10.548  1.0352  0.6695  0.6215
 6852SOL     OW32188   1.378   3.404   4.944 -0.0458  0.3706 -0.6508
 6852SOL    HW132189   1.410   3.370   4.860  1.5835  1.2429 -0.3847
 6852SOL    HW232190   1.296   3.360   4.965 -0.0600  0.7827  0.1496
 6853SOL     OW32191   1.998   1.182   4.135 -0.5094 -0.2785  0.1415
 6853SOL    HW132192   1.988   1.277   4.122  1.9304  0.0431  0.5477
 6853SOL    HW232193   1.954   1.167   4.218 -0.1444  0.2001  0.4291
 6854SOL     OW32194   4.470   2.512   6.097 -0.0260  0.3272  0.6033
 6854SOL    HW132195   4.488   2.605   6.085  0.3291  0.0763 -0.7916
 6854SOL    HW232196   4.385   2.504   6.053  0.9145 -0.4246 -1.0551
 6855SOL     OW32197   3.511   2.603  13.771  0.0680  0.4340 -0.1538
 6855SOL    HW132198   3.524   2.524  13.823 -3.4499 -0.9943 -1.4397
 6855SOL    HW232199   3.446   2.651  13.823  0.1715  1.4903 -0.9887
 6856SOL     OW32200   0.070   0.521  12.516  0.2793 -0.4804  0.3548
 6856SOL    HW132201   0.073   0.431  12.549 -0.9420 -0.9557 -0.8773
 6856SOL    HW232202   0.131   0.570  12.572  1.8968 -0.2609 -1.6166
 6857SOL     OW32203   1.346   4.420   4.502  0.2394 -0.2397 -0.1840
 6857SOL    HW132204   1.334   4.406   4.408 -0.9328  2.4569 -0.4249
 6857SOL    HW232205   1.314   4.339   4.542  1.9622 -0.8536 -0.0545
 6858SOL     OW32206   4.010   2.015  17.414  0.0289 -0.2778  0.0379
 6858SOL    HW132207   4.068   1.961  17.467  0.0801 -0.1128  0.1498
 6858SOL    HW232208   3.925   1.988  17.450 -0.7709  2.0927 -0.0995
 6859SOL     OW32209   0.929   0.124   0.036 -0.6725  0.1937  0.2365
 6859SOL    HW132210   1.014   0.113  17.730 -0.8780  0.2484 -0.1845
 6859SOL    HW232211   0.869   0.136  17.699 -2.6634 -0.5175  1.7371
 6860SOL     OW32212   0.376   1.790  13.309 -0.1354  0.2362  0.0248
 6860SOL    HW132213   0.413   1.714  13.355  1.4360  0.8670 -0.2032
 6860SOL    HW232214   0.445   1.852  13.329  2.5388 -2.1754 -1.6736
 6861SOL     OW32215   1.236   0.883   3.553 -0.0696 -0.2635  0.1234
 6861SOL    HW132216   1.145   0.894   3.526  0.1050  2.4046  0.6658
 6861SOL    HW232217   1.254   0.967   3.595  0.7650  0.2554 -1.2571
 6862SOL     OW32218   2.161   2.299   8.444 -0.3900  0.1085  0.2075
 6862SOL    HW132219   2.200   2.381   8.416 -2.4996  1.2640  0.6225
 6862SOL    HW232220   2.225   2.276   8.511  1.9328 -0.8753 -2.3587
 6863SOL     OW32221   3.634   4.188   8.936  0.1153  0.2338 -0.1185
 6863SOL    HW132222   3.693   4.247   8.984  2.5416 -3.0227  0.8455
 6863SOL    HW232223   3.677   4.104   8.951  0.5034 -0.0263 -2.8172
 6864SOL     OW32224   3.779   3.416   3.755  0.1284 -0.2529  0.0563
 6864SOL    HW132225   3.777   3.457   3.841  3.1048  0.9336 -0.4134
 6864SOL    HW232226   3.703   3.461   3.718 -0.8964 -1.2323  0.9735
 6865SOL     OW32227   0.895   0.132   3.106  0.6617  0.2296 -0.1537
 6865SOL    HW132228   0.980   0.174   3.120 -0.4313  1.9241  1.3879
 6865SOL    HW232229   0.905   0.038   3.115 -0.5991  0.0272 -0.8422
 6866SOL     OW32230   2.842   2.125   6.479 -0.6493 -0.5468  0.3888
 6866SOL    HW132231   2.786   2.150   6.552 -1.9634 -2.0029 -0.1185
 6866SOL    HW232232   2.784   2.057   6.444  1.1785 -3.1765  2.4727
 6867SOL     OW32233   2.513   2.585   7.952 -0.2726 -0.3269  0.6657
 6867SOL    HW132234   2.577   2.631   7.897 -0.4390 -1.8737 -0.8441
 6867SOL    HW232235   2.507   2.648   8.024 -0.7590 -1.5067  1.6498
 6868SOL     OW32236   4.621   0.436   5.738 -0.2474  0.3386  0.4344
 6868SOL    HW132237   4.533   0.459   5.709 -0.3668 -0.9806 -0.2663
 6868SOL    HW232238   4.606   0.362   5.797  0.1293  1.6302  2.1353
 6869SOL     OW32239   3.395   2.709  13.455 -0.1370 -0.1398  0.0938
 6869SOL    HW132240   3.465   2.766  13.487  0.7004 -1.4093  0.4915
 6869SOL    HW232241   3.445   2.651  13.397  0.9655  0.8279  0.0810
 6870SOL     OW32242   4.361   2.300   5.839  0.0535 -0.3434 -0.1132
 6870SOL    HW132243   4.359   2.292   5.934 -2.3809 -0.3032 -0.1638
 6870SOL    HW232244   4.323   2.217   5.812 -1.8482  0.7094 -0.6699
 6871SOL     OW32245   2.983   0.780  11.157 -0.0706 -0.2202 -0.0325
 6871SOL    HW132246   3.049   0.782  11.088  2.2106 -2.5173  2.0898
 6871SOL    HW232247   3.044   0.769  11.229 -0.1665  0.6965  0.1862
 6872SOL     OW32248   1.999   3.880   4.614  0.0937  0.5257 -0.2164
 6872SOL    HW132249   1.992   3.893   4.709 -1.2097  0.8025 -0.3407
 6872SOL    HW232250   1.931   3.946   4.599  1.9717  2.5913  0.4138
 6873SOL     OW32251   1.899   0.355  17.502  0.1828 -0.9458  0.0190
 6873SOL    HW132252   1.940   0.289  17.446 -1.9474 -2.2403 -0.0125
 6873SOL    HW232253   1.961   0.361  17.575 -1.3758 -1.6849  1.3998
 6874SOL     OW32254   0.465   0.754   4.922 -0.4481  0.4999 -0.2464
 6874SOL    HW132255   0.406   0.785   4.991  1.4888  0.7077  1.3231
 6874SOL    HW232256   0.508   0.677   4.960  0.9673 -0.2389 -3.3579
 6875SOL     OW32257   1.212   2.245  10.599  0.7370  0.2671  0.0477
 6875SOL    HW132258   1.174   2.331  10.617 -0.0614  0.3073 -1.8278
 6875SOL    HW232259   1.196   2.242  10.504  2.4675  0.4974 -0.2524
 6876SOL     OW32260   0.705   1.566   7.998 -0.1232  0.3284  0.2676
 6876SOL    HW132261   0.660   1.560   8.082 -2.5331  0.5543 -1.0141
 6876SOL    HW232262   0.634   1.591   7.939 -1.1778 -2.1899  0.4794
 6877SOL     OW32263   0.833   2.554   2.412 -0.5290 -0.3024  1.0097
 6877SOL    HW132264   0.829   2.518   2.501 -0.4165 -0.0316  1.1243
 6877SOL    HW232265   0.902   2.497   2.379 -0.6641  0.2200 -0.1673
 6878SOL     OW32266   0.874   3.987   4.239 -0.4100  0.0951  0.4567
 6878SOL    HW132267   0.951   3.968   4.185 -1.0588  0.0988 -0.4833
 6878SOL    HW232268   0.851   3.900   4.271  0.1753 -0.1521  0.2143
 6879SOL     OW32269   0.400   4.638   8.559 -0.6709  0.7509  0.2450
 6879SOL    HW132270   0.334   4.617   8.625 -0.3219 -0.4807  0.2104
 6879SOL    HW232271   0.367   4.725   8.537  0.6338  0.9676 -0.8626
 6880SOL     OW32272   0.248   0.422   2.204  0.5459  0.3839 -0.1075
 6880SOL    HW132273   0.289   0.507   2.186  0.4646 -0.0326 -2.3443
 6880SOL    HW232274   0.163   0.438   2.162 -0.7316 -0.4358  2.2159
 6881SOL     OW32275   0.747   0.727   9.765  0.3152 -0.3081 -0.3231
 6881SOL    HW132276   0.825   0.764   9.805 -0.8244 -0.0356  1.6165
 6881SOL    HW232277   0.778   0.660   9.704 -0.8253 -1.6120  0.5377
 6882SOL     OW32278   2.886   2.410   5.102  0.1236 -0.3667 -0.3390
 6882SOL    HW132279   2.831   2.442   5.030  1.7577 -0.3173 -1.5564
 6882SOL    HW232280   2.848   2.461   5.173 -0.6100 -1.2934 -0.0613
 6883SOL     OW32281   4.146   1.108   5.272  0.3706 -0.2053 -0.3510
 6883SOL    HW132282   4.061   1.098   5.230  1.2535 -0.3547 -2.0856
 6883SOL    HW232283   4.200   1.142   5.200  1.0354  0.9044  0.6566
 6884SOL     OW32284   4.682   1.556   5.308 -0.5117  0.1718 -0.2811
 6884SOL    HW132285   4.726   1.483   5.265  0.2265  0.1351  0.5254
 6884SOL    HW232286   4.630   1.509   5.373  1.9748  0.1017  1.6687
 6885SOL     OW32287   2.344   0.819   1.846  0.2030  0.3026  0.5167
 6885SOL    HW132288   2.267   0.840   1.899 -0.0728 -0.5889  0.4739
 6885SOL    HW232289   2.319   0.729   1.825  1.1794 -0.2958  1.9047
 6886SOL     OW32290   0.362   2.405   7.808  0.0333  0.3081 -0.2966
 6886SOL    HW132291   0.379   2.311   7.798  2.0090  0.6826 -0.4435
 6886SOL    HW232292   0.391   2.433   7.722  1.1293 -1.5199 -0.5190
 6887SOL     OW32293   3.287   2.657   3.339 -0.2145  0.3975  0.3375
 6887SOL    HW132294   3.333   2.576   3.319 -1.1296  0.6059 -2.6073
 6887SOL    HW232295   3.337   2.679   3.417 -0.0258  1.5560 -0.1122
 6888SOL     OW32296   0.043   0.532  14.589  0.0830  0.5111  0.3077
 6888SOL    HW132297   4.711   0.595  14.562 -0.0605  0.4256  0.4647
 6888SOL    HW232298   0.110   0.600  14.582  1.4646 -0.7336  1.5336
 6889SOL     OW32299   3.848   3.130   5.858  0.3474  0.4417  0.0919
 6889SOL    HW132300   3.831   3.069   5.786  0.5247 -0.2573  0.6378
 6889SOL    HW232301   3.864   3.075   5.935 -0.8271 -0.9430 -0.6426
 6890SOL     OW32302   4.186   4.008  16.969  0.1677  0.1703 -0.6455
 6890SOL    HW132303   4.119   4.006  16.902  0.2712  1.0948 -0.7712
 6890SOL    HW232304   4.239   3.931  16.946 -1.1809 -1.7130  2.5959
 6891SOL     OW32305   0.323   4.601   8.962 -0.2725 -0.3025  0.4374
 6891SOL    HW132306   0.243   4.559   8.929  0.0706 -0.4784 -0.1739
 6891SOL    HW232307   0.318   4.678   8.904 -0.3506 -1.3369 -0.9337
 6892SOL     OW32308   3.830   4.733   0.278  0.2160  0.1898  0.4382
 6892SOL    HW132309   3.886   0.055   0.332  0.5470  0.9194 -0.6562
 6892SOL    HW232310   3.849   0.051   0.200 -2.2356  0.3029 -0.0726
 6893SOL     OW32311   4.581   3.250   7.540 -0.1726 -0.2285  0.2691
 6893SOL    HW132312   4.598   3.156   7.550 -1.5861 -0.2743  2.2598
 6893SOL    HW232313   4.667   3.270   7.503 -1.2870 -0.4097 -2.3403
 6894SOL     OW32314   1.807   3.740  16.839  0.7535  0.1405 -0.1007
 6894SOL    HW132315   1.769   3.762  16.755  1.6269  2.0151 -0.0079
 6894SOL    HW232316   1.733   3.771  16.890  0.5577 -1.1838  0.4389
 6895SOL     OW32317   4.202   0.470  17.575 -0.8227 -0.3954 -0.6478
 6895SOL    HW132318   4.244   0.386  17.591 -1.9469 -1.1717 -1.7283
 6895SOL    HW232319   4.163   0.455  17.489 -1.7689 -1.7038  0.0062
 6896SOL     OW32320   2.885   1.550   0.969 -0.7564  0.1753 -0.5220
 6896SOL    HW132321   2.959   1.507   1.012  0.1750  2.5895  0.3132
 6896SOL    HW232322   2.815   1.521   1.026 -1.3577  2.2737 -0.1860
 6897SOL     OW32323   4.580   3.337  16.125  0.1312  0.0219 -0.3916
 6897SOL    HW132324   4.535   3.267  16.078 -0.0086 -0.2768  0.1943
 6897SOL    HW232325   4.572   3.293  16.209  0.3293 -0.9534 -0.8867
 6898SOL     OW32326   2.532   1.236   5.778 -0.2783  0.3416 -0.2563
 6898SOL    HW132327   2.489   1.279   5.704 -0.7085  1.8820  0.8795
 6898SOL    HW232328   2.519   1.296   5.852  0.8211 -2.1903  2.0103
 6899SOL     OW32329   4.501   0.041  10.809 -0.2066 -0.6047 -0.1789
 6899SOL    HW132330   4.591   0.074  10.816 -0.3631  0.1097 -1.5371
 6899SOL    HW232331   4.515   4.685  10.781  1.1223 -0.2034 -0.8315
 6900SOL     OW32332   0.070   0.730   0.933  0.2433  0.0979  0.2003
 6900SOL    HW132333   4.725   0.677   0.927  0.7859 -0.6898 -0.0231
 6900SOL    HW232334   0.115   0.695   0.856  3.0603 -0.8030  2.2559
 6901SOL     OW32335   3.342   1.442   1.360  0.0687  0.2225 -0.3764
 6901SOL    HW132336   3.389   1.360   1.371  0.4492  0.2175 -2.1381
 6901SOL    HW232337   3.413   1.494   1.323  0.4778  0.6275  0.9709
 6902SOL     OW32338   3.838   1.822   5.917  0.3963 -0.4615 -0.6541
 6902SOL    HW132339   3.860   1.914   5.933 -1.4490 -0.4133  1.6049
 6902SOL    HW232340   3.816   1.828   5.824 -1.0962 -0.9135 -0.3270
 6903SOL     OW32341   2.984   3.870   1.714  0.3337 -0.0554  0.2615
 6903SOL    HW132342   2.980   3.933   1.785 -1.3449 -0.9838  0.9783
 6903SOL    HW232343   3.007   3.931   1.644 -0.0089  0.3314  0.4934
 6904SOL     OW32344   2.812   0.510   9.630 -0.0169  0.1258  0.2293
 6904SOL    HW132345   2.725   0.541   9.657  0.0578  0.0246  0.5812
 6904SOL    HW232346   2.786   0.426   9.593  0.3659  1.1510 -2.3712
 6905SOL     OW32347   0.989   1.824   5.362  0.0654  0.8158  0.0713
 6905SOL    HW132348   1.067   1.865   5.326 -1.0262  2.7766 -0.0725
 6905SOL    HW232349   0.922   1.890   5.341 -0.5506 -0.6280 -2.4903
 6906SOL     OW32350   1.212   2.971  10.757 -0.6501 -0.2184  0.3987
 6906SOL    HW132351   1.279   3.024  10.714 -1.2642  2.5224  2.8603
 6906SOL    HW232352   1.241   2.928  10.837 -2.2489 -0.1255  1.0349
 6907SOL     OW32353   0.256   0.301   6.535 -0.3107  0.2485 -0.3537
 6907SOL    HW132354   0.174   0.326   6.577 -0.0810 -0.8345  0.7361
 6907SOL    HW232355   0.240   0.333   6.447 -1.3872 -2.8293 -1.2726
 6908SOL     OW32356   1.308   3.684   4.017 -0.4823 -0.3458 -0.1217
 6908SOL    HW132357   1.371   3.630   4.065 -0.3809  0.8284  1.0643
 6908SOL    HW232358   1.228   3.670   4.068 -0.6538 -1.2387 -0.6372
 6909SOL     OW32359   2.837   4.402   8.960  0.2471 -0.6862  0.4394
 6909SOL    HW132360   2.915   4.365   8.918 -0.0964 -1.0444  0.1214
 6909SOL    HW232361   2.782   4.391   8.882  2.2985  1.4733 -1.3310
 6910SOL     OW32362   4.597   3.587   3.546  0.1939 -0.4693  0.2364
 6910SOL    HW132363   4.622   3.671   3.506  2.2118 -0.2722  1.9115
 6910SOL    HW232364   4.601   3.521   3.477 -1.8793  0.1468 -0.4967
 6911SOL     OW32365   0.242   0.669   3.326 -0.2064 -0.1509  0.5606
 6911SOL    HW132366   0.147   0.677   3.333 -0.4137 -3.2593  1.4172
 6911SOL    HW232367   0.254   0.678   3.231  1.1211  0.4999  0.7995
 6912SOL     OW32368   1.797   2.551  14.222 -0.0125 -0.2331 -0.1737
 6912SOL    HW132369   1.870   2.507  14.266  0.8330  1.0710 -0.2691
 6912SOL    HW232370   1.852   2.616  14.178 -0.5642 -0.1126 -0.6975
 6913SOL     OW32371   0.929   0.114   6.325 -0.1543 -0.2391 -0.3877
 6913SOL    HW132372   0.842   0.078   6.307 -0.2943  0.5251 -1.1841
 6913SOL    HW232373   0.990   0.053   6.285 -2.3935 -2.7017 -0.0574
 6914SOL     OW32374   0.248   3.610   9.579  0.3674  0.2379 -0.1121
 6914SOL    HW132375   0.224   3.541   9.517  2.1166  0.4069 -0.9882
 6914SOL    HW232376   0.295   3.572   9.653  0.9318  0.9140 -0.1157
 6915SOL     OW32377   0.122   1.293  12.669  0.1435 -0.1140  0.5652
 6915SOL    HW132378   0.214   1.267  12.667 -0.1357 -0.9460 -1.3211
 6915SOL    HW232379   0.129   1.387  12.685  0.9946 -0.0807 -0.0439
 6916SOL     OW32380   0.176   0.436   4.528 -0.9924  0.3987 -0.2085
 6916SOL    HW132381   0.081   0.438   4.536 -0.8522  2.2689  1.1133
 6916SOL    HW232382   0.204   0.349   4.498  0.4022  0.1885  1.6954
 6917SOL     OW32383   3.503   3.508  10.874  0.6746  0.1789  0.0870
 6917SOL    HW132384   3.511   3.492  10.968  0.7714  1.7777  0.3541
 6917SOL    HW232385   3.416   3.479  10.846  1.1752 -1.2601  0.0142
 6918SOL     OW32386   0.549   3.841  11.361  0.1267  0.3744 -0.5579
 6918SOL    HW132387   0.548   3.838  11.265  1.2254  1.8889 -0.6076
 6918SOL    HW232388   0.580   3.752  11.379 -0.4344  0.8442  2.6262
 6919SOL     OW32389   3.585   2.708   6.360  0.2652 -0.1626  0.3358
 6919SOL    HW132390   3.582   2.700   6.456 -0.5453 -1.0137  0.2428
 6919SOL    HW232391   3.510   2.659   6.326  1.0579 -1.9776  1.1973
 6920SOL     OW32392   0.740   1.978   6.014 -0.0118 -0.4333 -0.1870
 6920SOL    HW132393   0.670   1.929   6.056  0.2369 -0.1984  0.5036
 6920SOL    HW232394   0.684   2.036   5.962  1.7665  1.1573 -0.3156
 6921SOL     OW32395   0.060   4.457   3.929 -0.0199  0.1292  0.6198
 6921SOL    HW132396   0.112   4.428   4.005 -0.8824 -0.7759  0.8610
 6921SOL    HW232397   0.020   4.378   3.893 -0.0713 -0.3329  1.6760
 6922SOL     OW32398   2.437   2.173  14.467 -0.5440  0.2525  0.6279
 6922SOL    HW132399   2.429   2.088  14.424  0.2897  0.4331  0.1063
 6922SOL    HW232400   2.525   2.196  14.437 -0.8401 -0.5164 -0.8156
 6923SOL     OW32401   4.503   2.715   5.474 -0.2865  0.0322  0.0346
 6923SOL    HW132402   4.490   2.754   5.387  2.2263  0.6228 -0.0955
 6923SOL    HW232403   4.426   2.669   5.505 -1.2018  1.6076  0.0989
 6924SOL     OW32404   2.890   3.368   9.948 -0.0178 -0.4825  0.4183
 6924SOL    HW132405   2.902   3.358  10.042 -2.2224  0.2113  0.7774
 6924SOL    HW232406   2.880   3.463   9.954  2.0309 -0.2569  0.3057
 6925SOL     OW32407   2.198   4.481   3.168  0.0384  0.8318  0.3091
 6925SOL    HW132408   2.198   4.436   3.253 -1.0868 -2.4600 -1.4639
 6925SOL    HW232409   2.216   4.405   3.114  1.8996  0.8729  0.8609
 6926SOL     OW32410   2.159   4.463   1.867  0.0895  0.1406 -0.1062
 6926SOL    HW132411   2.252   4.444   1.859 -0.0899  0.0585 -2.1936
 6926SOL    HW232412   2.116   4.389   1.822 -0.0851 -0.7310  1.5065
 6927SOL     OW32413   3.535   2.989   6.311  0.1010  0.1004  0.7162
 6927SOL    HW132414   3.469   3.029   6.368 -1.2383 -0.3509 -0.5283
 6927SOL    HW232415   3.554   2.914   6.368 -0.6863 -0.8538 -0.2923
 6928SOL     OW32416   2.694   3.422  12.744  0.2198  0.2969  0.0426
 6928SOL    HW132417   2.621   3.374  12.783  0.8831 -0.7714 -0.0010
 6928SOL    HW232418   2.663   3.474  12.670 -1.4867 -0.6301  0.1049
 6929SOL     OW32419   2.677   1.441   1.616  0.2866  0.1642  0.1196
 6929SOL    HW132420   2.716   1.407   1.536 -0.7327  0.5175 -0.5364
 6929SOL    HW232421   2.735   1.513   1.639  0.0252 -0.8788  4.0813
 6930SOL     OW32422   2.965   3.424   6.632 -0.5346  0.6142 -0.3542
 6930SOL    HW132423   2.903   3.495   6.609 -0.5178  1.0557  0.9642
 6930SOL    HW232424   2.922   3.349   6.590 -3.7160  1.1436  1.9063
 6931SOL     OW32425   0.126   1.484   7.122  0.2891 -0.0492 -0.1207
 6931SOL    HW132426   0.070   1.537   7.179  0.1053 -0.9283  0.5112
 6931SOL    HW232427   0.072   1.410   7.095  0.3318 -0.3081  0.5157
 6932SOL     OW32428   2.811   4.479  12.093 -0.2645  0.2086 -0.3947
 6932SOL    HW132429   2.794   4.433  12.011 -0.8299 -0.4001  0.0606
 6932SOL    HW232430   2.904   4.458  12.097 -0.0584  0.9795 -1.2824
 6933SOL     OW32431   1.103   2.480   4.047 -0.3978  0.8687 -0.5930
 6933SOL    HW132432   1.103   2.498   4.141  0.9465 -1.0647 -0.2387
 6933SOL    HW232433   1.185   2.431   4.040 -1.0885 -0.8314  3.2913
 6934SOL     OW32434   1.094   3.408   3.871  0.0208 -0.3395 -0.1871
 6934SOL    HW132435   1.178   3.385   3.832  1.3343  3.0596  0.6956
 6934SOL    HW232436   1.040   3.331   3.851 -1.3849  0.7314 -0.5248
 6935SOL     OW32437   3.962   1.462   3.166  0.6334 -0.0918  0.1701
 6935SOL    HW132438   3.905   1.422   3.101 -0.4023  0.2958  0.8378
 6935SOL    HW232439   4.024   1.389   3.172 -0.8597 -1.2831  1.3405
 6936SOL     OW32440   2.119   2.894   6.662 -0.5873  0.1308  0.6625
 6936SOL    HW132441   2.194   2.845   6.693 -0.6296 -1.0478 -1.0869
 6936SOL    HW232442   2.067   2.820   6.630  1.7663 -1.1424 -0.1674
 6937SOL     OW32443   4.508   1.171  11.696  0.3336  0.4804 -0.0479
 6937SOL    HW132444   4.533   1.204  11.610  0.7572  0.0667 -0.0824
 6937SOL    HW232445   4.443   1.104  11.675 -0.0165  1.5926 -2.5392
 6938SOL     OW32446   0.981   1.123   8.935 -0.1492  0.0807  0.6581
 6938SOL    HW132447   0.992   1.214   8.964  3.3741  0.2437 -1.1515
 6938SOL    HW232448   1.043   1.123   8.862 -1.4811 -1.5524 -0.4519
 6939SOL     OW32449   4.624   3.711   3.916 -0.0590 -0.4693 -0.8014
 6939SOL    HW132450   4.591   3.631   3.957  0.5514 -0.9450 -1.2221
 6939SOL    HW232451   4.561   3.721   3.845 -0.1132 -2.0377 -0.9779
 6940SOL     OW32452   0.084   1.754  17.525 -0.0333  0.1618  0.6687
 6940SOL    HW132453   0.039   1.818  17.469 -0.4689 -1.1714 -0.5347
 6940SOL    HW232454   0.009   1.700  17.552  0.2188  0.0010  1.0439
 6941SOL     OW32455   3.672   0.365   3.185 -0.3193  0.2582 -0.4028
 6941SOL    HW132456   3.602   0.424   3.211  0.1143  0.4445  0.3651
 6941SOL    HW232457   3.666   0.295   3.250  0.4983 -0.0334 -0.6346
 6942SOL     OW32458   4.166   1.278   3.151  0.3406 -0.4890  0.0591
 6942SOL    HW132459   4.239   1.295   3.211  0.6012  0.4898 -0.5314
 6942SOL    HW232460   4.194   1.199   3.106  0.9186  0.0789 -0.5709
 6943SOL     OW32461   4.424   2.223   3.955  0.1144 -0.0170 -0.1838
 6943SOL    HW132462   4.485   2.154   3.980 -1.2228 -1.0280  0.2458
 6943SOL    HW232463   4.485   2.295   3.942  1.0661 -0.4404  2.0264
 6944SOL     OW32464   0.597   4.084   9.712  0.6091  0.5869 -0.2612
 6944SOL    HW132465   0.618   4.174   9.687 -1.4883  1.4852  1.2113
 6944SOL    HW232466   0.502   4.079   9.710  0.5439  2.1052 -1.2319
 6945SOL     OW32467   2.003   0.696   7.995 -0.4059  0.0879  0.2307
 6945SOL    HW132468   1.991   0.701   8.090  0.2661 -0.6500  0.3571
 6945SOL    HW232469   1.917   0.664   7.965 -0.2522  0.1045 -0.2208
 6946SOL     OW32470   2.606   0.800   3.976 -0.3826 -0.5611  0.5480
 6946SOL    HW132471   2.531   0.826   4.029  0.2561  1.4607  0.4738
 6946SOL    HW232472   2.625   0.888   3.941  0.4395 -0.8284  0.3153
 6947SOL     OW32473   2.397   2.974   3.545 -0.2667 -0.0464 -0.3280
 6947SOL    HW132474   2.305   2.997   3.534 -0.4825  0.2517  2.1000
 6947SOL    HW232475   2.397   2.882   3.519  0.2686 -0.0527 -0.3205
 6948SOL     OW32476   3.859   4.207   8.162  0.5650  0.0822  0.0607
 6948SOL    HW132477   3.824   4.256   8.088 -0.6738 -1.2799 -0.2619
 6948SOL    HW232478   3.798   4.227   8.234 -0.2246  1.3297 -0.9622
 6949SOL     OW32479   3.713   3.908   0.110  0.6378  0.2557  0.0161
 6949SOL    HW132480   3.692   3.845   0.179 -0.4701 -0.6576 -1.1596
 6949SOL    HW232481   3.807   3.894   0.097  0.4844 -0.7399 -0.0156
 6950SOL     OW32482   3.117   3.584   7.087 -0.6650  0.5892 -0.1627
 6950SOL    HW132483   3.194   3.619   7.041  0.6647 -0.5825  1.1415
 6950SOL    HW232484   3.091   3.531   7.013  0.8790 -1.5332  0.8131
 6951SOL     OW32485   3.124   2.819   6.896  0.1314  0.5793 -0.4150
 6951SOL    HW132486   3.032   2.813   6.922 -0.3120 -2.4328 -2.7125
 6951SOL    HW232487   3.119   2.865   6.812 -1.4133 -0.3512 -0.8226
 6952SOL     OW32488   3.714   4.274  14.257  0.0710 -0.1861  0.0684
 6952SOL    HW132489   3.646   4.275  14.190 -0.3137  1.8188  0.4873
 6952SOL    HW232490   3.792   4.260  14.203  0.8772  0.7130  1.0147
 6953SOL     OW32491   1.560   3.318   8.752 -0.5940  0.5894  0.3628
 6953SOL    HW132492   1.644   3.340   8.792 -0.6935 -0.1411  0.9683
 6953SOL    HW232493   1.513   3.288   8.830 -2.5798  3.0013  0.1027
 6954SOL     OW32494   2.781   4.578   6.035  0.3675  0.0899  0.1236
 6954SOL    HW132495   2.759   4.649   5.975  2.0664 -0.9326 -1.7438
 6954SOL    HW232496   2.788   4.502   5.977 -0.2960  1.6993 -2.0265
 6955SOL     OW32497   3.929   1.286   8.560  0.1314 -0.2623 -0.7062
 6955SOL    HW132498   3.915   1.324   8.473  0.1481 -0.2256 -0.6929
 6955SOL    HW232499   3.925   1.368   8.609 -1.1531 -0.7224 -0.0401
 6956SOL     OW32500   3.375   2.119   8.661  0.2328  0.8901 -0.1271
 6956SOL    HW132501   3.325   2.169   8.597 -0.8272  1.8926  1.4561
 6956SOL    HW232502   3.348   2.030   8.640  3.0895  0.2231 -0.8805
 6957SOL     OW32503   0.198   4.668   7.452 -0.2266  0.0285  0.4031
 6957SOL    HW132504   0.158   0.001   7.506  1.7202  0.7832  0.8769
 6957SOL    HW232505   0.137   4.599   7.479  0.4572 -0.9629 -0.5613
 6958SOL     OW32506   0.705   2.480   4.406  0.0951 -0.1229  0.8213
 6958SOL    HW132507   0.759   2.546   4.452 -1.0032  2.4394 -1.5754
 6958SOL    HW232508   0.744   2.410   4.458  1.0391  0.6143  1.1354
 6959SOL     OW32509   4.046   1.993   5.433  0.4642  0.0487 -0.5475
 6959SOL    HW132510   4.070   1.957   5.348  0.9797 -2.0165  0.4734
 6959SOL    HW232511   4.001   2.069   5.396  0.6706  0.1848 -0.5190
 6960SOL     OW32512   2.798   2.456   3.742 -0.0115  0.1912 -0.6518
 6960SOL    HW132513   2.857   2.531   3.738 -1.1300  1.0533 -0.7576
 6960SOL    HW232514   2.825   2.425   3.828  0.8429 -1.8755 -1.6602
 6961SOL     OW32515   0.469   2.258   2.823 -0.0765  0.0374 -0.5118
 6961SOL    HW132516   0.431   2.310   2.894  1.8420 -0.8470  1.1577
 6961SOL    HW232517   0.424   2.301   2.750 -1.6506 -0.9417 -0.1132
 6962SOL     OW32518   3.981   2.481  14.374 -0.2810 -0.2763 -0.1751
 6962SOL    HW132519   3.977   2.477  14.278 -0.5237  0.2175 -0.1889
 6962SOL    HW232520   3.933   2.401  14.390 -1.5357  0.2016 -1.6146
 6963SOL     OW32521   2.643   0.827   4.336 -0.1229 -0.2724  0.0896
 6963SOL    HW132522   2.737   0.817   4.322  0.1622  2.9100 -0.1664
 6963SOL    HW232523   2.631   0.904   4.392  0.9232 -0.1790  0.1792
 6964SOL     OW32524   3.059   0.872   0.941 -0.9874  0.0281 -0.6023
 6964SOL    HW132525   3.018   0.954   0.969 -0.5446 -0.9262  2.8195
 6964SOL    HW232526   3.116   0.900   0.869  0.3230 -2.1161 -0.4029
 6965SOL     OW32527   2.660   0.062   7.559 -0.5354 -0.0737 -0.2798
 6965SOL    HW132528   2.753   0.055   7.539 -0.5962 -2.9935  0.4500
 6965SOL    HW232529   2.655   0.122   7.634 -1.4144  0.9189 -1.1215
 6966SOL     OW32530   4.269   2.462   2.709 -0.2865  0.7903 -0.4114
 6966SOL    HW132531   4.211   2.480   2.783 -2.3566 -1.1778 -1.5478
 6966SOL    HW232532   4.349   2.483   2.756 -0.5814  0.5611  0.1894
 6967SOL     OW32533   1.385   2.693  17.249 -0.2994  0.0299  0.2042
 6967SOL    HW132534   1.373   2.785  17.225 -2.2442 -0.7702 -1.8706
 6967SOL    HW232535   1.439   2.699  17.328  0.1174 -0.0805 -0.0747
 6968SOL     OW32536   4.448   1.164   2.074  0.3812 -0.6370 -0.3031
 6968SOL    HW132537   4.447   1.254   2.106  2.8984 -0.4204 -0.8829
 6968SOL    HW232538   4.518   1.171   2.009 -2.0187 -1.5887 -2.9699
 6969SOL     OW32539   3.254   3.552  10.222  1.0622 -0.2049 -0.4920
 6969SOL    HW132540   3.218   3.508  10.146 -0.8426 -0.6040  0.6344
 6969SOL    HW232541   3.195   3.510  10.285  0.2645 -1.1183 -1.8534
 6970SOL     OW32542   1.287   0.824   6.159  1.0098  0.1968 -0.2285
 6970SOL    HW132543   1.340   0.800   6.235 -1.7740 -0.4711  1.4735
 6970SOL    HW232544   1.329   0.768   6.093  2.1363  0.1107  0.5519
 6971SOL     OW32545   0.964   0.109  12.167  0.5864  0.0273  0.2832
 6971SOL    HW132546   1.044   0.116  12.220  0.1085 -1.5933  1.2003
 6971SOL    HW232547   0.922   0.194  12.178 -0.8114 -0.3853 -1.8458
 6972SOL     OW32548   0.673   4.580   4.191 -0.1563 -1.0579  0.0221
 6972SOL    HW132549   0.667   4.496   4.146 -0.0682 -0.3345 -1.3265
 6972SOL    HW232550   0.583   4.602   4.216  0.5960  0.4834  1.3734
 6973SOL     OW32551   1.768   3.985   5.398  0.4497 -0.5451  0.3928
 6973SOL    HW132552   1.760   3.917   5.464  4.4972  1.0801  2.5158
 6973SOL    HW232553   1.749   4.066   5.446  1.3380 -0.6219  0.8712
 6974SOL     OW32554   2.068   0.495   1.395  0.5319 -0.1814 -0.2671
 6974SOL    HW132555   1.980   0.531   1.397  0.9873  0.8361  1.8455
 6974SOL    HW232556   2.065   0.443   1.475 -2.9347 -0.0543 -0.3511
 6975SOL     OW32557   2.303   0.974  11.355  0.6838 -0.4248  0.3298
 6975SOL    HW132558   2.259   1.047  11.312  1.1525  0.3778  1.2026
 6975SOL    HW232559   2.394   0.983  11.328 -0.0720  2.1390 -1.2967
 6976SOL     OW32560   4.463   0.035   0.002  0.4158 -0.1069  0.5802
 6976SOL    HW132561   4.540   0.014  17.686  0.1636 -2.8777  1.2770
 6976SOL    HW232562   4.484   4.724   0.083 -2.7314 -2.0375  0.3028
 6977SOL     OW32563   0.080   4.472   8.876  0.2837  0.2682  0.5328
 6977SOL    HW132564   4.721   4.478   8.894 -0.2373 -2.6083 -1.1766
 6977SOL    HW232565   0.084   4.551   8.821 -0.1235  0.4281  0.7346
 6978SOL     OW32566   0.737   0.700   7.129  0.0945 -0.3417 -0.0348
 6978SOL    HW132567   0.718   0.717   7.036  1.9918 -0.0228 -0.3527
 6978SOL    HW232568   0.709   0.783   7.167  0.9982 -0.3161  0.5578
 6979SOL     OW32569   4.301   0.538   6.577 -0.5289  0.6514 -0.1302
 6979SOL    HW132570   4.326   0.602   6.644  1.1229 -0.5141  0.3806
 6979SOL    HW232571   4.220   0.505   6.614  0.1194 -1.8439 -0.9390
 6980SOL     OW32572   4.370   3.145   6.778 -0.0728  0.3075 -0.1069
 6980SOL    HW132573   4.406   3.203   6.711  0.7405 -1.5509 -1.2874
 6980SOL    HW232574   4.277   3.149   6.753 -0.0833 -1.6928 -0.4245
 6981SOL     OW32575   0.855   1.681   6.949 -0.3949  0.0347  0.5988
 6981SOL    HW132576   0.917   1.748   6.977  0.2214 -0.4111  0.2989
 6981SOL    HW232577   0.773   1.711   6.987 -1.4530 -4.9143  2.1446
 6982SOL     OW32578   2.624   0.861   8.953  0.0330  0.5358 -0.4117
 6982SOL    HW132579   2.655   0.770   8.949 -0.9229  0.2140 -0.2966
 6982SOL    HW232580   2.693   0.902   9.005  1.5514 -1.8066 -0.5713
 6983SOL     OW32581   0.390   2.140   9.887 -0.6197  0.2165  0.1793
 6983SOL    HW132582   0.330   2.192   9.833 -1.5839 -0.7631  0.3281
 6983SOL    HW232583   0.388   2.193   9.967 -1.7265 -1.2133  1.0897
 6984SOL     OW32584   0.186   1.991   5.469  0.0962  0.3449  0.1235
 6984SOL    HW132585   0.207   1.902   5.443 -2.2660 -0.9017  2.4927
 6984SOL    HW232586   0.128   1.973   5.543 -0.4977 -2.0289 -0.9382
 6985SOL     OW32587   1.656   0.435  17.386  0.0747  0.1083 -0.0696
 6985SOL    HW132588   1.616   0.517  17.414 -0.8448 -0.0566 -0.9006
 6985SOL    HW232589   1.739   0.431  17.435  0.0515  0.9708  0.0384
 6986SOL     OW32590   0.717   0.277   5.354  0.6773  0.1569 -0.8183
 6986SOL    HW132591   0.757   0.354   5.394 -0.9839  0.2766  0.5763
 6986SOL    HW232592   0.630   0.278   5.394  0.2342 -1.7096 -1.7157
 6987SOL     OW32593   0.036   0.731  11.101  0.2599 -0.4518 -0.1058
 6987SOL    HW132594   4.716   0.679  11.042 -1.0706  1.3572 -0.4639
 6987SOL    HW232595   0.095   0.777  11.042  0.1057  1.2003  1.0254
 6988SOL     OW32596   3.587   3.177  17.042 -0.8245 -0.1067  0.2329
 6988SOL    HW132597   3.608   3.131  17.123  0.3318 -0.9293 -0.5305
 6988SOL    HW232598   3.604   3.262  17.082 -0.9744 -0.4168  0.9584
 6989SOL     OW32599   3.284   0.610   5.202 -0.6169  0.1394 -0.1085
 6989SOL    HW132600   3.318   0.560   5.275  1.4398  1.4995 -0.1172
 6989SOL    HW232601   3.325   0.695   5.220 -0.6173 -0.6869  3.6904
 6990SOL     OW32602   4.023   1.990   0.895 -0.8500 -0.1230  0.4496
 6990SOL    HW132603   3.957   1.954   0.835  0.5167 -2.0555  0.1043
 6990SOL    HW232604   4.023   2.085   0.884  0.1881 -0.2228 -0.4582
 6991SOL     OW32605   0.352   4.222   4.186 -0.3133 -0.3756  0.3319
 6991SOL    HW132606   0.280   4.160   4.188 -1.4999  0.9936  0.1099
 6991SOL    HW232607   0.428   4.184   4.231  0.8911 -0.7419 -2.0452
 6992SOL     OW32608   1.893   3.912  15.069  0.4296 -0.4348 -0.4436
 6992SOL    HW132609   1.799   3.913  15.087  0.4950 -2.2667 -0.0592
 6992SOL    HW232610   1.899   3.835  15.013 -0.0840 -1.0683  0.3713
 6993SOL     OW32611   2.829   1.418   2.392  0.3515  0.9343 -0.2129
 6993SOL    HW132612   2.776   1.378   2.461  1.3795  1.1137  0.6937
 6993SOL    HW232613   2.902   1.356   2.384 -0.3162  0.1819 -0.4212
 6994SOL     OW32614   1.965   3.552   4.912 -0.4360 -0.1210 -0.0693
 6994SOL    HW132615   1.924   3.621   4.963 -2.3208  0.4224 -2.3370
 6994SOL    HW232616   2.040   3.539   4.970 -2.2973  1.4263  2.6221
 6995SOL     OW32617   0.618   3.968  11.603  0.2288 -0.6466  0.2035
 6995SOL    HW132618   0.580   4.055  11.607 -0.1643 -0.8058 -0.0518
 6995SOL    HW232619   0.602   3.940  11.513 -0.6324 -1.4046  0.5898
 6996SOL     OW32620   3.525   3.504  13.970 -0.1869 -0.1680 -0.1501
 6996SOL    HW132621   3.490   3.557  13.899 -0.5426 -0.2170 -0.0108
 6996SOL    HW232622   3.572   3.573  14.016 -0.9327 -0.2468  0.7246
 6997SOL     OW32623   2.063   2.224   7.106 -0.5244 -0.4066 -0.3408
 6997SOL    HW132624   2.144   2.244   7.060  0.0930  3.0155  2.1835
 6997SOL    HW232625   2.070   2.130   7.124 -2.1143 -0.3964  0.3725
 6998SOL     OW32626   3.232   1.068   1.264 -0.0713  0.3272  0.5932
 6998SOL    HW132627   3.296   1.053   1.333  2.2602 -1.7987 -2.0264
 6998SOL    HW232628   3.280   1.091   1.184  1.2398  1.8263  1.7993
 6999SOL     OW32629   3.370   4.303   6.821  0.0949  0.1670 -0.2905
 6999SOL    HW132630   3.422   4.257   6.756  2.5398 -1.8187  3.0645
 6999SOL    HW232631   3.336   4.368   6.760  0.5778  1.9773  1.3930
 7000SOL     OW32632   3.457   2.563   9.697 -0.4274  0.0622  0.1332
 7000SOL    HW132633   3.529   2.601   9.747 -2.4357  0.2587  2.8853
 7000SOL    HW232634   3.391   2.545   9.764 -2.1747 -1.1376 -1.9130
 7001SOL     OW32635   4.156   3.782   8.951 -0.3440  0.3859 -0.1714
 7001SOL    HW132636   4.238   3.754   8.910 -1.1220 -0.0017 -1.4751
 7001SOL    HW232637   4.100   3.725   8.897  0.2955  1.1296 -1.6302
 7002SOL     OW32638   3.991   0.616   9.015  0.0158 -0.2060  0.0405
 7002SOL    HW132639   3.963   0.672   9.087 -1.5072  0.2540 -0.9001
 7002SOL    HW232640   3.973   0.668   8.937 -2.1771  0.4670  1.0099
 7003SOL     OW32641   4.013   3.849   9.192 -0.2111  0.2112 -0.1640
 7003SOL    HW132642   4.103   3.852   9.160 -0.2757 -0.2145 -0.3765
 7003SOL    HW232643   3.969   3.846   9.108  0.3941 -0.5139 -0.4508
 7004SOL     OW32644   4.708   3.831  10.865  0.2874 -0.5267  0.3380
 7004SOL    HW132645   0.009   3.919  10.865 -1.4824  0.1861 -0.4620
 7004SOL    HW232646   0.048   3.771  10.864  0.9769  0.3599 -1.2735
 7005SOL     OW32647   0.110   2.348   5.519 -0.0839 -0.3862 -0.4196
 7005SOL    HW132648   0.075   2.437   5.525  0.7080 -0.2634  2.4947
 7005SOL    HW232649   0.196   2.356   5.562 -0.4573 -0.3606  0.3293
 7006SOL     OW32650   4.378   0.092  13.456 -0.5631  0.3226 -0.0803
 7006SOL    HW132651   4.315   0.160  13.431 -1.2771 -0.0000  0.8170
 7006SOL    HW232652   4.409   0.063  13.370 -3.4827 -3.3907  0.1396
 7007SOL     OW32653   0.958   2.846   8.354 -0.1825 -0.0734  0.1393
 7007SOL    HW132654   0.965   2.941   8.348 -1.0936  0.2004  3.5389
 7007SOL    HW232655   0.937   2.824   8.263  0.0045 -0.0084  0.0813
 7008SOL     OW32656   4.264   4.643   8.028  0.0271 -0.2209  0.5342
 7008SOL    HW132657   4.245   4.690   7.947 -0.3931 -0.3113  0.5801
 7008SOL    HW232658   4.175   4.610   8.041  0.4231 -1.3546  0.4441
 7009SOL     OW32659   1.849   1.569  12.784  0.4702  0.3219  0.3867
 7009SOL    HW132660   1.860   1.477  12.761 -0.3594 -0.6123  3.6156
 7009SOL    HW232661   1.864   1.603  12.696 -0.6686  0.8774  0.4039
 7010SOL     OW32662   4.503   2.541   2.825 -0.4302  0.1618 -0.2333
 7010SOL    HW132663   4.482   2.551   2.918 -0.1046  0.3341 -0.1795
 7010SOL    HW232664   4.569   2.608   2.809 -0.5936 -0.2247 -2.6567
 7011SOL     OW32665   0.165   2.951   9.510 -0.6641  0.0154 -0.4834
 7011SOL    HW132666   0.216   2.984   9.584 -1.0768  1.9783 -1.0719
 7011SOL    HW232667   0.168   3.031   9.457  1.6388  1.0517  1.2154
 7012SOL     OW32668   0.388   1.697   6.833 -0.3113  0.4666 -0.1299
 7012SOL    HW132669   0.432   1.782   6.828 -1.5717  1.1049 -0.3933
 7012SOL    HW232670   0.326   1.711   6.762 -1.9624 -1.2205  0.9554
 7013SOL     OW32671   2.311   0.405   2.481 -0.2943  0.1439 -0.2658
 7013SOL    HW132672   2.405   0.408   2.501 -0.2257 -0.4602 -0.4918
 7013SOL    HW232673   2.297   0.310   2.476 -0.5963  0.1872 -0.2416
 7014SOL     OW32674   1.797   2.321   2.547  0.2507  0.5234  0.2017
 7014SOL    HW132675   1.884   2.283   2.538 -0.8207 -2.0048  0.4948
 7014SOL    HW232676   1.752   2.256   2.602  0.3171 -1.0847 -1.6739
 7015SOL     OW32677   3.296   3.384  11.901 -0.0936  0.0401 -0.4026
 7015SOL    HW132678   3.369   3.444  11.914  1.3383 -1.9317  0.7381
 7015SOL    HW232679   3.341   3.301  11.888 -0.9594 -0.5578  0.4032
 7016SOL     OW32680   1.524   0.178   8.068 -0.6763  0.5053 -0.6307
 7016SOL    HW132681   1.559   0.157   8.155 -1.9661  3.3781  0.5869
 7016SOL    HW232682   1.594   0.227   8.026 -0.4668  0.4509 -0.3443
 7017SOL     OW32683   3.389   0.515   5.900  0.1961 -0.0393 -0.0536
 7017SOL    HW132684   3.431   0.488   5.982 -0.1364 -3.3730 -1.0039
 7017SOL    HW232685   3.462   0.558   5.854  0.6877 -0.4192  0.3651
 7018SOL     OW32686   3.370   0.545   2.362  0.2812  0.4583 -0.0076
 7018SOL    HW132687   3.285   0.565   2.322  1.0253  2.0612 -0.7953
 7018SOL    HW232688   3.354   0.488   2.437  1.8590  0.9798  0.7174
 7019SOL     OW32689   2.173   3.720   3.986  0.0596 -0.1282 -0.1470
 7019SOL    HW132690   2.113   3.723   4.061  0.4848  0.1808  0.1788
 7019SOL    HW232691   2.257   3.707   4.029 -0.0816 -1.0642 -0.1716
 7020SOL     OW32692   2.443   4.351  17.343  0.6698 -0.2060 -0.6811
 7020SOL    HW132693   2.384   4.361  17.269 -0.6396  1.2444  0.5581
 7020SOL    HW232694   2.495   4.273  17.322 -0.5632 -1.2811  0.2849
 7021SOL     OW32695   4.033   1.312  13.284  0.2482 -0.5349  0.2283
 7021SOL    HW132696   4.048   1.266  13.201 -0.6171 -1.3929  0.5505
 7021SOL    HW232697   4.030   1.239  13.346 -1.6543 -0.0791  0.7031
 7022SOL     OW32698   4.200   4.468   4.676 -0.5706 -0.2034 -0.4184
 7022SOL    HW132699   4.110   4.501   4.673 -1.4889 -2.7709 -1.6220
 7022SOL    HW232700   4.213   4.450   4.769 -1.5506 -0.9782 -0.4295
 7023SOL     OW32701   1.089   4.038   3.771  0.6126 -0.4824 -0.4329
 7023SOL    HW132702   1.178   4.002   3.777  1.4009  1.8799  2.3611
 7023SOL    HW232703   1.087   4.074   3.860 -0.3700  0.3020 -0.7689
 7024SOL     OW32704   2.952   3.990   3.054  0.1824  0.0234 -0.2352
 7024SOL    HW132705   2.927   3.912   3.103 -0.2307 -0.1265 -0.6833
 7024SOL    HW232706   3.009   4.032   3.118  0.6171  0.6442 -1.0297
 7025SOL     OW32707   2.142   3.263   3.380  0.1224 -0.2975  0.3616
 7025SOL    HW132708   2.140   3.314   3.299  2.0473  0.9166  1.1010
 7025SOL    HW232709   2.102   3.323   3.442  0.8158  1.1118 -0.5530
 7026SOL     OW32710   4.104   2.927   3.921  0.4516 -0.9255 -0.1502
 7026SOL    HW132711   4.089   2.922   4.015 -0.8466 -1.9935 -0.4066
 7026SOL    HW232712   4.199   2.934   3.915  0.5422 -0.2633  2.3678
 7027SOL     OW32713   0.368   2.739  13.436  0.4371 -0.3668  0.2082
 7027SOL    HW132714   0.301   2.670  13.436  0.3802 -0.3152 -1.8307
 7027SOL    HW232715   0.349   2.772  13.524 -1.3124 -1.0023  0.0682
 7028SOL     OW32716   2.899   2.270   4.815  0.0608  0.0662  0.3389
 7028SOL    HW132717   2.946   2.318   4.883 -0.0416 -1.0193  1.1856
 7028SOL    HW232718   2.810   2.304   4.804  0.2287 -0.1248 -1.5183
 7029SOL     OW32719   2.431   0.543   2.803  0.0900  0.1836  0.2635
 7029SOL    HW132720   2.390   0.629   2.793  0.4850  0.6211  2.2939
 7029SOL    HW232721   2.479   0.534   2.885  0.4594  0.4608  0.0792
 7030SOL     OW32722   1.604   4.373  11.456  0.0247 -0.4084  0.1112
 7030SOL    HW132723   1.541   4.403  11.523  0.6056 -0.0866  0.5098
 7030SOL    HW232724   1.627   4.290  11.497  2.3682 -1.3580 -3.1267
 7031SOL     OW32725   2.824   4.597  11.755  0.0511  0.2375  0.3567
 7031SOL    HW132726   2.910   4.579  11.793 -0.7225 -1.2687  1.3852
 7031SOL    HW232727   2.832   4.548  11.674  1.8452  0.6314  0.2850
 7032SOL     OW32728   4.484   2.957  13.408  0.0881  0.6538 -0.7283
 7032SOL    HW132729   4.502   2.928  13.318  1.5283  0.7995 -0.4934
 7032SOL    HW232730   4.511   3.048  13.416 -2.0667  1.1959  0.1132
 7033SOL     OW32731   0.581   1.419  16.581 -0.4894 -0.3238  0.2861
 7033SOL    HW132732   0.605   1.466  16.502  1.5650  0.5417  1.4015
 7033SOL    HW232733   0.523   1.490  16.605 -0.3810 -0.5472  1.2152
 7034SOL     OW32734   1.275   0.368   2.448 -0.3718  0.6810  0.3992
 7034SOL    HW132735   1.249   0.445   2.499 -2.5491 -0.5065  1.0680
 7034SOL    HW232736   1.202   0.353   2.388 -1.0325  2.1757  0.8286
 7035SOL     OW32737   0.908   3.108   0.384  0.0957 -0.4913  0.6440
 7035SOL    HW132738   0.831   3.164   0.373 -0.4581 -1.4104 -0.1692
 7035SOL    HW232739   0.936   3.102   0.292  0.8456 -2.2210  0.9759
 7036SOL     OW32740   1.848   0.740   2.513  0.3919 -0.0308 -0.3269
 7036SOL    HW132741   1.897   0.670   2.555 -0.7291  0.8085  2.4031
 7036SOL    HW232742   1.787   0.688   2.460 -0.1053  1.3504 -1.1194
 7037SOL     OW32743   0.116   0.896  10.911 -0.5179 -0.3835  0.5558
 7037SOL    HW132744   0.183   0.871  10.848  1.0267  0.1104  2.0095
 7037SOL    HW232745   0.133   0.987  10.932  2.2173 -0.6439 -0.5420
 7038SOL     OW32746   3.712   0.691   8.521 -0.7116  0.1223 -0.5937
 7038SOL    HW132747   3.762   0.681   8.440  1.1366 -1.3902  0.7144
 7038SOL    HW232748   3.750   0.621   8.574 -0.4130  1.0464  0.4177
 7039SOL     OW32749   1.493   4.360   7.469  0.0672  0.0268 -0.2331
 7039SOL    HW132750   1.553   4.317   7.530  0.5461  0.4221 -0.4209
 7039SOL    HW232751   1.560   4.396   7.412  0.3930 -0.6236 -0.2510
 7040SOL     OW32752   1.338   2.097   1.139  0.2652  0.5476 -0.2403
 7040SOL    HW132753   1.315   2.028   1.075 -1.5531 -0.3877  1.4111
 7040SOL    HW232754   1.344   2.055   1.225  0.0108 -0.8869 -0.9154
 7041SOL     OW32755   0.309   3.457   2.258  0.0388  0.4005  0.3724
 7041SOL    HW132756   0.274   3.391   2.318 -2.5138  1.8546  0.4773
 7041SOL    HW232757   0.397   3.471   2.292 -0.5810 -1.4850  2.6940
 7042SOL     OW32758   0.939   4.193   2.595  0.2424  0.2978  0.9891
 7042SOL    HW132759   0.874   4.257   2.625 -0.8687  0.1791 -1.2188
 7042SOL    HW232760   0.992   4.178   2.674 -0.3403 -0.8677  1.1464
 7043SOL     OW32761   2.219   1.325   2.600  0.6189 -0.2050 -0.1892
 7043SOL    HW132762   2.136   1.324   2.553  1.9901 -0.3422 -2.6368
 7043SOL    HW232763   2.282   1.318   2.528  1.1283 -0.3339  0.2680
 7044SOL     OW32764   1.933   4.305   2.866 -0.1632 -0.3654  0.2915
 7044SOL    HW132765   1.972   4.222   2.841  1.2225 -0.4436  2.6715
 7044SOL    HW232766   2.013   4.356   2.851  0.2290 -1.2381 -0.5789
 7045SOL     OW32767   4.717   4.316   2.617 -0.5171 -0.2181  0.2839
 7045SOL    HW132768   4.725   4.399   2.664  2.8714 -0.3252 -0.0807
 7045SOL    HW232769   0.057   4.275   2.660  0.3938 -0.4087 -1.4700
 7046SOL     OW32770   4.500   3.225   6.546 -0.0668 -0.4004  0.2574
 7046SOL    HW132771   4.571   3.258   6.602 -0.4116  2.1636 -0.7932
 7046SOL    HW232772   4.525   3.258   6.460  0.1007 -0.9193  0.1115
 7047SOL     OW32773   0.334   3.815   8.099  0.4751 -0.5801 -0.2862
 7047SOL    HW132774   0.289   3.790   8.180  1.5062 -3.7183 -0.6843
 7047SOL    HW232775   0.277   3.886   8.071  1.5383  0.0507 -0.8482
 7048SOL     OW32776   2.111   3.476  17.685 -0.2945 -0.3216 -0.2723
 7048SOL    HW132777   2.079   3.386  17.689  0.7116 -0.5869  1.5829
 7048SOL    HW232778   2.192   3.463  17.635 -1.6554  0.1490 -2.5954
 7049SOL     OW32779   3.281   4.019   5.108 -0.1831 -0.2655  0.0874
 7049SOL    HW132780   3.366   3.989   5.076 -1.4266 -3.3844 -0.3008
 7049SOL    HW232781   3.299   4.097   5.160  1.1992 -0.0527 -0.7044
 7050SOL     OW32782   0.594   3.927   4.806  0.6196 -0.0072  0.3253
 7050SOL    HW132783   0.591   3.852   4.865 -1.9770 -1.3648 -1.5546
 7050SOL    HW232784   0.690   3.930   4.797  0.5073 -2.5518 -1.6658
 7051SOL     OW32785   4.544   0.672   6.276 -0.6289 -0.2458 -0.1634
 7051SOL    HW132786   4.524   0.632   6.191  0.3238  0.1899 -0.5962
 7051SOL    HW232787   4.552   0.598   6.336  1.2637 -0.7537 -1.0179
 7052SOL     OW32788   1.473   2.348  17.666 -0.6966  0.5351 -0.3670
 7052SOL    HW132789   1.478   2.431  17.714 -1.0584  1.3478 -1.7270
 7052SOL    HW232790   1.429   2.303   0.000 -1.1585  0.1138 -0.9167
 7053SOL     OW32791   3.228   3.603   8.396 -0.5503 -0.1707 -0.1772
 7053SOL    HW132792   3.242   3.545   8.471  1.0972  0.1610 -0.2258
 7053SOL    HW232793   3.136   3.628   8.406 -1.8147 -3.4889 -3.2945
 7054SOL     OW32794   2.855   4.458  11.211 -0.3541  0.4856  0.0137
 7054SOL    HW132795   2.811   4.497  11.136  0.9512 -1.0794 -1.5767
 7054SOL    HW232796   2.852   4.364  11.194 -0.9126  1.0734 -3.0543
 7055SOL     OW32797   4.408   4.519   2.740  0.7427  0.2155 -0.2754
 7055SOL    HW132798   4.459   4.492   2.663  1.6578  0.7026  0.1533
 7055SOL    HW232799   4.470   4.498   2.810 -0.6906  3.3155  1.8707
 7056SOL     OW32800   3.290   4.592   2.210 -0.3716  0.3981 -0.4511
 7056SOL    HW132801   3.324   4.681   2.202  0.0913  0.1117 -1.7989
 7056SOL    HW232802   3.374   4.558   2.240 -1.7843 -3.5561 -0.9890
 7057SOL     OW32803   2.902   0.679  11.849 -0.1942  0.2723 -0.4692
 7057SOL    HW132804   2.878   0.755  11.901 -0.4631 -1.1205  1.4403
 7057SOL    HW232805   2.974   0.636  11.894 -1.3774 -2.5326 -1.2461
 7058SOL     OW32806   3.671   0.554   3.547  0.2196 -0.0329  0.3376
 7058SOL    HW132807   3.700   0.640   3.577  1.3267  0.3228 -1.7970
 7058SOL    HW232808   3.636   0.572   3.460 -2.2625 -0.5267  1.2269
 7059SOL     OW32809   2.771   4.132  13.897  0.1844 -0.4074 -0.3814
 7059SOL    HW132810   2.736   4.056  13.851  0.1007 -1.0514  0.7592
 7059SOL    HW232811   2.697   4.154  13.953  1.8276  2.4020  0.7025
 7060SOL     OW32812   4.641   0.290   2.854  0.2268 -0.0095  0.3424
 7060SOL    HW132813   4.683   0.301   2.768 -0.4800  1.5878  0.2089
 7060SOL    HW232814   4.569   0.352   2.849 -0.3859 -0.9482 -2.5167
 7061SOL     OW32815   4.429   0.154  14.301 -0.2664 -0.1921  0.0737
 7061SOL    HW132816   4.411   0.238  14.343 -0.0939 -0.6064  0.9926
 7061SOL    HW232817   4.351   0.111  14.336 -0.7533 -0.0250 -0.8069
 7062SOL     OW32818   3.932   3.870   2.500  0.1549 -0.3570  0.1142
 7062SOL    HW132819   3.981   3.935   2.551  0.4706  0.9100 -1.8364
 7062SOL    HW232820   3.998   3.847   2.435  1.8831  0.7991  1.4651
 7063SOL     OW32821   2.580   2.199  12.778 -0.0583  0.0339  0.3545
 7063SOL    HW132822   2.597   2.127  12.839 -2.0415  0.2903  1.2221
 7063SOL    HW232823   2.615   2.169  12.694 -0.0634 -0.7749  0.6414
 7064SOL     OW32824   1.846   4.448   7.117  0.0734 -0.1216  0.0220
 7064SOL    HW132825   1.864   4.355   7.130  0.3572  0.1042  1.2168
 7064SOL    HW232826   1.810   4.433   7.029  0.8816  1.9822 -0.6776
 7065SOL     OW32827   1.142   3.379   7.370 -0.4368 -0.0979  0.0221
 7065SOL    HW132828   1.177   3.342   7.451 -1.4092  2.6596  1.7152
 7065SOL    HW232829   1.186   3.464   7.372  1.5573 -1.1666  0.9044
 7066SOL     OW32830   1.235   2.041   6.543 -0.4618 -0.4335  0.0261
 7066SOL    HW132831   1.302   2.103   6.571  0.5174 -1.3684 -0.2710
 7066SOL    HW232832   1.298   1.977   6.511  0.6139 -0.4026  2.1399
 7067SOL     OW32833   0.333   1.978  10.921 -0.0935 -0.1878  0.1343
 7067SOL    HW132834   0.397   1.987  10.992 -2.8999  2.6724  2.2762
 7067SOL    HW232835   0.254   2.026  10.945 -1.0882 -0.8143 -1.8713
 7068SOL     OW32836   4.360   2.919   8.179 -0.0079  0.4298 -0.3523
 7068SOL    HW132837   4.422   2.887   8.114  1.6333  2.0520  0.4176
 7068SOL    HW232838   4.286   2.943   8.122  0.1897  1.5000 -0.1677
 7069SOL     OW32839   1.160   4.645   7.166  0.5061 -0.5013  0.4215
 7069SOL    HW132840   1.126   4.556   7.175 -0.6409 -0.1440 -0.3749
 7069SOL    HW232841   1.150   4.690   7.251  0.6076 -0.2299  0.2907
 7070SOL     OW32842   1.447   1.951   4.431 -0.2607  0.0468 -0.6041
 7070SOL    HW132843   1.497   1.872   4.454  2.5571  1.8532 -0.6576
 7070SOL    HW232844   1.501   2.022   4.465 -1.6837  1.8598 -2.1344
 7071SOL     OW32845   4.723   0.229   0.487 -0.0602 -0.0987 -0.1759
 7071SOL    HW132846   4.698   0.160   0.548  1.7761 -0.9137 -0.3664
 7071SOL    HW232847   4.721   0.175   0.409  2.2318  0.4555 -0.6187
 7072SOL     OW32848   3.557   1.800   0.304 -0.5401 -0.2312  0.3904
 7072SOL    HW132849   3.651   1.783   0.301 -0.4721  0.0666  0.7967
 7072SOL    HW232850   3.526   1.753   0.382  1.5146 -1.8433  0.2191
 7073SOL     OW32851   0.956   1.859  10.666  0.4823 -0.5195  0.0605
 7073SOL    HW132852   0.961   1.892  10.576  1.9624 -1.1115 -0.0808
 7073SOL    HW232853   0.872   1.901  10.684  0.4758 -1.0926  1.3609
 7074SOL     OW32854   0.190   0.143  15.574 -0.6698  0.0550  0.1830
 7074SOL    HW132855   0.193   0.238  15.578  2.1656 -0.0718  0.6446
 7074SOL    HW232856   0.257   0.125  15.640 -0.1303 -2.8107 -1.1460
 7075SOL     OW32857   3.827   0.257   6.928  0.2822  0.3442  0.0419
 7075SOL    HW132858   3.795   0.347   6.921  0.4421  0.4306  0.3892
 7075SOL    HW232859   3.852   0.260   7.021 -0.4505  2.9212  0.1499
 7076SOL     OW32860   2.920   0.194   6.971  0.5247 -0.2079  0.1393
 7076SOL    HW132861   2.967   0.259   7.024  3.0527 -1.7192 -0.2600
 7076SOL    HW232862   2.831   0.200   7.006  0.3745 -0.7507 -0.1491
 7077SOL     OW32863   0.137   4.295  17.710  0.1365 -0.7900  0.3075
 7077SOL    HW132864   0.183   4.363   0.022 -0.1817 -0.5091  0.2139
 7077SOL    HW232865   0.203   4.264  17.648  0.6294  0.0098  0.4359
 7078SOL     OW32866   0.358   1.165  16.479  0.4385 -0.2899  0.2810
 7078SOL    HW132867   0.360   1.256  16.452 -1.6424 -0.3281 -0.0283
 7078SOL    HW232868   0.338   1.126  16.393 -0.3803 -0.6360  0.6260
 7079SOL     OW32869   4.105   4.444   3.469  0.6294 -0.5165 -0.0085
 7079SOL    HW132870   4.150   4.528   3.461  1.4908 -0.7654  2.0726
 7079SOL    HW232871   4.125   4.421   3.560 -1.3025  0.3280  0.6110
 7080SOL     OW32872   1.603   2.250   7.375 -0.3366 -0.7150 -0.4471
 7080SOL    HW132873   1.519   2.248   7.329 -0.9807  3.0860  0.6087
 7080SOL    HW232874   1.573   2.221   7.461 -0.1614 -0.2599 -0.2361
 7081SOL     OW32875   1.966   4.025   9.073  0.3609  0.2876 -0.7335
 7081SOL    HW132876   1.888   3.971   9.088  1.2733 -0.5576  0.9815
 7081SOL    HW232877   1.996   4.033   9.164 -0.8716 -1.5708 -0.1629
 7082SOL     OW32878   0.081   2.340   7.650 -0.0503  0.4067  0.1038
 7082SOL    HW132879   0.112   2.427   7.673 -0.2257  0.5254 -0.1056
 7082SOL    HW232880   0.012   2.332   7.715 -1.4279  1.3441 -1.2346
 7083SOL     OW32881   4.142   2.923   7.963 -1.1618  0.3645  0.2052
 7083SOL    HW132882   4.093   2.999   7.995 -2.6143 -1.4291  2.2188
 7083SOL    HW232883   4.178   2.949   7.878 -0.0621  0.2750  0.6400
 7084SOL     OW32884   0.584   4.589   7.176  0.9148 -0.0255 -0.2230
 7084SOL    HW132885   0.530   4.648   7.124 -1.7705 -1.6094  0.8206
 7084SOL    HW232886   0.664   4.635   7.149  0.0483  2.0581  0.6823
 7085SOL     OW32887   1.211   4.568   8.573  0.5705  0.4504  0.1640
 7085SOL    HW132888   1.174   4.567   8.661  1.0525 -1.6063  0.3204
 7085SOL    HW232889   1.283   4.629   8.587  0.8896 -0.3499  1.9794
 7086SOL     OW32890   1.094   0.604   9.418  0.3721  0.4491 -0.7936
 7086SOL    HW132891   1.187   0.584   9.417  0.2723 -0.0304  0.9599
 7086SOL    HW232892   1.100   0.688   9.372  1.6238  0.5230 -0.4981
 7087SOL     OW32893   3.641   1.117  16.081 -0.2885  0.1774  0.6860
 7087SOL    HW132894   3.570   1.066  16.042  3.0722 -2.8993 -1.3668
 7087SOL    HW232895   3.708   1.049  16.077 -1.2394 -0.7164 -0.1151
 7088SOL     OW32896   0.087   1.625   2.752  0.0957 -0.3643  0.2217
 7088SOL    HW132897   0.161   1.685   2.747 -0.2695  0.3272  2.7860
 7088SOL    HW232898   0.108   1.571   2.828 -0.0268 -1.0545 -0.2462
 7089SOL     OW32899   3.857   4.321  10.829  0.5340 -0.4831 -0.1896
 7089SOL    HW132900   3.893   4.311  10.741 -1.4006  1.5099 -1.1839
 7089SOL    HW232901   3.770   4.360  10.820  0.6323 -0.2426 -0.0891
 7090SOL     OW32902   0.966   1.793   0.063  0.6028  0.3217 -0.3407
 7090SOL    HW132903   1.060   1.782   0.075  0.0607 -3.9945 -0.2083
 7090SOL    HW232904   0.948   1.846   0.141 -0.8886  0.7257 -0.9569
 7091SOL     OW32905   0.339   2.477   3.670  0.0010 -0.4284 -0.0076
 7091SOL    HW132906   0.366   2.392   3.636  1.2676  0.5917 -1.5637
 7091SOL    HW232907   0.387   2.543   3.619 -1.5828 -0.9220 -2.1613
 7092SOL     OW32908   2.336   0.029   7.975 -0.2602 -0.3321 -0.8616
 7092SOL    HW132909   2.369   4.720   7.897  0.8396 -0.6392 -0.2338
 7092SOL    HW232910   2.354   0.118   7.945 -0.4112 -0.6928 -1.9931
 7093SOL     OW32911   0.112   0.096  17.377 -0.8182 -0.3841 -1.0103
 7093SOL    HW132912   0.170   0.020  17.387  0.1978  0.5632  0.2379
 7093SOL    HW232913   0.173   0.168  17.359 -1.4885  0.7518  1.3162
 7094SOL     OW32914   2.725   1.974   5.172  0.0321  0.0885  0.2648
 7094SOL    HW132915   2.683   2.053   5.207  0.0249  0.2265 -0.0497
 7094SOL    HW232916   2.806   2.003   5.131 -0.9084  0.7920 -1.1124
 7095SOL     OW32917   1.144   3.326   5.035  0.1280  0.3575  0.1047
 7095SOL    HW132918   1.094   3.406   5.047  0.1900  0.0243  2.5832
 7095SOL    HW232919   1.076   3.272   4.996  1.7982 -3.1357  1.9890
 7096SOL     OW32920   0.071   0.440  14.320 -0.5637 -0.0949  0.3334
 7096SOL    HW132921   4.726   0.493  14.335  0.0872 -0.0580  3.6281
 7096SOL    HW232922   0.099   0.429  14.410 -2.7007  1.3669  1.1982
 7097SOL     OW32923   2.794   3.473   2.643 -0.2556 -0.3078 -0.0379
 7097SOL    HW132924   2.887   3.477   2.621 -0.1988 -2.0052 -0.0643
 7097SOL    HW232925   2.792   3.441   2.733 -0.8776  0.0620  0.0777
 7098SOL     OW32926   1.360   0.251   1.909  0.0575  0.0406  0.1240
 7098SOL    HW132927   1.411   0.181   1.869 -1.2137 -0.3253 -0.8601
 7098SOL    HW232928   1.430   0.316   1.914  0.1530  0.0199 -1.0163
 7099SOL     OW32929   4.408   1.330   4.584  0.5739  0.2470  0.1781
 7099SOL    HW132930   4.354   1.391   4.634  2.2876 -1.2940  3.9342
 7099SOL    HW232931   4.460   1.395   4.537  1.1120  0.2178  0.7307
 7100SOL     OW32932   2.214   4.582   6.277  0.0433 -0.1649  0.6619
 7100SOL    HW132933   2.234   4.496   6.240  0.3246 -0.0820  0.6238
 7100SOL    HW232934   2.209   4.560   6.370 -1.3451 -0.9913  0.3998
 7101SOL     OW32935   4.510   0.346   2.109  0.3074 -0.0658  0.1918
 7101SOL    HW132936   4.415   0.348   2.097  0.4998 -0.0180 -1.2776
 7101SOL    HW232937   4.522   0.379   2.199 -0.9162 -0.8297  0.6393
 7102SOL     OW32938   2.536   1.787  16.231  0.0675  0.0327  0.2886
 7102SOL    HW132939   2.458   1.739  16.202 -0.2381  0.8227 -0.1963
 7102SOL    HW232940   2.604   1.735  16.190 -0.3050 -0.9732  0.9303
 7103SOL     OW32941   4.082   1.189  16.033  0.1417 -0.2319  0.3404
 7103SOL    HW132942   4.138   1.267  16.039  0.5485 -0.5957  1.3416
 7103SOL    HW232943   3.996   1.229  16.019 -0.3006 -1.0211  0.8692
 7104SOL     OW32944   3.390   2.719   6.953 -0.0518 -0.7180 -0.4519
 7104SOL    HW132945   3.379   2.745   7.044 -1.3692  0.8925 -1.0376
 7104SOL    HW232946   3.297   2.724   6.928  0.4328  2.3615 -1.7355
 7105SOL     OW32947   3.304   0.499  12.450  0.1799 -0.1427  0.1092
 7105SOL    HW132948   3.218   0.500  12.492  0.1043  1.0256 -0.0669
 7105SOL    HW232949   3.278   0.476  12.361 -1.2703 -0.2375  0.5688
 7106SOL     OW32950   2.911   1.804   3.454  0.4049  0.1018 -0.5528
 7106SOL    HW132951   2.864   1.734   3.499 -0.7737  1.7323  0.7349
 7106SOL    HW232952   3.002   1.779   3.469 -1.0519 -2.8645  3.3709
 7107SOL     OW32953   0.328   4.334  17.512  0.1568  0.1140  0.0173
 7107SOL    HW132954   0.311   4.408  17.455 -0.1269  1.6813  2.1440
 7107SOL    HW232955   0.395   4.357  17.577 -0.8804 -4.0766  2.6033
 7108SOL     OW32956   3.783   1.688   8.581 -0.8726 -0.5673  0.4762
 7108SOL    HW132957   3.700   1.641   8.589 -0.7393 -1.4947 -3.8493
 7108SOL    HW232958   3.842   1.619   8.614 -0.7400  0.0081  1.4463
 7109SOL     OW32959   0.522   1.316   8.740 -0.1306  0.3993 -0.2266
 7109SOL    HW132960   0.473   1.355   8.812 -0.2605 -1.1259  0.4939
 7109SOL    HW232961   0.609   1.356   8.747  0.3273 -0.4155 -1.3304
 7110SOL     OW32962   2.077   1.692   4.888  0.1997 -0.3626 -0.0008
 7110SOL    HW132963   1.992   1.667   4.852  0.6647 -0.7982 -0.7853
 7110SOL    HW232964   2.073   1.787   4.886  0.3289 -0.3758 -0.6945
 7111SOL     OW32965   4.434   1.397   1.814 -0.4318  0.1419  0.5904
 7111SOL    HW132966   4.529   1.393   1.803 -0.4636  0.9445  0.0733
 7111SOL    HW232967   4.406   1.306   1.804 -1.6562  0.3750  1.8923
 7112SOL     OW32968   1.916   3.690   6.923 -0.1224  0.0976  0.1188
 7112SOL    HW132969   1.999   3.679   6.969  1.8014 -0.6553 -3.5771
 7112SOL    HW232970   1.947   3.745   6.851  0.0216 -0.4780 -0.2566
 7113SOL     OW32971   1.040   0.478   6.085 -0.1225  0.4821  0.2223
 7113SOL    HW132972   1.025   0.565   6.122  2.5586  1.0395 -0.0408
 7113SOL    HW232973   1.009   0.496   5.996  1.8961  2.2459 -0.0963
 7114SOL     OW32974   2.087   4.539  16.343 -0.2165 -0.8486  0.5265
 7114SOL    HW132975   2.087   4.475  16.272 -0.1660  1.2937 -1.4207
 7114SOL    HW232976   2.021   4.497  16.398 -1.4129  0.8171  0.3614
 7115SOL     OW32977   2.093   3.503   5.155  0.4498 -0.4538 -1.0430
 7115SOL    HW132978   2.186   3.484   5.143  0.7026 -0.3238  0.6976
 7115SOL    HW232979   2.101   3.553   5.237 -1.4107 -1.1547 -0.4225
 7116SOL     OW32980   3.177   4.398   9.099 -0.3982 -0.5558  0.2739
 7116SOL    HW132981   3.084   4.375   9.102 -0.8297  1.0905 -0.7982
 7116SOL    HW232982   3.218   4.313   9.083  0.6412  0.0225 -0.1193
 7117SOL     OW32983   2.433   2.876   8.035 -0.8262  0.0944  0.3305
 7117SOL    HW132984   2.399   2.964   8.050  0.8166  0.8852 -0.6087
 7117SOL    HW232985   2.457   2.879   7.943  0.2335 -1.9160  0.5470
 7118SOL     OW32986   3.327   0.594   7.455 -0.2167  0.1812  0.1469
 7118SOL    HW132987   3.251   0.537   7.445  0.2828 -0.3130 -0.8679
 7118SOL    HW232988   3.351   0.610   7.364  2.4950 -0.9723  0.6429
 7119SOL     OW32989   1.880   1.681   3.806 -0.0881  0.4688 -0.2127
 7119SOL    HW132990   1.946   1.740   3.842  0.7126  0.2874 -1.3782
 7119SOL    HW232991   1.835   1.644   3.882 -0.7682  0.5929 -0.5505
 7120SOL     OW32992   0.169   2.842   3.661  0.2899  0.7194 -0.2799
 7120SOL    HW132993   0.079   2.858   3.635 -0.0041 -0.9795 -0.3356
 7120SOL    HW232994   0.204   2.931   3.653  3.0293 -0.3957 -0.7728
 7121SOL     OW32995   2.574   3.245   2.662  0.2447 -0.4412 -0.2258
 7121SOL    HW132996   2.605   3.273   2.577  0.1285  0.9596  0.1856
 7121SOL    HW232997   2.646   3.199   2.705  0.4371  1.2472  1.2451
 7122SOL     OW32998   0.338   2.134   6.405 -0.0809 -0.5677  0.4248
 7122SOL    HW132999   0.254   2.093   6.426 -1.0350  1.0297 -0.2660
 7122SOL    HW233000   0.356   2.118   6.312 -0.6595  1.4249 -0.0420
 7123SOL     OW33001   3.073   3.453   6.177  0.0101  0.1267 -0.5915
 7123SOL    HW133002   3.126   3.381   6.142  0.7758 -0.9922  2.9399
 7123SOL    HW233003   3.113   3.444   6.263  1.0512  1.2540 -0.9639
 7124SOL     OW33004   2.907   2.789   4.696  0.4356  0.7915  0.2115
 7124SOL    HW133005   2.879   2.710   4.650  0.7694  0.9924 -0.3315
 7124SOL    HW233006   2.986   2.761   4.742  0.8700  1.0134 -0.4067
 7125SOL     OW33007   2.950   3.874   7.515 -0.3816  0.0181  0.1151
 7125SOL    HW133008   2.937   3.787   7.552 -0.9562  0.6115  1.3444
 7125SOL    HW233009   2.976   3.850   7.427  1.8295 -0.2305  0.8356
 7126SOL     OW33010   4.565   4.180   4.717 -0.1064 -0.4684 -0.4424
 7126SOL    HW133011   4.580   4.235   4.794 -1.0155 -1.5633  0.5307
 7126SOL    HW233012   4.641   4.122   4.721  1.1436  0.9542 -3.5251
 7127SOL     OW33013   0.346   0.120  15.773  0.1565 -0.3022  0.1013
 7127SOL    HW133014   0.434   0.134  15.807  0.2636 -0.7391  0.0051
 7127SOL    HW233015   0.318   0.044  15.825  1.1379 -0.1171  0.8857
 7128SOL     OW33016   1.806   3.455   3.733  0.6640 -0.1247  1.0726
 7128SOL    HW133017   1.713   3.454   3.711  0.0157  1.1511  3.7158
 7128SOL    HW233018   1.799   3.480   3.825 -0.4470  2.6066  0.2501
 7129SOL     OW33019   1.971   1.238   3.306  0.2317 -0.0463  0.3953
 7129SOL    HW133020   2.062   1.219   3.329  0.3835  0.6322  0.3413
 7129SOL    HW233021   1.992   1.283   3.225  1.0212 -0.5047  0.3500
 7130SOL     OW33022   0.247   0.400   0.494 -0.1042  0.4019  0.7263
 7130SOL    HW133023   0.192   0.329   0.461  0.6970 -0.3353  0.9660
 7130SOL    HW233024   0.332   0.356   0.489 -0.2578  0.3214 -0.9501
 7131SOL     OW33025   2.370   1.296   2.356  0.6355 -0.5409  0.1531
 7131SOL    HW133026   2.393   1.208   2.324 -0.4431 -1.3230  1.5668
 7131SOL    HW233027   2.359   1.344   2.274 -0.4351  0.2179  0.7487
 7132SOL     OW33028   1.714   0.587  14.145  0.4201 -0.0948 -0.1386
 7132SOL    HW133029   1.748   0.540  14.069  0.5032 -0.3016  0.0273
 7132SOL    HW233030   1.746   0.539  14.221  1.7280  0.6119 -0.2292
 7133SOL     OW33031   1.636   1.848   4.085  0.4375  0.0652  0.7632
 7133SOL    HW133032   1.581   1.818   4.012  1.4523  1.1084 -0.4354
 7133SOL    HW233033   1.601   1.791   4.153  2.5575 -2.4027 -0.2023
 7134SOL     OW33034   1.824   2.583   8.807  0.5744 -0.2680  0.1186
 7134SOL    HW133035   1.774   2.661   8.784  1.7841  0.9873  1.6706
 7134SOL    HW233036   1.753   2.519   8.814  0.4651 -0.2365 -0.7975
 7135SOL     OW33037   2.679   2.598   6.533  0.0211  0.7083 -0.4040
 7135SOL    HW133038   2.694   2.509   6.501  0.5232  0.4970  0.4154
 7135SOL    HW233039   2.661   2.577   6.625  1.2707 -1.0961 -0.5787
 7136SOL     OW33040   3.261   2.019  10.046  0.0495  0.1110  0.1099
 7136SOL    HW133041   3.213   1.963  10.106 -0.0397  0.6992  0.5835
 7136SOL    HW233042   3.350   1.984  10.047  0.0157 -0.0645 -3.4653
 7137SOL     OW33043   2.754   3.120   1.673 -0.4909  1.1672  0.1359
 7137SOL    HW133044   2.779   3.033   1.639  3.1975  2.6725 -0.9755
 7137SOL    HW233045   2.810   3.127   1.749  3.0492  3.6160 -2.7165
 7138SOL     OW33046   3.432   1.714   1.493  0.5076  0.6571 -0.3368
 7138SOL    HW133047   3.506   1.682   1.545 -1.0860  0.4503  1.8038
 7138SOL    HW233048   3.467   1.713   1.404  0.7129 -3.7761 -0.2006
 7139SOL     OW33049   4.461   1.918  11.548  0.1466  0.4613  0.2960
 7139SOL    HW133050   4.467   1.994  11.490 -3.1799 -0.1691 -0.8232
 7139SOL    HW233051   4.367   1.905  11.550  0.3094 -0.4755  1.8195
 7140SOL     OW33052   0.132   0.318  14.739 -0.5626  0.3255 -0.6498
 7140SOL    HW133053   0.149   0.240  14.685  0.5716  0.0109  0.1545
 7140SOL    HW233054   0.110   0.381  14.671  0.0966  0.9695 -0.2621
 7141SOL     OW33055   1.360   1.788   6.964 -0.1285  0.0256  0.0111
 7141SOL    HW133056   1.321   1.771   6.878  0.2835  0.9825 -0.3636
 7141SOL    HW233057   1.399   1.871   6.938  1.0804 -1.0414 -1.6075
 7142SOL     OW33058   0.534   3.209  15.128  0.2031 -0.5245  0.1462
 7142SOL    HW133059   0.474   3.246  15.192  1.4735 -0.3828  1.2736
 7142SOL    HW233060   0.482   3.148  15.076 -2.4457  2.1220 -0.2855
 7143SOL     OW33061   1.055   0.859   6.816 -0.1882 -0.3152  0.0593
 7143SOL    HW133062   1.112   0.784   6.796 -1.6220 -1.2231 -0.6946
 7143SOL    HW233063   1.123   0.924   6.832 -0.1535 -0.4435  0.4278
 7144SOL     OW33064   2.317   2.184   8.623 -0.3898  0.0987 -0.4210
 7144SOL    HW133065   2.402   2.225   8.638 -0.5124  0.1259  0.2406
 7144SOL    HW233066   2.320   2.118   8.692 -0.4379  0.4310 -0.0990
 7145SOL     OW33067   3.918   0.513   3.309 -0.8924  0.4414  0.0392
 7145SOL    HW133068   3.868   0.431   3.317  2.3095 -1.5305 -0.3644
 7145SOL    HW233069   3.913   0.552   3.396 -1.0937 -0.2171  0.3222
 7146SOL     OW33070   0.752   1.444  16.251 -0.1177 -0.5471  0.2827
 7146SOL    HW133071   0.719   1.532  16.232  0.8178  0.0139  1.2862
 7146SOL    HW233072   0.846   1.462  16.262 -0.7195  3.7486 -1.5438
 7147SOL     OW33073   3.232   3.492  17.415  0.3942  0.2719 -0.2751
 7147SOL    HW133074   3.294   3.455  17.353 -1.3966 -1.9600 -0.7143
 7147SOL    HW233075   3.233   3.584  17.389  2.7140  0.6319  1.0702
 7148SOL     OW33076   4.535   2.966   8.440 -0.6616  0.1535 -0.0974
 7148SOL    HW133077   4.621   3.006   8.456 -1.1740  0.7337  1.1977
 7148SOL    HW233078   4.562   2.898   8.378  3.8495  1.3869  0.5011
 7149SOL     OW33079   3.444   2.874  17.069 -0.4114  0.3980  0.1780
 7149SOL    HW133080   3.464   2.931  16.995 -1.2110 -0.4675 -0.7190
 7149SOL    HW233081   3.449   2.941  17.137  0.7580 -0.9095  1.3900
 7150SOL     OW33082   2.788   3.862   2.025 -0.1575 -0.4441 -0.5523
 7150SOL    HW133083   2.871   3.815   2.029  0.6128  0.6948 -3.0085
 7150SOL    HW233084   2.810   3.947   1.989  1.6514 -0.1366  1.2509
 7151SOL     OW33085   4.469   3.558   5.598 -0.2508  0.0612  1.0165
 7151SOL    HW133086   4.552   3.523   5.631  0.0785 -0.6404 -0.5742
 7151SOL    HW233087   4.394   3.520   5.644  1.5096 -2.6435  1.6191
 7152SOL     OW33088   2.963   4.420   7.084  0.6794 -0.3492  0.1494
 7152SOL    HW133089   2.943   4.506   7.047 -2.9568 -1.6130 -0.7608
 7152SOL    HW233090   2.916   4.436   7.166 -1.0338  0.0408 -0.9070
 7153SOL     OW33091   1.701   0.913  13.793 -0.0312 -0.3320 -0.4913
 7153SOL    HW133092   1.705   0.880  13.882  1.0328  0.1799 -0.3410
 7153SOL    HW233093   1.697   1.006  13.813  0.5531 -0.9997  2.7097
 7154SOL     OW33094   0.285   1.666   8.360 -0.0315  0.4010  0.4310
 7154SOL    HW133095   0.287   1.678   8.265 -1.1185 -1.4661  0.1683
 7154SOL    HW233096   0.194   1.640   8.377  0.1736 -0.5138  0.1319
 7155SOL     OW33097   1.863   0.389  12.540  0.2308 -0.2527  0.5550
 7155SOL    HW133098   1.932   0.438  12.586 -0.2644 -0.6171  1.6928
 7155SOL    HW233099   1.898   0.300  12.534 -3.6003 -1.6102 -1.6409
 7156SOL     OW33100   2.964   1.072   0.252 -0.2547 -0.0168 -0.0150
 7156SOL    HW133101   2.989   1.104   0.338  0.4898  2.0700 -0.9968
 7156SOL    HW233102   3.033   1.008   0.235 -0.1114  0.4035 -1.0307
 7157SOL     OW33103   3.151   0.243   9.848 -0.2498  0.4132 -0.0618
 7157SOL    HW133104   3.085   0.235   9.916  1.7309 -0.4330  1.7566
 7157SOL    HW233105   3.098   0.218   9.772  0.7650  0.3353 -0.7517
 7158SOL     OW33106   3.411   4.380   2.811 -0.2757 -0.2298  0.0649
 7158SOL    HW133107   3.423   4.321   2.736  0.8471  3.5645 -2.7692
 7158SOL    HW233108   3.373   4.327   2.881 -0.4958 -1.0597 -0.6796
 7159SOL     OW33109   1.626   2.210  14.420 -0.5670 -0.0569 -0.1785
 7159SOL    HW133110   1.621   2.146  14.491 -0.9489  2.2164  1.8589
 7159SOL    HW233111   1.697   2.177  14.366 -0.5938  0.8649 -0.7658
 7160SOL     OW33112   2.204   1.808  15.242  0.2584  0.1211 -0.0200
 7160SOL    HW133113   2.256   1.735  15.207  1.5622  1.3515 -0.6692
 7160SOL    HW233114   2.168   1.830  15.156  1.4691  1.6509 -0.1471
 7161SOL     OW33115   4.440   3.688  14.373  0.1360  0.5044 -0.4540
 7161SOL    HW133116   4.379   3.657  14.440  1.9405 -0.2419  0.8771
 7161SOL    HW233117   4.437   3.612  14.315 -2.2228  0.3507 -0.1101
 7162SOL     OW33118   3.236   1.301  15.856  0.2988  0.9162  0.6287
 7162SOL    HW133119   3.236   1.206  15.864 -1.9893  0.8103 -0.7310
 7162SOL    HW233120   3.188   1.311  15.773  1.4084  1.2649  0.0179
 7163SOL     OW33121   3.728   1.180  15.260  0.1356 -0.1904  0.4765
 7163SOL    HW133122   3.653   1.234  15.288 -0.1294 -0.3266  0.0291
 7163SOL    HW233123   3.801   1.239  15.279  1.5685 -1.6925 -0.4603
 7164SOL     OW33124   2.340   2.442  14.533 -0.4431  0.0049  0.0387
 7164SOL    HW133125   2.282   2.428  14.608 -0.8740 -0.2463 -0.3452
 7164SOL    HW233126   2.342   2.354  14.495 -3.1880  0.5519 -1.3636
 7165SOL     OW33127   4.504   4.460   1.960 -0.1021 -0.3035 -0.3139
 7165SOL    HW133128   4.490   4.484   1.868  0.1331 -0.2940 -0.3471
 7165SOL    HW233129   4.550   4.377   1.954  0.4202 -0.2641  2.9830
 7166SOL     OW33130   0.379   0.087   7.722 -0.1775 -0.2606  0.2875
 7166SOL    HW133131   0.372   0.176   7.689  0.6844 -0.0528  0.6719
 7166SOL    HW233132   0.287   0.063   7.718 -0.4414  0.5365  1.4064
 7167SOL     OW33133   0.248   2.613   5.258 -0.1492  0.3772 -0.1754
 7167SOL    HW133134   0.339   2.587   5.244 -0.2358  1.4219 -2.7123
 7167SOL    HW233135   0.233   2.623   5.352  0.2852  1.0369 -0.1755
 7168SOL     OW33136   2.084   0.196   3.560  0.1470 -0.2858 -0.2993
 7168SOL    HW133137   2.039   0.168   3.640 -0.0314  3.6022  0.9542
 7168SOL    HW233138   2.178   0.194   3.576  0.3159  1.4249 -1.1187
 7169SOL     OW33139   4.068   2.688   5.648 -0.0852 -1.0229  0.3864
 7169SOL    HW133140   3.993   2.748   5.648  2.5413  2.2588  0.7098
 7169SOL    HW233141   4.128   2.738   5.704 -0.1843  0.2314 -0.6148
 7170SOL     OW33142   0.739   1.298   4.414  0.2743  0.0172  0.2100
 7170SOL    HW133143   0.776   1.268   4.498 -1.4545 -0.4365  0.8059
 7170SOL    HW233144   0.662   1.242   4.422  1.1305 -1.0347  1.1862
 7171SOL     OW33145   4.151   4.172  12.191 -0.6978 -0.0181  0.1004
 7171SOL    HW133146   4.189   4.234  12.253 -0.7970  0.5439 -0.4132
 7171SOL    HW233147   4.059   4.196  12.199 -1.5831 -3.1117 -0.4985
 7172SOL     OW33148   2.180   3.967   2.084 -0.4221  0.4941 -0.3510
 7172SOL    HW133149   2.086   3.980   2.099 -0.4240 -0.4380  0.4757
 7172SOL    HW233150   2.205   3.948   2.174 -2.0466 -0.4820 -0.0969
 7173SOL     OW33151   1.675   2.678  13.387  0.6200 -0.3327 -0.2096
 7173SOL    HW133152   1.663   2.624  13.466 -3.0459  1.1262  0.2256
 7173SOL    HW233153   1.656   2.766  13.418  0.2506  0.9911 -4.2138
 7174SOL     OW33154   3.365   2.151   3.647 -0.3224 -0.3190  0.5404
 7174SOL    HW133155   3.302   2.148   3.575 -2.1030  1.3327  2.0345
 7174SOL    HW233156   3.446   2.163   3.597  0.2190 -1.5615  1.1185
 7175SOL     OW33157   0.643   1.222   5.401  0.4384  0.6399 -0.5569
 7175SOL    HW133158   0.680   1.170   5.330  0.8608 -1.1036  0.9399
 7175SOL    HW233159   0.720   1.274   5.423  1.8803 -2.0896  0.7053
 7176SOL     OW33160   0.375   0.737   2.824  0.1274  0.3871  0.2656
 7176SOL    HW133161   0.343   0.699   2.742 -1.7559 -0.4070  1.3811
 7176SOL    HW233162   0.413   0.816   2.785  0.7604 -0.7914 -1.4990
 7177SOL     OW33163   2.221   2.271   4.071  0.1319  0.0970 -0.5487
 7177SOL    HW133164   2.244   2.178   4.079 -1.2893 -0.1317  0.9077
 7177SOL    HW233165   2.298   2.303   4.023  0.7655 -1.4892 -0.5978
 7178SOL     OW33166   0.014   1.380  13.979 -0.0121 -0.0193  0.1403
 7178SOL    HW133167   0.018   1.328  14.059 -1.3510 -3.7703 -2.2174
 7178SOL    HW233168   4.716   1.316  13.915  1.1545 -0.8765  0.3973
 7179SOL     OW33169   1.987   0.297  14.751 -0.2464  0.1999  0.4082
 7179SOL    HW133170   2.001   0.251  14.834 -0.5366  0.8950  0.8394
 7179SOL    HW233171   2.077   0.318  14.726 -0.8880  1.6948 -0.6368
 7180SOL     OW33172   1.208   4.378   2.351 -0.0367  0.0946  0.1394
 7180SOL    HW133173   1.262   4.392   2.429 -0.2865  4.1164 -0.3836
 7180SOL    HW233174   1.213   4.286   2.328  0.8841  0.0457  0.5498
 7181SOL     OW33175   2.132   3.352   6.452 -0.5604 -0.1039  0.3824
 7181SOL    HW133176   2.119   3.273   6.399  0.7765 -1.8642  2.7029
 7181SOL    HW233177   2.165   3.419   6.391 -0.0164  0.8003  1.6830
 7182SOL     OW33178   2.367   2.546   6.207 -0.0101 -0.1349 -0.3264
 7182SOL    HW133179   2.336   2.598   6.281  0.5364 -0.9091  0.4382
 7182SOL    HW233180   2.435   2.609   6.181 -0.7006  1.4840  1.8496
 7183SOL     OW33181   0.216   0.977   7.643 -0.2326 -0.0711 -0.2181
 7183SOL    HW133182   0.303   1.018   7.645 -0.9366  1.4900 -2.0156
 7183SOL    HW233183   0.224   0.916   7.716 -0.8029  1.4018  1.0748
 7184SOL     OW33184   0.433   3.817   9.535 -0.8018  0.7396 -0.3985
 7184SOL    HW133185   0.459   3.822   9.627 -0.1279 -2.4724 -0.4011
 7184SOL    HW233186   0.364   3.751   9.533 -1.0727  1.0244 -0.3886
 7185SOL     OW33187   2.004   0.366   2.002  0.0950  0.0337 -0.8196
 7185SOL    HW133188   2.064   0.424   2.050  4.0095 -3.2450 -1.7998
 7185SOL    HW233189   1.949   0.418   1.943  1.1420  2.6968  0.5319
 7186SOL     OW33190   1.337   4.163   6.364 -0.4242  0.3526 -0.5125
 7186SOL    HW133191   1.334   4.116   6.448 -0.8006 -0.4023 -0.9521
 7186SOL    HW233192   1.416   4.216   6.373  0.1594 -0.5583 -0.1947
 7187SOL     OW33193   1.265   0.827   1.982  0.1340 -0.2556  0.1868
 7187SOL    HW133194   1.257   0.917   1.950  3.3738  0.8000  2.3577
 7187SOL    HW233195   1.240   0.842   2.073  0.4205 -2.0476  0.5581
 7188SOL     OW33196   3.447   4.557   0.181 -0.1411  1.1844  0.0632
 7188SOL    HW133197   3.359   4.521   0.186  0.7214 -0.7614  1.3256
 7188SOL    HW233198   3.480   4.496   0.115 -0.3291  0.4783  0.6250
 7189SOL     OW33199   3.724   0.055   5.139  0.1112  0.1044  0.1944
 7189SOL    HW133200   3.696   0.144   5.114  1.8193  0.5267 -0.1804
 7189SOL    HW233201   3.819   0.061   5.149  0.0753 -0.4865  0.8286
 7190SOL     OW33202   4.482   1.194  15.982  0.0025 -0.3691 -0.2052
 7190SOL    HW133203   4.427   1.271  15.998  1.6843  0.8385 -0.2174
 7190SOL    HW233204   4.568   1.219  16.015  0.2546 -2.6915  0.8763
 7191SOL     OW33205   0.141   2.892   2.634 -0.8531  0.5147  0.0106
 7191SOL    HW133206   0.107   2.973   2.595 -0.1792  0.8694  0.1619
 7191SOL    HW233207   0.235   2.909   2.634 -1.2392  2.8388 -2.3375
 7192SOL     OW33208   2.319   4.468  10.401 -0.0948  0.0443  0.2483
 7192SOL    HW133209   2.328   4.373  10.390  1.0832  0.4330 -2.2891
 7192SOL    HW233210   2.296   4.501  10.314 -1.5172 -0.3535  0.4860
 7193SOL     OW33211   1.467   1.988   1.395  0.8146 -0.1841 -0.2812
 7193SOL    HW133212   1.374   1.984   1.419  2.0082  0.4148  4.4464
 7193SOL    HW233213   1.491   2.064   1.447 -1.1340 -1.1143  1.9891
 7194SOL     OW33214   2.623   2.019   4.363  0.3991  0.2828 -0.0087
 7194SOL    HW133215   2.610   2.094   4.305  3.1545 -0.6290 -1.8039
 7194SOL    HW233216   2.668   1.966   4.297  0.7363  1.1566 -0.4863
 7195SOL     OW33217   3.111   2.693   7.476 -0.9041 -0.8015 -0.0870
 7195SOL    HW133218   3.032   2.736   7.510  0.8723  0.4890  2.3582
 7195SOL    HW233219   3.154   2.766   7.431  0.3294 -0.8244  1.0862
 7196SOL     OW33220   2.294   0.576   6.073  0.2245 -0.0369  0.0150
 7196SOL    HW133221   2.292   0.589   5.978  2.0279  0.2091  0.0138
 7196SOL    HW233222   2.262   0.486   6.081  2.2074 -0.7607 -0.2029
 7197SOL     OW33223   2.021   2.697   9.988 -0.1810 -0.0067 -0.1620
 7197SOL    HW133224   1.929   2.697   9.960 -0.6733 -1.6560  1.4570
 7197SOL    HW233225   2.056   2.764   9.930  1.1003  1.4561  2.2700
 7198SOL     OW33226   0.634   1.038   0.099  0.2011  0.6544 -0.6111
 7198SOL    HW133227   0.684   1.010   0.175 -1.5988 -1.2886 -0.1215
 7198SOL    HW233228   0.619   1.123   0.139  2.4589  0.1048  1.3579
 7199SOL     OW33229   3.543   0.965   9.785 -0.0952 -0.1835 -0.3297
 7199SOL    HW133230   3.475   0.959   9.852  0.4093  0.6950  0.2704
 7199SOL    HW233231   3.510   0.897   9.727  0.0981  0.4667 -1.2234
 7200SOL     OW33232   4.325   0.438   9.229  0.4721  0.2025 -0.3350
 7200SOL    HW133233   4.361   0.351   9.242  3.0467  1.3373  0.0763
 7200SOL    HW233234   4.399   0.493   9.255  0.0237  0.6040  0.0790
 7201SOL     OW33235   4.044   4.356   1.361 -0.9420  0.0723 -0.3356
 7201SOL    HW133236   3.991   4.278   1.348 -0.6706 -0.3395  0.9984
 7201SOL    HW233237   4.105   4.323   1.428  1.2017  1.8106 -1.4122
 7202SOL     OW33238   4.690   1.109  13.841  0.7298 -0.3982 -0.4714
 7202SOL    HW133239   4.689   1.038  13.776  1.4321  0.1270 -1.0643
 7202SOL    HW233240   4.732   1.052  13.906  0.0585 -0.1075  0.2067
 7203SOL     OW33241   2.638   2.311   7.863 -0.4461 -0.1956 -0.7546
 7203SOL    HW133242   2.592   2.358   7.794  0.5462  0.7377 -0.7778
 7203SOL    HW233243   2.596   2.352   7.938 -0.9730  0.1909 -1.2706
 7204SOL     OW33244   0.502   4.350   9.497 -0.0619 -0.0431 -0.6462
 7204SOL    HW133245   0.584   4.344   9.546 -1.0395  1.5969  1.1799
 7204SOL    HW233246   0.538   4.314   9.415 -2.2299  1.4035 -2.2158
 7205SOL     OW33247   1.435   4.130   5.586 -0.3726  0.3296 -0.3555
 7205SOL    HW133248   1.443   4.035   5.593  0.2555  0.2507 -2.0937
 7205SOL    HW233249   1.506   4.157   5.644  1.4225 -1.7759 -1.5420
 7206SOL     OW33250   1.582   3.457   5.879 -0.0214  0.2158 -0.5853
 7206SOL    HW133251   1.558   3.440   5.789 -1.0569  1.4126 -0.5312
 7206SOL    HW233252   1.659   3.400   5.878 -1.9020 -2.3604  2.2014
 7207SOL     OW33253   0.292   1.278  14.971 -0.5078 -0.1999 -0.1576
 7207SOL    HW133254   0.285   1.186  14.944  0.8822  0.1318 -1.6603
 7207SOL    HW233255   0.214   1.321  14.934  0.8639  1.9911 -0.5254
 7208SOL     OW33256   2.535   2.208   5.183  0.1959  0.4074 -0.0810
 7208SOL    HW133257   2.467   2.242   5.125  0.6777 -1.0867 -1.5285
 7208SOL    HW233258   2.486   2.140   5.228 -0.3593 -0.8271 -2.5697
 7209SOL     OW33259   3.102   0.700   3.512  0.2151 -0.1671  0.1900
 7209SOL    HW133260   3.154   0.779   3.530 -0.2561  0.4769 -1.2339
 7209SOL    HW233261   3.153   0.628   3.550  0.5572  0.2851  0.5839
 7210SOL     OW33262   1.022   4.371   4.040 -0.8079 -0.2866 -0.1719
 7210SOL    HW133263   0.968   4.347   4.116 -1.0618 -0.9243 -0.5497
 7210SOL    HW233264   0.967   4.363   3.962  2.4265  0.1955 -2.4991
 7211SOL     OW33265   3.584   0.422  16.803  0.4764  0.0394  0.3298
 7211SOL    HW133266   3.667   0.377  16.781 -0.8632 -1.9923 -0.6015
 7211SOL    HW233267   3.611   0.514  16.798  0.4812  0.0618  0.8248
 7212SOL     OW33268   2.162   1.766   9.619  0.4592  0.7323  0.3015
 7212SOL    HW133269   2.081   1.781   9.667 -0.7744 -0.1165 -1.5445
 7212SOL    HW233270   2.186   1.858   9.613  0.9323  0.7386  2.0207
 7213SOL     OW33271   3.319   4.695   4.984 -0.1681  0.5741  0.0084
 7213SOL    HW133272   3.343   4.603   5.001 -0.7151  0.6996  1.5136
 7213SOL    HW233273   3.329   4.723   5.075  1.8386 -3.9566  1.1978
 7214SOL     OW33274   3.018   0.348   1.779 -0.3911  0.6485  0.2449
 7214SOL    HW133275   2.927   0.340   1.808 -0.2149  0.2950  0.7043
 7214SOL    HW233276   3.021   0.441   1.800 -1.2704  0.7006  0.1318
 7215SOL     OW33277   3.852   0.602   0.290 -0.6957  0.2076  0.1876
 7215SOL    HW133278   3.779   0.575   0.234  1.0100 -1.0385 -1.4412
 7215SOL    HW233279   3.909   0.534   0.255 -0.8872  0.2924 -0.3017
 7216SOL     OW33280   3.984   3.899   4.385  0.5337 -0.0128  0.2053
 7216SOL    HW133281   3.917   3.927   4.323  0.5834 -1.1706 -0.3638
 7216SOL    HW233282   4.058   3.948   4.348 -0.7783  0.4666 -1.7799
 7217SOL     OW33283   4.361   0.556   0.985  0.0855  0.0658 -0.2879
 7217SOL    HW133284   4.346   0.561   1.079 -0.9194 -1.4739 -0.3591
 7217SOL    HW233285   4.318   0.470   0.981  0.7902 -0.3230  0.4300
 7218SOL     OW33286   3.486   4.573   3.623  0.2452 -0.2559 -0.1252
 7218SOL    HW133287   3.483   4.625   3.703 -1.0696 -0.7588  0.1531
 7218SOL    HW233288   3.448   4.490   3.650  0.7322 -0.7466 -0.9429
 7219SOL     OW33289   1.459   2.195   1.568 -0.3094 -0.3821  0.4578
 7219SOL    HW133290   1.368   2.222   1.582 -0.0340  1.3311 -0.9414
 7219SOL    HW233291   1.492   2.202   1.657  1.1297 -2.5716  0.0895
 7220SOL     OW33292   0.607   3.835   4.297  0.2663 -0.2420  0.2301
 7220SOL    HW133293   0.600   3.821   4.391  0.4691 -1.3033  0.0887
 7220SOL    HW233294   0.684   3.782   4.278  0.9218  0.8580 -0.1960
 7221SOL     OW33295   0.322   3.377   5.958 -0.1175 -0.0906 -0.3552
 7221SOL    HW133296   0.329   3.458   6.008  3.3351 -0.5550 -0.0165
 7221SOL    HW233297   0.381   3.321   6.010  1.5219  0.9885 -1.0433
 7222SOL     OW33298   1.738   4.374   8.845  0.3382 -0.0341 -0.0174
 7222SOL    HW133299   1.767   4.332   8.764  1.2865 -0.6059  0.6157
 7222SOL    HW233300   1.675   4.437   8.809  0.9323  0.5938  0.0403
 7223SOL     OW33301   4.154   1.755   0.675  0.0879  0.2406 -0.4969
 7223SOL    HW133302   4.108   1.836   0.653 -0.2405  0.0673 -0.4632
 7223SOL    HW233303   4.087   1.693   0.644 -0.9046  1.0050  0.1320
 7224SOL     OW33304   2.425   4.480   2.575  0.4993 -0.0230  0.0910
 7224SOL    HW133305   2.433   4.448   2.665  1.0100  1.5921  0.6194
 7224SOL    HW233306   2.376   4.413   2.528  0.6103 -0.6053  0.7945
 7225SOL     OW33307   4.715   4.074   5.106  0.8416 -0.1111 -0.6509
 7225SOL    HW133308   0.066   4.099   5.140  0.5635  0.0836 -0.1028
 7225SOL    HW233309   4.708   3.991   5.153  1.0054 -0.3465 -1.0432
 7226SOL     OW33310   1.389   2.019  12.566  0.1855 -0.1983 -0.1629
 7226SOL    HW133311   1.371   2.097  12.619  0.2202 -0.8451  0.8030
 7226SOL    HW233312   1.478   2.003  12.596  1.0960  1.7971 -1.8517
 7227SOL     OW33313   0.520   1.923   5.292 -0.1037  0.4317  0.2788
 7227SOL    HW133314   0.591   1.886   5.239  0.2278 -0.5683  1.4270
 7227SOL    HW233315   0.529   1.866   5.368 -1.5736 -0.1836 -0.0106
 7228SOL     OW33316   4.034   0.821   2.084 -0.0941  0.1337 -0.4412
 7228SOL    HW133317   4.040   0.917   2.090 -2.4430  0.3225 -1.3995
 7228SOL    HW233318   4.027   0.794   2.176  1.9153  0.6571 -0.1319
 7229SOL     OW33319   1.481   4.429   5.762 -0.3496  0.1166  0.4023
 7229SOL    HW133320   1.424   4.505   5.767 -2.5106 -1.3286 -2.0117
 7229SOL    HW233321   1.438   4.373   5.827  0.5760 -0.7772  0.2443
 7230SOL     OW33322   1.013   2.528   7.596 -0.2461 -0.2386 -0.1630
 7230SOL    HW133323   1.102   2.561   7.584 -0.2618  0.7761  2.3589
 7230SOL    HW233324   0.992   2.562   7.684 -4.2815  2.1841 -2.0375
 7231SOL     OW33325   1.709   3.089  16.926 -0.1158  0.7916  0.5246
 7231SOL    HW133326   1.709   3.163  16.987 -1.1479  0.0007  1.4897
 7231SOL    HW233327   1.692   3.134  16.844  2.6066  0.8348 -0.0100
 7232SOL     OW33328   2.187   2.141   1.301 -0.7983 -0.1891 -0.2814
 7232SOL    HW133329   2.153   2.064   1.255 -1.1287  1.1559 -2.3070
 7232SOL    HW233330   2.261   2.096   1.340  1.1386  1.1978 -2.3077
 7233SOL     OW33331   0.831   1.968   3.696 -0.1588 -0.2586 -0.4646
 7233SOL    HW133332   0.879   2.049   3.711 -1.8163  0.5827  0.3282
 7233SOL    HW233333   0.854   1.907   3.767  0.8898 -2.1802 -2.4771
 7234SOL     OW33334   1.801   4.642  16.157  0.0144  0.6053 -0.0625
 7234SOL    HW133335   1.802   4.716  16.218 -1.6501  0.0473  0.6359
 7234SOL    HW233336   1.748   4.581  16.207  1.6999  0.4683  1.5619
 7235SOL     OW33337   1.550   2.950   7.667  0.1997 -0.2603 -0.0309
 7235SOL    HW133338   1.639   2.932   7.698  0.1672 -3.1820 -1.6232
 7235SOL    HW233339   1.556   3.045   7.657 -2.1228 -0.0325  0.7633
 7236SOL     OW33340   0.785   4.464   8.791  0.2057  0.2261  0.7478
 7236SOL    HW133341   0.765   4.554   8.815 -1.6103  0.4646 -1.6154
 7236SOL    HW233342   0.801   4.468   8.696  0.5888 -0.6139  0.7752
 7237SOL     OW33343   2.094   3.981   6.415 -0.4793  0.0784  0.5730
 7237SOL    HW133344   2.173   3.975   6.361  0.1580 -0.4213  1.5655
 7237SOL    HW233345   2.132   4.003   6.500 -1.0361 -0.7790  1.0303
 7238SOL     OW33346   0.408   2.772  14.308  0.0707  0.0195 -0.7108
 7238SOL    HW133347   0.488   2.803  14.264  0.5754 -0.2641  0.0065
 7238SOL    HW233348   0.338   2.806  14.253 -0.4161  0.4548  0.1730
 7239SOL     OW33349   1.558   0.344  12.085  0.0132  0.1821 -0.1449
 7239SOL    HW133350   1.628   0.410  12.089  1.0348 -0.7824 -2.2628
 7239SOL    HW233351   1.600   0.261  12.064 -0.0089 -0.4521  2.3408
 7240SOL     OW33352   2.668   2.228   6.680  0.5289  0.2647 -0.6478
 7240SOL    HW133353   2.650   2.318   6.708  1.4563 -0.7230  3.1841
 7240SOL    HW233354   2.583   2.199   6.646  1.6032 -4.0166  0.2476
 7241SOL     OW33355   0.213   2.851   3.037  0.0729 -0.6654 -0.2280
 7241SOL    HW133356   0.295   2.888   3.005 -1.0447  1.6845 -0.3645
 7241SOL    HW233357   0.226   2.824   3.128 -0.3167 -2.4731 -0.6986
 7242SOL     OW33358   0.980   1.046   5.603 -0.2068  0.1807  0.0240
 7242SOL    HW133359   0.912   1.033   5.668 -0.0572  0.7767  0.3072
 7242SOL    HW233360   0.936   1.075   5.524 -2.9432 -1.0087  1.0992
 7243SOL     OW33361   4.102   2.723  12.237  0.8650 -0.7671 -0.1754
 7243SOL    HW133362   4.088   2.629  12.250 -0.5999 -0.6804 -1.1063
 7243SOL    HW233363   4.030   2.765  12.285  1.2232  0.1358 -0.4297
 7244SOL     OW33364   0.622   2.345   9.017  0.0953  0.3214  0.5325
 7244SOL    HW133365   0.598   2.390   8.936 -1.2412  0.3118  0.9279
 7244SOL    HW233366   0.536   2.356   9.057  0.4891 -1.1796  1.7866
 7245SOL     OW33367   0.983   1.417   8.978 -0.1154 -0.0448  0.1522
 7245SOL    HW133368   0.941   1.419   9.063  0.6698 -0.4088  0.5532
 7245SOL    HW233369   1.053   1.480   8.996 -1.2007  1.2147 -0.0492
 7246SOL     OW33370   4.709   1.912  15.151 -0.0576  0.2127 -0.1636
 7246SOL    HW133371   0.054   1.964  15.143 -0.7664  1.1939 -0.7662
 7246SOL    HW233372   4.638   1.971  15.176  0.0698  1.7406 -3.4283
 7247SOL     OW33373   0.859   0.154  13.659 -0.1419 -0.1714  0.8103
 7247SOL    HW133374   0.897   0.122  13.740 -1.1512 -1.9397  0.5704
 7247SOL    HW233375   0.778   0.190  13.695 -0.5158  0.0465 -0.2204
 7248SOL     OW33376   2.592   0.018   1.962 -0.2178  0.1870 -0.4412
 7248SOL    HW133377   2.635   0.016   1.876  1.8105 -0.9201  0.5797
 7248SOL    HW233378   2.517   4.695   1.948 -0.1267  0.0447 -0.3583
 7249SOL     OW33379   0.203   0.118  15.295 -0.4384 -0.0058 -0.0745
 7249SOL    HW133380   0.200   0.149  15.386  0.8676 -1.0102  0.3100
 7249SOL    HW233381   0.156   0.035  15.298 -1.4857  0.6078  0.5220
 7250SOL     OW33382   4.628   3.651   1.338 -0.6608  0.4869  0.0078
 7250SOL    HW133383   4.641   3.557   1.351  1.7008  0.3298 -3.7831
 7250SOL    HW233384   4.706   3.668   1.286 -0.6934  0.3215 -0.0956
 7251SOL     OW33385   3.434   1.181   4.980  0.2422  0.2883  0.0699
 7251SOL    HW133386   3.461   1.272   4.963  2.1562 -0.2317  0.2613
 7251SOL    HW233387   3.401   1.154   4.895  0.3425 -3.3690  1.2033
 7252SOL     OW33388   2.167   0.348  12.656 -0.6982 -0.0400 -0.4493
 7252SOL    HW133389   2.213   0.387  12.582 -2.3892  1.9572 -0.4477
 7252SOL    HW233390   2.198   0.408  12.723 -0.4987 -0.1616 -0.4320
 7253SOL     OW33391   0.813   2.309   4.589  0.3391  0.4665  0.0010
 7253SOL    HW133392   0.780   2.248   4.656  1.3370  2.1295  2.0076
 7253SOL    HW233393   0.896   2.333   4.629  2.2523 -1.4362 -2.8448
 7254SOL     OW33394   4.603   0.377   4.480 -0.3111  0.0575  0.0974
 7254SOL    HW133395   4.547   0.450   4.452 -0.1171 -0.1169 -0.7409
 7254SOL    HW233396   4.638   0.344   4.398 -1.3694  0.0443 -0.3514
 7255SOL     OW33397   1.939   2.076   8.112 -0.4031  0.0184  0.6668
 7255SOL    HW133398   1.905   2.020   8.181 -1.2166 -0.3193 -0.0039
 7255SOL    HW233399   2.025   2.092   8.150 -0.3003 -2.4080  1.4034
 7256SOL     OW33400   1.501   0.699  12.585  0.0054  0.2314  0.0009
 7256SOL    HW133401   1.570   0.745  12.536  0.9491 -0.3570  0.7769
 7256SOL    HW233402   1.459   0.771  12.631 -0.1552 -1.2913  2.2515
 7257SOL     OW33403   0.427   0.245  14.756 -0.5567  0.4025  0.0322
 7257SOL    HW133404   0.445   0.155  14.728  0.1412 -0.0212  1.8383
 7257SOL    HW233405   0.333   0.248  14.774 -0.2015  0.9363  1.8460
 7258SOL     OW33406   4.389   0.565   4.706  0.0656  0.0045  0.3131
 7258SOL    HW133407   4.377   0.579   4.613  1.8244 -1.7689 -0.1956
 7258SOL    HW233408   4.356   0.646   4.744 -0.7634 -0.5609  0.8037
 7259SOL     OW33409   1.821   4.500   2.284  0.0737 -0.0036 -0.0865
 7259SOL    HW133410   1.734   4.529   2.311  0.2012  0.6398 -0.3602
 7259SOL    HW233411   1.851   4.588   2.307 -1.1632  0.7835 -1.4885
 7260SOL     OW33412   2.649   3.837   6.192  0.5139 -0.1635 -0.1197
 7260SOL    HW133413   2.615   3.772   6.130 -0.1188  0.8206 -0.8142
 7260SOL    HW233414   2.740   3.842   6.164  0.4934  0.3920 -0.0882
 7261SOL     OW33415   1.467   4.559  12.149  0.1458  0.1402  0.1063
 7261SOL    HW133416   1.518   4.536  12.226 -2.1805  1.2692  1.9680
 7261SOL    HW233417   1.393   4.498  12.156 -1.1196  1.7090  0.4234
 7262SOL     OW33418   3.262   4.088   9.382 -0.0531 -0.0892  0.0510
 7262SOL    HW133419   3.182   4.105   9.333 -0.3857  0.2910  0.7314
 7262SOL    HW233420   3.313   4.051   9.309  0.4250  0.8540 -0.0907
 7263SOL     OW33421   1.168   0.698   3.788  0.1751  0.3372  0.6889
 7263SOL    HW133422   1.102   0.724   3.723  0.9667 -0.9176 -0.5837
 7263SOL    HW233423   1.204   0.780   3.823 -1.9581  1.6216 -0.0548
 7264SOL     OW33424   1.158   1.895   3.416  0.0171 -0.2141 -0.2484
 7264SOL    HW133425   1.216   1.827   3.449  0.0719  0.5978  1.3366
 7264SOL    HW233426   1.155   1.964   3.483  1.0617 -0.9365  0.5462
 7265SOL     OW33427   0.803   0.600   1.295 -0.1267  0.4280  0.0339
 7265SOL    HW133428   0.807   0.545   1.373  0.2696  0.2002 -0.1485
 7265SOL    HW233429   0.708   0.612   1.298 -0.3614 -0.7240 -3.2781
 7266SOL     OW33430   1.997   2.526  10.355 -0.6706 -0.1110 -0.3775
 7266SOL    HW133431   1.963   2.493  10.438  0.9498 -1.7511 -0.3698
 7266SOL    HW233432   1.925   2.485  10.309  0.6726 -2.5201 -0.3355
 7267SOL     OW33433   0.335   0.205  17.235 -0.0564  0.0811 -0.3669
 7267SOL    HW133434   0.323   0.209  17.141 -0.4593 -3.2027 -0.4636
 7267SOL    HW233435   0.401   0.273  17.250 -1.0217  0.8653  0.2776
 7268SOL     OW33436   1.977   2.055   9.376  0.1631  0.5937  0.0191
 7268SOL    HW133437   1.961   1.971   9.332  1.5790  1.1364 -1.5071
 7268SOL    HW233438   1.904   2.113   9.355 -0.2337  0.3087  0.6112
 7269SOL     OW33439   2.341   0.863   9.245 -0.2998 -0.2363 -0.5295
 7269SOL    HW133440   2.419   0.918   9.248  0.2678 -1.1632  1.4080
 7269SOL    HW233441   2.370   0.772   9.244 -0.4029 -0.2761 -0.0097
 7270SOL     OW33442   1.051   1.901   7.675 -0.1882  0.0112  0.0626
 7270SOL    HW133443   1.117   1.836   7.650 -0.9526 -1.0907  0.9129
 7270SOL    HW233444   1.114   1.966   7.707 -0.5274  0.4313 -0.1393
 7271SOL     OW33445   1.888   3.692  10.995  0.2861  0.0215  0.1464
 7271SOL    HW133446   1.835   3.772  10.993  0.6899  0.2546 -1.1786
 7271SOL    HW233447   1.951   3.711  11.064 -0.1535 -0.5381  0.7016
 7272SOL     OW33448   3.462   4.544  12.733 -0.1366  0.1348  0.5877
 7272SOL    HW133449   3.501   4.469  12.778 -1.0673  1.2867  3.2854
 7272SOL    HW233450   3.490   4.529  12.643  2.6589  1.4418  1.2229
 7273SOL     OW33451   1.093   0.288   2.293  0.5566  0.1223 -0.1277
 7273SOL    HW133452   1.110   0.311   2.202  1.1538  0.2734  0.0201
 7273SOL    HW233453   1.035   0.212   2.285  1.0535 -0.0376 -2.0495
 7274SOL     OW33454   0.447   4.223   7.540  0.5075  0.0933 -0.2662
 7274SOL    HW133455   0.526   4.201   7.589 -0.3094 -0.8489  0.6246
 7274SOL    HW233456   0.386   4.160   7.578 -0.9009  1.3261 -0.4653
 7275SOL     OW33457   3.795   2.339  15.410 -0.1671 -0.2134 -0.6841
 7275SOL    HW133458   3.759   2.402  15.473  2.3767  1.5524 -1.0131
 7275SOL    HW233459   3.777   2.379  15.324  2.8332  0.5563 -0.9350
 7276SOL     OW33460   3.189   0.403  11.521  0.0770 -0.0123  0.4743
 7276SOL    HW133461   3.218   0.324  11.475  0.2175  1.3523 -1.7852
 7276SOL    HW233462   3.103   0.416  11.481  0.9414 -0.5568 -1.5837
 7277SOL     OW33463   4.279   4.494   9.288  0.3232 -0.2160  0.1437
 7277SOL    HW133464   4.293   4.588   9.291  2.9985 -0.6076  0.1234
 7277SOL    HW233465   4.292   4.464   9.378  5.1529 -1.6218 -1.0482
 7278SOL     OW33466   2.863   3.213  16.607  0.5972 -0.3431 -0.3035
 7278SOL    HW133467   2.936   3.237  16.549 -0.0921  1.1668 -0.5401
 7278SOL    HW233468   2.840   3.129  16.566  0.9138 -0.7386  0.3260
 7279SOL     OW33469   2.897   4.360  13.943 -0.6719  0.0804 -0.5437
 7279SOL    HW133470   2.850   4.282  13.913  1.7314 -1.6177  0.1826
 7279SOL    HW233471   2.975   4.349  13.888 -0.2116 -1.3339  0.4068
 7280SOL     OW33472   4.043   3.341   4.141  0.1107 -0.0147 -0.2991
 7280SOL    HW133473   3.970   3.297   4.098  1.6152 -1.9267 -0.9289
 7280SOL    HW233474   4.005   3.406   4.200 -0.1592 -1.1542  0.7740
 7281SOL     OW33475   0.041   1.063  11.866  0.3187 -0.6085  0.5608
 7281SOL    HW133476   4.718   1.075  11.790  1.4137 -1.7116 -0.4456
 7281SOL    HW233477   4.713   1.022  11.926  2.2033  0.0487  2.9728
 7282SOL     OW33478   1.189   1.931   3.126  0.7002  0.5236  0.9179
 7282SOL    HW133479   1.116   1.960   3.072  0.3792 -2.3630 -0.1694
 7282SOL    HW233480   1.144   1.904   3.206  1.6970  0.3630  1.4296
 7283SOL     OW33481   0.249   2.278  17.320  0.4327  0.3678  0.0165
 7283SOL    HW133482   0.169   2.305  17.365  0.6902  2.9293 -1.0643
 7283SOL    HW233483   0.254   2.348  17.255  1.8368  0.4309  0.1963
 7284SOL     OW33484   0.042   3.649   6.527 -0.7371  0.4738  0.0685
 7284SOL    HW133485   0.081   3.652   6.439 -1.0830  2.4631 -0.0202
 7284SOL    HW233486   0.051   3.740   6.554 -0.2658  1.0573 -2.0474
 7285SOL     OW33487   2.311   2.228   6.987 -0.2410  0.0919 -0.4983
 7285SOL    HW133488   2.320   2.253   6.895  0.1256  2.1307  0.0892
 7285SOL    HW233489   2.310   2.134   6.971  1.8984 -0.5592  3.1747
 7286SOL     OW33490   2.592   4.350   5.051 -0.7056  0.0820  0.5463
 7286SOL    HW133491   2.631   4.388   5.129  0.0226 -1.0585  0.7497
 7286SOL    HW233492   2.559   4.427   5.005  0.6448  0.9302  1.0012
 7287SOL     OW33493   1.866   2.142  15.044 -0.3938 -0.0442 -1.3888
 7287SOL    HW133494   1.863   2.237  15.038 -1.0452 -0.1494 -2.6461
 7287SOL    HW233495   1.952   2.129  15.084 -0.3349 -1.7959 -2.0796
 7288SOL     OW33496   1.332   0.518  13.567  0.1988 -0.2574  0.2902
 7288SOL    HW133497   1.249   0.556  13.536 -0.1844 -0.7855  0.6612
 7288SOL    HW233498   1.369   0.467  13.495 -0.3392 -0.0035 -0.1704
 7289SOL     OW33499   2.845   3.305   3.800 -0.1511 -0.5408  0.1413
 7289SOL    HW133500   2.774   3.336   3.743  0.0465 -1.8151 -0.7967
 7289SOL    HW233501   2.805   3.226   3.836  2.0019 -2.7278 -2.2422
 7290SOL     OW33502   0.944   0.749   6.156 -0.1510 -0.1114 -0.1859
 7290SOL    HW133503   0.880   0.817   6.134  0.3164  1.0000  1.9791
 7290SOL    HW233504   0.899   0.694   6.219 -1.7261 -0.5091 -1.6310
 7291SOL     OW33505   0.949   4.723   3.842 -0.0268  0.7091 -0.3175
 7291SOL    HW133506   1.003   0.066   3.834  0.9628 -0.2358 -2.7578
 7291SOL    HW233507   0.901   0.012   3.922 -1.2609 -1.3815 -0.4335
 7292SOL     OW33508   2.141   2.717  10.744  0.1513  0.0467  0.6971
 7292SOL    HW133509   2.052   2.686  10.724 -0.2647  2.2835 -0.8831
 7292SOL    HW233510   2.166   2.745  10.656 -0.1575 -0.9522  0.2881
 7293SOL     OW33511   4.553   1.641  14.270  0.4203  0.4149  0.0588
 7293SOL    HW133512   4.623   1.607  14.326  0.2150  0.6963  0.4836
 7293SOL    HW233513   4.586   1.629  14.181 -0.1127 -4.2074  0.5199
 7294SOL     OW33514   3.785   2.524   8.185  0.3422 -0.6141  0.3181
 7294SOL    HW133515   3.738   2.443   8.205 -1.1660  0.4006  0.8878
 7294SOL    HW233516   3.779   2.562   8.272 -1.5171  0.7900 -0.4108
 7295SOL     OW33517   3.588   4.527   3.060  0.0804 -0.3496 -0.7454
 7295SOL    HW133518   3.671   4.553   3.100 -0.4663  0.1432  0.0620
 7295SOL    HW233519   3.623   4.451   3.013  0.9314  0.9958 -2.3297
 7296SOL     OW33520   4.525   0.527  16.259  0.4830 -0.1302 -0.0439
 7296SOL    HW133521   4.582   0.547  16.185 -0.4171  0.3182 -0.6063
 7296SOL    HW233522   4.574   0.478  16.325 -0.8192 -0.8479  0.4061
 7297SOL     OW33523   1.228   2.271   1.465  0.7195  0.6578 -0.4301
 7297SOL    HW133524   1.177   2.193   1.444 -2.4975  1.9862  2.5014
 7297SOL    HW233525   1.168   2.337   1.430 -1.1435 -0.3566  0.8267
 7298SOL     OW33526   2.399   3.110   4.677 -0.1449  0.5144  0.6199
 7298SOL    HW133527   2.440   3.025   4.666 -0.0908  0.9852 -3.1192
 7298SOL    HW233528   2.308   3.082   4.676 -0.2513  0.8547  0.4167
 7299SOL     OW33529   2.594   0.397   8.080 -0.3501 -0.2669  0.0123
 7299SOL    HW133530   2.597   0.480   8.128  3.0198  1.1945 -2.7085
 7299SOL    HW233531   2.686   0.390   8.055 -0.0672  2.7211  0.2413
 7300SOL     OW33532   4.279   1.232   8.188 -0.3559 -0.5249 -0.2582
 7300SOL    HW133533   4.303   1.253   8.278  0.1501  0.2031 -0.5648
 7300SOL    HW233534   4.342   1.163   8.170 -0.4663 -0.0773 -2.3379
 7301SOL     OW33535   2.167   1.006   2.478  0.0030 -0.2620 -0.0209
 7301SOL    HW133536   2.191   1.055   2.557  0.4635 -2.9284  1.4942
 7301SOL    HW233537   2.251   0.968   2.453  0.8418  0.6861  1.3756
 7302SOL     OW33538   1.452   3.408   5.629  0.2538  0.0249  0.3345
 7302SOL    HW133539   1.494   3.481   5.585 -0.9724  0.5428  0.0118
 7302SOL    HW233540   1.466   3.341   5.562 -1.3023 -0.6887  0.7257
 7303SOL     OW33541   1.236   2.960   8.229 -0.4929  0.4021  0.3758
 7303SOL    HW133542   1.235   2.879   8.279 -1.0764 -0.2231 -0.6278
 7303SOL    HW233543   1.309   2.948   8.168 -1.4701 -0.2339 -0.6767
 7304SOL     OW33544   1.355   2.369   0.391 -0.4029 -0.4276  0.3467
 7304SOL    HW133545   1.264   2.383   0.417  0.0305  1.7783  0.6111
 7304SOL    HW233546   1.402   2.385   0.473  1.2775 -2.3492 -0.2378
 7305SOL     OW33547   0.384   1.902   4.062  0.4485  0.2271  0.3909
 7305SOL    HW133548   0.368   1.861   4.147  0.7796  2.4289  1.5183
 7305SOL    HW233549   0.328   1.979   4.070  1.8319  1.3397 -0.6073
 7306SOL     OW33550   2.982   0.059  11.636  0.1907  0.5527 -0.0122
 7306SOL    HW133551   2.893   0.060  11.670  1.0398 -1.5705  2.2400
 7306SOL    HW233552   2.970   0.031  11.545 -1.3787  0.4739  0.2233
 7307SOL     OW33553   4.412   4.281  15.293  0.0589  0.1989 -0.0165
 7307SOL    HW133554   4.420   4.340  15.367 -1.2958  0.7186 -0.2918
 7307SOL    HW233555   4.421   4.336  15.215 -0.0671  1.0872  0.6010
 7308SOL     OW33556   1.634   3.623   0.550 -0.4122 -0.0674  0.0707
 7308SOL    HW133557   1.630   3.616   0.454 -0.5342  0.2189  0.0548
 7308SOL    HW233558   1.543   3.600   0.569 -0.9771 -0.1004 -2.5468
 7309SOL     OW33559   0.178   0.524  11.718  0.4942 -0.1704 -0.2152
 7309SOL    HW133560   0.183   0.525  11.813  2.7776 -0.6485 -0.3135
 7309SOL    HW233561   0.088   0.495  11.708  0.3616 -0.6701  2.5493
 7310SOL     OW33562   0.992   3.218   6.561  0.2639 -0.3633  0.6209
 7310SOL    HW133563   0.927   3.284   6.539  1.1678  1.5741  3.8072
 7310SOL    HW233564   1.059   3.264   6.612  0.6582  0.0275 -0.2482
 7311SOL     OW33565   0.654   1.759   5.510  0.0764  0.2511  0.1468
 7311SOL    HW133566   0.735   1.712   5.528  0.3998  0.2497 -1.3802
 7311SOL    HW233567   0.586   1.699   5.541  0.2758 -0.6041 -1.1043
 7312SOL     OW33568   2.502   1.054   4.480  0.0643  0.6169 -0.0980
 7312SOL    HW133569   2.554   1.134   4.486  1.0797 -0.0732  0.4004
 7312SOL    HW233570   2.507   1.025   4.571  0.1868 -1.0587 -0.6392
 7313SOL     OW33571   1.405   2.107  12.259 -0.1246 -0.5611 -0.2030
 7313SOL    HW133572   1.390   2.086  12.351  1.1246 -0.9401 -0.0892
 7313SOL    HW233573   1.321   2.069  12.232 -0.2301 -1.0113  0.7745
 7314SOL     OW33574   1.688   1.274   1.407  0.4041 -0.5868  0.1520
 7314SOL    HW133575   1.647   1.268   1.493  3.2173 -0.0623  1.4945
 7314SOL    HW233576   1.773   1.312   1.428  0.1995  0.4790 -0.9666
 7315SOL     OW33577   3.879   1.858   3.462  0.4032 -0.0839 -0.1353
 7315SOL    HW133578   3.965   1.822   3.486 -0.2138 -1.7492 -0.4106
 7315SOL    HW233579   3.879   1.826   3.371 -0.8470 -0.6687  0.0673
 7316SOL     OW33580   1.914   2.112  12.710 -0.4111 -0.4527 -0.2510
 7316SOL    HW133581   1.875   2.099  12.796 -0.9115 -1.7752 -0.6886
 7316SOL    HW233582   1.876   2.197  12.689 -1.0002 -0.3048  1.4074
 7317SOL     OW33583   3.170   2.376   7.483  0.5451  0.2248  0.1927
 7317SOL    HW133584   3.136   2.465   7.495  1.1412  0.3291  1.1295
 7317SOL    HW233585   3.179   2.348   7.574  4.3241 -0.6245 -0.4309
 7318SOL     OW33586   0.653   0.554  16.665 -0.4071  0.1239  0.1951
 7318SOL    HW133587   0.600   0.634  16.666  1.6429  1.4605  1.1397
 7318SOL    HW233588   0.660   0.532  16.757  1.2733  0.8253  0.2352
 7319SOL     OW33589   3.898   0.747   5.654 -0.3441 -0.3718 -0.3156
 7319SOL    HW133590   3.863   0.695   5.726  2.6736  0.3893  1.7013
 7319SOL    HW233591   3.993   0.741   5.664 -0.5682 -1.4724  1.1320
 7320SOL     OW33592   3.056   3.041   3.933 -0.1744  1.1473 -0.1314
 7320SOL    HW133593   3.130   3.034   3.994  0.1517 -1.3039 -0.8393
 7320SOL    HW233594   3.026   2.951   3.935  1.1229  0.7405  2.3050
 7321SOL     OW33595   1.357   3.294  10.243 -0.0641  0.2861  0.0421
 7321SOL    HW133596   1.374   3.217  10.297  0.7800  0.5558  0.1566
 7321SOL    HW233597   1.439   3.344  10.249 -0.9327  1.8976 -1.4098
 7322SOL     OW33598   1.708   0.927   2.070 -0.4597  0.3300 -0.2317
 7322SOL    HW133599   1.672   0.876   2.143 -1.4958 -0.5797 -1.3764
 7322SOL    HW233600   1.798   0.895   2.072 -0.9074 -0.8970  0.0404
 7323SOL     OW33601   3.110   1.480   1.140 -0.1813 -0.6016 -0.0724
 7323SOL    HW133602   3.193   1.486   1.093  0.8649  1.2236  1.9963
 7323SOL    HW233603   3.111   1.556   1.198 -1.2232  0.1655 -1.0756
 7324SOL     OW33604   2.726   0.431  16.279  0.1590  0.5407  0.2465
 7324SOL    HW133605   2.703   0.417  16.371 -1.2665 -0.2723 -0.2335
 7324SOL    HW233606   2.655   0.388  16.231 -0.7359  2.4401 -0.1352
 7325SOL     OW33607   0.453   3.932  13.606 -0.7035 -0.1345 -0.1144
 7325SOL    HW133608   0.545   3.951  13.588 -0.3314 -2.0035 -0.2094
 7325SOL    HW233609   0.469   3.856  13.663 -0.3521  0.5768  0.7349
 7326SOL     OW33610   0.520   4.327   7.092  0.4042  0.5439  0.1820
 7326SOL    HW133611   0.560   4.414   7.091  3.7872 -1.0117  0.3772
 7326SOL    HW233612   0.565   4.282   7.163  0.1641  0.3088  0.1853
 7327SOL     OW33613   0.434   0.821   9.782  0.3079 -0.1016  0.7069
 7327SOL    HW133614   0.378   0.881   9.832  0.3288  1.6036 -1.3098
 7327SOL    HW233615   0.396   0.734   9.795 -0.1467 -0.5853 -3.7411
 7328SOL     OW33616   2.056   4.436   8.936 -0.1066  0.1303  0.5551
 7328SOL    HW133617   2.071   4.529   8.953  2.0886  0.1938 -1.7852
 7328SOL    HW233618   2.143   4.399   8.953 -0.8123 -0.3967  3.1358
 7329SOL     OW33619   3.422   0.195   1.435  0.4006  0.2531 -0.6084
 7329SOL    HW133620   3.461   0.281   1.450 -0.4095  0.3157  1.2729
 7329SOL    HW233621   3.333   0.220   1.460  1.0740  0.6322  1.4432
 7330SOL     OW33622   2.687   3.520   5.710  0.6391 -0.5409  0.4607
 7330SOL    HW133623   2.642   3.467   5.776  0.4165 -1.8877 -0.7526
 7330SOL    HW233624   2.609   3.560   5.670 -0.3472 -1.8977  1.0045
 7331SOL     OW33625   3.455   2.916   9.482  0.4070  0.3876  0.6394
 7331SOL    HW133626   3.369   2.940   9.519  0.1533 -1.3417  1.1680
 7331SOL    HW233627   3.498   2.905   9.567 -1.1017 -0.9867  1.2338
 7332SOL     OW33628   1.284   3.011   3.925 -0.2396  0.3113 -0.1735
 7332SOL    HW133629   1.260   2.996   3.834  3.2495 -0.7690 -0.9354
 7332SOL    HW233630   1.220   2.959   3.972 -1.0996  1.8195  0.3357
 7333SOL     OW33631   2.701   0.267   9.570  0.0346 -0.1339 -0.2334
 7333SOL    HW133632   2.646   0.207   9.520 -2.8624  1.4957  1.0221
 7333SOL    HW233633   2.722   0.204   9.639  2.2533  0.1382 -0.6728
 7334SOL     OW33634   4.042   0.133   1.749  0.0683 -0.2453  0.0424
 7334SOL    HW133635   3.963   0.145   1.802 -1.4265 -1.4869 -1.9308
 7334SOL    HW233636   4.010   0.088   1.671 -0.2372 -0.1795  0.1314
 7335SOL     OW33637   4.132   1.686   2.566  0.9975 -0.5344 -0.3532
 7335SOL    HW133638   4.077   1.763   2.578  0.0645 -0.9306 -2.0694
 7335SOL    HW233639   4.113   1.648   2.652  0.9279 -0.3979 -0.3094
 7336SOL     OW33640   0.388   3.797  14.180  1.2294  0.1925 -0.1969
 7336SOL    HW133641   0.472   3.765  14.214  0.7599 -1.8499 -0.9586
 7336SOL    HW233642   0.353   3.841  14.257 -0.2409  0.4252 -1.0092
 7337SOL     OW33643   2.430   0.239   8.232  0.6713  1.0155  0.0919
 7337SOL    HW133644   2.373   0.182   8.179 -0.7609  0.9788  1.6659
 7337SOL    HW233645   2.471   0.293   8.164  1.8242 -1.1040 -0.8891
 7338SOL     OW33646   2.846   2.902   1.531 -0.2289 -0.0867  0.0052
 7338SOL    HW133647   2.919   2.932   1.477 -1.4071 -1.0091 -2.0628
 7338SOL    HW233648   2.896   2.838   1.581  1.3450 -0.3674 -1.9561
 7339SOL     OW33649   2.790   1.517   6.153 -0.0654  0.0792 -0.0011
 7339SOL    HW133650   2.713   1.463   6.135 -0.2571  1.2588 -2.6379
 7339SOL    HW233651   2.843   1.520   6.073 -2.0634 -2.2025 -1.3904
 7340SOL     OW33652   3.969   1.854   1.107 -0.2989 -0.0525  0.5957
 7340SOL    HW133653   3.952   1.923   1.171 -0.5364 -0.4801  0.9925
 7340SOL    HW233654   3.997   1.910   1.034  0.1802 -2.7829 -1.3210
 7341SOL     OW33655   2.603   2.171   3.513 -0.6948 -0.9081 -0.2929
 7341SOL    HW133656   2.552   2.108   3.461 -0.3202 -1.0973 -0.4306
 7341SOL    HW233657   2.580   2.137   3.599  1.3937 -1.4909  0.0167
 7342SOL     OW33658   3.728   2.068   2.227  0.8809  0.7682 -0.1329
 7342SOL    HW133659   3.770   2.148   2.258  0.3119  0.3254  1.7966
 7342SOL    HW233660   3.701   2.095   2.139  2.7935 -2.2527 -1.6613
 7343SOL     OW33661   0.975   4.553   5.280 -0.0421  0.0461 -0.0772
 7343SOL    HW133662   0.951   4.645   5.282  0.5124  0.1731  0.7866
 7343SOL    HW233663   0.975   4.530   5.373  1.0380  0.2795 -0.0242
 7344SOL     OW33664   3.573   0.012   0.375  0.8347  0.1166 -0.2473
 7344SOL    HW133665   3.526   4.694   0.311  0.9155  1.5040 -1.4361
 7344SOL    HW233666   3.665   0.014   0.347  0.8480 -3.3044 -0.5329
 7345SOL     OW33667   1.033   1.189   4.350 -0.1251  0.1723 -0.2301
 7345SOL    HW133668   1.064   1.101   4.326  2.0298  1.4734 -2.2187
 7345SOL    HW233669   0.974   1.204   4.276  0.5232  0.2065 -0.7368
 7346SOL     OW33670   3.213   0.982  13.151  0.6411 -0.5043  0.3140
 7346SOL    HW133671   3.201   1.012  13.061 -1.3489  1.8675  1.3505
 7346SOL    HW233672   3.289   0.924  13.145  2.5642  1.8361  1.8779
 7347SOL     OW33673   0.693   1.098   6.954  0.1737  0.0502 -0.3252
 7347SOL    HW133674   0.777   1.116   6.913  0.1628 -0.9590 -0.7872
 7347SOL    HW233675   0.657   1.185   6.940 -2.0485 -0.9065 -0.6272
 7348SOL     OW33676   2.223   0.556   4.188 -0.0019 -0.2145  0.0840
 7348SOL    HW133677   2.210   0.547   4.283  0.4355  2.8823  0.4506
 7348SOL    HW233678   2.130   0.552   4.164  0.5059  1.9917 -2.2349
 7349SOL     OW33679   0.328   2.056  12.639 -0.2564  0.3246 -0.6352
 7349SOL    HW133680   0.380   2.101  12.706  0.3627 -1.0782 -0.1797
 7349SOL    HW233681   0.389   1.984  12.621  1.2081  0.8866  2.1894
 7350SOL     OW33682   4.721   1.710   3.169  0.2934  0.2585  0.4933
 7350SOL    HW133683   4.631   1.738   3.158 -0.1402 -1.7059 -1.0681
 7350SOL    HW233684   0.010   1.755   3.250  0.7724 -0.7055  0.8935
 7351SOL     OW33685   0.178   4.129   3.279  0.2317  0.2856 -0.4072
 7351SOL    HW133686   0.159   4.047   3.234 -0.0916 -0.0884  0.4070
 7351SOL    HW233687   0.257   4.155   3.232 -0.1536 -0.1781 -1.3102
 7352SOL     OW33688   3.462   2.896  16.474 -0.4328 -0.2584  0.5314
 7352SOL    HW133689   3.442   2.895  16.568 -0.5879  0.7712  0.5044
 7352SOL    HW233690   3.422   2.978  16.446  1.2845  0.4255  0.1008
 7353SOL     OW33691   0.824   1.691   3.229  0.5105 -0.5698  0.6377
 7353SOL    HW133692   0.814   1.743   3.309 -1.7037  0.2674 -0.1934
 7353SOL    HW233693   0.801   1.603   3.261  0.2002 -0.8570 -0.3784
 7354SOL     OW33694   2.814   2.570   3.443 -0.0990 -0.3029  0.2734
 7354SOL    HW133695   2.848   2.489   3.483 -0.0715  0.1360  1.1451
 7354SOL    HW233696   2.893   2.619   3.422 -1.2747  1.0891 -0.8517
 7355SOL     OW33697   0.179   0.544   0.741  0.5389 -0.3186  0.0182
 7355SOL    HW133698   0.206   0.499   0.660 -3.2331  0.0062 -1.3943
 7355SOL    HW233699   0.263   0.572   0.777 -0.2439  3.7124 -1.3381
 7356SOL     OW33700   3.802   0.271   4.307  0.4918 -0.0874 -0.1309
 7356SOL    HW133701   3.817   0.191   4.357 -0.8725  0.9888  1.9701
 7356SOL    HW233702   3.715   0.248   4.276  0.8866 -0.7947 -0.7099
 7357SOL     OW33703   1.475   4.150   4.042 -0.3895 -0.1178  0.7457
 7357SOL    HW133704   1.484   4.056   4.027 -1.4262 -0.4004  1.8512
 7357SOL    HW233705   1.439   4.145   4.131 -2.8585 -1.1380 -0.3109
 7358SOL     OW33706   0.977   1.587   1.978  0.6246  0.4810  0.5360
 7358SOL    HW133707   0.957   1.516   1.917 -2.6588 -0.6417  2.8716
 7358SOL    HW233708   0.930   1.561   2.058  1.1466 -0.7270  0.4504
 7359SOL     OW33709   3.038   1.292   6.753 -0.0780  0.2216 -0.2899
 7359SOL    HW133710   2.983   1.364   6.721 -0.7008  0.0131  0.2966
 7359SOL    HW233711   2.995   1.288   6.839  0.3631 -1.9635 -0.1743
 7360SOL     OW33712   2.998   1.911   5.743  0.5277 -0.0062 -0.5881
 7360SOL    HW133713   3.018   1.868   5.660  0.7532 -0.5396 -0.2534
 7360SOL    HW233714   3.063   1.866   5.797 -2.1644 -2.5446  0.5116
 7361SOL     OW33715   3.121   2.694   7.968 -0.2211 -0.2043 -0.0876
 7361SOL    HW133716   3.210   2.694   7.934 -0.6589  0.8281 -1.2333
 7361SOL    HW233717   3.147   2.669   8.057 -3.2133  0.4876  0.9777
 7362SOL     OW33718   2.566   1.035  12.142 -0.1362 -0.1885 -0.0792
 7362SOL    HW133719   2.564   1.101  12.072  0.0444 -0.1998 -0.0951
 7362SOL    HW233720   2.591   0.956  12.096  0.5202  0.3654 -0.6641
 7363SOL     OW33721   3.509   2.211   8.001  0.5307 -0.3075 -0.0994
 7363SOL    HW133722   3.429   2.161   8.017 -0.9977  1.9503 -0.6747
 7363SOL    HW233723   3.467   2.288   7.962  0.3189  0.0361  0.7944
 7364SOL     OW33724   2.217   1.374   2.882  0.1589 -0.5216  0.3494
 7364SOL    HW133725   2.279   1.445   2.865  2.1036 -2.6682 -1.5503
 7364SOL    HW233726   2.189   1.352   2.794 -1.5703  0.7924  0.5715
 7365SOL     OW33727   2.133   0.643   5.598  0.0897 -0.5674  0.1081
 7365SOL    HW133728   2.075   0.675   5.529  2.0743  2.4309 -0.1503
 7365SOL    HW233729   2.100   0.689   5.675  0.1233  2.6828 -1.8409
 7366SOL     OW33730   4.515   0.249   6.162 -0.1521 -0.4209 -0.0508
 7366SOL    HW133731   4.558   0.184   6.105  0.8770  1.1641 -1.0833
 7366SOL    HW233732   4.432   0.201   6.163  1.0394 -2.5106 -1.3881
 7367SOL     OW33733   2.487   2.873   4.675  0.0057 -0.6585 -0.0956
 7367SOL    HW133734   2.528   2.788   4.660  1.7913  0.1109  0.3343
 7367SOL    HW233735   2.481   2.875   4.770 -0.0529  1.5902 -0.1417
 7368SOL     OW33736   1.208   3.712  14.387 -0.7628 -0.2455 -0.3195
 7368SOL    HW133737   1.267   3.786  14.381 -0.7679 -0.2009  0.1773
 7368SOL    HW233738   1.206   3.693  14.481 -1.5711  0.4057 -0.2090
 7369SOL     OW33739   4.377   2.109  16.543 -0.1915 -0.1033 -0.2360
 7369SOL    HW133740   4.452   2.157  16.507 -1.0214  0.3925 -1.2848
 7369SOL    HW233741   4.407   2.020  16.525 -0.0052 -0.0428 -0.2319
 7370SOL     OW33742   0.555   3.180   9.488  0.5755  0.1175 -0.0957
 7370SOL    HW133743   0.581   3.263   9.449  0.7305  0.2752  0.3510
 7370SOL    HW233744   0.581   3.111   9.427  1.2466 -0.6424  1.0572
 7371SOL     OW33745   2.652   1.721   5.201 -0.0557 -0.0540  0.2901
 7371SOL    HW133746   2.725   1.659   5.203  1.4065  1.6699  1.7926
 7371SOL    HW233747   2.698   1.803   5.183  0.7707 -0.1724  1.8553
 7372SOL     OW33748   4.198   2.517   6.076 -0.2791  0.9178  0.1139
 7372SOL    HW133749   4.199   2.607   6.041  0.7649  1.6889  2.1518
 7372SOL    HW233750   4.195   2.532   6.170  0.8784 -0.6264  0.3827
 7373SOL     OW33751   2.240   3.051   6.336 -0.6074 -0.4912 -0.6598
 7373SOL    HW133752   2.210   3.121   6.277 -0.5404 -0.0154 -0.1312
 7373SOL    HW233753   2.332   3.070   6.315 -0.8069  1.6470  0.3687
 7374SOL     OW33754   0.338   4.322   7.938 -0.0539  0.2513  0.2349
 7374SOL    HW133755   0.382   4.301   8.021  1.4189  0.1077 -0.5728
 7374SOL    HW233756   0.358   4.415   7.928 -0.2519  0.1238 -1.3339
 7375SOL     OW33757   1.296   4.486   5.396  0.3222  0.1709 -0.0843
 7375SOL    HW133758   1.264   4.410   5.445  0.8550  0.5109  0.7824
 7375SOL    HW233759   1.248   4.481   5.313  0.6011  0.2640 -0.2518
 7376SOL     OW33760   1.558   3.914   5.856  0.3769 -0.0852 -0.5283
 7376SOL    HW133761   1.569   3.916   5.951  0.9054 -0.0721 -0.5923
 7376SOL    HW233762   1.502   3.837   5.846 -1.6597  1.4737 -1.3746
 7377SOL     OW33763   4.169   1.736  16.619  0.2463 -0.1393  0.5687
 7377SOL    HW133764   4.182   1.642  16.606  0.0134 -0.1340  0.2863
 7377SOL    HW233765   4.073   1.734  16.617  0.2202  0.4394  1.9164
 7378SOL     OW33766   0.193   2.692  12.807  0.2279  0.0863 -0.0715
 7378SOL    HW133767   0.154   2.612  12.772 -0.5690 -0.2562  1.6280
 7378SOL    HW233768   0.275   2.693  12.757  2.0409  0.3170  2.8742
 7379SOL     OW33769   3.788   0.081   4.502  0.3468 -0.1935  0.5098
 7379SOL    HW133770   3.802   0.139   4.576 -0.5487  1.3225 -0.5217
 7379SOL    HW233771   3.793   4.728   4.541 -1.0984  0.6695  2.6289
 7380SOL     OW33772   4.439   3.827  17.623 -0.4534 -0.7210  0.2514
 7380SOL    HW133773   4.522   3.782  17.641 -0.8167 -1.4977 -0.0039
 7380SOL    HW233774   4.461   3.883  17.549 -1.0717 -0.1065  0.5318
 7381SOL     OW33775   3.105   1.325   0.183  0.1546  0.4834  0.4848
 7381SOL    HW133776   3.136   1.256   0.124  1.6504  1.9517 -0.4375
 7381SOL    HW233777   3.034   1.280   0.229  0.4116 -1.0253 -0.5771
 7382SOL     OW33778   0.573   3.320  12.316  0.2729  0.1990  0.2254
 7382SOL    HW133779   0.633   3.358  12.252  0.4772 -0.9379 -0.2548
 7382SOL    HW233780   0.593   3.379  12.389 -2.4833  1.4595 -0.0576
 7383SOL     OW33781   1.089   0.480  12.016 -0.5773  0.0060  0.3594
 7383SOL    HW133782   1.124   0.392  12.002 -0.3373 -0.3510  3.2845
 7383SOL    HW233783   1.075   0.509  11.926 -0.1671  0.4464  0.4351
 7384SOL     OW33784   2.944   0.422   5.745 -0.3707 -0.1821 -0.2120
 7384SOL    HW133785   3.006   0.484   5.782  0.1889 -1.5372  1.1143
 7384SOL    HW233786   2.902   0.379   5.820 -1.1573  1.0354  0.0513
 7385SOL     OW33787   0.679   4.435   5.398  0.0866  0.0088 -0.2755
 7385SOL    HW133788   0.653   4.378   5.325  1.0558  1.5115 -1.8027
 7385SOL    HW233789   0.614   4.504   5.382  0.9059  1.0985  1.0760
 7386SOL     OW33790   1.485   1.052   5.618  0.6725 -0.4696 -0.3592
 7386SOL    HW133791   1.475   1.114   5.690 -1.5592 -1.5541  0.2696
 7386SOL    HW233792   1.541   0.988   5.662  3.0360  1.4655 -0.5724
 7387SOL     OW33793   0.072   1.333  12.058 -0.1324  0.6011 -0.1428
 7387SOL    HW133794   0.123   1.269  12.009 -1.2764 -0.1321 -0.3678
 7387SOL    HW233795   4.729   1.340  12.002  1.0786  1.0034 -1.7621
 7388SOL     OW33796   0.977   2.615   2.754 -0.1461  0.2926  0.1832
 7388SOL    HW133797   1.049   2.552   2.751 -0.4927  0.0355 -3.1117
 7388SOL    HW233798   0.964   2.625   2.848  0.3230  2.0556  0.0672
 7389SOL     OW33799   2.534   0.760   4.991  0.3282  0.4310  0.4164
 7389SOL    HW133800   2.538   0.854   4.974  0.0210  0.9022  2.8676
 7389SOL    HW233801   2.541   0.766   5.086  0.0973  0.2373  0.4471
 7390SOL     OW33802   2.066   3.353   4.761  0.3435 -0.1209 -0.1727
 7390SOL    HW133803   2.124   3.396   4.699  0.4000 -0.8375 -0.6175
 7390SOL    HW233804   2.020   3.427   4.802 -1.7992 -2.0521  0.9220
 7391SOL     OW33805   3.338   0.466   7.705 -0.2477  0.7296  0.2575
 7391SOL    HW133806   3.309   0.520   7.632 -1.3150 -1.3663 -0.8600
 7391SOL    HW233807   3.363   0.536   7.765  1.8399  0.3871 -0.2125
 7392SOL     OW33808   4.482   4.331  13.854  0.7567  0.4470 -0.4157
 7392SOL    HW133809   4.495   4.349  13.947 -2.0689 -3.0775  0.6386
 7392SOL    HW233810   4.539   4.256  13.835  0.4965 -0.0098  0.6008
 7393SOL     OW33811   3.516   0.401   1.815  0.0668 -0.1353  1.0935
 7393SOL    HW133812   3.459   0.452   1.757 -0.3068  0.2458  1.8031
 7393SOL    HW233813   3.453   0.377   1.882 -3.0869  1.8962 -1.1290
 7394SOL     OW33814   0.232   0.659   0.418  0.3101  0.5485 -0.6710
 7394SOL    HW133815   0.156   0.635   0.366  0.4756  0.3751 -0.8291
 7394SOL    HW233816   0.261   0.576   0.455  1.5059  0.9287 -0.7634
 7395SOL     OW33817   4.703   4.075  17.675  0.3196  0.1476  0.2701
 7395SOL    HW133818   4.695   4.069  17.580 -1.2441  0.6880  0.3606
 7395SOL    HW233819   4.714   4.170  17.686  2.6861  0.0433 -1.1572
 7396SOL     OW33820   2.911   3.288  10.230  0.2147 -0.5447 -0.1459
 7396SOL    HW133821   2.872   3.201  10.236 -1.9809  0.4824  0.3019
 7396SOL    HW233822   2.873   3.337  10.303  1.0946  0.1000 -0.1213
 7397SOL     OW33823   0.649   2.130   6.303 -0.0588  0.5614  0.1100
 7397SOL    HW133824   0.721   2.136   6.240  0.9420  1.0692  1.3004
 7397SOL    HW233825   0.576   2.092   6.255 -1.2294  2.1730  0.6270
 7398SOL     OW33826   2.042   3.018   5.962  0.0408 -0.4240  0.0249
 7398SOL    HW133827   1.986   2.960   5.911 -0.6909  0.7439 -0.4999
 7398SOL    HW233828   1.993   3.029   6.044  0.5834 -1.4258  0.4833
 7399SOL     OW33829   1.373   4.222   7.258  0.0214 -0.0684  0.2731
 7399SOL    HW133830   1.420   4.255   7.334 -0.6618  1.1665  0.1579
 7399SOL    HW233831   1.329   4.299   7.223  3.3686  1.3476 -0.8746
 7400SOL     OW33832   2.651   4.032   0.300  0.6733 -0.4449  0.1411
 7400SOL    HW133833   2.698   4.096   0.247 -0.3182  0.7117  0.6548
 7400SOL    HW233834   2.632   4.077   0.382  0.9453  0.9013 -0.5309
 7401SOL     OW33835   4.714   0.285   7.955 -0.7762  0.3801 -0.2017
 7401SOL    HW133836   0.034   0.351   7.911 -0.7219  0.8623  0.5886
 7401SOL    HW233837   0.026   0.267   8.037 -2.4955 -1.7635  0.3044
 7402SOL     OW33838   1.419   2.923   2.506  0.6034 -0.4600  0.2054
 7402SOL    HW133839   1.467   2.897   2.585  0.6555  0.3700  0.4463
 7402SOL    HW233840   1.432   2.847   2.449 -1.5421 -0.3898 -0.3647
 7403SOL     OW33841   4.547   0.986   1.193 -0.5130 -0.7164  1.0944
 7403SOL    HW133842   4.564   1.015   1.104  1.1949  1.3169  2.0932
 7403SOL    HW233843   4.482   1.048   1.226 -2.6064 -2.6167  0.6034
 7404SOL     OW33844   1.249   3.195   7.573  0.1686  0.5622 -0.1884
 7404SOL    HW133845   1.339   3.204   7.604  0.6654 -0.5847 -1.3464
 7404SOL    HW233846   1.203   3.193   7.657  0.9398  3.7532  0.3090
 7405SOL     OW33847   0.277   3.372   9.445 -0.2357 -0.2708 -0.2253
 7405SOL    HW133848   0.223   3.314   9.392 -0.3176 -0.4135  0.0141
 7405SOL    HW233849   0.365   3.364   9.408 -0.2720 -3.5372  0.4013
 7406SOL     OW33850   0.677   3.132  15.697 -0.4657 -0.1977  0.3287
 7406SOL    HW133851   0.746   3.096  15.641  1.3368  0.3044  2.2151
 7406SOL    HW233852   0.618   3.182  15.641 -1.2288 -0.1771  1.1484
 7407SOL     OW33853   0.139   3.481  14.326  0.3034  0.0983 -0.3797
 7407SOL    HW133854   0.087   3.483  14.246  0.9913 -0.2474 -0.8369
 7407SOL    HW233855   0.230   3.480  14.298  0.4481  1.4388  0.0555
 7408SOL     OW33856   1.978   3.654  17.445 -0.3099  0.1380 -0.6434
 7408SOL    HW133857   1.923   3.659  17.524  0.6780 -1.9982  0.1978
 7408SOL    HW233858   2.027   3.736  17.455 -1.1905  0.9176 -2.9148
 7409SOL     OW33859   3.528   2.959   6.879  0.8358  0.0032 -0.0845
 7409SOL    HW133860   3.478   2.882   6.905 -0.5400  0.8751 -0.1689
 7409SOL    HW233861   3.544   2.999   6.965 -2.3456 -0.8254  0.8865
 7410SOL     OW33862   1.578   0.573  17.661 -0.4528 -0.3959  0.6250
 7410SOL    HW133863   1.542   0.563   0.012 -1.1102 -1.1237  0.2714
 7410SOL    HW233864   1.506   0.609  17.610 -0.6074 -3.4421 -1.2765
 7411SOL     OW33865   0.151   3.361   1.617 -0.5016 -0.2762 -0.2495
 7411SOL    HW133866   0.197   3.306   1.680 -0.7809 -1.7455 -1.3201
 7411SOL    HW233867   0.216   3.403   1.561 -0.1760  2.9256  2.5724
 7412SOL     OW33868   4.385   3.770   5.935  0.2755 -0.4553 -0.2092
 7412SOL    HW133869   4.349   3.693   5.889  0.3968  0.8890 -2.5236
 7412SOL    HW233870   4.367   3.838   5.870 -2.4122  0.9184  1.9502
 7413SOL     OW33871   4.545   4.677   3.655 -0.1021 -0.0842  0.2172
 7413SOL    HW133872   4.598   4.611   3.613  0.6372 -0.1677  1.2815
 7413SOL    HW233873   4.602   0.019   3.655 -0.5374  0.2448  0.7057
 7414SOL     OW33874   0.167   4.376   0.332  0.1851 -0.3959 -0.0205
 7414SOL    HW133875   0.200   4.418   0.253 -1.1225 -0.0092 -0.3565
 7414SOL    HW233876   0.167   4.448   0.395 -0.6611 -1.0423  0.7166
 7415SOL     OW33877   4.497   4.043   8.080 -0.1720  0.2602  0.0793
 7415SOL    HW133878   4.468   4.029   7.989 -0.0913 -3.1516  0.5922
 7415SOL    HW233879   4.509   3.951   8.103  0.8156  0.3309 -0.1585
 7416SOL     OW33880   3.984   4.246   6.367  0.2931 -0.2474  0.5549
 7416SOL    HW133881   4.005   4.183   6.298 -0.2552  1.1331 -0.8767
 7416SOL    HW233882   3.991   4.334   6.329  1.9771 -0.6200 -0.0382
 7417SOL     OW33883   4.031   1.635  14.387  0.0417  0.1908 -0.1174
 7417SOL    HW133884   4.103   1.661  14.330 -1.3714  1.6463 -1.2513
 7417SOL    HW233885   3.962   1.616  14.323  0.0851 -0.7811  0.1181
 7418SOL     OW33886   1.647   0.962   6.343  0.2034  0.0283  0.5323
 7418SOL    HW133887   1.631   0.931   6.432  0.5269  0.6301  0.8010
 7418SOL    HW233888   1.655   0.876   6.302 -0.9496  0.6730 -1.0372
 7419SOL     OW33889   2.381   0.857   6.014  0.2920  0.4327  0.2182
 7419SOL    HW133890   2.286   0.866   6.020  0.2648  0.7663 -0.7621
 7419SOL    HW233891   2.382   0.791   5.945  0.7621  1.8445 -1.1253
 7420SOL     OW33892   0.936   4.514   8.276 -0.6620  0.3684  0.2559
 7420SOL    HW133893   0.900   4.466   8.201 -1.3522  0.7308  0.3550
 7420SOL    HW233894   0.991   4.581   8.235  0.6909 -1.0892 -0.3263
 7421SOL     OW33895   3.207   0.136   4.012  0.5463 -0.3196  0.0558
 7421SOL    HW133896   3.301   0.115   4.014  0.7584  0.7232  0.8269
 7421SOL    HW233897   3.188   0.134   4.106 -1.0033 -1.2316 -0.2833
 7422SOL     OW33898   0.533   4.410   0.014  0.0666 -0.4920 -0.3144
 7422SOL    HW133899   0.584   4.472  17.698 -0.1924  0.8603  1.0102
 7422SOL    HW233900   0.597   4.342   0.035 -2.9350 -3.1731  0.0669
 7423SOL     OW33901   3.882   4.300  12.266 -0.2054  0.2261  0.0637
 7423SOL    HW133902   3.901   4.391  12.291 -1.2681  0.9064 -1.5820
 7423SOL    HW233903   3.881   4.263  12.354  0.6293  2.3550  0.9531
 7424SOL     OW33904   1.268   1.642   7.167  0.0411  0.5142  0.4256
 7424SOL    HW133905   1.280   1.701   7.092 -1.6810  1.2337  0.7312
 7424SOL    HW233906   1.175   1.664   7.173 -0.1463 -0.0982 -0.2869
 7425SOL     OW33907   0.400   3.545  11.300  0.0078 -0.4771  0.0063
 7425SOL    HW133908   0.396   3.607  11.372  0.4722 -2.2472  1.5514
 7425SOL    HW233909   0.494   3.529  11.298  0.1767  0.4203  0.8337
 7426SOL     OW33910   3.305   4.074   3.518  0.3025  0.4423  0.0592
 7426SOL    HW133911   3.347   4.159   3.503 -1.7919  1.4316 -0.2298
 7426SOL    HW233912   3.309   4.029   3.434  1.3013  0.2997  0.1870
 7427SOL     OW33913   1.917   3.607   3.379  0.0846  0.1622 -0.3431
 7427SOL    HW133914   1.843   3.652   3.418  0.8409  1.2463 -0.1562
 7427SOL    HW233915   1.959   3.684   3.341 -0.2326 -0.1354 -1.3022
 7428SOL     OW33916   4.656   4.416  15.493  0.6159  0.1921  0.4112
 7428SOL    HW133917   4.733   4.440  15.545 -0.7832  0.9970  2.0768
 7428SOL    HW233918   4.587   4.444  15.552  0.5748  1.2421 -0.1456
 7429SOL     OW33919   1.864   2.124   8.970 -0.0172 -0.2512 -0.3702
 7429SOL    HW133920   1.890   2.179   8.896 -0.2782  0.0407 -0.2487
 7429SOL    HW233921   1.804   2.176   9.024 -0.4951 -1.0265 -0.1595
 7430SOL     OW33922   4.304   3.824   9.965 -0.1425  0.2435  0.3705
 7430SOL    HW133923   4.302   3.910   9.923 -3.4002 -0.4877 -0.9608
 7430SOL    HW233924   4.213   3.796   9.956  0.0763 -0.9331  1.8092
 7431SOL     OW33925   3.845   3.702   8.574  0.3278  0.5484 -0.2478
 7431SOL    HW133926   3.759   3.702   8.616 -1.1170  0.4299 -3.1525
 7431SOL    HW233927   3.901   3.652   8.632  0.9884  0.6841 -0.7731
 7432SOL     OW33928   0.249   0.420  11.473 -0.3769  0.4323  0.4575
 7432SOL    HW133929   0.173   0.461  11.433 -1.0048 -1.4550 -0.2878
 7432SOL    HW233930   0.260   0.473  11.552 -2.5053 -0.3837  1.3112
 7433SOL     OW33931   2.327   4.001  17.163  0.2397  0.0484  0.3303
 7433SOL    HW133932   2.414   4.037  17.145  0.2723 -0.0029  0.3824
 7433SOL    HW233933   2.326   3.911  17.130  1.7441 -0.2326  1.0453
 7434SOL     OW33934   0.312   0.126  13.849 -0.1654 -0.2906 -0.4852
 7434SOL    HW133935   0.345   0.145  13.761  2.6348 -3.0974 -0.0522
 7434SOL    HW233936   0.370   0.055  13.877 -0.4755  0.4210  1.9220
 7435SOL     OW33937   2.220   1.336  15.276  0.1107  0.1642 -0.4257
 7435SOL    HW133938   2.186   1.358  15.363 -0.4742  1.4666 -0.9818
 7435SOL    HW233939   2.309   1.305  15.291 -0.1305 -0.7146 -0.8342
 7436SOL     OW33940   2.655   0.342   8.780  0.1739  0.5937  0.1425
 7436SOL    HW133941   2.680   0.345   8.688  0.2430 -2.2908  0.0413
 7436SOL    HW233942   2.571   0.296   8.783 -0.4617  1.7898  0.2883
 7437SOL     OW33943   0.831   0.443  10.406 -0.4173  0.0101  0.0811
 7437SOL    HW133944   0.820   0.470  10.315 -3.2619 -0.2785  0.3637
 7437SOL    HW233945   0.762   0.379  10.422  1.1395 -1.2872  1.5805
 7438SOL     OW33946   2.650   0.583  10.764  0.0530  0.1362  0.7341
 7438SOL    HW133947   2.738   0.615  10.784 -0.8516  1.8412  1.9689
 7438SOL    HW233948   2.631   0.518  10.832  0.9448  0.5775  1.4020
 7439SOL     OW33949   2.918   2.213   2.063 -0.5583 -0.2716  0.0768
 7439SOL    HW133950   2.834   2.220   2.108  0.5119  0.3491  1.9714
 7439SOL    HW233951   2.920   2.122   2.035  0.7796  0.4209 -2.0299
 7440SOL     OW33952   0.156   2.665  13.092 -0.1718 -0.3742 -0.2639
 7440SOL    HW133953   0.133   2.613  13.015 -1.9495  0.1136 -0.0476
 7440SOL    HW233954   0.165   2.756  13.061  0.2259 -0.3065  0.0467
 7441SOL     OW33955   3.388   2.837   9.227 -0.7891 -0.9547 -0.1600
 7441SOL    HW133956   3.380   2.861   9.320 -0.5772 -0.5006 -0.2604
 7441SOL    HW233957   3.435   2.754   9.237  1.1046 -0.0887 -1.9849
 7442SOL     OW33958   1.727   0.503   2.270  0.0854  0.3551 -0.3901
 7442SOL    HW133959   1.656   0.472   2.214 -0.2721  0.6774 -0.1116
 7442SOL    HW233960   1.673   0.528   2.344  2.0210 -2.0893  1.8392
 7443SOL     OW33961   4.358   1.955   6.418 -0.0426 -0.4084 -0.3090
 7443SOL    HW133962   4.429   2.015   6.394  1.6078 -1.6600  1.5281
 7443SOL    HW233963   4.407   1.874   6.404  1.7013  0.4905  0.5151
 7444SOL     OW33964   1.436   1.368   6.902 -0.2531 -0.0802  0.3031
 7444SOL    HW133965   1.440   1.273   6.900 -0.0686 -0.0268 -1.7671
 7444SOL    HW233966   1.347   1.371   6.938 -1.3429  1.1447 -2.4790
 7445SOL     OW33967   2.976   3.523   7.585  0.4663 -0.1801  0.0308
 7445SOL    HW133968   3.020   3.513   7.501  2.6686  1.4961  0.9776
 7445SOL    HW233969   2.888   3.500   7.558  0.1052  2.3627 -1.0202
 7446SOL     OW33970   2.481   0.926   6.261  0.0681 -0.1223  0.4606
 7446SOL    HW133971   2.496   1.020   6.262  1.0203 -0.2739 -0.1458
 7446SOL    HW233972   2.456   0.910   6.170 -0.4827  2.2244  0.2008
 7447SOL     OW33973   1.822   1.248  16.402 -0.6226  0.3452  0.4598
 7447SOL    HW133974   1.860   1.176  16.451 -0.4301 -1.1109 -1.8169
 7447SOL    HW233975   1.798   1.209  16.318  0.1321 -0.2158  0.5112
 7448SOL     OW33976   1.080   2.717   3.656 -0.0051 -0.9514 -0.2840
 7448SOL    HW133977   1.065   2.669   3.737 -1.5082  3.1058  1.8107
 7448SOL    HW233978   0.995   2.755   3.636  0.5884 -0.4798 -1.9444
 7449SOL     OW33979   4.588   1.632  11.886  0.0132  0.1822  0.4438
 7449SOL    HW133980   4.678   1.615  11.914 -0.1551 -1.6700 -0.1507
 7449SOL    HW233981   4.601   1.720  11.852  3.0451 -0.6855 -0.6681
 7450SOL     OW33982   1.981   4.212   7.431 -0.4920 -0.3186 -0.2435
 7450SOL    HW133983   1.977   4.145   7.363  0.5823 -3.1115  2.4361
 7450SOL    HW233984   2.047   4.271   7.396 -3.3086  2.6979 -0.4356
 7451SOL     OW33985   0.872   4.603  11.268 -0.4222 -0.2215 -0.4613
 7451SOL    HW133986   0.922   4.639  11.195  1.5451 -1.2812  0.3543
 7451SOL    HW233987   0.864   4.677  11.328  2.1825 -0.1284 -0.2308
 7452SOL     OW33988   1.829   1.861  14.527  0.4687  0.1172 -0.0747
 7452SOL    HW133989   1.766   1.921  14.567  0.4299  0.1748 -0.2233
 7452SOL    HW233990   1.768   1.797  14.491  1.5189  0.1775 -1.9513
 7453SOL     OW33991   1.722   2.526   2.973  0.4075 -0.0581  0.1217
 7453SOL    HW133992   1.700   2.620   2.973  3.0769  0.5636 -0.2976
 7453SOL    HW233993   1.640   2.476   2.978 -0.7256  1.7138 -0.7371
 7454SOL     OW33994   4.392   4.041   6.725 -0.2730  0.1663 -0.3873
 7454SOL    HW133995   4.368   4.085   6.806  0.6785 -0.9301  0.4917
 7454SOL    HW233996   4.488   4.041   6.722 -0.2228  4.1680  1.3034
 7455SOL     OW33997   0.979   4.374  12.058  0.6242  0.2498  0.2333
 7455SOL    HW133998   0.945   4.402  11.973 -1.1630  0.1591  0.9212
 7455SOL    HW233999   1.074   4.371  12.045  0.7205  1.7305  0.5831
 7456SOL     OW34000   2.836   0.404   3.227  0.3419 -0.2952 -0.7577
 7456SOL    HW134001   2.849   0.310   3.239  1.4698 -0.1553 -0.8767
 7456SOL    HW234002   2.821   0.427   3.319  3.5942  1.7555 -0.7119
 7457SOL     OW34003   1.682   3.333   6.320  0.2795  0.6884  0.7404
 7457SOL    HW134004   1.609   3.280   6.351  1.4594  0.4708  3.1563
 7457SOL    HW234005   1.756   3.282   6.355 -0.9330 -1.4827  0.1325
 7458SOL     OW34006   3.301   0.243  15.651  0.2045  0.8215  0.0595
 7458SOL    HW134007   3.245   0.166  15.636 -0.0595  1.0655 -0.1981
 7458SOL    HW234008   3.361   0.234  15.577 -0.6262  1.7896 -0.7261
 7459SOL     OW34009   1.626   3.302   0.554 -0.4855  0.0659  0.1468
 7459SOL    HW134010   1.621   3.397   0.564 -0.0997  0.0137  0.8446
 7459SOL    HW234011   1.641   3.265   0.641  1.6650  1.0949  0.2019
 7460SOL     OW34012   3.640   2.299   8.243  0.2908  0.2583 -0.3001
 7460SOL    HW134013   3.647   2.227   8.306  2.1046 -0.0612 -0.8807
 7460SOL    HW234014   3.598   2.261   8.165 -1.7020 -1.3875  1.5855
 7461SOL     OW34015   3.816   0.753  10.336 -0.8647 -0.2833  0.3123
 7461SOL    HW134016   3.778   0.830  10.293  0.2600  0.2699  0.2998
 7461SOL    HW234017   3.910   0.772  10.339 -0.5990 -1.2728 -1.9575
 7462SOL     OW34018   3.610   1.410   9.700  0.5284 -0.4722 -0.1485
 7462SOL    HW134019   3.688   1.465   9.699 -0.9979  1.6912  0.4312
 7462SOL    HW234020   3.638   1.322   9.725 -0.5405 -0.7347  0.1307
 7463SOL     OW34021   2.014   1.113   2.869  0.1001  0.5207 -0.1109
 7463SOL    HW134022   2.053   1.152   2.948 -0.1308 -0.8128  0.6660
 7463SOL    HW234023   1.985   1.027   2.901 -1.3089  0.7842 -0.6773
 7464SOL     OW34024   4.515   3.243  16.902 -0.3938  0.4263  0.5251
 7464SOL    HW134025   4.548   3.156  16.877 -0.6794  0.0798  1.3522
 7464SOL    HW234026   4.439   3.248  16.844 -0.8827 -1.9890  0.9280
 7465SOL     OW34027   0.491   0.092  15.274 -0.2685  0.2940  0.6404
 7465SOL    HW134028   0.412   0.137  15.246  0.4337  0.3262 -1.2806
 7465SOL    HW234029   0.529   0.052  15.196  0.5538  0.9014  0.7282
 7466SOL     OW34030   2.670   1.806   2.885 -0.1724  0.3469  0.1482
 7466SOL    HW134031   2.763   1.800   2.862  0.3599  3.0985  1.4568
 7466SOL    HW234032   2.624   1.797   2.802 -0.6442  2.5536  0.1648
 7467SOL     OW34033   2.391   0.553  13.361  0.4149  0.0031 -0.1180
 7467SOL    HW134034   2.350   0.612  13.423 -0.5319 -1.4122  0.6146
 7467SOL    HW234035   2.459   0.607  13.322  1.3021 -0.4274  0.8474
 7468SOL     OW34036   4.568   2.345   4.648  0.0942  0.3072 -0.1116
 7468SOL    HW134037   4.495   2.323   4.591 -0.0363 -0.8832  0.5016
 7468SOL    HW234038   4.622   2.403   4.595 -0.3390  0.1148 -0.7664
 7469SOL     OW34039   0.009   2.875   8.287  0.8215  0.2914 -0.2293
 7469SOL    HW134040   0.019   2.921   8.204 -1.2607 -1.8057 -1.6397
 7469SOL    HW234041   0.008   2.782   8.264 -0.4523 -0.0415  1.1926
 7470SOL     OW34042   4.672   0.830   7.646 -0.3821  0.2486 -0.1645
 7470SOL    HW134043   0.024   0.810   7.682 -1.5537 -1.1592  1.8460
 7470SOL    HW234044   4.664   0.748   7.597  2.1100  1.4321 -2.5798
 7471SOL     OW34045   3.674   1.683  11.464  0.0577  0.1341 -0.0762
 7471SOL    HW134046   3.611   1.729  11.408 -0.2119  0.6342  0.6333
 7471SOL    HW234047   3.747   1.669  11.405 -0.9640 -1.4270 -0.9855
 7472SOL     OW34048   1.780   0.132  12.490 -0.2373 -0.1459 -0.0011
 7472SOL    HW134049   1.782   0.105  12.398  1.7631 -0.6775  0.1966
 7472SOL    HW234050   1.860   0.084  12.511  1.2650  2.0813 -0.6564
 7473SOL     OW34051   3.716   1.279  17.163  0.3257  0.1946 -0.6563
 7473SOL    HW134052   3.715   1.337  17.240 -2.5941 -0.9032  0.1390
 7473SOL    HW234053   3.808   1.285  17.137  0.6101 -0.2149  0.2517
 7474SOL     OW34054   2.932   2.546   3.164 -0.4923  0.0161 -0.0910
 7474SOL    HW134055   2.958   2.565   3.254 -0.3052 -0.1670 -0.1081
 7474SOL    HW234056   2.845   2.508   3.176 -0.2322  0.1069  2.0997
 7475SOL     OW34057   2.273   4.245   3.017 -0.3243 -0.5461 -0.1481
 7475SOL    HW134058   2.244   4.187   3.087 -1.2547  0.4266  0.2771
 7475SOL    HW234059   2.364   4.215   3.010 -0.0190  0.6339 -1.3424
 7476SOL     OW34060   4.722   2.529   5.166 -0.3436 -0.2834  0.0246
 7476SOL    HW134061   0.056   2.509   5.230  2.5535  1.7090 -2.4162
 7476SOL    HW234062   4.708   2.622   5.183  0.4949 -0.4692  1.7896
 7477SOL     OW34063   2.930   2.507   6.662 -0.7765 -0.0382  0.8602
 7477SOL    HW134064   2.928   2.424   6.615 -1.0538 -0.3050  1.3402
 7477SOL    HW234065   2.909   2.488   6.754  1.9992  0.8735  1.6754
 7478SOL     OW34066   1.953   0.980   5.859 -0.0505 -0.4784 -0.0030
 7478SOL    HW134067   2.009   0.942   5.791 -0.9167 -0.5721 -0.6702
 7478SOL    HW234068   1.898   1.042   5.810 -0.2238 -0.1305  0.6333
 7479SOL     OW34069   0.231   3.770  10.359 -0.7185  0.3519  0.4129
 7479SOL    HW134070   0.168   3.747  10.291 -0.7545  0.1689  0.5066
 7479SOL    HW234071   0.229   3.693  10.417 -0.9015 -1.3789 -1.8917
 7480SOL     OW34072   3.050   3.689  11.162 -0.0989 -0.3398 -0.2185
 7480SOL    HW134073   3.137   3.669  11.130  1.0299  0.7812  2.1258
 7480SOL    HW234074   3.080   3.745  11.234 -1.0600 -1.3028  0.9519
 7481SOL     OW34075   1.191   4.118   2.134  0.1137  0.1323 -0.6807
 7481SOL    HW134076   1.114   4.064   2.116 -1.1475  1.4095  0.9668
 7481SOL    HW234077   1.190   4.175   2.057  0.3967  0.8628 -0.1464
 7482SOL     OW34078   2.721   0.108   8.153  0.1467 -0.1974 -0.0927
 7482SOL    HW134079   2.742   0.050   8.226 -0.4292  1.3761  1.3307
 7482SOL    HW234080   2.690   0.185   8.201  2.7978  1.1659 -0.6142
 7483SOL     OW34081   3.576   4.715  11.005 -0.3969  0.4553  0.1517
 7483SOL    HW134082   3.601   4.632  11.047  3.0265  2.2317  1.5486
 7483SOL    HW234083   3.652   0.000  10.951 -3.8908  3.1649 -3.7206
 7484SOL     OW34084   0.741   2.880  11.423 -0.2796 -0.3634  0.1293
 7484SOL    HW134085   0.797   2.829  11.365  0.9335  2.4422 -1.2144
 7484SOL    HW234086   0.701   2.807  11.470 -2.9342  0.9417 -0.1020
 7485SOL     OW34087   2.327   3.066   5.728 -0.1645 -0.5975 -0.0079
 7485SOL    HW134088   2.258   3.117   5.770  0.7220 -0.8648  1.7481
 7485SOL    HW234089   2.282   3.022   5.656  1.7013 -0.9965 -0.9469
 7486SOL     OW34090   4.625   4.046  11.730  0.4045  0.0046 -0.1614
 7486SOL    HW134091   4.562   4.113  11.705 -0.0051 -0.9918 -1.7220
 7486SOL    HW234092   4.571   3.993  11.788  0.5362 -0.4315 -0.4418
 7487SOL     OW34093   0.856   1.814  13.635 -0.2495 -0.0158  0.0575
 7487SOL    HW134094   0.934   1.813  13.579 -0.5539 -2.0397 -0.3285
 7487SOL    HW234095   0.823   1.725  13.628 -1.1006  0.1622  1.8127
 7488SOL     OW34096   3.644   0.340   5.586  0.2706 -0.4884 -0.1557
 7488SOL    HW134097   3.717   0.401   5.603  0.6344 -0.2407 -2.5416
 7488SOL    HW234098   3.596   0.322   5.666 -1.3038  0.3329 -0.9081
 7489SOL     OW34099   1.913   0.485   0.228  0.1711  0.4677 -0.2053
 7489SOL    HW134100   1.850   0.515   0.293  3.2267  1.9683  2.0818
 7489SOL    HW234101   1.858   0.442   0.162  0.3081 -0.0155 -0.0054
 7490SOL     OW34102   4.529   3.088   3.758 -0.0011  0.2262  0.1603
 7490SOL    HW134103   4.442   3.125   3.767 -0.8146 -1.2919 -1.5035
 7490SOL    HW234104   4.588   3.144   3.808  1.6202 -1.8111  0.5519
 7491SOL     OW34105   3.873   4.102   6.579 -0.0818  0.3142  0.2508
 7491SOL    HW134106   3.830   4.160   6.642  0.5931  0.4519  0.5900
 7491SOL    HW234107   3.894   4.160   6.506 -0.6630  0.1640 -0.0337
 7492SOL     OW34108   0.763   4.391   6.516 -0.5076 -0.5203 -0.2973
 7492SOL    HW134109   0.795   4.477   6.546  0.4390 -0.1427 -2.4080
 7492SOL    HW234110   0.844   4.341   6.505  0.4043  0.6611  1.0567
 7493SOL     OW34111   1.540   4.517   1.752  0.3796  0.6069 -0.0529
 7493SOL    HW134112   1.561   4.476   1.836 -0.2173 -3.5894 -1.9447
 7493SOL    HW234113   1.476   4.585   1.773 -0.2981 -0.0542  0.0555
 7494SOL     OW34114   2.230   2.548  16.208  0.1095  0.3976 -0.1872
 7494SOL    HW134115   2.186   2.623  16.168  0.1803  1.2704  1.3783
 7494SOL    HW234116   2.305   2.552  16.148  0.8486 -1.8047  0.5787
 7495SOL     OW34117   2.873   4.083  17.021  0.2235  0.0394 -0.0097
 7495SOL    HW134118   2.883   4.039  16.937  0.2800 -0.5954  0.3326
 7495SOL    HW234119   2.780   4.066  17.033  0.0105  0.2534 -1.4311
 7496SOL     OW34120   4.229   1.857   0.113  0.0976  0.4172 -0.2090
 7496SOL    HW134121   4.238   1.795   0.186  0.2428  0.5098 -0.1481
 7496SOL    HW234122   4.169   1.925   0.144 -1.0755 -0.4498 -0.5802
 7497SOL     OW34123   3.606   2.911   5.755 -0.2072 -0.4031  0.1591
 7497SOL    HW134124   3.610   2.879   5.845 -3.1539  0.0025  0.4425
 7497SOL    HW234125   3.548   2.988   5.763  3.1904  2.4985 -3.3598
 7498SOL     OW34126   0.011   4.668   4.110 -0.3443  0.3629 -0.5572
 7498SOL    HW134127   0.050   4.604   4.051  0.3228  1.6984 -1.5560
 7498SOL    HW234128   4.679   4.688   4.044  0.5625 -2.3966 -2.2813
 7499SOL     OW34129   1.439   1.906   8.809 -0.8556 -0.6771  0.0288
 7499SOL    HW134130   1.434   1.956   8.891  0.3834  2.1214 -1.6072
 7499SOL    HW234131   1.527   1.869   8.817 -0.9811 -0.6612  1.5221
 7500SOL     OW34132   3.183   0.254   5.985 -0.1337 -0.4161 -0.7670
 7500SOL    HW134133   3.157   0.343   5.960 -3.0001 -1.4486 -1.4879
 7500SOL    HW234134   3.137   0.191   5.929 -0.4514 -0.4099 -0.5118
 7501SOL     OW34135   0.440   3.100   6.918 -0.4177  0.0104  0.0148
 7501SOL    HW134136   0.368   3.150   6.879 -1.8646 -1.3947  0.8708
 7501SOL    HW234137   0.446   3.026   6.857 -0.9766 -0.7429  0.8762
 7502SOL     OW34138   2.631   2.462  15.193 -0.3630 -0.1693  0.4277
 7502SOL    HW134139   2.558   2.496  15.142 -1.3468 -1.1456  1.1949
 7502SOL    HW234140   2.684   2.417  15.127  0.0430 -0.3191  0.8557
 7503SOL     OW34141   0.019   4.240  11.239  0.2178 -0.4318  0.3912
 7503SOL    HW134142   0.096   4.186  11.221 -1.3512 -1.9913 -1.6205
 7503SOL    HW234143   4.699   4.163  11.251 -0.0903 -0.1699  0.6548
 7504SOL     OW34144   1.058   4.177   5.007  0.1221  0.1603 -0.2422
 7504SOL    HW134145   1.060   4.259   4.957 -1.8915  0.9727  1.0406
 7504SOL    HW234146   0.998   4.203   5.076 -0.6835 -0.4143 -0.7281
 7505SOL     OW34147   3.949   0.658   5.074 -0.1421 -0.0830  0.2150
 7505SOL    HW134148   3.999   0.577   5.086  0.2514 -0.3860 -3.4508
 7505SOL    HW234149   4.015   0.724   5.051  0.1790 -0.6537 -0.5148
 7506SOL     OW34150   0.208   3.733  10.835  0.4806  0.2864  0.1844
 7506SOL    HW134151   0.225   3.709  10.926  1.7930  1.7725  0.3380
 7506SOL    HW234152   0.290   3.763  10.797 -0.2573 -0.4610 -1.9526
 7507SOL     OW34153   4.147   1.146   9.575  0.0817  0.4874  0.2256
 7507SOL    HW134154   4.053   1.140   9.563  0.0626  2.7801 -0.8965
 7507SOL    HW234155   4.174   1.060   9.542 -1.0419  1.1311 -2.4284
 7508SOL     OW34156   2.222   0.088  15.998 -0.2448 -0.8321  0.1468
 7508SOL    HW134157   2.143   0.119  15.953  1.5417  0.4155 -2.1478
 7508SOL    HW234158   2.242   0.006  15.954  2.3116  0.4302 -1.0246
 7509SOL     OW34159   1.055   1.655  14.825 -0.7716  0.1898  0.0286
 7509SOL    HW134160   1.127   1.591  14.825  1.3747  2.6340 -2.1495
 7509SOL    HW234161   0.984   1.596  14.852 -0.0174 -1.1686 -0.9251
 7510SOL     OW34162   0.698   3.436   3.985  0.0971  0.2986  0.3787
 7510SOL    HW134163   0.650   3.480   3.915 -0.3424  0.8920  1.0523
 7510SOL    HW234164   0.629   3.373   4.003 -0.7454  0.8209 -1.0614
 7511SOL     OW34165   4.510   3.783   2.574 -0.4540 -0.2475 -0.0919
 7511SOL    HW134166   4.531   3.871   2.605 -0.6522  0.0817 -0.8880
 7511SOL    HW234167   4.564   3.774   2.496 -1.5401  0.7848 -0.9690
 7512SOL     OW34168   4.657   3.240  16.567 -0.5895  0.4078  0.1785
 7512SOL    HW134169   0.000   3.275  16.610 -2.0489 -0.7443  3.7054
 7512SOL    HW234170   4.638   3.171  16.630  1.2588  1.2386  1.6441
 7513SOL     OW34171   2.419   2.292   5.914 -0.4398 -0.1695  0.3437
 7513SOL    HW134172   2.457   2.379   5.909  1.3636 -1.0410 -1.4090
 7513SOL    HW234173   2.411   2.268   5.821 -0.4853  3.1178 -0.4809
 7514SOL     OW34174   3.667   0.863   6.669 -0.3550 -0.3217 -0.4559
 7514SOL    HW134175   3.614   0.785   6.683 -0.6966  0.1984  1.0611
 7514SOL    HW234176   3.639   0.934   6.726 -1.5175 -1.9195  0.9371
 7515SOL     OW34177   0.271   3.531  10.545 -0.4154  0.1019  0.3303
 7515SOL    HW134178   0.259   3.450  10.494  0.0489 -0.7789  1.6302
 7515SOL    HW234179   0.331   3.505  10.615 -1.4550  0.4513  1.3450
 7516SOL     OW34180   1.528   0.719  12.031 -0.2838  0.3730 -0.2369
 7516SOL    HW134181   1.605   0.662  12.032 -0.3658  0.2950  1.5943
 7516SOL    HW234182   1.473   0.655  11.987  1.1617 -0.7060 -0.4737
 7517SOL     OW34183   1.816   1.009   9.076 -0.3592 -0.6037 -0.2697
 7517SOL    HW134184   1.810   1.005   8.981 -0.3313 -2.1651 -0.2112
 7517SOL    HW234185   1.896   0.957   9.091 -0.4400 -0.7352 -0.2948
 7518SOL     OW34186   4.561   3.428  12.890 -0.2892  0.0145 -0.0553
 7518SOL    HW134187   4.574   3.463  12.979  1.6058 -0.6748 -0.0693
 7518SOL    HW234188   4.508   3.499  12.852 -1.4356 -0.8147 -0.0053
 7519SOL     OW34189   4.530   0.938   5.780  0.7671 -0.2872  0.3401
 7519SOL    HW134190   4.619   0.974   5.777  0.7582 -0.3142 -0.3877
 7519SOL    HW234191   4.554   0.857   5.824  1.1165 -0.1766  0.3557
 7520SOL     OW34192   0.673   4.710   6.413  0.6395 -0.0266 -0.1963
 7520SOL    HW134193   0.639   0.064   6.430 -1.0475 -0.5635 -0.7064
 7520SOL    HW234194   0.723   4.679   6.488  2.7733  0.3992 -1.4417
 7521SOL     OW34195   2.896   1.366   6.968  0.2757 -0.0122 -0.3442
 7521SOL    HW134196   2.882   1.455   6.997 -0.1784 -0.7437  1.6453
 7521SOL    HW234197   2.804   1.340   6.963  0.7608 -1.4636 -1.7237
 7522SOL     OW34198   1.335   2.676   2.796  0.1639  0.1861 -0.2228
 7522SOL    HW134199   1.414   2.726   2.777  1.0797 -1.0230  0.4191
 7522SOL    HW234200   1.346   2.601   2.737  0.0126 -1.6223  2.0217
 7523SOL     OW34201   2.279   1.841   7.255  0.8189  0.1612 -0.4573
 7523SOL    HW134202   2.342   1.847   7.327  0.5732 -0.5973 -0.1723
 7523SOL    HW234203   2.244   1.755   7.280  0.1664  0.3882 -0.5861
 7524SOL     OW34204   0.345   1.610   4.925  0.5018 -0.2672 -0.3651
 7524SOL    HW134205   0.425   1.559   4.929 -0.3483 -1.5980 -0.5561
 7524SOL    HW234206   0.361   1.649   4.839  1.1126  0.8279  0.2361
 7525SOL     OW34207   4.588   3.765   7.305  1.0466 -0.2269 -0.1562
 7525SOL    HW134208   4.675   3.800   7.323  0.7282  0.1745  0.5869
 7525SOL    HW234209   4.590   3.675   7.336 -0.5137 -0.0210  0.5433
 7526SOL     OW34210   2.691   2.722  10.432  0.6596  0.2472 -0.1083
 7526SOL    HW134211   2.661   2.794  10.488  1.3186  0.0795  0.4521
 7526SOL    HW234212   2.623   2.727  10.364 -1.0470 -0.1337  1.5558
 7527SOL     OW34213   0.123   3.204  11.578 -0.7758  0.1090  0.4733
 7527SOL    HW134214   0.037   3.171  11.550 -0.0876 -2.8027  1.7796
 7527SOL    HW234215   0.116   3.215  11.672 -2.6726  4.3635 -0.1789
 7528SOL     OW34216   0.858   0.240   2.716 -0.7748 -0.3460 -0.1808
 7528SOL    HW134217   0.931   0.184   2.743 -0.0547  0.6461 -0.1052
 7528SOL    HW234218   0.803   0.238   2.794  0.0047 -0.5482  0.3675
 7529SOL     OW34219   3.387   3.405   0.363 -0.1882  0.3425  0.0930
 7529SOL    HW134220   3.329   3.458   0.308  0.8862  1.4764  0.0519
 7529SOL    HW234221   3.392   3.319   0.320  1.1071  0.2592  0.4106
 7530SOL     OW34222   1.331   3.372   3.086  0.0782 -0.5679  0.1354
 7530SOL    HW134223   1.264   3.305   3.101  0.0615 -0.4193  0.7056
 7530SOL    HW234224   1.408   3.317   3.071  1.3517  1.4437 -0.6986
 7531SOL     OW34225   4.538   1.896   6.906  0.1229  0.0720  0.6424
 7531SOL    HW134226   4.535   1.905   7.001 -0.6783  0.2629  0.5973
 7531SOL    HW234227   4.555   1.985   6.877  0.8012 -0.4026 -0.4123
 7532SOL     OW34228   2.355   1.362   7.734  0.1363  0.1603 -0.2200
 7532SOL    HW134229   2.268   1.326   7.753  0.9643 -1.5482  0.3618
 7532SOL    HW234230   2.365   1.348   7.640 -0.7927  0.1331 -0.3170
 7533SOL     OW34231   1.182   3.882   6.291  0.2583  0.2225  0.0706
 7533SOL    HW134232   1.118   3.851   6.355  1.4699 -4.8130 -1.0958
 7533SOL    HW234233   1.209   3.972   6.309  1.0632 -0.1326  0.6160
 7534SOL     OW34234   1.962   4.047   2.693  0.2274  0.4972  0.3680
 7534SOL    HW134235   1.980   4.043   2.599  0.7978 -0.0847  0.5027
 7534SOL    HW234236   1.869   4.051   2.674 -0.2782  0.9680  2.9585
 7535SOL     OW34237   2.200   4.004   0.542 -0.1110  0.3476 -0.1255
 7535SOL    HW134238   2.274   4.064   0.554 -0.3083  0.5817 -0.0892
 7535SOL    HW234239   2.156   4.004   0.627 -0.4546 -0.8577 -0.3145
 7536SOL     OW34240   3.316   0.874   9.479  0.3831 -0.1619  0.1807
 7536SOL    HW134241   3.296   0.813   9.550 -0.4244 -1.1318 -0.8701
 7536SOL    HW234242   3.246   0.935   9.501 -0.4840 -1.1139  0.0804
 7537SOL     OW34243   2.352   0.077   0.709 -0.7253 -0.0705  0.3023
 7537SOL    HW134244   2.440   0.097   0.741 -0.5623 -1.8240  0.9305
 7537SOL    HW234245   2.364   0.039   0.622 -0.0152  1.1126 -0.1184
 7538SOL     OW34246   4.481   1.998   7.933 -0.3240 -0.2124  0.4891
 7538SOL    HW134247   4.572   2.016   7.908  0.1914 -0.4835  2.1445
 7538SOL    HW234248   4.436   2.079   7.908  0.3010  0.5718  1.9017
 7539SOL     OW34249   4.582   3.279   7.045 -0.1288  0.0057 -0.3878
 7539SOL    HW134250   4.554   3.367   7.071 -1.2683 -0.4977  0.0795
 7539SOL    HW234251   4.670   3.268   7.081  0.4977 -0.6233 -2.1176
 7540SOL     OW34252   0.071   3.711   4.470 -0.0617 -0.2021  0.2259
 7540SOL    HW134253   0.119   3.719   4.552  2.4148  2.1491 -1.4339
 7540SOL    HW234254   0.006   3.778   4.493 -0.9437 -1.2863  0.8867
 7541SOL     OW34255   2.388   4.440   3.792 -0.2991 -0.0113  0.1011
 7541SOL    HW134256   2.476   4.474   3.780 -0.7782  1.3528  0.4083
 7541SOL    HW234257   2.407   4.347   3.798  0.7615  0.2341  0.5489
 7542SOL     OW34258   3.028   2.465   9.085  0.1167 -0.1832  0.4693
 7542SOL    HW134259   2.973   2.387   9.092  0.6162 -0.7942 -2.2229
 7542SOL    HW234260   3.064   2.443   8.999  2.3708 -0.0891  1.3943
 7543SOL     OW34261   2.322   1.603   2.254  0.0837  0.1114 -0.5126
 7543SOL    HW134262   2.333   1.616   2.160  0.0731  2.0855 -0.2421
 7543SOL    HW234263   2.407   1.586   2.293 -0.4155 -0.3286  0.3699
 7544SOL     OW34264   3.260   1.165   3.359  0.3732 -0.1198 -0.3636
 7544SOL    HW134265   3.198   1.094   3.375  0.5453  0.2131  1.7031
 7544SOL    HW234266   3.214   1.215   3.291  0.6788  0.7685  0.0895
 7545SOL     OW34267   1.424   3.983   6.541 -0.2138  0.6770  0.2314
 7545SOL    HW134268   1.376   3.924   6.599 -1.0783 -1.2935 -2.4791
 7545SOL    HW234269   1.497   3.926   6.517 -1.9308 -1.2985 -0.3716
 7546SOL     OW34270   0.972   0.074  10.708 -0.3768  0.0563  0.7913
 7546SOL    HW134271   1.031   0.134  10.661 -1.9490 -0.1971 -1.5090
 7546SOL    HW234272   1.038   0.021  10.752  0.4407 -0.6686 -1.3069
 7547SOL     OW34273   1.597   0.048  11.671 -0.1563 -1.3863 -0.4860
 7547SOL    HW134274   1.509   0.086  11.676 -1.0720 -3.5425 -0.0095
 7547SOL    HW234275   1.627   0.085  11.589 -1.4325 -0.0874 -0.3634
 7548SOL     OW34276   3.000   2.930   3.650 -0.1164 -0.2552 -0.4648
 7548SOL    HW134277   2.921   2.945   3.598 -0.3075 -2.7780 -0.8622
 7548SOL    HW234278   2.991   3.004   3.711  3.4953  2.1853 -2.8836
 7549SOL     OW34279   3.887   2.281   1.679 -0.2295  0.0215  0.0472
 7549SOL    HW134280   3.864   2.321   1.762 -0.6937 -1.4511  0.6328
 7549SOL    HW234281   3.830   2.340   1.629 -1.9309 -1.1882  0.5501
 7550SOL     OW34282   2.127   4.603   2.298  0.2556 -0.2092 -0.3403
 7550SOL    HW134283   2.142   4.692   2.265  0.5224 -0.3108 -0.4910
 7550SOL    HW234284   2.208   4.565   2.266  0.2773  0.0143 -0.5467
 7551SOL     OW34285   0.226   1.875   2.761 -0.4123 -0.2329  0.5583
 7551SOL    HW134286   0.158   1.942   2.771  0.2834  0.2642  1.9997
 7551SOL    HW234287   0.292   1.907   2.823  1.3219 -1.8932 -0.4451
 7552SOL     OW34288   3.874   0.401  10.805 -0.2531  0.2777  0.3040
 7552SOL    HW134289   3.907   0.473  10.858  0.7068 -0.4280  0.6883
 7552SOL    HW234290   3.953   0.347  10.809  0.4311  1.4985  2.8603
 7553SOL     OW34291   4.500   3.394   4.621 -0.3874 -0.2495 -0.4759
 7553SOL    HW134292   4.502   3.431   4.709 -0.5778 -1.8466  0.1989
 7553SOL    HW234293   4.407   3.371   4.615 -1.0898  2.0909  1.2822
 7554SOL     OW34294   2.827   1.047   5.249  0.0596 -0.4943  0.2675
 7554SOL    HW134295   2.752   1.081   5.297 -0.1092  2.9325 -2.4129
 7554SOL    HW234296   2.822   0.953   5.264 -1.7021 -0.3149  0.7145
 7555SOL     OW34297   4.464   2.489   7.683  0.4718 -0.7040 -0.1583
 7555SOL    HW134298   4.399   2.429   7.647  0.9494 -0.9308 -0.6343
 7555SOL    HW234299   4.515   2.438   7.746  0.2273  0.0115  0.6266
 7556SOL     OW34300   3.597   1.095   6.787  0.0439  0.0917 -0.4111
 7556SOL    HW134301   3.518   1.145   6.808  0.1629 -0.2969  1.0069
 7556SOL    HW234302   3.642   1.162   6.735 -0.6957 -0.4959 -1.8028
 7557SOL     OW34303   1.396   0.910   6.722 -0.0546 -0.1130 -0.5973
 7557SOL    HW134304   1.351   0.826   6.719  0.1492 -0.2264 -0.5061
 7557SOL    HW234305   1.393   0.931   6.628  0.2365 -0.6179 -0.7222
 7558SOL     OW34306   0.647   0.664   8.906 -0.7043 -0.5404  0.3194
 7558SOL    HW134307   0.650   0.626   8.818 -2.3729  1.6970 -0.7033
 7558SOL    HW234308   0.570   0.621   8.942 -1.9177  0.7458 -0.7212
 7559SOL     OW34309   0.527   2.614   2.863  0.3422 -0.0191 -0.5661
 7559SOL    HW134310   0.545   2.602   2.770  0.1802  1.7353 -0.8191
 7559SOL    HW234311   0.556   2.531   2.901 -1.0023 -0.2248 -0.0010
 7560SOL     OW34312   2.657   1.329  10.672 -0.4374 -0.1982  0.1641
 7560SOL    HW134313   2.577   1.279  10.690 -0.6627  0.4345  0.9008
 7560SOL    HW234314   2.617   1.415  10.665 -0.5830 -0.3689 -1.0108
 7561SOL     OW34315   1.165   2.917   3.221  0.0556 -0.0910  0.0600
 7561SOL    HW134316   1.216   2.868   3.157  2.6153  0.3226  1.7988
 7561SOL    HW234317   1.074   2.899   3.198  0.1227 -1.0418  0.5456
 7562SOL     OW34318   2.644   4.371   0.451  0.4029  0.1742 -0.2545
 7562SOL    HW134319   2.674   4.461   0.437 -0.9845  0.5370 -0.8950
 7562SOL    HW234320   2.723   4.327   0.483 -1.1849 -1.8394  0.8935
 7563SOL     OW34321   1.840   3.017   5.532  0.0494 -0.1471  0.6210
 7563SOL    HW134322   1.772   2.965   5.488 -1.7636  1.3076  1.6862
 7563SOL    HW234323   1.796   3.101   5.520 -0.2072 -0.0811  2.0027
 7564SOL     OW34324   3.831   2.123   7.694  0.0333 -0.1734 -0.1791
 7564SOL    HW134325   3.801   2.131   7.785 -1.1492 -1.6480 -0.4643
 7564SOL    HW234326   3.785   2.045   7.664 -0.6593 -0.5787  1.9720
 7565SOL     OW34327   0.598   4.006   2.493  0.0553 -0.4619  0.2057
 7565SOL    HW134328   0.660   3.979   2.561 -1.7640 -0.9728  1.6442
 7565SOL    HW234329   0.645   4.077   2.449  1.0615 -1.6666 -0.6618
 7566SOL     OW34330   1.017   1.547  13.514  0.7647 -0.2193  0.3015
 7566SOL    HW134331   1.006   1.625  13.460 -0.8994 -2.9241 -3.2106
 7566SOL    HW234332   1.050   1.592  13.592 -2.4598  0.5763  1.1956
 7567SOL     OW34333   3.559   3.783  12.472 -0.0757  0.2346 -0.3210
 7567SOL    HW134334   3.530   3.693  12.484  0.8574 -0.1709 -1.0748
 7567SOL    HW234335   3.641   3.786  12.520 -0.6876  1.0140  0.6722
 7568SOL     OW34336   0.197   3.342  11.256 -0.5599 -0.3870 -0.3505
 7568SOL    HW134337   0.234   3.264  11.297  2.0794  1.1914  0.2979
 7568SOL    HW234338   0.271   3.402  11.269 -0.0489 -1.2605  0.7204
 7569SOL     OW34339   3.292   1.730   2.849  0.7522 -0.1432  0.1947
 7569SOL    HW134340   3.206   1.699   2.876  1.3443 -1.2367  0.8598
 7569SOL    HW234341   3.266   1.709   2.759  4.0503  0.8420 -0.9931
 7570SOL     OW34342   2.771   1.563   3.553 -0.1763  0.5142 -0.0640
 7570SOL    HW134343   2.848   1.505   3.557  0.8545  1.9703  1.1079
 7570SOL    HW234344   2.758   1.560   3.648  2.3703 -0.3587  0.2671
 7571SOL     OW34345   3.745   1.295   6.634 -0.2347  0.0043 -0.2993
 7571SOL    HW134346   3.716   1.318   6.546  1.6413  0.7932 -0.7116
 7571SOL    HW234347   3.810   1.363   6.652 -0.1973 -0.0442 -0.2496
 7572SOL     OW34348   4.589   3.195  12.788  0.6212  0.6794 -0.0081
 7572SOL    HW134349   4.563   3.264  12.848  2.9648 -0.7897  2.6877
 7572SOL    HW234350   4.594   3.251  12.710  0.4768 -0.6824 -1.0024
 7573SOL     OW34351   3.257   3.540   0.007 -0.7244 -0.1350  0.6186
 7573SOL    HW134352   3.239   3.461  17.694 -2.1827  0.4579  0.1900
 7573SOL    HW234353   3.329   3.515   0.064  2.1453 -1.5588 -3.6270
 7574SOL     OW34354   1.450   3.252  15.157  0.0407  0.0621  0.3996
 7574SOL    HW134355   1.498   3.193  15.214 -3.4927 -1.2505  2.0149
 7574SOL    HW234356   1.414   3.196  15.088 -0.9799 -0.8190  1.6419
 7575SOL     OW34357   1.226   0.050  16.088 -0.2044  0.5845  0.5751
 7575SOL    HW134358   1.226   0.039  15.993  3.0129  1.5694  0.4562
 7575SOL    HW234359   1.211   0.144  16.099 -1.6158  0.3575  0.5901
 7576SOL     OW34360   0.968   2.515   8.203  0.4782  0.1888  0.2073
 7576SOL    HW134361   0.990   2.498   8.295  0.7784 -0.3055  0.0470
 7576SOL    HW234362   1.037   2.576   8.176 -0.6595  1.7651  0.8901
 7577SOL     OW34363   0.681   3.098   4.030  0.1295 -0.3056  0.3305
 7577SOL    HW134364   0.697   3.092   3.936 -0.2909  0.3194  0.2168
 7577SOL    HW234365   0.744   3.168   4.050 -1.2364  0.7987  0.7407
 7578SOL     OW34366   1.199   0.426   7.698 -0.3126 -0.5284  0.0967
 7578SOL    HW134367   1.141   0.501   7.688 -1.6125 -1.8848 -2.2698
 7578SOL    HW234368   1.155   0.355   7.745  0.4411 -0.4472  0.9346
 7579SOL     OW34369   0.032   1.070   8.235 -0.0463 -0.5983  0.1115
 7579SOL    HW134370   0.069   1.129   8.301 -0.6647 -0.2226  0.1246
 7579SOL    HW234371   0.040   1.122   8.155 -2.2402  0.7035  0.7378
 7580SOL     OW34372   2.332   0.300   6.672  0.0503 -0.0861  0.2668
 7580SOL    HW134373   2.341   0.368   6.606 -0.4185 -1.1541 -0.9048
 7580SOL    HW234374   2.406   0.244   6.649 -1.1262 -1.7141  0.3842
 7581SOL     OW34375   3.724   0.510   8.845 -0.3158  0.4846  0.3772
 7581SOL    HW134376   3.788   0.488   8.777 -2.1022 -0.4287 -1.0220
 7581SOL    HW234377   3.647   0.543   8.799 -0.8360  0.6785  1.3939
 7582SOL     OW34378   0.299   1.444  12.433  0.6017  0.2984  0.2181
 7582SOL    HW134379   0.234   1.483  12.374  2.2284 -0.6873 -2.1817
 7582SOL    HW234380   0.323   1.372  12.376  0.8958  0.7510 -0.2256
 7583SOL     OW34381   4.236   4.379  16.861  0.6454 -0.0991  0.2167
 7583SOL    HW134382   4.211   4.379  16.769 -0.2486 -0.8879  0.4638
 7583SOL    HW234383   4.238   4.474  16.875 -1.5837 -0.0485  0.2418
 7584SOL     OW34384   0.522   3.317   9.019 -0.0752  0.4581 -0.7534
 7584SOL    HW134385   0.617   3.323   9.027 -0.2507  1.3194  0.7980
 7584SOL    HW234386   0.496   3.400   9.059  0.1262 -1.1047  2.5906
 7585SOL     OW34387   4.393   0.257   7.881  0.1107  0.0379 -0.0902
 7585SOL    HW134388   4.299   0.264   7.896  0.0548 -0.8126 -0.0397
 7585SOL    HW234389   4.436   0.341   7.864  3.3859 -1.5785  0.2033
 7586SOL     OW34390   1.999   1.644   0.486 -0.1156  0.1105  0.0533
 7586SOL    HW134391   1.937   1.716   0.476 -0.5817 -0.0955  1.4144
 7586SOL    HW234392   1.986   1.642   0.581  1.9065 -0.5436  0.3187
 7587SOL     OW34393   2.334   4.411   8.907  0.4906  0.3946  0.1977
 7587SOL    HW134394   2.369   4.350   8.972  0.5174 -1.1428 -1.2710
 7587SOL    HW234395   2.358   4.365   8.827 -0.3374  0.8555 -0.3224
 7588SOL     OW34396   1.876   3.691   8.648  0.4022  0.3079 -0.1271
 7588SOL    HW134397   1.789   3.733   8.650  0.9300  1.5023 -2.6607
 7588SOL    HW234398   1.885   3.659   8.738 -2.2060  1.8756  0.6918
 7589SOL     OW34399   2.783   3.308  10.758 -0.3679 -0.4252  0.1076
 7589SOL    HW134400   2.765   3.214  10.757 -0.7665 -0.2955 -3.3714
 7589SOL    HW234401   2.709   3.340  10.810 -0.5999  0.1345 -0.5668
 7590SOL     OW34402   3.978   2.444   4.495 -0.3907  0.3806 -0.0440
 7590SOL    HW134403   3.897   2.485   4.527 -0.6052 -1.0458  1.2380
 7590SOL    HW234404   3.945   2.360   4.462  0.1077 -0.1203  0.7199
 7591SOL     OW34405   2.878   4.258  16.796  0.4966  0.3345 -0.3300
 7591SOL    HW134406   2.805   4.265  16.735  1.0482 -0.4061 -1.0793
 7591SOL    HW234407   2.840   4.279  16.881 -0.7814 -0.1125 -0.7902
 7592SOL     OW34408   0.991   4.095   5.657 -0.5955 -0.4139  0.2703
 7592SOL    HW134409   1.049   4.080   5.731  1.4569  0.5713 -1.1476
 7592SOL    HW234410   0.924   4.156   5.687 -1.6236 -0.5025 -1.8334
 7593SOL     OW34411   1.321   3.297   4.202 -0.0278 -0.3666 -0.8167
 7593SOL    HW134412   1.234   3.338   4.207 -0.2242 -0.7330 -1.1504
 7593SOL    HW234413   1.357   3.288   4.290  0.1912 -1.5059 -1.0140
 7594SOL     OW34414   2.951   0.931   8.417  1.0404  0.7987 -0.4927
 7594SOL    HW134415   3.023   0.954   8.476  0.5610  4.1793 -1.2657
 7594SOL    HW234416   2.917   1.020   8.407  0.0270  0.4292 -0.3406
 7595SOL     OW34417   4.712   3.647  14.522  0.0553  0.5365  0.1366
 7595SOL    HW134418   4.639   3.685  14.473  0.5635 -2.0697 -2.6023
 7595SOL    HW234419   4.714   3.566  14.472  3.1723  0.3418  0.6312
 7596SOL     OW34420   1.797   0.300   6.639  0.4842 -0.4723  0.1409
 7596SOL    HW134421   1.805   0.379   6.586  0.1525 -0.3949  0.2078
 7596SOL    HW234422   1.888   0.271   6.639  0.8770  0.7536 -0.4394
 7597SOL     OW34423   0.417   1.343   0.787 -0.5847  0.3403  0.8883
 7597SOL    HW134424   0.327   1.361   0.813 -0.8509 -1.5391  1.2552
 7597SOL    HW234425   0.421   1.261   0.738  2.0732  2.0382 -1.7433
 7598SOL     OW34426   1.408   2.111   1.994 -0.7003  0.0308 -0.1202
 7598SOL    HW134427   1.497   2.143   1.979 -0.9990  0.5901 -0.7009
 7598SOL    HW234428   1.422   2.038   2.055 -1.7464  0.3776  0.5380
 7599SOL     OW34429   4.558   2.217   6.522  0.4925  0.2994 -0.1686
 7599SOL    HW134430   4.564   2.292   6.464 -0.9438  0.0644 -0.6139
 7599SOL    HW234431   4.573   2.140   6.467  3.4698 -0.6335  1.9242
 7600SOL     OW34432   2.988   1.334   3.879  0.1387  0.5027 -0.2798
 7600SOL    HW134433   2.966   1.424   3.901 -0.2891 -0.0405  1.5086
 7600SOL    HW234434   2.906   1.286   3.883  1.3090 -1.1585  4.1499
 7601SOL     OW34435   2.616   3.478  10.996 -0.1542  0.2856  0.7436
 7601SOL    HW134436   2.578   3.394  11.022 -3.0553  1.2091 -0.4688
 7601SOL    HW234437   2.630   3.530  11.075  2.3568  3.6037 -1.8846
 7602SOL     OW34438   2.304   0.787  11.558 -0.3551 -0.0686  0.3203
 7602SOL    HW134439   2.334   0.821  11.473  2.2584 -1.4071  0.6966
 7602SOL    HW234440   2.213   0.780  11.529  0.2002  0.6259 -1.6291
 7603SOL     OW34441   1.517   0.194   6.622 -0.0817  0.3557  0.1235
 7603SOL    HW134442   1.603   0.228   6.647 -0.5457  2.1200 -0.6497
 7603SOL    HW234443   1.524   0.207   6.528  0.6047  0.6407  0.2140
 7604SOL     OW34444   4.082   4.494  10.656 -0.2055  0.0966 -0.7780
 7604SOL    HW134445   4.025   4.425  10.624 -1.3302  0.0086  1.4116
 7604SOL    HW234446   4.149   4.499  10.588  1.1224 -1.3431  0.4178
 7605SOL     OW34447   2.055   1.546   2.309 -0.5209 -0.0139 -0.0727
 7605SOL    HW134448   2.044   1.548   2.404  2.2974  0.4005  0.2468
 7605SOL    HW234449   2.143   1.584   2.301 -0.2081 -0.7780 -0.2832
 7606SOL     OW34450   0.920   2.120   4.209  0.2790  0.1235  0.5889
 7606SOL    HW134451   0.896   2.196   4.154 -1.2501 -0.4005  0.5273
 7606SOL    HW234452   1.015   2.118   4.208  0.2761  0.3507 -0.8271
 7607SOL     OW34453   0.594   1.973   2.760  0.3752  0.1547 -0.3278
 7607SOL    HW134454   0.578   1.930   2.844  1.3551 -0.2244 -0.3289
 7607SOL    HW234455   0.560   2.059   2.783  0.8459  0.4403 -0.6969
 7608SOL     OW34456   1.673   4.152  12.679  0.5834 -0.0970  0.5353
 7608SOL    HW134457   1.660   4.065  12.640  1.7336  0.1167 -0.3369
 7608SOL    HW234458   1.615   4.139  12.753 -0.8518  1.5052 -0.3156
 7609SOL     OW34459   3.338   1.899  13.304  0.2157 -0.4616 -0.3217
 7609SOL    HW134460   3.287   1.819  13.298 -0.2118 -0.2714  0.8356
 7609SOL    HW234461   3.357   1.924  13.213 -0.9694 -1.6634 -0.8909
 7610SOL     OW34462   0.230   2.242   7.458 -0.2957  0.1625  0.2541
 7610SOL    HW134463   0.181   2.261   7.538  1.2161 -1.8745  1.6706
 7610SOL    HW234464   0.287   2.171   7.488  0.6430  1.1727  0.8514
 7611SOL     OW34465   3.805   2.601   1.114 -0.2602 -0.2049  0.3094
 7611SOL    HW134466   3.816   2.626   1.022  1.0243 -0.0934  0.5011
 7611SOL    HW234467   3.797   2.685   1.158 -2.3051 -0.6303  0.7673
 7612SOL     OW34468   2.683   1.070   9.675 -0.3395  0.5123 -0.5448
 7612SOL    HW134469   2.646   0.985   9.701 -0.2969  0.8726  0.7109
 7612SOL    HW234470   2.772   1.048   9.645  0.8021  1.2145  2.2612
 7613SOL     OW34471   0.632   0.125  16.833  0.2310 -0.1446 -0.2845
 7613SOL    HW134472   0.711   0.178  16.824 -0.0523  0.5030  1.0289
 7613SOL    HW234473   0.584   0.119  16.750  0.8283 -1.8793 -0.5188
 7614SOL     OW34474   2.748   3.654  16.566 -0.5696  0.3986 -0.3942
 7614SOL    HW134475   2.695   3.583  16.605  0.3076 -0.7365 -1.2679
 7614SOL    HW234476   2.833   3.612  16.573 -2.2367 -2.6574  1.6592
 7615SOL     OW34477   3.458   1.833   7.956 -0.0587 -0.0335  0.1242
 7615SOL    HW134478   3.377   1.859   7.912 -0.1003 -0.6883 -0.1762
 7615SOL    HW234479   3.491   1.923   7.966  1.5268 -0.4059 -1.6201
 7616SOL     OW34480   4.732   0.898   1.410  0.6348  0.2026 -0.0741
 7616SOL    HW134481   0.050   0.910   1.330  0.5196  0.4820 -0.1087
 7616SOL    HW234482   4.649   0.927   1.372  0.6534 -1.5830 -1.5040
 7617SOL     OW34483   2.168   0.118   7.300  0.1942  0.6274 -0.0482
 7617SOL    HW134484   2.197   0.090   7.386 -1.2829  0.0560  0.2613
 7617SOL    HW234485   2.104   0.054   7.269 -0.4009  1.5547 -0.7538
 7618SOL     OW34486   0.982   4.562   2.586 -0.0808 -0.1124 -0.0733
 7618SOL    HW134487   0.907   4.520   2.629  1.2718 -3.6632 -1.1944
 7618SOL    HW234488   1.048   4.565   2.656 -0.2775  2.2262  0.0110
 7619SOL     OW34489   1.368   4.599   9.333 -0.7556  0.4566 -0.3111
 7619SOL    HW134490   1.276   4.576   9.323 -0.8740  2.0742 -2.9436
 7619SOL    HW234491   1.378   4.674   9.275 -4.1641  0.8333 -0.3713
 7620SOL     OW34492   4.365   1.082   2.794 -0.1529  0.1254  0.2674
 7620SOL    HW134493   4.314   1.153   2.832 -1.1843 -0.4707  0.0125
 7620SOL    HW234494   4.418   1.050   2.867  0.8597 -0.1089 -0.5789
 7621SOL     OW34495   3.317   3.884   9.595  0.0710  0.8719 -0.0915
 7621SOL    HW134496   3.272   3.800   9.591  1.4576  0.0446  1.3059
 7621SOL    HW234497   3.389   3.864   9.534  0.7244 -3.0776  1.9690
 7622SOL     OW34498   1.520   3.098   5.950 -0.2122  0.1165 -0.2499
 7622SOL    HW134499   1.494   3.107   5.859 -4.3802 -3.6708  0.5519
 7622SOL    HW234500   1.439   3.077   5.998  0.6666  0.4735  1.3855
 7623SOL     OW34501   2.235   3.862   4.500  0.0346  0.2310 -0.3831
 7623SOL    HW134502   2.267   3.951   4.485 -1.7307  0.5248 -2.3305
 7623SOL    HW234503   2.178   3.869   4.577 -0.2235 -0.4500 -0.5117
 7624SOL     OW34504   1.946   1.718  12.449  0.0648 -0.0157  0.5883
 7624SOL    HW134505   1.932   1.625  12.462 -0.5010  0.0234  0.2493
 7624SOL    HW234506   1.944   1.741  12.542  0.1500 -2.1476  1.0964
 7625SOL     OW34507   2.104   1.197   5.133  0.2229 -0.6205  0.0262
 7625SOL    HW134508   2.149   1.281   5.122 -4.5771  1.9043 -0.1598
 7625SOL    HW234509   2.039   1.210   5.064  0.0514 -0.3367  0.2418
 7626SOL     OW34510   3.145   0.287   3.349  0.1955 -0.0557  0.0954
 7626SOL    HW134511   3.210   0.222   3.376 -1.3741 -0.6408  2.4935
 7626SOL    HW234512   3.070   0.237   3.315 -1.5302  3.2690 -0.9862
 7627SOL     OW34513   3.854   2.966  12.157 -0.3622  0.1295 -0.4353
 7627SOL    HW134514   3.820   2.969  12.246 -2.2597 -1.3339 -1.1122
 7627SOL    HW234515   3.878   3.058  12.148  1.0860 -0.1834  0.2039
 7628SOL     OW34516   3.496   3.370  17.423  0.2877  0.3048  0.0166
 7628SOL    HW134517   3.453   3.285  17.423 -0.8015  0.8510  0.4222
 7628SOL    HW234518   3.512   3.375  17.517  0.0794  2.8038 -0.0827
 7629SOL     OW34519   3.448   3.143   6.710 -0.0427 -0.1405  0.3211
 7629SOL    HW134520   3.536   3.174   6.729 -0.5907  0.7714  1.3788
 7629SOL    HW234521   3.456   3.065   6.765 -0.0645 -0.6605 -0.4068
 7630SOL     OW34522   1.787   0.068   2.681  0.4157  0.2457 -0.3154
 7630SOL    HW134523   1.788   0.030   2.768  0.2671  0.7832 -0.0845
 7630SOL    HW234524   1.857   0.018   2.637  2.0726  1.0754  1.3954
 7631SOL     OW34525   2.016   2.961   7.002  0.2998  0.5523 -0.1269
 7631SOL    HW134526   1.948   2.935   6.941  0.8456  0.2185 -0.5937
 7631SOL    HW234527   1.974   3.032   7.050  1.3608  1.7932 -1.0198
 7632SOL     OW34528   3.379   2.070   7.188 -0.3581  0.2875  0.2919
 7632SOL    HW134529   3.353   2.162   7.196  0.8320  0.7156 -0.7866
 7632SOL    HW234530   3.465   2.082   7.147 -0.0970 -0.4383  0.6245
 7633SOL     OW34531   0.917   2.996  15.015  0.1652 -0.4553  0.3610
 7633SOL    HW134532   0.936   3.067  14.953  2.5559  0.7271  2.4807
 7633SOL    HW234533   0.874   3.045  15.085  0.0018  0.5420 -0.4278
 7634SOL     OW34534   1.270   1.499   8.596  0.1542 -0.3965 -0.5637
 7634SOL    HW134535   1.201   1.437   8.618  0.4177 -0.0836  1.1237
 7634SOL    HW234536   1.344   1.459   8.642  0.0328 -0.0691 -0.0926
 7635SOL     OW34537   4.481   0.172   7.202 -0.3395  0.1368  0.1592
 7635SOL    HW134538   4.502   0.197   7.112  0.9257  1.4861  0.8308
 7635SOL    HW234539   4.408   0.111   7.193 -0.2065 -0.2689  1.7668
 7636SOL     OW34540   3.718   0.132   3.566  0.4343 -0.4590 -0.3261
 7636SOL    HW134541   3.752   0.065   3.626 -0.3998 -1.6284 -1.1672
 7636SOL    HW234542   3.793   0.159   3.513  0.2807 -0.9574 -0.8017
 7637SOL     OW34543   2.978   1.295   4.348 -0.1470  0.3528  0.1121
 7637SOL    HW134544   3.000   1.297   4.442 -1.7673 -1.3675  0.5200
 7637SOL    HW234545   3.055   1.257   4.306 -1.3865 -0.2761 -1.5708
 7638SOL     OW34546   2.480   0.816   3.043  0.0028 -0.3200  0.4941
 7638SOL    HW134547   2.428   0.772   3.110 -1.1682  1.2121  0.6117
 7638SOL    HW234548   2.570   0.811   3.075  0.9404 -0.7432 -2.2244
 7639SOL     OW34549   2.608   3.582   6.388  0.2072 -0.0582 -0.3173
 7639SOL    HW134550   2.556   3.513   6.348 -0.5007 -0.1221  0.6951
 7639SOL    HW234551   2.619   3.653   6.324  0.9525 -0.6266 -0.8118
 7640SOL     OW34552   3.358   3.744   3.572  0.1257 -0.2778  0.1836
 7640SOL    HW134553   3.275   3.763   3.617  0.0290  0.6737 -0.4125
 7640SOL    HW234554   3.335   3.703   3.488  2.0224 -0.2736 -0.3419
 7641SOL     OW34555   3.249   3.225   6.260 -0.4327 -0.4070 -0.7961
 7641SOL    HW134556   3.313   3.170   6.306  0.8562  1.3793 -0.4588
 7641SOL    HW234557   3.317   3.256   6.201 -2.1889  1.3350 -1.8911
 7642SOL     OW34558   0.983   3.830   5.254 -0.1017 -0.5878  0.0725
 7642SOL    HW134559   1.020   3.909   5.214  0.3770 -1.0120 -0.3182
 7642SOL    HW234560   0.945   3.859   5.337 -2.0075  0.0500 -1.0348
 7643SOL     OW34561   0.513   2.667   7.291  0.1233 -0.0154  1.0256
 7643SOL    HW134562   0.562   2.603   7.239 -0.5416  0.0124  0.3661
 7643SOL    HW234563   0.557   2.744   7.256 -0.2250 -0.1998  0.1806
 7644SOL     OW34564   2.473   3.816   9.142  0.1491  0.3227 -0.3799
 7644SOL    HW134565   2.483   3.755   9.216  1.3814  0.8182 -0.1310
 7644SOL    HW234566   2.412   3.877   9.184 -0.9413  0.3397 -1.9908
 7645SOL     OW34567   2.948   0.136   2.179 -0.0450 -0.0798  0.0388
 7645SOL    HW134568   2.923   0.075   2.248  1.2681 -1.0513 -0.3494
 7645SOL    HW234569   2.945   0.220   2.225  0.2696 -0.2579  0.3723
 7646SOL     OW34570   3.343   4.489  13.449 -0.1813 -0.2552  0.4514
 7646SOL    HW134571   3.433   4.522  13.447 -0.5529  0.9394  2.5357
 7646SOL    HW234572   3.317   4.479  13.541  3.0069 -2.2820  1.1107
 7647SOL     OW34573   0.920   0.817   2.661  0.8138 -0.0535 -0.2888
 7647SOL    HW134574   0.990   0.833   2.724 -0.3799  1.7953  0.5857
 7647SOL    HW234575   0.883   0.735   2.694  1.5683  0.4077  1.7105
 7648SOL     OW34576   2.977   4.560   8.029 -0.0902 -0.0109  0.2499
 7648SOL    HW134577   3.059   4.511   8.035  0.3549  0.9932  2.2176
 7648SOL    HW234578   2.915   4.498   8.068 -1.6838  1.9171  0.7630
 7649SOL     OW34579   0.636   3.448   9.903  0.1508  0.4997  0.5721
 7649SOL    HW134580   0.621   3.465   9.996  0.8303 -0.3676  0.8328
 7649SOL    HW234581   0.554   3.474   9.861  0.5021  1.2364  0.3288
 7650SOL     OW34582   1.201   4.443  17.480 -0.2371  0.7998  0.0312
 7650SOL    HW134583   1.108   4.455  17.498 -0.6204 -0.2460 -1.2191
 7650SOL    HW234584   1.236   4.467  17.566 -1.9935 -2.4958  1.6476
 7651SOL     OW34585   3.326   3.068   7.892  0.2434 -0.0169 -0.5204
 7651SOL    HW134586   3.257   3.103   7.947  0.1989  1.1150 -1.3001
 7651SOL    HW234587   3.385   3.050   7.966 -1.4518  1.3913  1.1612
 7652SOL     OW34588   1.637   4.314  11.845  0.8449 -0.2112  0.1045
 7652SOL    HW134589   1.654   4.404  11.816  0.6415  0.3126  1.6123
 7652SOL    HW234590   1.617   4.271  11.761  2.2024 -0.7673  0.0607
 7653SOL     OW34591   3.480   4.731   8.982 -0.2533 -0.1144  0.0124
 7653SOL    HW134592   3.468   0.088   9.005 -2.4181 -0.3215 -0.2730
 7653SOL    HW234593   3.404   4.690   9.024 -0.7943 -0.9894 -1.7886
 7654SOL     OW34594   4.329   1.427  12.094 -0.1495 -0.0648  0.1338
 7654SOL    HW134595   4.361   1.420  12.004 -1.5493  0.4211 -0.3944
 7654SOL    HW234596   4.267   1.499  12.092  2.6313  2.3877  1.9194
 7655SOL     OW34597   0.751   0.291   0.403  0.0621  0.0228 -0.1960
 7655SOL    HW134598   0.822   0.269   0.342 -2.1473 -1.7362 -2.1569
 7655SOL    HW234599   0.803   0.332   0.472  0.9633 -0.1149 -0.7856
 7656SOL     OW34600   1.259   0.980   3.160  0.0439  0.3453  0.9184
 7656SOL    HW134601   1.261   0.906   3.221 -0.0206  0.0813  0.5955
 7656SOL    HW234602   1.308   0.928   3.096 -1.2853 -1.8356  1.6689
 7657SOL     OW34603   0.050   2.598   0.874  0.2218 -0.2119 -0.3316
 7657SOL    HW134604   0.130   2.648   0.893 -0.3220  0.7881 -0.6269
 7657SOL    HW234605   0.017   2.598   0.964  0.4893 -1.1191 -0.2335
 7658SOL     OW34606   4.466   4.592   7.743  0.0955  0.1787 -0.1566
 7658SOL    HW134607   4.505   4.677   7.725 -1.7185  1.0875  0.1985
 7658SOL    HW234608   4.496   4.563   7.829 -2.4167 -0.9761  0.3221
 7659SOL     OW34609   2.758   0.341   1.887 -0.3720  0.3444  0.4710
 7659SOL    HW134610   2.755   0.281   1.962  0.8898 -0.7867 -0.3910
 7659SOL    HW234611   2.776   0.424   1.931  0.8430  0.0455  0.5181
 7660SOL     OW34612   2.224   1.536  12.463 -0.3592 -0.0658  0.0492
 7660SOL    HW134613   2.192   1.463  12.410 -0.5148 -0.4709  0.6955
 7660SOL    HW234614   2.203   1.495  12.547  2.4478 -0.5446  0.5281
 7661SOL     OW34615   2.210   0.932   5.657  0.3981 -0.1624 -0.0207
 7661SOL    HW134616   2.304   0.925   5.675  0.2876  2.9857  1.7478
 7661SOL    HW234617   2.189   1.020   5.626  2.3669  1.5017  3.4479
 7662SOL     OW34618   2.586   0.174   6.291 -0.0145  0.4434  0.5811
 7662SOL    HW134619   2.562   0.126   6.370  0.7210  2.2854  1.9365
 7662SOL    HW234620   2.507   0.150   6.243  0.8605  1.4641 -1.3969
 7663SOL     OW34621   0.586   4.217   8.898 -0.2056  0.2413  0.0329
 7663SOL    HW134622   0.625   4.303   8.912 -1.2549  0.7421 -0.1562
 7663SOL    HW234623   0.641   4.164   8.956 -3.4472 -0.7644  2.2130
 7664SOL     OW34624   3.063   0.005  11.960 -0.1059 -0.4070  0.6719
 7664SOL    HW134625   3.093   4.705  12.044  1.5398 -1.4168 -0.3300
 7664SOL    HW234626   2.968   0.011  11.965 -0.0162 -0.2099  2.1693
 7665SOL     OW34627   1.379   1.705   6.070  0.0020 -0.3437  0.4073
 7665SOL    HW134628   1.440   1.638   6.100 -0.4686 -0.9993 -0.0640
 7665SOL    HW234629   1.406   1.775   6.128  1.2735  0.6336 -1.3848
 7666SOL     OW34630   4.097   1.526  14.807  0.4826 -0.2276  0.7046
 7666SOL    HW134631   4.139   1.449  14.770  2.2030  0.1428  1.8869
 7666SOL    HW234632   4.101   1.507  14.901  1.3978  0.6016  0.8324
 7667SOL     OW34633   0.904   2.203   6.156  0.4174 -0.1092  0.1729
 7667SOL    HW134634   0.904   2.157   6.072 -0.5544 -2.9153  1.7014
 7667SOL    HW234635   0.922   2.135   6.220 -1.3705  1.2977  2.1832
 7668SOL     OW34636   2.243   0.824   5.241 -0.8514  0.1275 -0.1762
 7668SOL    HW134637   2.215   0.757   5.179 -0.3150  2.6387 -3.0795
 7668SOL    HW234638   2.185   0.800   5.313 -1.0251  1.9253  0.2808
 7669SOL     OW34639   1.290   1.317  12.860  0.5848 -0.1466  0.1056
 7669SOL    HW134640   1.373   1.270  12.864  0.5645 -0.0439  1.5682
 7669SOL    HW234641   1.305   1.391  12.801  1.3022 -0.3306  0.0598
 7670SOL     OW34642   4.096   0.002   4.637  0.2155 -0.5021  0.1267
 7670SOL    HW134643   4.183   4.721   4.673  1.0257  0.8580 -1.2650
 7670SOL    HW234644   4.087   0.092   4.668  1.7667  0.0232 -0.9502
 7671SOL     OW34645   4.597   0.239  14.550 -0.5733 -0.4475  0.1936
 7671SOL    HW134646   4.517   0.222  14.499 -1.1220  1.6009  0.3795
 7671SOL    HW234647   4.606   0.332  14.529  2.1422 -1.3817 -2.7567
 7672SOL     OW34648   2.932   2.987   1.152  0.4448 -0.1139  1.3988
 7672SOL    HW134649   3.014   2.957   1.191  0.2476 -0.6788  1.3788
 7672SOL    HW234650   2.902   3.059   1.208  0.6488  0.6999  0.4517
 7673SOL     OW34651   3.060   0.162   7.665  0.8596 -0.3729  0.0914
 7673SOL    HW134652   3.046   0.127   7.753  2.1671 -1.3314 -0.0804
 7673SOL    HW234653   3.057   0.256   7.683 -0.4990 -0.4434  0.2003
 7674SOL     OW34654   2.616   2.011   5.987  0.0203  0.1079  0.0783
 7674SOL    HW134655   2.565   2.091   5.976  0.5415  0.6780  1.7045
 7674SOL    HW234656   2.590   1.957   5.913 -1.9497 -0.2287  1.0242
 7675SOL     OW34657   2.925   1.824   7.111 -0.3054  0.6618 -0.2646
 7675SOL    HW134658   2.978   1.804   7.188 -0.7745 -1.3677 -0.4808
 7675SOL    HW234659   2.853   1.880   7.140 -0.3085 -0.0658  1.1135
 7676SOL     OW34660   4.554   3.155  16.344  0.1291 -0.2954 -0.3183
 7676SOL    HW134661   4.566   3.200  16.428 -0.6614 -1.0579  0.1961
 7676SOL    HW234662   4.606   3.082  16.378  1.0950  1.2791  1.6342
 7677SOL     OW34663   0.939   1.154   6.426 -0.3005 -0.0680  0.1613
 7677SOL    HW134664   0.993   1.079   6.402 -0.5179 -0.9119  2.3141
 7677SOL    HW234665   0.937   1.207   6.346 -1.2318  0.5925  0.6174
 7678SOL     OW34666   2.144   4.070   7.608 -0.5827  0.3819 -0.0012
 7678SOL    HW134667   2.096   4.130   7.552 -0.4375  1.1884  0.7401
 7678SOL    HW234668   2.129   3.992   7.555 -3.1594  0.0422  1.2076
 7679SOL     OW34669   3.544   1.237  12.219 -0.3866  0.0370 -0.4272
 7679SOL    HW134670   3.571   1.209  12.132  1.3005  1.6984 -0.4361
 7679SOL    HW234671   3.451   1.232  12.195 -0.5860 -1.4282  0.6618
 7680SOL     OW34672   3.459   4.149   8.194  0.1676 -0.0812 -0.0416
 7680SOL    HW134673   3.523   4.077   8.194 -1.0664 -1.1675  0.0573
 7680SOL    HW234674   3.495   4.217   8.137 -0.0510  0.0337 -0.0400
 7681SOL     OW34675   2.605   2.818   6.795 -0.0699 -0.6583  0.4491
 7681SOL    HW134676   2.595   2.873   6.872  0.3139  0.1470 -0.0769
 7681SOL    HW234677   2.700   2.806   6.795 -0.0366 -0.3330  2.2771
 7682SOL     OW34678   0.081   0.425  15.552 -0.5586 -0.5329 -0.7628
 7682SOL    HW134679   0.159   0.476  15.570  1.1647 -3.3239 -0.3272
 7682SOL    HW234680   0.024   0.489  15.510  0.8708  0.4250 -1.2198
 7683SOL     OW34681   3.020   1.926   4.710  0.1757  0.2241 -0.2626
 7683SOL    HW134682   3.043   1.966   4.626 -1.7970 -2.0258 -1.8872
 7683SOL    HW234683   2.925   1.916   4.701  0.1224 -1.6294  2.3213
 7684SOL     OW34684   2.237   4.693   2.650 -0.8620 -0.4341 -0.2534
 7684SOL    HW134685   2.297   4.620   2.632  0.7751  0.3826  1.9921
 7684SOL    HW234686   2.259   4.731   2.735 -0.3017  0.1014 -0.6389
 7685SOL     OW34687   1.712   1.925   7.632 -0.3860  0.2892  0.1415
 7685SOL    HW134688   1.675   1.838   7.617  2.9813 -1.0363 -0.6628
 7685SOL    HW234689   1.795   1.896   7.671 -0.2579  1.2232  0.5666
 7686SOL     OW34690   3.115   1.446  17.579 -0.0279 -0.3802 -0.6450
 7686SOL    HW134691   3.166   1.455  17.499  1.4494  0.9748  0.4448
 7686SOL    HW234692   3.083   1.356  17.586 -0.3358 -0.2739 -0.7020
 7687SOL     OW34693   2.429   1.742   2.537  0.1481 -0.0421 -0.3709
 7687SOL    HW134694   2.461   1.657   2.509 -1.7645 -1.3735  1.5770
 7687SOL    HW234695   2.511   1.791   2.526  0.5992 -0.7097  0.0554
 7688SOL     OW34696   3.457   0.300   4.228  0.0638 -0.5190 -0.1704
 7688SOL    HW134697   3.397   0.318   4.300 -0.5494 -1.8195 -0.3622
 7688SOL    HW234698   3.501   0.221   4.259 -1.6004 -1.6406 -0.6555
 7689SOL     OW34699   0.071   3.919   9.721  0.2214  0.0272 -0.0482
 7689SOL    HW134700   0.091   3.926   9.814  1.6063  0.4124 -0.3690
 7689SOL    HW234701   4.728   3.863   9.726 -0.5599  0.9985 -1.3613
 7690SOL     OW34702   0.781   3.907  16.876  0.5840 -0.3043  0.7243
 7690SOL    HW134703   0.741   3.984  16.837  2.2829 -1.0934 -2.5318
 7690SOL    HW234704   0.718   3.846  16.838 -0.3101  0.4735  0.9635
 7691SOL     OW34705   2.080   3.675   5.799 -0.1027 -1.0501  0.4607
 7691SOL    HW134706   2.146   3.720   5.851  0.3865 -0.5061 -0.6098
 7691SOL    HW234707   2.054   3.754   5.752 -2.4136 -2.5134 -0.7137
 7692SOL     OW34708   0.950   1.050   5.903 -0.8568 -0.0148  0.5414
 7692SOL    HW134709   1.016   1.082   5.964 -0.3096 -0.6883  0.2921
 7692SOL    HW234710   0.876   1.109   5.913 -1.1177 -0.3918  0.8756
 7693SOL     OW34711   0.720   0.529   5.455  0.0939  0.5136 -0.0576
 7693SOL    HW134712   0.632   0.510   5.487  0.4199  2.3028  1.9450
 7693SOL    HW234713   0.726   0.617   5.493 -1.3842  0.5932 -0.0040
 7694SOL     OW34714   1.196   4.016  14.585  0.0008  0.2935 -0.3423
 7694SOL    HW134715   1.264   3.956  14.556  0.3692  0.9488 -0.8400
 7694SOL    HW234716   1.147   4.024  14.503 -0.6070  0.4146  0.0329
 7695SOL     OW34717   2.262   3.699  16.723 -0.2215  0.1804  0.1766
 7695SOL    HW134718   2.278   3.657  16.638  3.0495  1.2185  0.2808
 7695SOL    HW234719   2.263   3.626  16.785 -0.2523 -1.8091 -2.1550
 7696SOL     OW34720   4.598   0.675   3.595 -0.2810 -0.5374  0.1867
 7696SOL    HW134721   4.524   0.622   3.624  0.7516 -0.8737  2.2382
 7696SOL    HW234722   4.673   0.620   3.621  0.8051 -0.2803 -2.4114
 7697SOL     OW34723   1.327   3.407   8.100  0.4505 -0.3596  0.2582
 7697SOL    HW134724   1.383   3.381   8.173 -1.3159 -0.3508  1.6351
 7697SOL    HW234725   1.268   3.332   8.108 -0.8934  0.8123  1.3793
 7698SOL     OW34726   0.067   3.603  12.917 -0.1880  0.1773 -0.0442
 7698SOL    HW134727   0.033   3.524  12.875 -1.0668 -0.0484  1.0977
 7698SOL    HW234728   0.039   3.600  13.009  0.3099 -0.8668  0.0687
 7699SOL     OW34729   3.470   1.931   0.064 -0.1511  1.0632 -0.3776
 7699SOL    HW134730   3.554   1.885   0.054  0.0783  0.6578  3.3338
 7699SOL    HW234731   3.460   1.923   0.159  2.6308 -0.5853 -0.2131
 7700SOL     OW34732   0.556   0.355   5.931 -0.3419 -0.4515  0.5494
 7700SOL    HW134733   0.575   0.357   6.025 -2.4807  1.8376  0.9274
 7700SOL    HW234734   0.602   0.273   5.912 -0.4225  0.2958 -2.6842
 7701SOL     OW34735   0.310   0.752   8.761  0.0579  0.0734 -0.4561
 7701SOL    HW134736   0.223   0.782   8.788  0.4279  0.5907  0.1444
 7701SOL    HW234737   0.347   0.840   8.758 -2.4572  1.1168 -1.3547
 7702SOL     OW34738   3.589   1.445   0.335 -0.4571 -0.3015 -0.0276
 7702SOL    HW134739   3.517   1.507   0.344 -0.5243 -0.0822 -2.0197
 7702SOL    HW234740   3.543   1.363   0.316 -2.3166  0.8202 -0.3844
 7703SOL     OW34741   0.450   2.754   4.982 -0.5345  0.3418  0.3212
 7703SOL    HW134742   0.481   2.752   5.073 -0.6541 -2.5837  0.2774
 7703SOL    HW234743   0.359   2.765   5.010 -0.7427  0.7967 -0.5210
 7704SOL     OW34744   2.767   1.466  17.698 -0.4166 -0.3236  0.2796
 7704SOL    HW134745   2.672   1.476  17.708 -0.0982  4.5437 -1.4243
 7704SOL    HW234746   2.764   1.371  17.705 -0.7922 -0.3835 -0.6608
 7705SOL     OW34747   4.242   1.500   9.734  0.3197  0.1113 -0.2205
 7705SOL    HW134748   4.284   1.584   9.717 -1.6867  1.3864  1.0601
 7705SOL    HW234749   4.185   1.526   9.807 -0.1976 -0.8204 -0.2937
 7706SOL     OW34750   2.793   3.297   9.690  0.6665  0.0600  0.3726
 7706SOL    HW134751   2.801   3.203   9.707 -0.7327 -0.6224 -2.8252
 7706SOL    HW234752   2.855   3.328   9.757  1.6627 -0.6949 -0.1917
 7707SOL     OW34753   2.122   2.600  17.276 -0.0210  0.1150 -0.0259
 7707SOL    HW134754   2.030   2.628  17.281 -0.3822 -1.1655  0.4561
 7707SOL    HW234755   2.121   2.511  17.312  1.1334 -0.2557 -0.9455
 7708SOL     OW34756   4.242   3.095   3.563 -0.8297 -0.2920  0.7783
 7708SOL    HW134757   4.279   3.167   3.614  1.4006 -0.7535 -0.1937
 7708SOL    HW234758   4.187   3.139   3.499 -2.8708 -3.5820  0.2421
 7709SOL     OW34759   1.719   3.829   5.618 -0.3623  0.0320  0.5252
 7709SOL    HW134760   1.751   3.757   5.672  0.8174  0.3463  0.2337
 7709SOL    HW234761   1.643   3.874   5.656 -0.0134  1.9673 -1.0567
 7710SOL     OW34762   2.328   1.805  13.908  0.4907  0.1659  0.0431
 7710SOL    HW134763   2.418   1.774  13.907  0.7273  0.8537  0.3446
 7710SOL    HW234764   2.339   1.892  13.945  2.5261 -0.3582  0.6828
 7711SOL     OW34765   1.673   2.341  16.517 -0.1753 -0.6599  0.6588
 7711SOL    HW134766   1.761   2.373  16.498  0.2745 -0.6689  2.7052
 7711SOL    HW234767   1.704   2.257  16.552  4.3717  0.1514 -1.4378
 7712SOL     OW34768   3.987   0.360  16.811  0.1609  0.2969 -0.7490
 7712SOL    HW134769   3.933   0.305  16.753 -1.1901  0.3773  0.4247
 7712SOL    HW234770   3.943   0.443  16.791 -1.9131 -0.5156  0.4035
 7713SOL     OW34771   0.169   3.220   5.542 -0.4156 -0.1479 -0.3753
 7713SOL    HW134772   0.189   3.314   5.541 -1.3908  0.0811  1.9596
 7713SOL    HW234773   0.260   3.190   5.539 -1.9359 -4.8666  1.7927
 7714SOL     OW34774   3.749   0.375  13.512  0.0487 -0.5901 -0.2354
 7714SOL    HW134775   3.733   0.322  13.434 -0.4843 -1.7538  0.6795
 7714SOL    HW234776   3.845   0.377  13.507 -0.0190 -0.7495 -1.6401
 7715SOL     OW34777   1.401   1.160   2.874  0.0558  0.0113 -0.4906
 7715SOL    HW134778   1.354   1.241   2.892  1.2756  0.1746  1.9361
 7715SOL    HW234779   1.443   1.139   2.957 -2.1538 -0.7633  0.4385
 7716SOL     OW34780   0.136   1.623  11.864 -0.0777  0.2175  0.0601
 7716SOL    HW134781   0.129   1.530  11.884 -2.6752 -0.3774 -3.6776
 7716SOL    HW234782   0.208   1.621  11.801 -0.0295 -1.0722  0.1571
 7717SOL     OW34783   2.068   0.113   5.523 -0.0356  0.0135  0.5032
 7717SOL    HW134784   2.093   0.199   5.556  0.0732 -0.1337  0.8042
 7717SOL    HW234785   2.119   0.109   5.442  2.0164 -2.0436  1.8906
 7718SOL     OW34786   1.991   2.321   6.834  0.0122  0.3781 -0.8838
 7718SOL    HW134787   1.924   2.376   6.793 -1.7009 -0.3404  0.9994
 7718SOL    HW234788   1.937   2.264   6.888 -0.1417  2.4495  1.1219
 7719SOL     OW34789   3.281   1.342   6.609  0.5221 -0.0277 -0.2218
 7719SOL    HW134790   3.331   1.311   6.684  0.2594 -1.3702 -0.6078
 7719SOL    HW234791   3.204   1.309   6.654  1.1264  0.1277  0.9256
 7720SOL     OW34792   3.564   3.451   7.528 -0.3455 -0.2708 -0.5091
 7720SOL    HW134793   3.496   3.395   7.490 -2.0112 -0.8093  3.2350
 7720SOL    HW234794   3.556   3.524   7.467 -1.1787  0.6170  0.6561
 7721SOL     OW34795   3.443   0.654   1.277 -0.0547  0.0796  0.4835
 7721SOL    HW134796   3.364   0.646   1.222 -0.7145 -2.4316  1.7865
 7721SOL    HW234797   3.455   0.562   1.302  2.4801  0.8207  1.9755
 7722SOL     OW34798   3.948   1.523   8.706 -0.0691 -0.9315  0.1795
 7722SOL    HW134799   3.906   1.547   8.789 -1.8208 -1.0071 -0.6914
 7722SOL    HW234800   4.038   1.514   8.736 -0.1289 -2.0176  0.0439
 7723SOL     OW34801   0.044   4.653   9.640 -0.5843 -0.2176 -0.4864
 7723SOL    HW134802   0.136   4.627   9.646 -0.4920  0.4436  0.9087
 7723SOL    HW234803   0.006   4.572   9.607  0.2673  0.0437 -2.1114
 7724SOL     OW34804   1.035   3.213   5.414 -0.0952  0.3696  0.4680
 7724SOL    HW134805   1.110   3.235   5.359  0.2998 -1.2521  0.3697
 7724SOL    HW234806   1.028   3.288   5.472  2.2722  2.3139 -1.7784
 7725SOL     OW34807   3.623   1.608   1.694 -0.7405 -0.5351 -0.2600
 7725SOL    HW134808   3.666   1.658   1.763 -0.0874  0.0504 -1.0935
 7725SOL    HW234809   3.533   1.596   1.725 -1.3242  0.6122 -1.5086
 7726SOL     OW34810   3.265   1.407   4.507 -0.4400 -0.0175 -0.3125
 7726SOL    HW134811   3.352   1.410   4.546  0.6842 -1.5697 -2.6347
 7726SOL    HW234812   3.246   1.313   4.500  0.2568 -0.3662  2.8190
 7727SOL     OW34813   3.402   0.731   0.158  0.3549 -0.3650 -0.7989
 7727SOL    HW134814   3.353   0.716   0.077 -0.8298 -2.5518  0.3274
 7727SOL    HW234815   3.475   0.784   0.125 -0.5029  1.1864 -0.1964
 7728SOL     OW34816   1.149   2.565   9.557 -0.4709 -0.2997 -0.0472
 7728SOL    HW134817   1.074   2.621   9.540  0.7675  1.1437 -0.7846
 7728SOL    HW234818   1.186   2.604   9.637 -1.9383  0.3159  0.3322
 7729SOL     OW34819   2.968   1.129   9.887  0.7889  0.2577  0.0419
 7729SOL    HW134820   2.918   1.064   9.937  0.4299 -0.1737 -0.8804
 7729SOL    HW234821   2.985   1.200   9.949 -0.1503 -0.6121  1.2992
 7730SOL     OW34822   3.114   3.268   3.749  0.0186  0.2932 -0.4475
 7730SOL    HW134823   3.106   3.197   3.813  0.9938  0.4576 -0.1409
 7730SOL    HW234824   3.019   3.281   3.744  0.0433  0.7218  0.1428
 7731SOL     OW34825   3.042   1.635   8.789  0.1625  0.2072  0.0852
 7731SOL    HW134826   3.093   1.710   8.820 -0.6698  0.6115  0.4760
 7731SOL    HW234827   2.985   1.681   8.727 -0.6524 -0.9253  0.0030
 7732SOL     OW34828   1.740   1.111   9.367  0.4233 -0.2269  0.1272
 7732SOL    HW134829   1.646   1.118   9.383  0.0911 -0.0158 -1.8760
 7732SOL    HW234830   1.743   1.179   9.300 -0.6555  0.5379  0.8617
 7733SOL     OW34831   2.092   3.164   1.199  0.0411  0.5802  0.1728
 7733SOL    HW134832   2.177   3.128   1.223  0.3316  1.6118  0.6879
 7733SOL    HW234833   2.113   3.238   1.142  1.5539 -0.7088 -0.9344
 7734SOL     OW34834   1.117   0.455  12.406  0.4138  0.6427  0.0405
 7734SOL    HW134835   1.139   0.362  12.417  0.3329  0.8814  2.2704
 7734SOL    HW234836   1.199   0.494  12.376  0.4310 -1.3186 -2.5141
 7735SOL     OW34837   3.152   0.900   5.022 -1.5310 -0.4135 -0.2467
 7735SOL    HW134838   3.130   0.808   5.031  1.2899 -1.1840 -1.0833
 7735SOL    HW234839   3.078   0.929   4.969 -0.1730  2.9617 -0.3378
 7736SOL     OW34840   2.640   0.254   7.749 -0.1254 -0.5127  0.5534
 7736SOL    HW134841   2.665   0.185   7.811  0.2873  0.8953  1.9517
 7736SOL    HW234842   2.544   0.251   7.754 -0.2908  1.4118 -1.7742
 7737SOL     OW34843   2.982   0.042   1.904  0.8362 -0.2069 -0.4122
 7737SOL    HW134844   3.059   4.720   1.907 -0.7378 -2.4136 -1.3121
 7737SOL    HW234845   2.964   0.054   1.997  0.8176 -0.3313 -0.3998
 7738SOL     OW34846   3.431   0.394   3.960 -0.1020 -0.7186  0.6849
 7738SOL    HW134847   3.456   0.353   4.042  1.5515 -0.5195  0.2854
 7738SOL    HW234848   3.480   0.345   3.894  1.2745  0.9003  0.4954
 7739SOL     OW34849   4.598   1.768   5.205  0.2369 -0.4407 -0.4830
 7739SOL    HW134850   4.634   1.693   5.253 -0.9763  0.5349  1.9364
 7739SOL    HW234851   4.634   1.748   5.118  2.3246 -1.8538  0.7055
 7740SOL     OW34852   0.995   0.564   8.237 -0.0393 -0.4034  0.0658
 7740SOL    HW134853   1.044   0.507   8.296 -0.0610 -0.7062 -0.2113
 7740SOL    HW234854   1.068   0.599   8.186  1.7669  0.5072  3.2711
 7741SOL     OW34855   3.757   2.010   2.489 -0.5417  0.2256 -0.0749
 7741SOL    HW134856   3.677   1.960   2.508  0.3367 -2.4704 -3.3573
 7741SOL    HW234857   3.728   2.046   2.405 -0.5204 -1.4886 -0.8095
 7742SOL     OW34858   1.531   2.349  11.298 -0.2778 -0.0466 -0.0120
 7742SOL    HW134859   1.448   2.350  11.347 -1.2445 -0.7260 -1.6259
 7742SOL    HW234860   1.597   2.355  11.366  0.9725 -1.5481 -1.0825
 7743SOL     OW34861   2.351   4.632   1.060 -0.2255  0.3923  0.1714
 7743SOL    HW134862   2.339   4.703   1.124 -1.8225 -1.3600  1.8032
 7743SOL    HW234863   2.441   4.653   1.033 -0.0096  1.0596  1.3447
 7744SOL     OW34864   0.683   4.287   6.053  0.2071 -0.0973  0.2655
 7744SOL    HW134865   0.747   4.306   6.122 -0.5407 -0.0357  0.9416
 7744SOL    HW234866   0.600   4.280   6.101  0.2478  2.3113  0.7280
 7745SOL     OW34867   0.039   0.122   3.074  0.2148 -0.1420  0.0350
 7745SOL    HW134868   0.004   0.196   3.025 -0.0788 -0.5090 -0.3125
 7745SOL    HW234869   0.081   0.076   3.001  0.7851  1.4375 -0.6432
 7746SOL     OW34870   1.239   1.182  12.319  0.2933  0.4733  0.3633
 7746SOL    HW134871   1.227   1.088  12.306  1.0229  0.3623  0.4483
 7746SOL    HW234872   1.253   1.219  12.232  0.0242  1.2953  0.6656
 7747SOL     OW34873   3.341   2.539  10.441  0.2328 -0.5996  0.2915
 7747SOL    HW134874   3.344   2.465  10.502 -1.1457 -1.0461 -0.1755
 7747SOL    HW234875   3.369   2.613  10.496  1.4141 -2.2820  1.9349
 7748SOL     OW34876   0.816   2.688  17.529  0.2099  0.3814 -0.3455
 7748SOL    HW134877   0.900   2.674  17.485  1.9380  2.7359  2.1944
 7748SOL    HW234878   0.809   2.596  17.555  1.1819  0.6291  0.7897
 7749SOL     OW34879   2.313   2.797   1.120  0.2457 -0.2200 -0.0024
 7749SOL    HW134880   2.397   2.753   1.129  0.2354 -0.9529 -3.5588
 7749SOL    HW234881   2.327   2.880   1.165  0.8031  0.4569 -1.4350
 7750SOL     OW34882   3.781   2.671   5.850  0.0509  0.2482  0.1070
 7750SOL    HW134883   3.723   2.605   5.811 -1.7699  0.7200  2.0215
 7750SOL    HW234884   3.735   2.688   5.932 -0.2394  2.7260 -0.5801
 7751SOL     OW34885   2.161   1.144   6.214  0.3548  0.2841 -0.3875
 7751SOL    HW134886   2.209   1.223   6.187  1.2217 -1.1604 -3.1332
 7751SOL    HW234887   2.072   1.172   6.194  1.1852 -0.4133 -5.1869
 7752SOL     OW34888   1.037   1.252   2.128  0.2181 -0.1045  0.2142
 7752SOL    HW134889   1.022   1.245   2.222 -1.4739 -1.0160 -0.1226
 7752SOL    HW234890   0.947   1.269   2.101  0.7516  1.6186 -0.5262
 7753SOL     OW34891   2.668   4.682  16.486  0.2836  0.2190 -0.1485
 7753SOL    HW134892   2.749   4.729  16.504 -0.7899  1.4661  1.3153
 7753SOL    HW234893   2.659   4.688  16.391 -0.6540  0.0054 -0.0761
 7754SOL     OW34894   3.572   0.294  13.746 -0.0659  0.2469  0.5440
 7754SOL    HW134895   3.634   0.311  13.675  1.3163  2.4275  2.2657
 7754SOL    HW234896   3.626   0.343  13.808  1.9561 -0.1897 -0.8639
 7755SOL     OW34897   0.858   4.487   3.690  0.2352  0.5509  0.3679
 7755SOL    HW134898   0.893   4.559   3.744 -1.2457  3.5067 -2.6075
 7755SOL    HW234899   0.823   4.431   3.759 -0.0726 -0.2919 -0.4741
 7756SOL     OW34900   1.418   3.218   9.270  0.1969 -0.0525 -0.3097
 7756SOL    HW134901   1.366   3.138   9.281 -2.4538  1.5255 -1.3981
 7756SOL    HW234902   1.427   3.241   9.362 -1.4332  0.7995 -0.3615
 7757SOL     OW34903   1.434   4.045   8.572  0.6283 -0.4928  0.5598
 7757SOL    HW134904   1.463   4.041   8.481  1.7253 -0.5481  0.9035
 7757SOL    HW234905   1.496   3.993   8.623  0.2911 -0.4514  1.0111
 7758SOL     OW34906   0.870   1.592   4.135 -0.0856 -0.9146  0.2933
 7758SOL    HW134907   0.864   1.498   4.155  1.3267 -1.1154 -0.2336
 7758SOL    HW234908   0.779   1.623   4.130  0.2847 -0.0038 -0.7551
 7759SOL     OW34909   3.596   1.261   9.103  0.1018 -0.3988  0.0565
 7759SOL    HW134910   3.524   1.225   9.154 -1.7067  0.5198 -1.8777
 7759SOL    HW234911   3.657   1.298   9.167 -0.9951  2.9462 -0.8475
 7760SOL     OW34912   0.877   0.496   7.410  0.0371 -0.0764 -0.9423
 7760SOL    HW134913   0.878   0.521   7.503  0.7044  0.7267 -1.1669
 7760SOL    HW234914   0.926   0.414   7.418  1.8413  0.9516 -1.4518
 7761SOL     OW34915   1.307   2.325   6.110  0.0889  0.4231  0.3317
 7761SOL    HW134916   1.274   2.240   6.139  2.4632  0.0529  1.9926
 7761SOL    HW234917   1.290   2.309   6.018 -1.6627  0.8927  0.5844
 7762SOL     OW34918   4.035   2.110   2.816 -0.5179  0.0667  0.5195
 7762SOL    HW134919   4.050   2.175   2.884  1.3555 -1.1955  1.2911
 7762SOL    HW234920   4.125   2.079   2.811  0.1148  1.6435  2.1363
 7763SOL     OW34921   4.540   1.550   9.076  0.5495 -0.0020 -0.2621
 7763SOL    HW134922   4.496   1.554   9.161  0.8272 -0.1511 -0.1098
 7763SOL    HW234923   4.491   1.476   9.039 -0.3102 -0.0309  0.9268
 7764SOL     OW34924   3.104   4.708   4.797  0.5854  0.3237 -0.6088
 7764SOL    HW134925   3.053   4.645   4.848 -1.8822  2.0705 -0.9135
 7764SOL    HW234926   3.181   4.716   4.852 -0.8734 -1.2808  1.6601
 7765SOL     OW34927   4.716   1.597   8.011  0.0840 -0.1629  0.5309
 7765SOL    HW134928   4.694   1.668   7.951 -1.0503  0.2607  1.4451
 7765SOL    HW234929   4.657   1.530   7.978 -0.2756  0.2404  0.3615
 7766SOL     OW34930   4.512   0.250  16.980  0.3952  0.0969 -0.1583
 7766SOL    HW134931   4.574   0.213  17.043  1.1752 -0.6175 -1.3535
 7766SOL    HW234932   4.507   0.173  16.923  1.3732 -1.6366  2.0913
 7767SOL     OW34933   1.207   1.999   5.638  0.4663 -0.0421  0.1560
 7767SOL    HW134934   1.297   2.011   5.609  0.8304 -0.3296  1.1565
 7767SOL    HW234935   1.159   2.065   5.587 -0.5849 -1.6048 -0.8740
 7768SOL     OW34936   1.314   4.420   7.776  0.4058 -0.2007  0.1371
 7768SOL    HW134937   1.289   4.333   7.745 -2.0783  0.3894  0.5307
 7768SOL    HW234938   1.399   4.394   7.811  1.3878 -0.8321 -2.6530
 7769SOL     OW34939   3.672   4.235   4.472 -0.0493  0.1595  0.0541
 7769SOL    HW134940   3.640   4.145   4.464  1.9901 -0.7728  2.2156
 7769SOL    HW234941   3.741   4.228   4.538 -1.1362 -1.8668  0.9679
 7770SOL     OW34942   2.428   4.691  16.979 -0.1795 -0.1982 -0.5099
 7770SOL    HW134943   2.483   4.646  16.915  0.4584 -2.3853  1.5905
 7770SOL    HW234944   2.449   4.633  17.052 -0.2359 -1.3259 -1.3984
 7771SOL     OW34945   0.489   1.634  16.405 -0.0910 -0.2862  0.8454
 7771SOL    HW134946   0.434   1.706  16.376  0.9771 -0.2560 -1.1584
 7771SOL    HW234947   0.577   1.671  16.398  1.1354 -3.5290 -1.0473
 7772SOL     OW34948   3.535   4.003   5.040  0.2582 -0.4679 -0.9056
 7772SOL    HW134949   3.621   3.977   5.007  2.4584  1.6523  3.1759
 7772SOL    HW234950   3.532   4.084   4.988  0.7473  0.1965  0.1013
 7773SOL     OW34951   1.342   2.953  10.186 -0.2936 -0.7596  0.5325
 7773SOL    HW134952   1.325   2.911  10.270  1.7441 -0.3341  1.1611
 7773SOL    HW234953   1.263   2.933  10.136  0.5734  0.8600 -1.4725
 7774SOL     OW34954   2.385   1.303   9.805  0.4607 -0.2117  0.4896
 7774SOL    HW134955   2.318   1.342   9.750 -1.0864  1.1302  3.3410
 7774SOL    HW234956   2.345   1.217   9.819 -1.0337  0.2586 -0.9720
 7775SOL     OW34957   4.730   1.264   2.730 -0.2528  0.5689  0.2479
 7775SOL    HW134958   4.664   1.198   2.709 -0.1147 -0.0690  1.8853
 7775SOL    HW234959   4.689   1.340   2.688 -0.9393  0.2735  0.3848
 7776SOL     OW34960   3.091   4.298   0.100  0.1900  0.5107 -0.0335
 7776SOL    HW134961   3.121   4.361   0.166  3.7177 -0.3788 -0.8034
 7776SOL    HW234962   3.120   4.324   0.013  0.2753 -0.6964 -0.3696
 7777SOL     OW34963   4.426   1.978   8.343  0.2564  0.0771  0.3582
 7777SOL    HW134964   4.368   1.903   8.356  0.8794 -0.8308 -1.9747
 7777SOL    HW234965   4.488   1.948   8.276 -0.4506 -0.0541 -0.2447
 7778SOL     OW34966   1.696   3.067   1.120 -0.2325 -0.0912  0.2648
 7778SOL    HW134967   1.671   3.159   1.111 -0.4105 -0.2010 -0.4052
 7778SOL    HW234968   1.606   3.033   1.124 -0.6163  0.9229  0.1218
 7779SOL     OW34969   4.062   3.022   2.914  0.4742  0.6266  0.1436
 7779SOL    HW134970   4.116   3.004   2.991 -0.7314 -0.3350  0.7669
 7779SOL    HW234971   4.100   3.104   2.884  1.7010  0.3013  0.8324
 7780SOL     OW34972   4.685   3.639  10.540  0.1856  0.1612  0.5667
 7780SOL    HW134973   4.719   3.556  10.508  1.0763  0.3930  0.9318
 7780SOL    HW234974   4.733   3.643  10.622  1.3952 -0.2143 -0.1280
 7781SOL     OW34975   3.253   4.337   6.431  0.2545 -0.5331  0.1535
 7781SOL    HW134976   3.315   4.406   6.453 -0.5246  0.3885 -0.5796
 7781SOL    HW234977   3.274   4.267   6.493 -0.9659 -1.5269 -0.5599
 7782SOL     OW34978   1.755   3.180   8.009  0.0237  0.3268  0.4853
 7782SOL    HW134979   1.752   3.187   8.105 -2.4417  1.3030  0.3461
 7782SOL    HW234980   1.698   3.255   7.990  0.5166  1.3307  2.9990
 7783SOL     OW34981   1.984   2.175   8.722  0.2520  0.3361 -0.0827
 7783SOL    HW134982   2.026   2.135   8.646 -0.1803  0.9077 -0.6340
 7783SOL    HW234983   2.055   2.190   8.784  0.3197 -0.7003  0.0883
 7784SOL     OW34984   0.215   3.901   5.868 -0.0221  0.0184  0.0565
 7784SOL    HW134985   0.126   3.875   5.845  0.0841  0.2603 -0.6391
 7784SOL    HW234986   0.186   3.966   5.932 -1.4507  0.1180 -0.6910
 7785SOL     OW34987   1.694   3.847   6.513  0.2953  0.2147 -0.0973
 7785SOL    HW134988   1.751   3.917   6.482 -1.1926  0.2578 -2.7302
 7785SOL    HW234989   1.718   3.783   6.447 -0.5718  0.5109 -0.7067
 7786SOL     OW34990   3.802   2.109   5.676 -0.2188  0.1336 -0.5621
 7786SOL    HW134991   3.802   2.014   5.663 -0.1826 -0.0004  0.4939
 7786SOL    HW234992   3.866   2.118   5.746  1.4249  0.8087 -2.1442
 7787SOL     OW34993   3.595   4.504  11.195 -0.2921 -0.6446 -0.0104
 7787SOL    HW134994   3.665   4.541  11.249  0.0797 -0.4638 -0.6141
 7787SOL    HW234995   3.581   4.431  11.255 -1.4467  0.2714  0.8212
 7788SOL     OW34996   1.240   1.781   8.647 -0.5910 -0.2081  0.0291
 7788SOL    HW134997   1.322   1.808   8.689  1.0202 -1.8926 -2.0169
 7788SOL    HW234998   1.242   1.685   8.648  0.6951 -0.1961 -0.6281
 7789SOL     OW34999   3.409   1.955  13.040  0.3365  0.3143  0.1200
 7789SOL    HW135000   3.394   2.048  13.053 -1.2852  0.1271 -0.3832
 7789SOL    HW235001   3.340   1.933  12.977 -0.5328  3.4748 -0.0112
 7790SOL     OW35002   4.432   0.700  13.737 -0.6339  0.3043 -0.4979
 7790SOL    HW135003   4.469   0.736  13.657 -3.0005 -1.0010 -2.1811
 7790SOL    HW235004   4.347   0.660  13.716  0.0211 -2.0194  1.2042
 7791SOL     OW35005   2.542   2.796   6.071  0.0551 -0.3027 -0.2713
 7791SOL    HW135006   2.456   2.835   6.057  0.1113 -0.1585 -0.2162
 7791SOL    HW235007   2.563   2.808   6.164 -0.3557 -1.8269  0.0300
 7792SOL     OW35008   2.154   0.060  16.632 -1.2594 -0.4264 -0.1591
 7792SOL    HW135009   2.208   4.718  16.646 -2.0191 -0.8630  0.4073
 7792SOL    HW235010   2.158   0.073  16.537 -0.5190 -1.3748 -0.2503
 7793SOL     OW35011   2.091   0.839   3.177 -0.3005 -0.1832 -0.2365
 7793SOL    HW135012   2.011   0.875   3.215 -0.2791 -0.0834 -0.2847
 7793SOL    HW235013   2.066   0.834   3.085  1.8845  2.9357 -0.9954
 7794SOL     OW35014   3.422   4.578  10.072 -0.0833 -0.1488 -0.4541
 7794SOL    HW135015   3.431   4.673  10.082  1.8229 -0.2925 -0.6939
 7794SOL    HW235016   3.463   4.559   9.988 -1.2514 -0.6444 -0.9089
 7795SOL     OW35017   3.028   1.591  12.190  0.0346  0.6838  0.0512
 7795SOL    HW135018   2.997   1.681  12.183  0.6676  0.7904 -1.4307
 7795SOL    HW235019   3.118   1.619  12.209  1.4763 -1.8397 -2.9733
 7796SOL     OW35020   1.370   2.901   5.628  0.2363 -0.0880  0.7315
 7796SOL    HW135021   1.337   2.908   5.539  2.3776 -3.2745 -0.3455
 7796SOL    HW235022   1.302   2.941   5.681  0.4628  0.0942  0.8813
 7797SOL     OW35023   3.025   1.162   9.035  0.0121  0.7271 -0.2308
 7797SOL    HW135024   3.026   1.084   9.090  1.3126 -0.8216 -2.4215
 7797SOL    HW235025   3.112   1.203   9.030  1.0520 -1.1049  2.4064
 7798SOL     OW35026   4.479   0.313   6.592 -0.0359  0.4689  0.9708
 7798SOL    HW135027   4.391   0.348   6.586 -0.1904  0.1783  1.5150
 7798SOL    HW235028   4.468   0.226   6.630  3.0843 -1.6760 -2.9870
 7799SOL     OW35029   0.148   0.341   8.784 -0.1730 -0.2884 -0.2859
 7799SOL    HW135030   0.118   0.253   8.804  0.3475 -0.2535  0.6483
 7799SOL    HW235031   0.062   0.382   8.777 -0.3459 -0.6362 -0.1739
 7800SOL     OW35032   3.863   1.394  12.076 -0.1070 -0.0074  0.3443
 7800SOL    HW135033   3.940   1.449  12.088 -0.5940  0.9594 -0.8903
 7800SOL    HW235034   3.800   1.444  12.024  0.8655  1.7631  0.8402
 7801SOL     OW35035   3.642   0.692   9.386 -0.3269 -0.4026  0.0865
 7801SOL    HW135036   3.625   0.786   9.393 -1.1685 -0.3920 -2.0438
 7801SOL    HW235037   3.652   0.692   9.290  0.1644  2.1904  0.1558
 7802SOL     OW35038   0.556   1.092   4.885 -0.0886 -0.9245 -0.3421
 7802SOL    HW135039   0.624   1.110   4.820 -0.2014  2.8126  0.6043
 7802SOL    HW235040   0.584   1.014   4.934  2.1602  0.2201  0.2050
 7803SOL     OW35041   3.789   1.088  17.659  0.6167  0.0177 -0.0164
 7803SOL    HW135042   3.810   1.136  17.579 -0.8933  2.0644  0.8372
 7803SOL    HW235043   3.784   1.171  17.706 -1.4748 -0.5706  0.7965
 7804SOL     OW35044   3.380   3.510  16.070  1.2537  0.1992  0.1352
 7804SOL    HW135045   3.399   3.602  16.054  2.1040  0.2217  1.3067
 7804SOL    HW235046   3.457   3.463  16.039  1.0000  0.1065 -0.3522
 7805SOL     OW35047   1.156   2.177   5.120  0.3700 -0.5143  0.7706
 7805SOL    HW135048   1.118   2.261   5.147 -0.1393 -0.1693 -1.0643
 7805SOL    HW235049   1.083   2.115   5.122  0.0166 -0.1049  0.6347
 7806SOL     OW35050   1.788   4.717   3.918  0.2234 -0.6690  0.0630
 7806SOL    HW135051   1.733   4.642   3.897 -1.1216  0.5434 -0.7651
 7806SOL    HW235052   1.725   0.049   3.947  0.7217 -1.3679  2.7291
 7807SOL     OW35053   1.293   0.108   0.172  0.4643  0.2385 -0.5237
 7807SOL    HW135054   1.256   0.142   0.253 -1.7586  0.3645 -1.5922
 7807SOL    HW235055   1.352   0.180   0.150  0.6905  0.5600  1.1453
 7808SOL     OW35056   0.513   3.033   4.948  0.7130  0.9008 -1.0052
 7808SOL    HW135057   0.528   2.942   4.921 -3.1167 -0.4784  1.5729
 7808SOL    HW235058   0.419   3.038   4.963  0.5847 -0.9609 -1.1736
 7809SOL     OW35059   4.374   2.117   2.652 -0.7159  0.6945  0.3905
 7809SOL    HW135060   4.435   2.190   2.661  0.5219 -0.4949  1.7550
 7809SOL    HW235061   4.353   2.102   2.745 -0.5550 -3.5487 -0.2412
 7810SOL     OW35062   3.199   3.136   3.481 -0.1734  0.1855  0.0685
 7810SOL    HW135063   3.188   3.189   3.561 -2.1241  1.0107 -0.7308
 7810SOL    HW235064   3.252   3.064   3.515 -1.9429 -1.6417 -1.0393
 7811SOL     OW35065   4.511   1.727   6.473 -0.1825 -0.3738 -0.2314
 7811SOL    HW135066   4.547   1.733   6.561  0.3572 -0.1830 -0.4626
 7811SOL    HW235067   4.504   1.632   6.468  0.0579 -0.3189 -1.6924
 7812SOL     OW35068   1.948   2.922   7.510  0.3110 -1.0994 -0.4904
 7812SOL    HW135069   1.898   2.866   7.570 -1.1226 -0.6990 -1.3131
 7812SOL    HW235070   1.947   2.869   7.431  1.7083 -1.3749 -0.3216
 7813SOL     OW35071   3.787   0.290   1.398  0.0608  0.6517 -0.7198
 7813SOL    HW135072   3.728   0.271   1.325 -0.8401  1.0050 -0.0824
 7813SOL    HW235073   3.847   0.355   1.362 -1.1955  1.9039 -0.5657
 7814SOL     OW35074   2.729   3.399   8.617 -0.7274 -0.1314  0.0660
 7814SOL    HW135075   2.732   3.312   8.657  1.4529  0.1610  0.5122
 7814SOL    HW235076   2.690   3.389   8.530  0.3970 -0.0333 -0.4511
 7815SOL     OW35077   2.787   0.974   9.146  0.1077  0.4805 -0.0782
 7815SOL    HW135078   2.880   0.961   9.162  0.3860  0.2262 -1.8726
 7815SOL    HW235079   2.765   1.035   9.217  2.7068 -0.0135  1.1507
 7816SOL     OW35080   1.492   0.338   8.945 -0.2474  0.7642 -0.1498
 7816SOL    HW135081   1.427   0.364   9.010 -1.5200  1.2521 -1.6201
 7816SOL    HW235082   1.507   0.247   8.971  0.3305  0.4315 -1.6411
 7817SOL     OW35083   0.674   2.809   4.684  0.0617 -0.0184 -0.1196
 7817SOL    HW135084   0.653   2.721   4.713 -4.8740  1.5970  1.0646
 7817SOL    HW235085   0.592   2.856   4.699  1.5827  2.2899  0.9825
 7818SOL     OW35086   0.543   3.566  15.779  0.5276 -0.4354  0.2842
 7818SOL    HW135087   0.528   3.579  15.685 -1.7352  0.1475  0.7244
 7818SOL    HW235088   0.466   3.523  15.815  1.3508 -0.6741  1.7248
 7819SOL     OW35089   3.610   3.223   4.276 -0.2662  0.2413 -0.2052
 7819SOL    HW135090   3.529   3.266   4.251 -0.9137 -0.6697  0.3103
 7819SOL    HW235091   3.641   3.283   4.344  1.1866  0.2715 -0.9068
 7820SOL     OW35092   3.988   0.710   1.667 -0.7595 -0.2007  0.0725
 7820SOL    HW135093   4.066   0.756   1.637 -0.5943 -0.5656 -0.0624
 7820SOL    HW235094   4.013   0.650   1.737  1.5529 -1.2723 -1.6783
 7821SOL     OW35095   0.012   3.097   7.762  0.6556 -0.3848 -0.4520
 7821SOL    HW135096   4.670   3.045   7.737  0.2173  1.3128 -2.5809
 7821SOL    HW235097   0.085   3.041   7.789  0.4595 -0.8319 -0.8615
 7822SOL     OW35098   4.435   1.015   1.556  0.0500  0.4444 -0.1397
 7822SOL    HW135099   4.425   1.038   1.463 -2.9527  0.5885  0.2173
 7822SOL    HW235100   4.399   1.086   1.609  0.0866 -1.5954  2.6189
 7823SOL     OW35101   1.886   1.492   5.110 -0.1180  0.3577 -0.5061
 7823SOL    HW135102   1.973   1.518   5.140 -1.1857  2.3943  0.8455
 7823SOL    HW235103   1.897   1.459   5.021  0.0963 -1.9569  0.3872
 7824SOL     OW35104   2.171   2.630   3.704  0.1365 -0.7007  0.8438
 7824SOL    HW135105   2.109   2.562   3.732  0.0801 -2.3379 -3.1429
 7824SOL    HW235106   2.204   2.596   3.620  0.7523 -2.3277  1.7445
 7825SOL     OW35107   3.467   3.732   6.569  0.1427 -1.0260 -0.5715
 7825SOL    HW135108   3.525   3.747   6.493  1.0176 -0.9240  0.1136
 7825SOL    HW235109   3.456   3.637   6.571 -0.1356 -1.0497 -2.6707
 7826SOL     OW35110   2.486   3.684   5.633 -0.3233  0.2938  0.0191
 7826SOL    HW135111   2.452   3.726   5.713  3.4852 -0.5928  2.1016
 7826SOL    HW235112   2.532   3.765   5.611  2.1474 -1.8757 -2.7298
 7827SOL     OW35113   2.932   4.058   4.264 -0.2513  0.2260 -0.5658
 7827SOL    HW135114   2.966   4.064   4.354 -1.2240  1.1330 -0.2616
 7827SOL    HW235115   3.008   4.086   4.213  1.9666  0.3718  2.7860
 7828SOL     OW35116   3.169   4.548   9.948  0.0015  0.4816 -0.8789
 7828SOL    HW135117   3.230   4.618   9.972 -0.6352  0.3200  1.2239
 7828SOL    HW235118   3.128   4.540  10.035  2.0189  1.0005  0.1185
 7829SOL     OW35119   4.280   0.268   8.807  0.7033 -0.8253  0.3933
 7829SOL    HW135120   4.194   0.235   8.833  0.6993 -0.4376  0.8667
 7829SOL    HW235121   4.259   0.361   8.801  1.4016 -0.7271 -0.6424
 7830SOL     OW35122   0.890   1.944  10.404 -0.1395  0.2059 -0.4389
 7830SOL    HW135123   0.912   1.900  10.322  0.5377 -1.0988  0.4572
 7830SOL    HW235124   0.898   2.037  10.379 -1.0904  0.6215  0.8175
 7831SOL     OW35125   2.500   0.326   5.427 -0.1587  0.8302 -0.2548
 7831SOL    HW135126   2.441   0.263   5.384  2.5803 -2.0639  0.1938
 7831SOL    HW235127   2.436   0.396   5.418 -0.1547  0.9320  0.5123
 7832SOL     OW35128   3.193   1.588  16.863 -0.5830 -0.0711 -0.5619
 7832SOL    HW135129   3.148   1.641  16.929  2.3563 -0.0546  1.4601
 7832SOL    HW235130   3.193   1.641  16.783  0.4190  0.8501  0.0393
 7833SOL     OW35131   1.397   0.491  11.920 -0.7784  0.5580 -0.1685
 7833SOL    HW135132   1.322   0.445  11.883  0.0633 -1.3052  0.4222
 7833SOL    HW235133   1.429   0.422  11.979 -0.7750 -0.6406 -1.5619
 7834SOL     OW35134   2.372   1.307   7.478 -0.1855 -0.2982  0.0907
 7834SOL    HW135135   2.283   1.309   7.443 -0.1834  1.9041  0.2032
 7834SOL    HW235136   2.409   1.362   7.409 -0.3922  0.3995  0.5365
 7835SOL     OW35137   0.335   2.548   4.257  0.2590  0.4781  0.1294
 7835SOL    HW135138   0.383   2.510   4.184 -2.8071 -3.1208 -0.0148
 7835SOL    HW235139   0.366   2.493   4.329  1.0169 -1.7259 -1.8771
 7836SOL     OW35140   3.455   1.032   2.777 -0.1973  0.2983  0.0843
 7836SOL    HW135141   3.514   1.052   2.705  2.5096 -0.8027  1.9714
 7836SOL    HW235142   3.428   1.120   2.803 -0.5492  0.1404  0.2581
 7837SOL     OW35143   3.913   2.197   4.411  0.9999 -0.0848  0.1178
 7837SOL    HW135144   3.859   2.199   4.332  1.5797 -3.4892 -0.3827
 7837SOL    HW235145   3.887   2.109   4.438 -3.0029  0.8307 -0.7173
 7838SOL     OW35146   3.766   3.165   4.576  0.4389 -0.0935 -0.7611
 7838SOL    HW135147   3.803   3.203   4.497  0.9743 -0.9397 -0.9230
 7838SOL    HW235148   3.674   3.147   4.557  0.8270 -1.8493 -0.9855
 7839SOL     OW35149   2.125   3.151   6.764  0.7018  0.1193  0.8868
 7839SOL    HW135150   2.118   3.070   6.713  0.5521  1.5317 -1.3432
 7839SOL    HW235151   2.141   3.116   6.851  1.4426 -0.5803  0.4650
 7840SOL     OW35152   1.875   1.085   6.772 -0.4907  0.4618 -0.3684
 7840SOL    HW135153   1.800   1.116   6.822 -0.7750 -0.8950  0.0500
 7840SOL    HW235154   1.943   1.089   6.838  0.0739 -3.0602 -0.7182
 7841SOL     OW35155   1.253   3.096   5.780  0.8809 -0.3942  0.0277
 7841SOL    HW135156   1.197   3.163   5.740  0.0385 -0.9226  0.3182
 7841SOL    HW235157   1.199   3.064   5.853 -1.9521 -0.6749 -2.2115
 7842SOL     OW35158   0.514   4.637   5.342  0.3285 -0.1906 -0.0705
 7842SOL    HW135159   0.419   4.632   5.339  0.2578 -0.0204  1.8327
 7842SOL    HW235160   0.532   4.706   5.278 -1.1683  0.1004 -0.1729
 7843SOL     OW35161   0.389   3.617   7.889  0.0118  0.1600 -0.0119
 7843SOL    HW135162   0.412   3.692   7.944  2.4136 -0.8370  0.3894
 7843SOL    HW235163   0.346   3.556   7.949 -0.2089 -0.0294 -0.3672
 7844SOL     OW35164   3.842   1.342  12.379 -0.3495  0.5704 -0.1497
 7844SOL    HW135165   3.822   1.256  12.415 -2.6479  1.4050  0.5768
 7844SOL    HW235166   3.905   1.318  12.311  0.4256  0.3401  0.6544
 7845SOL     OW35167   2.523   1.386   7.991 -0.1376 -0.1889 -0.0285
 7845SOL    HW135168   2.462   1.327   8.035  0.6168 -2.0352 -1.4708
 7845SOL    HW235169   2.472   1.395   7.910  0.1611  1.0988 -0.0712
 7846SOL     OW35170   4.187   4.144   5.132  0.3405 -0.4981 -0.4375
 7846SOL    HW135171   4.222   4.070   5.181 -3.1347  0.1590  2.9807
 7846SOL    HW235172   4.129   4.111   5.064  0.2466 -0.6017 -0.3056
 7847SOL     OW35173   2.191   0.507  17.453  0.3182  0.7359  0.3875
 7847SOL    HW135174   2.227   0.452  17.384 -2.5536  1.6188 -1.7993
 7847SOL    HW235175   2.192   0.438  17.520 -1.6759  0.4442  0.1325
 7848SOL     OW35176   1.143   2.940   2.867 -0.0694 -0.7926  0.3114
 7848SOL    HW135177   1.088   2.908   2.796  0.1493 -0.8706  0.1765
 7848SOL    HW235178   1.116   2.873   2.930  0.3156 -0.6806  0.5997
 7849SOL     OW35179   0.030   0.958   0.588  0.7301  0.3741  0.0990
 7849SOL    HW135180   4.682   0.923   0.553  1.0187  0.5331 -0.7383
 7849SOL    HW235181   0.008   0.962   0.681 -1.7902  1.7280 -0.5638
 7850SOL     OW35182   3.088   0.972   8.176 -0.1913 -0.0795  0.1290
 7850SOL    HW135183   3.035   1.047   8.148 -0.2411  0.6088  2.0670
 7850SOL    HW235184   3.036   0.935   8.247  0.5163 -2.0449 -0.3739
 7851SOL     OW35185   0.501   0.075  12.828 -0.4887  0.4632  0.3996
 7851SOL    HW135186   0.470   0.042  12.912 -0.5307 -0.5718 -0.0220
 7851SOL    HW235187   0.510   0.169  12.844  1.7108  0.1974  0.6582
 7852SOL     OW35188   0.572   1.502   7.197 -0.2563  0.5321  0.1795
 7852SOL    HW135189   0.613   1.501   7.284 -0.4006  0.9565  0.2557
 7852SOL    HW235190   0.586   1.594   7.172 -0.8344  0.6691  0.3451
 7853SOL     OW35191   0.772   1.921  17.638 -0.1423 -0.2717  0.3197
 7853SOL    HW135192   0.851   1.870  17.653  0.0572  1.1593  4.3205
 7853SOL    HW235193   0.780   1.969  17.721  1.9887 -1.9920  1.0852
 7854SOL     OW35194   2.025   2.206  13.519  0.3621 -0.2326 -0.4849
 7854SOL    HW135195   2.119   2.193  13.510 -0.1940 -4.5228  0.1199
 7854SOL    HW235196   1.985   2.131  13.475  0.8690 -1.4512  1.1423
 7855SOL     OW35197   2.145   0.131   4.099  0.3061  0.5833  0.0656
 7855SOL    HW135198   2.109   0.043   4.086 -1.7330  1.5837 -1.0719
 7855SOL    HW235199   2.169   0.136   4.192 -0.5463 -1.3863  0.3879
 7856SOL     OW35200   4.278   3.254  11.955  0.1921 -0.3251  0.4785
 7856SOL    HW135201   4.333   3.180  11.980  2.6120  1.2469 -0.2564
 7856SOL    HW235202   4.250   3.275  12.044 -0.0423  0.0210  0.3242
 7857SOL     OW35203   4.406   1.503   7.649 -0.2843 -0.3706 -0.0122
 7857SOL    HW135204   4.408   1.561   7.573  2.2509  0.7842  0.9327
 7857SOL    HW235205   4.378   1.564   7.716 -0.3950 -0.2767 -0.1438
 7858SOL     OW35206   2.544   2.984   0.667  0.4247  0.0047 -0.1519
 7858SOL    HW135207   2.536   2.970   0.761  2.4552 -0.7871 -0.0939
 7858SOL    HW235208   2.472   3.040   0.639 -1.2842 -1.0823  2.1063
 7859SOL     OW35209   3.105   0.013  16.135 -0.1721  0.4370  0.1559
 7859SOL    HW135210   3.189   4.702  16.135  0.1870  1.1055 -2.8567
 7859SOL    HW235211   3.131   0.105  16.141 -1.5875  0.9350 -1.2315
 7860SOL     OW35212   0.866   0.080   2.481 -0.1547  0.4968  0.1727
 7860SOL    HW135213   0.923   0.005   2.495 -1.5187 -0.6541 -0.4216
 7860SOL    HW235214   0.874   0.135   2.558 -0.9489  1.1394 -0.2046
 7861SOL     OW35215   3.570   2.447  11.790  0.0724 -0.0023  0.6411
 7861SOL    HW135216   3.620   2.513  11.839  3.1853 -1.1162 -1.0528
 7861SOL    HW235217   3.575   2.377  11.856 -0.6239 -0.2736  0.4039
 7862SOL     OW35218   0.883   2.150   9.663 -0.5530  0.2215  0.0549
 7862SOL    HW135219   0.900   2.059   9.638 -3.0594 -0.6032  1.3567
 7862SOL    HW235220   0.817   2.177   9.600  0.2544  0.2440 -0.7793
 7863SOL     OW35221   2.126   3.591   2.071 -0.3360  0.7394 -0.0501
 7863SOL    HW135222   2.213   3.552   2.071 -0.8495 -0.3894  0.2158
 7863SOL    HW235223   2.148   3.678   2.039 -0.0826  0.3083 -1.0325
 7864SOL     OW35224   3.654   0.893  17.389 -0.3297 -0.1133  0.0121
 7864SOL    HW135225   3.747   0.891  17.411  0.0353  0.8152 -1.4684
 7864SOL    HW235226   3.616   0.841  17.460 -0.1454  1.7120  1.4472
 7865SOL     OW35227   1.502   0.019  16.662  0.4496  0.7261  0.3040
 7865SOL    HW135228   1.479   0.110  16.682  0.4565  0.8997 -0.4773
 7865SOL    HW235229   1.437   4.697  16.703  0.3498  0.5640 -0.0872
 7866SOL     OW35230   1.573   2.055  17.632 -0.0754 -0.4665  0.1576
 7866SOL    HW135231   1.647   2.106  17.599  0.0626 -1.7968 -1.6173
 7866SOL    HW235232   1.496   2.109  17.614  1.0994  0.8391 -0.9184
 7867SOL     OW35233   0.592   0.457  14.675 -0.0702  0.1040  0.7414
 7867SOL    HW135234   0.545   0.376  14.691 -1.3321  0.5884 -0.4819
 7867SOL    HW235235   0.667   0.437  14.618  0.6242  0.2408  1.5942
 7868SOL     OW35236   3.356   0.556   4.615  0.1484  0.2874 -0.3433
 7868SOL    HW135237   3.329   0.646   4.597 -1.1552 -0.3719 -1.7182
 7868SOL    HW235238   3.335   0.550   4.708  0.7236 -0.6692 -0.2760
 7869SOL     OW35239   2.307   4.022   6.268 -0.1408  0.2633 -0.3016
 7869SOL    HW135240   2.336   3.972   6.191 -2.6751  0.6499 -1.5151
 7869SOL    HW235241   2.321   4.110   6.234  0.1746  1.2165  2.3937
 7870SOL     OW35242   3.394   2.065   0.841 -0.1606  0.1359  0.5226
 7870SOL    HW135243   3.300   2.046   0.846 -0.3574  1.5974  2.7698
 7870SOL    HW235244   3.386   2.160   0.849  4.3087  0.5755 -0.5085
 7871SOL     OW35245   1.513   3.840  12.791 -0.8080 -0.1500 -0.4421
 7871SOL    HW135246   1.475   3.758  12.759 -0.3983  0.2393 -1.8991
 7871SOL    HW235247   1.561   3.864  12.712 -2.4692 -1.9347 -2.0172
 7872SOL     OW35248   3.506   1.380   5.714  0.4525  0.5203 -0.2081
 7872SOL    HW135249   3.520   1.344   5.627  2.0353  1.2326 -0.2544
 7872SOL    HW235250   3.575   1.340   5.766  1.3663  2.2950 -0.0488
 7873SOL     OW35251   4.210   0.068   2.532 -0.1196  0.6491  0.1274
 7873SOL    HW135252   4.233   0.154   2.497  0.4746 -0.2932 -1.8499
 7873SOL    HW235253   4.231   0.011   2.458  1.3810 -2.0821  2.6449
 7874SOL     OW35254   3.655   2.719   6.988 -0.1320  0.2555  0.2376
 7874SOL    HW135255   3.561   2.699   6.991  0.0437 -0.6438 -0.2437
 7874SOL    HW235256   3.659   2.763   6.903 -0.8993  0.2992  0.2242
 7875SOL     OW35257   4.185   3.274   2.873  0.9423 -0.0153 -0.1033
 7875SOL    HW135258   4.237   3.319   2.940  0.1836  0.2402  0.3093
 7875SOL    HW235259   4.172   3.339   2.804  2.3613 -0.5659 -0.8997
 7876SOL     OW35260   3.371   0.414   8.492 -0.1651  0.6067  0.5631
 7876SOL    HW135261   3.447   0.377   8.449 -0.4032  1.0080 -0.2018
 7876SOL    HW235262   3.369   0.505   8.462  1.6276  0.4442 -0.0294
 7877SOL     OW35263   0.894   3.818   8.336  0.3991  0.2093 -0.3082
 7877SOL    HW135264   0.827   3.769   8.288 -0.9879  0.9434  0.8809
 7877SOL    HW235265   0.963   3.806   8.270 -0.0494  0.8568 -0.8999
 7878SOL     OW35266   3.152   3.052  14.304  0.2678 -0.3267  0.4649
 7878SOL    HW135267   3.149   3.101  14.222  0.5589 -2.7020 -0.9351
 7878SOL    HW235268   3.078   3.083  14.356 -0.8251 -1.1294 -0.6164
 7879SOL     OW35269   0.252   1.694   4.210  0.6009 -0.3408 -0.1793
 7879SOL    HW135270   0.192   1.625   4.236 -1.1957  0.9326 -0.9204
 7879SOL    HW235271   0.331   1.641   4.209  0.9623  0.2345 -2.4758
 7880SOL     OW35272   1.936   2.890   8.661  0.1105  0.5205  0.1141
 7880SOL    HW135273   1.956   2.908   8.753  0.6235 -0.8321  0.2660
 7880SOL    HW235274   1.857   2.836   8.672 -0.9465  1.7508 -1.5389
 7881SOL     OW35275   0.531   3.433   4.256 -0.0743  0.1772 -0.1402
 7881SOL    HW135276   0.473   3.361   4.231 -0.4275  0.0145  1.1368
 7881SOL    HW235277   0.541   3.481   4.174  2.5615  1.4326  0.9036
 7882SOL     OW35278   0.325   1.539  11.684 -0.4427  0.3555 -0.2382
 7882SOL    HW135279   0.335   1.447  11.658  1.9403  0.2303  1.0921
 7882SOL    HW235280   0.396   1.586  11.640 -1.0873  0.3249 -1.2981
 7883SOL     OW35281   3.681   0.851   2.195 -0.0476  0.2717  0.6323
 7883SOL    HW135282   3.630   0.794   2.137  1.6376 -1.2511  0.6378
 7883SOL    HW235283   3.769   0.854   2.157 -0.1315  0.5149  0.4555
 7884SOL     OW35284   3.999   2.339   6.018 -0.3574 -0.0319  0.4779
 7884SOL    HW135285   4.080   2.384   6.039 -0.8832  1.4358 -0.7129
 7884SOL    HW235286   3.982   2.391   5.940 -1.9020 -3.7069 -1.6202
 7885SOL     OW35287   3.505   1.009   8.947  0.4901 -0.4955  0.1052
 7885SOL    HW135288   3.593   1.004   8.985  0.1771 -0.6124  0.8141
 7885SOL    HW235289   3.463   0.956   9.014  0.1817  1.5769  1.5490
 7886SOL     OW35290   1.971   0.409   3.404 -0.7727 -0.1496  0.4167
 7886SOL    HW135291   2.020   0.399   3.322  1.0121  1.4126  1.2833
 7886SOL    HW235292   2.010   0.344   3.462 -2.5334 -0.3702  1.3327
 7887SOL     OW35293   2.974   0.558   4.505  0.4337 -0.2194 -0.1107
 7887SOL    HW135294   2.938   0.470   4.492 -0.8141  0.3218 -0.2987
 7887SOL    HW235295   3.057   0.552   4.457 -0.3562  0.6351 -1.5848
 7888SOL     OW35296   1.594   2.097   0.955  0.4159 -0.2016 -0.0821
 7888SOL    HW135297   1.637   2.110   1.040 -1.4642  2.7486  0.3955
 7888SOL    HW235298   1.505   2.071   0.979  0.1290  1.0611  0.2208
 7889SOL     OW35299   4.397   4.635   5.172  0.0301  0.7647 -0.2888
 7889SOL    HW135300   4.390   4.540   5.181 -0.3560  0.8097 -0.0992
 7889SOL    HW235301   4.454   4.648   5.096  0.2243 -0.8835 -0.4247
 7890SOL     OW35302   2.398   0.995   8.902 -0.1501 -0.3083  0.1116
 7890SOL    HW135303   2.405   1.067   8.965 -0.2851 -1.6092  1.6041
 7890SOL    HW235304   2.483   0.951   8.909  0.1234  0.2343  0.1867
 7891SOL     OW35305   3.910   1.485   9.711 -0.1982  0.8797 -0.1161
 7891SOL    HW135306   3.932   1.483   9.804  2.8334  1.2033 -0.8183
 7891SOL    HW235307   3.972   1.548   9.675  0.2211 -0.3588 -1.5861
 7892SOL     OW35308   0.904   0.216   2.042  0.1794 -0.6993 -0.7006
 7892SOL    HW135309   0.982   0.265   2.067 -0.4261 -0.4746  0.8023
 7892SOL    HW235310   0.840   0.283   2.019 -0.3825 -0.4160  1.6059
 7893SOL     OW35311   4.256   0.327   2.416  0.0954  0.0750 -0.1616
 7893SOL    HW135312   4.258   0.409   2.466 -1.2482  0.9810 -1.5840
 7893SOL    HW235313   4.336   0.331   2.365  0.4422 -0.3079  0.3515
 7894SOL     OW35314   3.914   1.255   2.171 -0.1899  0.4947  0.0465
 7894SOL    HW135315   3.847   1.323   2.163 -0.6954  0.4774  4.0524
 7894SOL    HW235316   3.905   1.221   2.260  0.0063  1.4592  0.4284
 7895SOL     OW35317   1.527   2.989  14.624 -0.5269  0.1126  0.5122
 7895SOL    HW135318   1.560   2.977  14.534 -0.6935  0.9815  0.3345
 7895SOL    HW235319   1.545   2.904  14.663 -2.5054 -0.4800  0.1047
 7896SOL     OW35320   1.004   4.065   8.725 -0.3045  0.2226  0.0042
 7896SOL    HW135321   1.086   4.103   8.692 -0.8849  0.1244 -1.5434
 7896SOL    HW235322   0.943   4.070   8.652 -0.0689 -0.3935 -0.2331
 7897SOL     OW35323   3.373   1.321   0.663  0.3871 -0.6506 -0.1159
 7897SOL    HW135324   3.431   1.326   0.739 -1.9182 -0.1411  1.6402
 7897SOL    HW235325   3.284   1.328   0.699  0.3310 -1.7166 -0.0501
 7898SOL     OW35326   0.245   0.257  12.300 -0.0221 -0.1412  0.1221
 7898SOL    HW135327   0.228   0.217  12.215 -1.6280 -0.9204  0.8126
 7898SOL    HW235328   0.156   0.265  12.335 -0.0239  0.9587 -0.1187
 7899SOL     OW35329   1.786   2.407  10.530 -0.5245 -0.1448  0.0673
 7899SOL    HW135330   1.691   2.394  10.535 -0.6636  1.0485  0.4951
 7899SOL    HW235331   1.818   2.322  10.561  0.9876  0.4292  0.0367
 7900SOL     OW35332   1.448   2.748   9.822  0.1811 -0.5020  0.5533
 7900SOL    HW135333   1.353   2.736   9.819  0.4129 -1.7143 -2.0731
 7900SOL    HW235334   1.465   2.837   9.852  1.1626 -0.3381 -0.4618
 7901SOL     OW35335   3.310   3.406   3.600  0.1595 -0.6553 -0.8708
 7901SOL    HW135336   3.229   3.399   3.651 -1.0633  1.9588 -2.4358
 7901SOL    HW235337   3.364   3.440   3.672  2.2609 -2.6433 -1.5140
 7902SOL     OW35338   3.566   0.075   4.366 -0.0960 -0.5520  0.7171
 7902SOL    HW135339   3.500   0.048   4.430  1.2668 -0.6711  2.0835
 7902SOL    HW235340   3.644   0.038   4.407  1.1361 -0.0264 -1.1432
 7903SOL     OW35341   1.014   2.930   7.750  0.3019 -0.4953 -0.3714
 7903SOL    HW135342   0.942   2.942   7.689 -1.9952 -1.2165  2.1983
 7903SOL    HW235343   1.082   2.899   7.690  0.7794  1.0887 -0.6356
 7904SOL     OW35344   2.125   4.367   8.635 -0.1930  0.5088  0.6677
 7904SOL    HW135345   2.100   4.380   8.726  0.5107 -0.6541  1.0251
 7904SOL    HW235346   2.047   4.393   8.585  0.2979  0.0246 -0.3560
 7905SOL     OW35347   4.467   2.423  14.178 -0.1981  0.6613 -0.2930
 7905SOL    HW135348   4.438   2.477  14.252 -0.8669 -0.8114  0.5275
 7905SOL    HW235349   4.562   2.436  14.186 -0.3354  1.3437  0.2339
 7906SOL     OW35350   0.794   2.413  13.544  0.0250 -0.3180  0.3244
 7906SOL    HW135351   0.810   2.502  13.576 -0.6780 -0.1070  0.0865
 7906SOL    HW235352   0.702   2.423  13.520 -0.5110 -0.5378  2.3449
 7907SOL     OW35353   3.782   0.026  10.842  0.0659 -0.0020 -0.3332
 7907SOL    HW135354   3.854   0.086  10.862 -0.4558  0.0258  1.4222
 7907SOL    HW235355   3.821   4.706  10.774  0.4636 -1.2668  0.9227
 7908SOL     OW35356   3.202   4.630   1.946  0.4161  0.1265 -0.2820
 7908SOL    HW135357   3.233   4.608   2.033 -1.3590 -4.6810 -0.8501
 7908SOL    HW235358   3.266   4.597   1.883  0.1289 -0.9418 -0.0145
 7909SOL     OW35359   1.173   4.630  10.894 -0.5631 -0.1879  0.0492
 7909SOL    HW135360   1.175   4.580  10.812 -2.5739  0.6178 -0.4629
 7909SOL    HW235361   1.269   4.632  10.903 -0.5775 -3.1810  0.9838
 7910SOL     OW35362   0.972   3.467  13.254  0.5324  0.5889 -0.2971
 7910SOL    HW135363   1.023   3.450  13.175  1.9785  0.1690  0.7169
 7910SOL    HW235364   1.028   3.533  13.294  0.3565  0.9082 -0.5748
 7911SOL     OW35365   1.698   3.799   2.438  0.0026 -0.3033  0.4196
 7911SOL    HW135366   1.610   3.810   2.474 -0.4666  0.6618 -1.0419
 7911SOL    HW235367   1.689   3.750   2.357 -0.5113 -0.7037  0.7174
 7912SOL     OW35368   0.146   2.677   7.732 -0.6868 -0.2544 -0.0497
 7912SOL    HW135369   0.139   2.764   7.693  2.1769  1.0759  2.4015
 7912SOL    HW235370   0.242   2.672   7.742 -0.7908 -2.7810 -0.2504
 7913SOL     OW35371   4.328   0.199   5.768  0.8942 -0.3319  0.3899
 7913SOL    HW135372   4.369   0.265   5.824 -1.4396  1.0403  0.4834
 7913SOL    HW235373   4.260   0.158   5.821 -0.2256  1.8759  0.6774
 7914SOL     OW35374   2.194   4.599   9.559 -0.3449 -0.9185  0.3804
 7914SOL    HW135375   2.142   4.658   9.504  0.6487 -1.7567 -1.4212
 7914SOL    HW235376   2.147   4.594   9.643 -0.0082 -2.0048  0.4939
 7915SOL     OW35377   1.507   1.216   7.728  0.0702 -0.7047  0.3119
 7915SOL    HW135378   1.432   1.251   7.681  1.3167 -0.2877 -1.3630
 7915SOL    HW235379   1.539   1.290   7.781 -2.1008 -0.4111  1.1910
 7916SOL     OW35380   2.652   4.687   0.987  0.2952  0.4123  0.3299
 7916SOL    HW135381   2.746   4.702   0.975  0.1547  0.1811 -1.0506
 7916SOL    HW235382   2.642   4.637   0.906 -1.7367 -0.8098  1.3305
 7917SOL     OW35383   2.112   1.243   7.790 -0.0167 -0.1049 -0.0501
 7917SOL    HW135384   2.072   1.173   7.842 -0.2030  0.3900  0.4758
 7917SOL    HW235385   2.084   1.208   7.705 -0.3079 -1.1685  0.4785
 7918SOL     OW35386   4.347   4.155   6.962 -0.0335  0.4756  0.0668
 7918SOL    HW135387   4.361   4.154   7.057 -1.2311  3.0003  0.2705
 7918SOL    HW235388   4.275   4.217   6.952  0.5270  1.5452  2.5914
 7919SOL     OW35389   2.506   3.389   5.892 -0.4807 -0.5896 -0.1655
 7919SOL    HW135390   2.548   3.304   5.902 -1.3207 -0.7834  1.8260
 7919SOL    HW235391   2.410   3.381   5.892 -0.3814 -1.7596 -0.3111
 7920SOL     OW35392   1.279   3.116   6.351 -0.4762  0.2444 -0.6195
 7920SOL    HW135393   1.351   3.139   6.409 -0.0249 -0.9909 -0.6821
 7920SOL    HW235394   1.246   3.204   6.335 -0.5772  0.2279 -0.5043
 7921SOL     OW35395   4.616   1.719  17.238  0.0582 -0.7724 -0.0463
 7921SOL    HW135396   4.568   1.782  17.185 -0.0778 -0.1777  0.7718
 7921SOL    HW235397   4.575   1.733  17.324  0.9189 -0.4915  0.3222
 7922SOL     OW35398   1.249   1.293   6.275  0.3477 -0.4123  0.2498
 7922SOL    HW135399   1.334   1.275   6.315  0.3343 -0.0490  0.4395
 7922SOL    HW235400   1.213   1.356   6.337 -1.4814  0.3126 -1.5644
 7923SOL     OW35401   3.535   1.083   1.232 -0.1917 -0.2653 -0.1859
 7923SOL    HW135402   3.558   0.993   1.255  0.9700  0.2202  0.5429
 7923SOL    HW235403   3.498   1.070   1.144 -0.8960  1.8733 -0.2097
 7924SOL     OW35404   1.068   1.859  11.397 -0.0675  0.1064  0.5878
 7924SOL    HW135405   1.135   1.885  11.335 -1.2181  2.1836  0.2211
 7924SOL    HW235406   1.113   1.862  11.482  1.6585  2.3076 -0.4279
 7925SOL     OW35407   3.643   1.932   3.572 -0.0049 -0.3413  0.3013
 7925SOL    HW135408   3.737   1.927   3.556 -0.4833 -0.6366 -2.4684
 7925SOL    HW235409   3.616   1.853   3.525  2.7178 -1.6243  0.9018
 7926SOL     OW35410   1.025   2.156  11.242  0.1456 -0.2955 -0.6223
 7926SOL    HW135411   1.041   2.072  11.284 -1.4868 -0.5930 -0.6025
 7926SOL    HW235412   1.034   2.214  11.317  3.1187 -0.1771 -1.0711
 7927SOL     OW35413   2.137   4.252  10.551 -0.0901  0.1530  0.8864
 7927SOL    HW135414   2.079   4.209  10.487  1.6467  0.4499 -0.8871
 7927SOL    HW235415   2.214   4.194  10.553  0.0892  0.2183 -3.7508
 7928SOL     OW35416   4.570   1.013   2.997 -0.3001 -0.1099 -0.0737
 7928SOL    HW135417   4.521   1.065   3.061 -1.3003 -0.7924 -0.2909
 7928SOL    HW235418   4.571   0.926   3.035  1.2117 -0.3391 -0.6601
 7929SOL     OW35419   2.476   0.162  16.481 -0.2270  0.2168  0.2425
 7929SOL    HW135420   2.481   0.130  16.391  2.6190  2.1267 -0.3059
 7929SOL    HW235421   2.533   0.108  16.534 -0.7025  0.0623  0.5964
 7930SOL     OW35422   3.370   4.538   6.547  0.2073  0.2691 -0.2493
 7930SOL    HW135423   3.337   4.627   6.561 -0.0027  0.4303 -1.8302
 7930SOL    HW235424   3.462   4.549   6.571  0.9289 -2.0370 -2.0251
 7931SOL     OW35425   3.868   3.353   8.198  0.3578 -0.2900 -0.1836
 7931SOL    HW135426   3.925   3.300   8.253 -1.5202 -1.5286  0.5829
 7931SOL    HW235427   3.789   3.364   8.252  1.7754  0.9144  1.6468
 7932SOL     OW35428   3.883   3.602   5.981 -0.0909 -0.6082 -0.1926
 7932SOL    HW135429   3.914   3.674   6.035 -1.4219  0.2212 -0.5461
 7932SOL    HW235430   3.835   3.656   5.919  0.6642 -0.2440 -0.4522
 7933SOL     OW35431   3.301   2.887   7.691  0.0061 -0.1720 -0.2650
 7933SOL    HW135432   3.213   2.914   7.664  0.4800  2.3421  0.6821
 7933SOL    HW235433   3.308   2.953   7.761  2.5404 -2.1471  1.3492
 7934SOL     OW35434   1.520   4.545  13.442  0.5812 -0.0731  1.0291
 7934SOL    HW135435   1.582   4.617  13.430 -0.9610  1.1521  0.5163
 7934SOL    HW235436   1.436   4.588  13.453  0.6650  0.0344  1.2726
 7935SOL     OW35437   1.937   0.129  13.714  0.3800  0.0800  0.6798
 7935SOL    HW135438   1.982   0.182  13.780 -0.0358 -0.3067  1.2596
 7935SOL    HW235439   2.000   0.142  13.643 -1.6882  2.5927 -0.6858
 7936SOL     OW35440   1.601   1.457   7.567 -0.6491 -0.0788 -0.3605
 7936SOL    HW135441   1.553   1.377   7.548 -1.1733  0.3478 -0.8361
 7936SOL    HW235442   1.638   1.489   7.484 -0.4159 -2.3380 -1.1140
 7937SOL     OW35443   3.973   4.423   6.874 -0.4217  0.1749  0.0006
 7937SOL    HW135444   3.896   4.388   6.829  0.6540 -0.9710 -0.9478
 7937SOL    HW235445   3.934   4.458   6.954 -0.2641 -0.5276  0.3782
 7938SOL     OW35446   4.592   3.987   1.183  0.0988  0.3127 -0.5108
 7938SOL    HW135447   4.581   4.030   1.098 -0.9411  0.7642 -0.1599
 7938SOL    HW235448   4.680   4.018   1.207 -0.6409  1.5239  0.6965
 7939SOL     OW35449   1.732   2.084  12.879  0.2224  0.2259  0.4773
 7939SOL    HW135450   1.644   2.109  12.852  0.6966  0.4922 -0.8288
 7939SOL    HW235451   1.735   2.114  12.970  1.4816  3.7749 -0.7614
 7940SOL     OW35452   4.239   1.954   5.620  0.3205  0.2847 -0.0829
 7940SOL    HW135453   4.167   2.015   5.605  2.0221  1.5735 -2.9399
 7940SOL    HW235454   4.270   1.962   5.530  0.9963  0.9502  0.2169
 7941SOL     OW35455   0.643   0.920   9.037 -0.1123  0.0345  0.0027
 7941SOL    HW135456   0.618   0.831   9.009  0.5724 -0.3190  0.5286
 7941SOL    HW235457   0.672   0.948   8.950  0.4796 -0.9076 -0.1122
 7942SOL     OW35458   1.948   2.980   8.955 -0.5227 -0.0432 -0.0565
 7942SOL    HW135459   1.853   2.972   8.965 -0.6076  0.1535 -0.6625
 7942SOL    HW235460   1.967   2.895   8.994  2.6921 -0.4314 -2.4574
 7943SOL     OW35461   2.832   3.189  10.513  0.6703 -0.4979  0.6061
 7943SOL    HW135462   2.899   3.152  10.571  0.6481 -0.2692  0.7762
 7943SOL    HW235463   2.801   3.266  10.560  1.0308  1.2900 -2.1060
 7944SOL     OW35464   2.885   4.025   8.136 -0.4272 -0.0119 -0.8277
 7944SOL    HW135465   2.820   4.025   8.066 -0.6465 -0.8371 -0.6182
 7944SOL    HW235466   2.965   4.043   8.085  1.2827  2.2616  2.6705
 7945SOL     OW35467   2.489   2.902   7.766  0.0891  0.3716 -0.1639
 7945SOL    HW135468   2.551   2.847   7.718 -1.5158 -0.9968 -0.6545
 7945SOL    HW235469   2.439   2.953   7.703  0.3722 -0.3779 -0.9989
 7946SOL     OW35470   2.032   2.903  15.906  0.4666 -0.3569  0.0687
 7946SOL    HW135471   2.128   2.909  15.902  0.3294  2.0581  0.3189
 7946SOL    HW235472   1.981   2.966  15.855  0.4574 -0.2869  0.1650
 7947SOL     OW35473   2.816   1.625  12.581  0.2730  0.2968 -0.0965
 7947SOL    HW135474   2.740   1.566  12.586 -0.1545  0.9334  0.8656
 7947SOL    HW235475   2.821   1.654  12.672 -1.1841 -0.0886  0.1138
 7948SOL     OW35476   3.055   2.999   4.978  0.7692 -0.0244 -0.5702
 7948SOL    HW135477   3.037   3.006   5.072  1.5072  0.2823 -0.4526
 7948SOL    HW235478   2.968   3.009   4.939  1.8017  0.4910 -2.7634
 7949SOL     OW35479   0.558   2.999   8.084 -0.4491  0.0436 -0.5863
 7949SOL    HW135480   0.563   2.918   8.135  1.5541  0.6454  0.1612
 7949SOL    HW235481   0.471   3.029   8.110  0.0137 -1.1238  2.2482
 7950SOL     OW35482   3.761   4.479  16.877  0.2408 -0.1987 -0.3683
 7950SOL    HW135483   3.749   4.440  16.964 -0.4346  0.7135 -0.0589
 7950SOL    HW235484   3.769   4.401  16.822  2.4574 -0.4705  0.3530
 7951SOL     OW35485   0.205   3.040   6.403  0.2416  0.4376  0.6131
 7951SOL    HW135486   0.199   2.988   6.483 -0.0518 -0.2086  0.1705
 7951SOL    HW235487   0.269   3.103   6.437  1.7718 -1.6400  1.5769
 7952SOL     OW35488   2.011   3.930   7.360  0.2818 -0.0173  0.6518
 7952SOL    HW135489   2.086   3.978   7.324 -0.2214  0.4231  0.1901
 7952SOL    HW235490   1.978   3.877   7.287  0.6796  0.0519  0.4180
 7953SOL     OW35491   2.620   3.719   9.558 -0.8833  0.1716  0.5470
 7953SOL    HW135492   2.707   3.728   9.519 -0.9231 -1.4105  0.0713
 7953SOL    HW235493   2.570   3.708   9.477 -0.0692 -0.7653  0.1610
 7954SOL     OW35494   1.466   4.083   1.949 -0.2842  0.4867  0.5386
 7954SOL    HW135495   1.398   4.148   1.968 -0.8330  0.4827 -1.4184
 7954SOL    HW235496   1.543   4.109   2.000 -0.3717  2.5910 -0.4299
 7955SOL     OW35497   2.642   1.342   0.849  0.5556 -0.7109  0.0203
 7955SOL    HW135498   2.674   1.330   0.938 -0.1299  1.1650  0.5242
 7955SOL    HW235499   2.664   1.261   0.803  1.5801 -0.7132  0.5281
 7956SOL     OW35500   1.772   0.203   8.916  0.3772  0.0609 -0.5043
 7956SOL    HW135501   1.724   0.120   8.919 -0.2226  0.3911 -0.7829
 7956SOL    HW235502   1.823   0.200   8.996  1.9044  0.0079 -1.4727
 7957SOL     OW35503   0.334   0.477  17.061 -0.1288  0.2854  0.5459
 7957SOL    HW135504   0.383   0.460  16.981  0.3195  3.9202  0.0292
 7957SOL    HW235505   0.406   0.473  17.123  0.2606 -0.2765  0.0560
 7958SOL     OW35506   2.154   4.196  17.074 -0.0152  0.0305  0.3823
 7958SOL    HW135507   2.191   4.115  17.109  0.6984 -0.0307 -0.5271
 7958SOL    HW235508   2.228   4.252  17.055 -0.8664  0.6819 -0.9824
 7959SOL     OW35509   3.620   0.953  13.639 -0.5779 -0.1270  0.3224
 7959SOL    HW135510   3.526   0.955  13.656 -0.6768 -0.1362 -0.2266
 7959SOL    HW235511   3.643   1.045  13.649  2.7510 -0.9768  0.2789
 7960SOL     OW35512   0.186   0.379   4.959  0.1168 -0.0173 -0.1037
 7960SOL    HW135513   0.281   0.379   4.972  0.2480 -1.0557 -1.0433
 7960SOL    HW235514   0.190   0.447   4.891 -0.4707  1.4091  1.2951
 7961SOL     OW35515   4.422   3.723   8.744 -0.2495 -0.2810 -0.4718
 7961SOL    HW135516   4.472   3.670   8.682 -0.5453 -0.3418 -0.6586
 7961SOL    HW235517   4.470   3.703   8.824  0.1926 -0.7663 -0.8538
 7962SOL     OW35518   1.932   1.995   5.654  0.2477  0.3636  0.2392
 7962SOL    HW135519   1.929   2.048   5.574 -1.3532 -1.2439 -0.7720
 7962SOL    HW235520   1.875   2.046   5.712 -0.6596  0.1570 -0.4695
 7963SOL     OW35521   2.691   4.519  14.173  0.2438  0.2990 -0.2970
 7963SOL    HW135522   2.740   4.467  14.237  0.7776 -1.2566 -2.0010
 7963SOL    HW235523   2.606   4.505  14.216  0.5487  2.9144  1.1902
 7964SOL     OW35524   1.411   1.086   2.164 -0.0520  0.3239 -0.0524
 7964SOL    HW135525   1.480   1.020   2.156  0.0700  0.5077 -0.4916
 7964SOL    HW235526   1.334   1.039   2.195  0.3802 -0.0844  0.4105
 7965SOL     OW35527   3.701   2.055   2.806  0.1107 -1.0004 -1.0875
 7965SOL    HW135528   3.678   2.063   2.713  0.4368  0.7060 -1.0093
 7965SOL    HW235529   3.758   2.130   2.820  0.0261 -1.5112  1.8474
 7966SOL     OW35530   2.514   1.630   7.248  0.3526  0.5210  0.4038
 7966SOL    HW135531   2.517   1.699   7.315 -2.3375 -0.9696  2.0697
 7966SOL    HW235532   2.495   1.675   7.166 -1.4219  0.2894  0.6768
 7967SOL     OW35533   2.281   1.293  17.276 -0.0746  0.7949 -0.1434
 7967SOL    HW135534   2.240   1.280  17.362  0.1221 -0.0060 -0.1673
 7967SOL    HW235535   2.308   1.384  17.287  1.1278  0.4058  0.0780
 7968SOL     OW35536   0.131   1.541  12.241  0.0742  0.1776  0.3345
 7968SOL    HW135537   0.116   1.487  12.163 -2.6142  0.3239  0.7485
 7968SOL    HW235538   0.144   1.628  12.204  0.3876 -2.0128 -4.7469
 7969SOL     OW35539   3.929   1.016   3.218 -0.1348 -0.1030 -0.3489
 7969SOL    HW135540   3.903   1.103   3.187  0.7078  1.0894  2.2434
 7969SOL    HW235541   3.952   0.974   3.136  1.6282  1.9404 -0.9044
 7970SOL     OW35542   2.575   4.062   8.518  0.1272 -0.2889 -0.3905
 7970SOL    HW135543   2.645   4.021   8.467 -1.3813 -1.5238 -1.4750
 7970SOL    HW235544   2.552   3.986   8.572  1.0891 -1.1112 -1.1099
 7971SOL     OW35545   2.906   0.832   4.435 -0.6061  0.0307  0.3341
 7971SOL    HW135546   2.875   0.880   4.512  2.2852  0.8103  1.0366
 7971SOL    HW235547   2.931   0.748   4.475  0.1246 -0.5159 -1.2587
 7972SOL     OW35548   2.863   0.551  16.086  0.1416 -0.2142  0.3180
 7972SOL    HW135549   2.930   0.495  16.046  1.2866  0.2549  1.5849
 7972SOL    HW235550   2.811   0.493  16.142 -0.0853  0.3248  0.6544
 7973SOL     OW35551   3.320   4.052   8.571  0.2998 -0.1433  0.2770
 7973SOL    HW135552   3.388   4.016   8.514  0.1899  1.3836 -0.8057
 7973SOL    HW235553   3.251   4.053   8.504 -0.5303 -0.3426  1.1284
 7974SOL     OW35554   2.459   2.011  12.103  0.5472 -0.3244 -0.0456
 7974SOL    HW135555   2.423   2.098  12.118 -3.7910 -2.1024 -0.0883
 7974SOL    HW235556   2.503   1.997  12.186  0.2102 -0.0745  0.1741
 7975SOL     OW35557   4.287   4.532   2.128  0.2378 -0.8870  0.0208
 7975SOL    HW135558   4.363   4.508   2.074  1.3788 -0.8601  1.6105
 7975SOL    HW235559   4.334   4.566   2.205 -0.6400  2.2422 -0.8264
 7976SOL     OW35560   0.647   3.657   3.554 -0.1376 -0.2742  0.0204
 7976SOL    HW135561   0.688   3.582   3.511  0.5428 -0.7168  1.4535
 7976SOL    HW235562   0.638   3.629   3.645  0.2706 -2.6011 -0.6434
 7977SOL     OW35563   0.204   2.553   6.037 -0.1524  0.2735 -0.3920
 7977SOL    HW135564   0.231   2.469   5.999 -2.8042 -1.8227  2.3434
 7977SOL    HW235565   0.117   2.536   6.072  0.9727  0.3178  2.4153
 7978SOL     OW35566   3.460   4.296   3.472 -0.3650  0.9843  0.7912
 7978SOL    HW135567   3.407   4.356   3.419  0.3855  1.2241  0.3119
 7978SOL    HW235568   3.524   4.265   3.407 -1.8799  0.5959 -0.5294
 7979SOL     OW35569   2.240   3.629   4.344  0.5127 -0.1398  0.0264
 7979SOL    HW135570   2.166   3.682   4.312  0.8080  1.3368  1.7909
 7979SOL    HW235571   2.267   3.696   4.406  1.2560  0.2464 -0.7087
 7980SOL     OW35572   4.405   0.980  14.299 -0.2134 -0.0800  0.0184
 7980SOL    HW135573   4.446   0.956  14.216 -0.1030 -0.5035  0.1977
 7980SOL    HW235574   4.472   0.960  14.364  0.1472  1.3160  0.0896
 7981SOL     OW35575   2.931   2.440  16.709 -0.4318 -0.2265  0.0142
 7981SOL    HW135576   3.004   2.402  16.659  1.0012  2.2275  0.2294
 7981SOL    HW235577   2.931   2.528  16.674  0.9403  0.3827  1.5021
 7982SOL     OW35578   2.906   4.084   6.230  0.1651 -0.0090  0.5073
 7982SOL    HW135579   2.925   4.106   6.321  1.9940 -1.3322  0.4490
 7982SOL    HW235580   2.915   3.989   6.239  0.9178 -0.0119 -0.2993
 7983SOL     OW35581   0.004   1.095   7.492  0.5259  0.2155 -0.2501
 7983SOL    HW135582   0.064   1.168   7.506 -1.1074  2.0287 -2.7538
 7983SOL    HW235583   0.028   1.036   7.563  1.8081  0.7093 -0.2689
 7984SOL     OW35584   1.461   4.640  16.085 -0.5375  0.1988  0.8028
 7984SOL    HW135585   1.386   4.698  16.068 -0.8058 -0.1641  0.7451
 7984SOL    HW235586   1.520   4.700  16.130  0.5404 -0.1206 -0.1656
 7985SOL     OW35587   3.511   3.532  10.390  0.8174 -0.1607 -0.4521
 7985SOL    HW135588   3.498   3.441  10.419 -2.5844  0.2099 -0.8226
 7985SOL    HW235589   3.434   3.550  10.338  0.6163 -0.8061 -0.3860
 7986SOL     OW35590   2.998   2.296  13.149 -0.3281  0.2516 -0.1815
 7986SOL    HW135591   2.996   2.385  13.185 -0.6436  0.9465 -1.9070
 7986SOL    HW235592   2.919   2.297  13.094 -0.3970  1.1706 -0.0604
 7987SOL     OW35593   2.088   1.939   7.101  0.4749  0.3533 -0.6612
 7987SOL    HW135594   2.032   1.878   7.149 -1.8289  3.5795  0.7723
 7987SOL    HW235595   2.176   1.902   7.113 -0.6345 -1.9015  0.3959
 7988SOL     OW35596   2.776   1.108   6.419  0.3030 -0.1286 -0.2764
 7988SOL    HW135597   2.863   1.111   6.380  0.1853  0.0657 -0.5218
 7988SOL    HW235598   2.798   1.109   6.512 -1.7669 -0.6324  0.2265
 7989SOL     OW35599   4.573   1.602  13.979 -0.5781  0.3179  0.1558
 7989SOL    HW135600   4.646   1.545  13.953  0.0776  1.4080 -0.4162
 7989SOL    HW235601   4.495   1.554  13.951  1.1087 -2.4811  0.3105
 7990SOL     OW35602   1.508   0.116   2.255  0.0124  0.1517 -0.7662
 7990SOL    HW135603   1.590   0.067   2.261 -1.4224 -2.1512  0.0375
 7990SOL    HW235604   1.526   0.188   2.316  1.2258 -1.0059  0.2393
 7991SOL     OW35605   4.224   1.347   2.752 -0.6849  0.0226  0.9472
 7991SOL    HW135606   4.286   1.408   2.711  0.5467 -0.7438  1.6801
 7991SOL    HW235607   4.154   1.342   2.687 -0.6127  1.7692  0.7361
 7992SOL     OW35608   4.117   4.158   4.571  0.1515 -0.1040 -0.0991
 7992SOL    HW135609   4.162   4.146   4.655  2.0738  0.2781 -1.0639
 7992SOL    HW235610   4.114   4.253   4.557 -0.7202 -0.3742 -1.7656
 7993SOL     OW35611   1.861   0.867   8.843 -0.1911  0.2520 -0.0830
 7993SOL    HW135612   1.946   0.852   8.803 -0.6745  1.7079 -1.6495
 7993SOL    HW235613   1.824   0.781   8.826 -1.4263  0.6087  0.7417
 7994SOL     OW35614   3.255   4.399  14.688  0.0659 -0.3056  0.1765
 7994SOL    HW135615   3.216   4.362  14.767 -1.9561 -1.1620 -1.2365
 7994SOL    HW235616   3.334   4.346  14.677  0.4449  0.4374 -0.7071
 7995SOL     OW35617   2.141   2.364   1.695  0.2430 -0.7649 -0.0448
 7995SOL    HW135618   2.215   2.325   1.649 -0.6063 -2.6312  0.1836
 7995SOL    HW235619   2.162   2.456   1.712  2.0990 -1.5802  1.9985
 7996SOL     OW35620   3.048   0.211   6.217  0.8055 -0.0659  0.5316
 7996SOL    HW135621   3.004   0.126   6.212 -0.2095  0.2763  4.0616
 7996SOL    HW235622   3.073   0.212   6.124  0.6004 -1.8624  0.4463
 7997SOL     OW35623   4.497   1.324   7.852  0.0518 -0.0873  0.1733
 7997SOL    HW135624   4.403   1.326   7.872 -0.3432  0.0565 -1.7237
 7997SOL    HW235625   4.483   1.375   7.772 -3.0710  0.4018  1.0316
 7998SOL     OW35626   3.917   3.756   5.368 -0.3422 -0.9467  0.1664
 7998SOL    HW135627   3.937   3.753   5.274 -0.0381 -0.9004  0.2283
 7998SOL    HW235628   3.825   3.781   5.371 -0.1514 -0.1208 -0.6940
 7999SOL     OW35629   1.187   0.111  17.617  0.3079  0.5072  0.2564
 7999SOL    HW135630   1.222   0.089  17.530 -2.3852 -0.6116 -0.5409
 7999SOL    HW235631   1.256   0.164  17.657 -0.2265  1.2320  0.2051
 8000SOL     OW35632   0.310   2.340   5.923 -0.2870  0.6401 -0.3421
 8000SOL    HW135633   0.261   2.258   5.925 -0.6542  0.8750  0.3690
 8000SOL    HW235634   0.318   2.372   5.833  0.8344  0.0200 -0.4697
 8001SOL     OW35635   2.969   1.649   5.223 -0.3896 -0.0674  0.1738
 8001SOL    HW135636   3.038   1.597   5.183 -0.1700  0.3015  0.0690
 8001SOL    HW235637   2.956   1.721   5.160 -0.1723  1.1469  1.5259
 8002SOL     OW35638   3.931   0.251  13.297  0.0131 -0.0232  0.1394
 8002SOL    HW135639   3.957   0.166  13.330  0.3227  0.8301  2.0756
 8002SOL    HW235640   3.973   0.242  13.212 -0.5579 -0.1812 -0.1302
 8003SOL     OW35641   3.003   0.806   6.798  0.2464 -0.3655  0.0424
 8003SOL    HW135642   2.972   0.825   6.710 -0.7927  4.3919  1.4325
 8003SOL    HW235643   3.009   0.712   6.810 -0.8214 -0.0445  3.1982
 8004SOL     OW35644   2.320   1.858   7.983 -0.1725 -0.0743  0.4805
 8004SOL    HW135645   2.345   1.776   7.941 -1.0414  1.1878 -2.4922
 8004SOL    HW235646   2.340   1.923   7.916  0.7518 -1.1080 -0.2436
 8005SOL     OW35647   2.358   0.555   5.482 -0.1976 -0.2114  0.0029
 8005SOL    HW135648   2.286   0.593   5.532  0.3751 -2.3713  2.4548
 8005SOL    HW235649   2.420   0.627   5.492 -1.3035  0.8721 -0.8843
 8006SOL     OW35650   0.502   2.901  11.185 -0.2167 -0.0144  0.4975
 8006SOL    HW135651   0.533   2.880  11.273 -0.7351 -2.1368  0.1662
 8006SOL    HW235652   0.576   2.865  11.136  1.2682  2.2012  1.1198
 8007SOL     OW35653   1.353   0.449   7.121  0.0280  0.0940  0.5648
 8007SOL    HW135654   1.392   0.369   7.156  1.1467  0.1795 -0.4996
 8007SOL    HW235655   1.357   0.452   7.025 -2.8260 -0.4060  0.4117
 8008SOL     OW35656   2.897   1.878   2.747  0.2078  0.0296 -0.0281
 8008SOL    HW135657   2.898   1.912   2.836 -0.5714  0.0554 -0.0235
 8008SOL    HW235658   2.979   1.829   2.747  0.7055  0.8473  1.2234
 8009SOL     OW35659   2.888   0.630  10.897 -0.7000 -0.0220 -0.1415
 8009SOL    HW135660   2.907   0.539  10.922  2.7435  0.6024 -0.4803
 8009SOL    HW235661   2.979   0.650  10.874 -0.2235 -0.4795  1.3188
 8010SOL     OW35662   0.428   3.330   2.669  0.0829 -0.0827 -0.1489
 8010SOL    HW135663   0.420   3.414   2.624  1.5981 -0.1538 -0.5643
 8010SOL    HW235664   0.494   3.281   2.619 -0.4806  0.5190 -1.4793
 8011SOL     OW35665   4.055   3.775   7.735  0.3907 -0.3687 -0.0720
 8011SOL    HW135666   3.977   3.825   7.710  0.0464 -0.7855  0.1586
 8011SOL    HW235667   4.024   3.727   7.812  1.2960 -0.3802  0.2784
 8012SOL     OW35668   2.930   3.454   1.550  0.3167  0.0039  0.1704
 8012SOL    HW135669   2.881   3.535   1.564 -2.1927 -1.1922 -1.8180
 8012SOL    HW235670   2.929   3.429   1.643  0.3572 -1.9881 -0.3673
 8013SOL     OW35671   3.910   2.883   2.420  0.2782 -0.1980 -0.5411
 8013SOL    HW135672   3.878   2.867   2.509 -0.1673  0.6605 -0.5569
 8013SOL    HW235673   4.005   2.873   2.425  0.1721 -1.0726 -0.1673
 8014SOL     OW35674   1.012   3.586  11.813  0.1858  0.7101 -0.0831
 8014SOL    HW135675   1.055   3.648  11.871 -0.1398  0.5622  0.3193
 8014SOL    HW235676   1.059   3.506  11.835 -0.8747  0.1298  0.0907
 8015SOL     OW35677   2.756   3.067  10.288 -0.1055 -0.4662  0.0128
 8015SOL    HW135678   2.665   3.043  10.304 -0.0170 -0.7847  0.0412
 8015SOL    HW235679   2.780   3.092  10.378  2.0971  0.0014 -0.7182
 8016SOL     OW35680   1.705   3.871   4.210  0.1839  0.7870  0.4279
 8016SOL    HW135681   1.686   3.894   4.119  2.6468  0.7771 -0.0820
 8016SOL    HW235682   1.776   3.932   4.230 -1.0752  1.7712  1.8658
 8017SOL     OW35683   2.264   3.606   0.765  0.0523 -0.0592 -0.3376
 8017SOL    HW135684   2.277   3.653   0.682 -0.6618  0.1055 -0.3544
 8017SOL    HW235685   2.171   3.585   0.760 -0.4496  2.0372  0.3846
 8018SOL     OW35686   2.148   2.288   9.225  0.3937  0.0167  0.4127
 8018SOL    HW135687   2.080   2.278   9.292  0.0322 -0.4786 -0.0247
 8018SOL    HW235688   2.116   2.235   9.152  1.3188 -1.8082  1.3476
 8019SOL     OW35689   0.556   3.715   6.757  0.0733  0.4954 -0.3546
 8019SOL    HW135690   0.512   3.760   6.685 -1.9697  0.1329  0.6662
 8019SOL    HW235691   0.475   3.690   6.800  0.4822 -0.0816  0.0739
 8020SOL     OW35692   2.740   0.648   7.426 -0.2915  0.5098 -0.5082
 8020SOL    HW135693   2.715   0.577   7.485  1.8778 -1.6083 -2.1191
 8020SOL    HW235694   2.739   0.729   7.477  0.8482  1.5300 -2.1189
 8021SOL     OW35695   1.771   0.649  15.305 -0.0160 -0.3622  0.4901
 8021SOL    HW135696   1.842   0.670  15.245  1.0619  0.0649  1.9311
 8021SOL    HW235697   1.757   0.732  15.350 -1.1167 -1.0234  1.3967
 8022SOL     OW35698   2.629   3.136  11.337 -0.4135 -0.3579 -0.2613
 8022SOL    HW135699   2.601   3.177  11.419 -0.5628  0.2441 -0.6139
 8022SOL    HW235700   2.723   3.127  11.352 -0.6539 -1.3208  0.6786
 8023SOL     OW35701   4.360   4.141   7.458 -0.5007  0.1210  0.1747
 8023SOL    HW135702   4.357   4.057   7.412  1.4532  0.5595 -0.7366
 8023SOL    HW235703   4.282   4.135   7.513 -0.4486 -0.7642  0.1639
 8024SOL     OW35704   3.168   3.223  16.925 -0.1397 -0.3003  0.0303
 8024SOL    HW135705   3.251   3.220  16.878 -0.8058 -0.0949 -1.1588
 8024SOL    HW235706   3.184   3.284  16.996  0.2835 -0.1333 -0.2121
 8025SOL     OW35707   4.036   4.339   9.530 -0.8890 -0.5447 -0.7401
 8025SOL    HW135708   4.028   4.317   9.438  0.0959 -0.5144 -0.8340
 8025SOL    HW235709   4.130   4.357   9.533 -0.8194 -1.1656  1.1579
 8026SOL     OW35710   1.516   1.792  17.210  0.1681  0.0465  0.9950
 8026SOL    HW135711   1.509   1.716  17.152  0.9579  2.8686 -2.8615
 8026SOL    HW235712   1.435   1.789  17.261  0.3555 -1.6473  1.1822
 8027SOL     OW35713   0.731   0.915   2.971  0.0633  0.1333  0.2418
 8027SOL    HW135714   0.666   0.848   2.995 -1.2804  1.9356  1.6013
 8027SOL    HW235715   0.699   0.931   2.883 -2.5378  0.6374  1.2517
 8028SOL     OW35716   3.895   0.693  10.664  0.5837 -0.1000  0.2870
 8028SOL    HW135717   3.983   0.713  10.632  0.6011  0.4254  0.6697
 8028SOL    HW235718   3.864   0.769  10.714 -1.2348  0.4774 -1.7625
 8029SOL     OW35719   1.582   1.231  14.861 -0.2365 -0.5279 -0.0943
 8029SOL    HW135720   1.665   1.200  14.899  1.8120  0.8151 -3.4446
 8029SOL    HW235721   1.610   1.305  14.807 -0.5313  0.6510  1.3960
 8030SOL     OW35722   0.292   1.244   2.473  0.0065  0.0774 -0.0904
 8030SOL    HW135723   0.298   1.271   2.382  0.3826 -0.9939 -0.3798
 8030SOL    HW235724   0.237   1.167   2.461  0.1680  0.1341 -1.1481
 8031SOL     OW35725   4.537   4.218   3.276 -0.0228 -0.0561  0.3285
 8031SOL    HW135726   4.608   4.206   3.212  0.5984  0.4278  0.9159
 8031SOL    HW235727   4.535   4.312   3.293  0.9010  0.1651 -0.7537
 8032SOL     OW35728   3.519   2.665   6.647 -0.6752  0.3902 -0.2189
 8032SOL    HW135729   3.529   2.570   6.643  0.6988  0.5569 -0.5895
 8032SOL    HW235730   3.426   2.664   6.668 -1.1102  1.0589 -2.1659
 8033SOL     OW35731   3.887   2.695   4.787 -0.4952  0.1300  0.0892
 8033SOL    HW135732   3.854   2.743   4.712 -2.4056 -0.1749  0.7380
 8033SOL    HW235733   3.883   2.603   4.759  0.4210 -0.4850  1.9587
 8034SOL     OW35734   4.724   2.318  15.298  0.3220  0.2251  0.4357
 8034SOL    HW135735   4.650   2.376  15.318 -1.1353 -2.0641  1.7116
 8034SOL    HW235736   4.674   2.253  15.249  0.3164  1.9338 -1.8573
 8035SOL     OW35737   4.190   1.124  12.178 -0.5442 -0.3055 -0.2389
 8035SOL    HW135738   4.195   1.034  12.145  0.2748  0.0661 -1.1487
 8035SOL    HW235739   4.268   1.164  12.140 -0.0167 -0.7769  0.3578
 8036SOL     OW35740   3.584   3.982   8.720  0.2434  0.3582  0.1615
 8036SOL    HW135741   3.554   4.035   8.793  0.1913 -1.5926  1.5682
 8036SOL    HW235742   3.525   3.906   8.726  1.6180 -0.5439  2.0822
 8037SOL     OW35743   2.511   2.027   3.721  0.1254  0.0205  0.2732
 8037SOL    HW135744   2.557   2.060   3.798 -0.5940 -0.8731  1.0675
 8037SOL    HW235745   2.510   1.934   3.744 -4.1549 -0.0586 -0.2785
 8038SOL     OW35746   0.090   2.475   4.514  1.1618 -0.4475  0.5820
 8038SOL    HW135747   0.131   2.550   4.557 -0.6873  2.4488 -2.6650
 8038SOL    HW235748   0.092   2.514   4.427  0.9624 -0.3754  0.6109
 8039SOL     OW35749   2.411   0.914   6.540  0.3463 -0.4198  0.0101
 8039SOL    HW135750   2.452   0.939   6.457 -0.3249  0.2503 -0.1176
 8039SOL    HW235751   2.318   0.905   6.517 -0.2617  1.7750  1.6576
 8040SOL     OW35752   3.542   3.646  11.324 -0.3019 -0.3624  0.5740
 8040SOL    HW135753   3.470   3.709  11.332  0.0286  0.2113 -0.9262
 8040SOL    HW235754   3.592   3.662  11.404  0.1028  1.2701 -0.0044
 8041SOL     OW35755   0.477   4.276  15.843  0.5455  0.3443  0.5429
 8041SOL    HW135756   0.485   4.371  15.855  2.2558  0.4053 -1.0028
 8041SOL    HW235757   0.415   4.257  15.914 -0.6305 -0.3707 -0.6817
 8042SOL     OW35758   4.662   1.337  11.000  0.3362  0.1052 -0.1224
 8042SOL    HW135759   4.723   1.403  10.966  1.3056 -0.1553  1.1161
 8042SOL    HW235760   4.598   1.353  10.931 -1.0214 -0.2474  1.0576
 8043SOL     OW35761   3.475   3.126   4.639 -0.0086 -0.3174  0.2383
 8043SOL    HW135762   3.464   3.208   4.590 -2.9375  0.1579  1.6776
 8043SOL    HW235763   3.434   3.140   4.724  0.8864 -1.0803  0.7923
 8044SOL     OW35764   1.789   0.337   8.672 -1.1078  0.0622 -0.4109
 8044SOL    HW135765   1.812   0.288   8.751 -2.0369  0.4982  0.1261
 8044SOL    HW235766   1.824   0.290   8.596 -0.3375  0.5292 -0.3513
 8045SOL     OW35767   0.506   0.483   9.512 -0.2994  0.4799 -0.3510
 8045SOL    HW135768   0.578   0.534   9.474  0.6814 -0.3828  0.3291
 8045SOL    HW235769   0.469   0.442   9.435 -1.4291 -1.0738  1.0255
 8046SOL     OW35770   2.148   3.871   6.016  0.2413 -0.1927  0.1095
 8046SOL    HW135771   2.065   3.885   6.061 -0.1054 -0.5608 -0.4155
 8046SOL    HW235772   2.138   3.935   5.946  0.4062 -1.6997 -1.2953
 8047SOL     OW35773   0.972   0.213  11.200  0.0906 -0.4286  0.1783
 8047SOL    HW135774   0.960   0.140  11.140 -0.2307 -0.8515  0.7596
 8047SOL    HW235775   0.887   0.253  11.186  0.2275 -0.1704  0.0916
 8048SOL     OW35776   1.055   1.850   6.931  0.1420  0.5694  0.1415
 8048SOL    HW135777   1.055   1.907   6.854  2.4174 -1.1254 -1.1283
 8048SOL    HW235778   1.089   1.771   6.889 -0.6475  0.1635  0.2751
 8049SOL     OW35779   0.394   1.418   8.971  0.1897  0.0991  0.7874
 8049SOL    HW135780   0.319   1.477   8.970 -0.9189 -1.3965 -2.2592
 8049SOL    HW235781   0.375   1.378   9.056 -1.1187 -0.3602  0.2710
 8050SOL     OW35782   1.763   4.446   4.121 -0.3753 -0.0160  0.1698
 8050SOL    HW135783   1.827   4.431   4.190  1.5863  3.4099 -0.8857
 8050SOL    HW235784   1.756   4.363   4.073 -0.5200  0.5120 -0.7272
 8051SOL     OW35785   0.599   4.047  10.918 -0.2361  0.0029 -0.4805
 8051SOL    HW135786   0.653   4.119  10.951 -2.3131  0.5998  1.6326
 8051SOL    HW235787   0.514   4.084  10.895  0.2904  2.6241  1.7662
 8052SOL     OW35788   2.655   0.071  14.445  0.1181  0.0811 -0.4275
 8052SOL    HW135789   2.561   0.088  14.450  0.2513  0.4923  0.6241
 8052SOL    HW235790   2.680   4.728  14.495  2.3505  0.3271 -1.1294
 8053SOL     OW35791   4.078   3.520   2.394  0.2912  0.5985 -0.0274
 8053SOL    HW135792   4.162   3.530   2.350 -0.0563 -0.7222 -1.0026
 8053SOL    HW235793   4.020   3.575   2.340 -1.4428 -1.6049 -0.4440
 8054SOL     OW35794   4.201   0.508   7.611  0.3263 -0.0273 -0.2792
 8054SOL    HW135795   4.195   0.580   7.674  1.8814 -2.1176  2.2668
 8054SOL    HW235796   4.137   0.445   7.644 -1.2470  1.9388  0.4298
 8055SOL     OW35797   2.064   4.341  11.943 -0.0446  1.1371 -0.1419
 8055SOL    HW135798   2.134   4.361  12.004  1.2318 -1.7182 -0.7001
 8055SOL    HW235799   1.990   4.380  11.990 -1.1455  0.8756 -1.6498
 8056SOL     OW35800   1.186   1.450  12.442  0.4995 -0.2460  0.4726
 8056SOL    HW135801   1.245   1.465  12.516 -1.6392  0.5535  2.0350
 8056SOL    HW235802   1.221   1.371  12.401  0.0327  0.2830 -0.9558
 8057SOL     OW35803   4.133   3.060   6.194  0.4535  0.1982 -0.6618
 8057SOL    HW135804   4.186   3.098   6.124  2.5897  1.2754  1.4904
 8057SOL    HW235805   4.055   3.024   6.153  1.2554 -1.1278 -1.0354
 8058SOL     OW35806   0.381   3.802   1.243  0.0460  0.5570 -0.1674
 8058SOL    HW135807   0.416   3.822   1.329  0.7655 -1.1607 -0.0561
 8058SOL    HW235808   0.435   3.858   1.187 -0.7808 -0.8169 -2.3714
 8059SOL     OW35809   3.259   0.445   0.583  0.1732 -0.1923 -0.3746
 8059SOL    HW135810   3.331   0.509   0.588 -1.3643  1.4030  1.5513
 8059SOL    HW235811   3.293   0.382   0.520 -0.7807 -0.0873 -0.9904
 8060SOL     OW35812   2.473   4.429   6.007 -0.5242  0.0064 -0.2574
 8060SOL    HW135813   2.512   4.437   5.920 -2.8300 -0.9202 -1.3706
 8060SOL    HW235814   2.553   4.423   6.058 -1.0677  0.2042  0.6099
 8061SOL     OW35815   1.662   4.379   5.225  0.2144 -0.3396 -0.3315
 8061SOL    HW135816   1.656   4.423   5.310  0.2531  3.0788 -2.0951
 8061SOL    HW235817   1.616   4.437   5.164  1.6990  0.7133 -0.4547
 8062SOL     OW35818   3.136   3.863  11.339 -0.0348  0.5863 -0.2570
 8062SOL    HW135819   3.156   3.937  11.282 -0.7472  1.2856  0.4034
 8062SOL    HW235820   3.216   3.862  11.391 -0.1820 -0.4206 -0.0558
 8063SOL     OW35821   2.635   3.726   7.062  0.2535  0.2354 -0.7320
 8063SOL    HW135822   2.688   3.671   7.004 -1.7334 -2.0508 -0.4001
 8063SOL    HW235823   2.698   3.791   7.093 -0.1757  0.2942  0.0373
 8064SOL     OW35824   3.355   0.160   7.053  0.1669  0.3653 -0.3366
 8064SOL    HW135825   3.428   0.160   7.115 -0.6528 -1.1198  0.6414
 8064SOL    HW235826   3.389   0.219   6.986  0.6107  2.1566  1.4369
 8065SOL     OW35827   0.273   1.600   5.936  0.5200  0.6976  0.5682
 8065SOL    HW135828   0.286   1.535   5.867 -0.8580 -0.4724  1.4280
 8065SOL    HW235829   0.205   1.557   5.988  0.9004  0.5987  0.9782
 8066SOL     OW35830   0.742   1.888   2.565  0.7272 -0.1685  0.6203
 8066SOL    HW135831   0.673   1.825   2.543  0.5479  0.5214 -0.7959
 8066SOL    HW235832   0.695   1.912   2.646  1.0518 -3.0347  1.6622
 8067SOL     OW35833   0.997   3.972   7.741  0.0101  0.2351 -0.3299
 8067SOL    HW135834   0.954   3.954   7.824 -1.1033  1.9490 -0.5477
 8067SOL    HW235835   1.011   3.882   7.711 -0.3855  0.0345  0.0970
 8068SOL     OW35836   1.931   4.098   6.751  0.4585  0.9454 -0.2273
 8068SOL    HW135837   2.017   4.056   6.741  0.4108  0.5222  1.1776
 8068SOL    HW235838   1.882   4.016   6.749  1.5293  0.3269 -0.6850
 8069SOL     OW35839   3.351   3.700   7.333  0.5825 -0.1184 -0.4130
 8069SOL    HW135840   3.418   3.637   7.305  0.7620  0.0201 -0.2962
 8069SOL    HW235841   3.336   3.750   7.253  1.4303  1.4321  0.4000
 8070SOL     OW35842   0.085   1.114   3.108  0.9593 -0.2482  0.2700
 8070SOL    HW135843   0.006   1.061   3.098  2.1961 -2.1685  0.8675
 8070SOL    HW235844   0.045   1.192   3.069 -1.1811 -1.6740 -0.3925
 8071SOL     OW35845   1.567   1.683  13.739  0.3067 -0.4073  0.7618
 8071SOL    HW135846   1.553   1.772  13.706  0.0785 -0.6072  0.3239
 8071SOL    HW235847   1.585   1.704  13.831  0.0232  3.7912 -0.1467
 8072SOL     OW35848   4.325   3.322   8.044 -0.6890 -0.5402 -0.2096
 8072SOL    HW135849   4.359   3.302   8.131 -1.0005 -2.1813 -0.4671
 8072SOL    HW235850   4.323   3.417   8.050 -1.9132 -0.4595 -1.7372
 8073SOL     OW35851   1.733   0.759  17.395 -0.3933 -0.1126  0.4580
 8073SOL    HW135852   1.727   0.786  17.304  1.0931 -2.0248 -0.2031
 8073SOL    HW235853   1.813   0.706  17.391 -0.2183  0.0495  1.6212
 8074SOL     OW35854   0.684   1.527   7.484 -0.5164  0.1871  0.6774
 8074SOL    HW135855   0.688   1.436   7.513  2.6601  0.0724 -0.1438
 8074SOL    HW235856   0.778   1.545   7.477 -0.7001 -0.4744 -3.7733
 8075SOL     OW35857   0.455   4.636   7.553 -0.0171  0.2378 -0.5314
 8075SOL    HW135858   0.374   4.622   7.504  0.3238  0.5053 -1.1747
 8075SOL    HW235859   0.434   4.713   7.606 -2.3308  0.0892 -1.2221
 8076SOL     OW35860   0.303   2.649   5.668 -0.2507  0.2345  0.1840
 8076SOL    HW135861   0.220   2.648   5.715 -1.1440 -0.3327 -1.3942
 8076SOL    HW235862   0.321   2.555   5.679  0.6164  0.3840  0.0464
 8077SOL     OW35863   1.398   2.042  11.549 -0.1499  1.1292 -0.7373
 8077SOL    HW135864   1.457   1.967  11.536  1.6342  2.4497 -0.3049
 8077SOL    HW235865   1.352   2.014  11.628  1.3372  0.3991 -0.1084
 8078SOL     OW35866   3.666   0.323  11.866 -0.6043  0.2569 -0.4047
 8078SOL    HW135867   3.676   0.416  11.888 -2.2652  0.1998  0.5853
 8078SOL    HW235868   3.577   0.304  11.894 -0.7986  1.2987 -0.3352
 8079SOL     OW35869   3.725   4.353   1.175 -0.2539 -0.7067 -0.2987
 8079SOL    HW135870   3.780   4.345   1.253 -0.2895 -1.3467 -0.3403
 8079SOL    HW235871   3.731   4.260   1.150  2.1326 -1.0381  1.4742
 8080SOL     OW35872   4.184   3.008  11.631  0.2017 -0.1211  0.2114
 8080SOL    HW135873   4.197   2.985  11.723 -1.4424 -3.1303 -0.3167
 8080SOL    HW235874   4.232   3.091  11.627 -0.1639  0.0506 -0.4728
 8081SOL     OW35875   4.536   2.779  13.204 -0.1141  0.5606  0.3556
 8081SOL    HW135876   4.459   2.724  13.220  0.1600 -0.0230 -0.3139
 8081SOL    HW235877   4.552   2.762  13.111 -2.8826  0.5135 -0.1251
 8082SOL     OW35878   3.012   4.322   9.859  0.0671 -0.0378 -0.3527
 8082SOL    HW135879   3.024   4.271   9.938  0.2932  0.7130  0.0977
 8082SOL    HW235880   3.088   4.380   9.871  0.6563 -0.7561 -0.5837
 8083SOL     OW35881   3.418   3.669   6.112  0.0536 -0.4702  0.3533
 8083SOL    HW135882   3.451   3.612   6.182 -0.7777 -1.7621 -0.3089
 8083SOL    HW235883   3.335   3.695   6.154 -0.4556 -1.1760 -0.2253
 8084SOL     OW35884   3.827   4.350   4.860 -0.1956 -0.1439 -0.1790
 8084SOL    HW135885   3.828   4.290   4.785  1.0847 -0.2438 -0.0787
 8084SOL    HW235886   3.799   4.427   4.811 -0.7216  0.5692  1.2670
 8085SOL     OW35887   1.805   1.891  14.970 -0.3584 -0.5326  0.0020
 8085SOL    HW135888   1.845   1.864  15.053  1.3314 -0.6499 -0.8454
 8085SOL    HW235889   1.826   1.984  14.970 -0.9171 -0.4095  0.1815
 8086SOL     OW35890   1.426   2.775   6.535  0.0301 -0.0426 -0.3085
 8086SOL    HW135891   1.336   2.809   6.538 -0.5592 -1.3049 -3.8353
 8086SOL    HW235892   1.442   2.764   6.628 -1.3802  1.8073  0.1386
 8087SOL     OW35893   3.049   0.434  12.562 -0.4959 -0.2348 -0.0600
 8087SOL    HW135894   3.044   0.416  12.656  1.7591 -1.6313 -0.2181
 8087SOL    HW235895   2.956   0.455  12.550 -0.3322  0.1567 -0.6914
 8088SOL     OW35896   4.183   4.151   8.566  0.8609  0.1021  0.0989
 8088SOL    HW135897   4.220   4.236   8.591 -0.2597  0.1470  1.6434
 8088SOL    HW235898   4.229   4.100   8.632  0.0741 -1.3296 -0.4770
 8089SOL     OW35899   3.337   1.079   4.037  0.0599 -0.6786 -0.8215
 8089SOL    HW135900   3.369   1.075   3.947  0.2109  1.4296 -0.8541
 8089SOL    HW235901   3.290   1.162   4.031 -0.4905 -0.7184  2.7703
 8090SOL     OW35902   1.673   1.516   2.403  0.2771  0.1516  0.1542
 8090SOL    HW135903   1.656   1.424   2.425 -0.0551  0.1083 -0.3008
 8090SOL    HW235904   1.766   1.516   2.426  0.0942  1.8095  0.8667
 8091SOL     OW35905   2.950   2.455   8.023  0.2981  0.1528  0.3981
 8091SOL    HW135906   2.918   2.397   7.954 -3.4861  1.3303  1.1560
 8091SOL    HW235907   3.022   2.504   7.984  0.4401  0.3730  0.9293
 8092SOL     OW35908   2.113   4.088   5.505 -0.0430 -0.1255 -0.1946
 8092SOL    HW135909   2.175   4.123   5.440 -0.4471 -0.3014 -0.6726
 8092SOL    HW235910   2.110   4.159   5.568  3.4001 -0.5054  0.4116
 8093SOL     OW35911   0.760   3.942   1.981 -0.3935 -0.1273  0.2026
 8093SOL    HW135912   0.848   3.962   2.013 -0.6330 -1.6084  1.7541
 8093SOL    HW235913   0.765   3.847   1.994  0.7469  0.2956  2.8267
 8094SOL     OW35914   1.861   2.712  11.132  0.5306 -0.1434 -0.2646
 8094SOL    HW135915   1.912   2.637  11.104  0.9372 -0.6700  1.9200
 8094SOL    HW235916   1.928   2.768  11.172  0.5114  1.1181 -1.9612
 8095SOL     OW35917   3.146   0.701   0.612 -0.2282 -0.2205 -0.5720
 8095SOL    HW135918   3.197   0.638   0.561 -0.8269 -1.2719  0.1276
 8095SOL    HW235919   3.101   0.749   0.542 -1.4686 -1.2204 -0.4705
 8096SOL     OW35920   3.659   0.070   6.336 -0.1778  0.0020 -0.0399
 8096SOL    HW135921   3.662   0.001   6.403 -0.4940 -0.1697 -0.2012
 8096SOL    HW235922   3.733   0.042   6.282  0.4192 -0.2446  0.8906
 8097SOL     OW35923   3.757   0.779   6.186 -0.2111  0.1671 -0.1019
 8097SOL    HW135924   3.744   0.849   6.122 -0.3589  0.7336  0.5437
 8097SOL    HW235925   3.698   0.815   6.252  0.0061  0.7762 -0.2421
 8098SOL     OW35926   3.122   2.080   6.414 -0.4440  0.7490  0.0078
 8098SOL    HW135927   3.092   2.067   6.324  0.3130  0.6768 -0.2354
 8098SOL    HW235928   3.041   2.097   6.462  0.0491  0.4782  0.9459
 8099SOL     OW35929   0.122   3.386   5.159 -0.7571  0.1643  0.2192
 8099SOL    HW135930   0.183   3.446   5.202 -1.2511 -0.4807  1.7991
 8099SOL    HW235931   0.110   3.449   5.087 -1.5479  0.0473  0.2432
 8100SOL     OW35932   3.825   0.556  15.736 -0.3243 -0.2243  0.7989
 8100SOL    HW135933   3.904   0.506  15.754 -0.6431 -1.3222 -0.8237
 8100SOL    HW235934   3.842   0.597  15.651 -0.6781 -1.8180 -0.0384
 8101SOL     OW35935   0.830   2.569  12.703  0.5697 -0.4720 -0.6479
 8101SOL    HW135936   0.822   2.640  12.767 -0.4191  0.5284 -1.8690
 8101SOL    HW235937   0.757   2.516  12.735  1.5494 -2.2182 -1.3338
 8102SOL     OW35938   2.404   0.119   9.203 -0.2176 -0.1456 -0.1087
 8102SOL    HW135939   2.495   0.103   9.176 -0.9889 -1.6670 -1.8186
 8102SOL    HW235940   2.389   0.213   9.193 -2.0641 -0.4923 -0.5681
 8103SOL     OW35941   0.698   0.540   8.653  0.1862  0.1860 -0.1507
 8103SOL    HW135942   0.613   0.496   8.657 -0.8070  2.3066  2.1250
 8103SOL    HW235943   0.746   0.462   8.627 -1.5933 -1.0015  0.0999
 8104SOL     OW35944   2.474   0.643  11.762  0.3367  0.0748 -0.4477
 8104SOL    HW135945   2.546   0.683  11.712  1.3487  1.4501  2.1251
 8104SOL    HW235946   2.399   0.653  11.703  1.3113  0.4101 -1.6426
 8105SOL     OW35947   4.689   1.070  14.900  0.2433  0.0257 -0.0903
 8105SOL    HW135948   4.661   0.980  14.919  0.7866 -0.1767 -0.2335
 8105SOL    HW235949   4.661   1.074  14.808  3.6911 -2.5809 -1.2676
 8106SOL     OW35950   1.477   3.895   8.141  0.3674 -0.0853  0.4396
 8106SOL    HW135951   1.551   3.910   8.200  0.4119 -4.1055  1.4291
 8106SOL    HW235952   1.406   3.893   8.204 -0.4968 -1.7472 -0.5744
 8107SOL     OW35953   4.202   3.950   6.293  0.3798  0.1530 -0.1113
 8107SOL    HW135954   4.204   3.967   6.387 -1.3862  0.8978 -0.2178
 8107SOL    HW235955   4.261   3.875   6.290  0.9045  0.5545  0.1023
 8108SOL     OW35956   3.174   3.462   5.715 -0.0769 -0.2132 -0.5771
 8108SOL    HW135957   3.259   3.443   5.753  0.0816  2.3676  0.3857
 8108SOL    HW235958   3.200   3.543   5.670 -0.0571 -0.9464 -1.9013
 8109SOL     OW35959   3.162   3.634   3.007 -0.0192  0.2127 -0.3252
 8109SOL    HW135960   3.158   3.623   2.912  0.9975 -0.5082 -0.2820
 8109SOL    HW235961   3.078   3.592   3.024  0.7217 -0.9590  0.4063
 8110SOL     OW35962   1.808   3.276  13.814  0.3008 -0.6162  0.3486
 8110SOL    HW135963   1.717   3.273  13.842 -0.1282  0.9518 -0.8669
 8110SOL    HW235964   1.849   3.342  13.870  0.3083  0.9029 -1.4569
 8111SOL     OW35965   2.488   0.106  12.176  0.5062 -0.3951 -0.0784
 8111SOL    HW135966   2.485   0.011  12.179 -1.1434 -0.3375 -0.0113
 8111SOL    HW235967   2.456   0.116  12.265 -0.7921  1.6843 -0.7664
 8112SOL     OW35968   0.711   0.015   0.219  0.6252  0.3828 -0.1448
 8112SOL    HW135969   0.779   0.030   0.153 -0.3629  1.4462 -0.9217
 8112SOL    HW235970   0.643   0.074   0.186  1.0701  0.7196 -0.4644
 8113SOL     OW35971   3.241   0.017  11.682 -0.0683  0.1928 -0.1332
 8113SOL    HW135972   3.156   0.025  11.639 -1.9787 -0.5597  3.4733
 8113SOL    HW235973   3.198   0.023  11.768 -0.0571  1.0793 -0.1957
 8114SOL     OW35974   4.210   0.034   6.376 -0.2563  0.2470  0.0452
 8114SOL    HW135975   4.258   0.044   6.458 -0.6346  0.2985  0.2604
 8114SOL    HW235976   4.281   0.012   6.316  0.4509  0.2948  0.8706
 8115SOL     OW35977   4.082   2.243   3.072 -0.1083 -0.3127 -1.1687
 8115SOL    HW135978   4.023   2.179   3.112  1.6794 -0.4407  1.3489
 8115SOL    HW235979   4.142   2.251   3.147  0.0030  1.3490 -1.4481
 8116SOL     OW35980   4.370   0.563   3.237 -0.2627 -0.6625  0.0668
 8116SOL    HW135981   4.321   0.620   3.296 -0.8341 -0.2253 -0.8356
 8116SOL    HW235982   4.312   0.497   3.200 -0.8176 -0.1442  0.0218
 8117SOL     OW35983   1.998   0.995   4.764 -0.0350 -0.3085 -0.6325
 8117SOL    HW135984   1.987   0.917   4.819  0.7175 -0.6294 -0.9387
 8117SOL    HW235985   1.942   0.974   4.690 -0.3087  0.0286 -0.5179
 8118SOL     OW35986   2.287   2.103  11.885  0.3376 -0.1992  0.4130
 8118SOL    HW135987   2.356   2.158  11.923 -2.0106  0.5670  3.4892
 8118SOL    HW235988   2.233   2.076  11.959  0.8654 -2.1188  0.1025
 8119SOL     OW35989   3.273   1.816   3.326 -0.0303 -0.5182 -0.8104
 8119SOL    HW135990   3.328   1.851   3.256 -0.3027  0.4801 -0.5180
 8119SOL    HW235991   3.277   1.721   3.318  1.7598 -0.4606 -0.6880
 8120SOL     OW35992   0.252   1.746   5.153  0.0664 -0.1096  0.0960
 8120SOL    HW135993   0.246   1.837   5.122  0.3964  0.4470  1.6630
 8120SOL    HW235994   0.303   1.711   5.080  0.5417  0.1521  0.3054
 8121SOL     OW35995   0.116   4.088   6.105 -0.5459 -0.1362  0.2121
 8121SOL    HW135996   0.082   4.054   6.187 -1.0023  1.6670  0.7851
 8121SOL    HW235997   0.099   4.180   6.128  0.6347  0.7267 -2.3088
 8122SOL     OW35998   2.242   2.664   2.636 -0.1393 -0.4694 -0.4173
 8122SOL    HW135999   2.149   2.640   2.630 -0.7832  2.5856 -2.6354
 8122SOL    HW236000   2.272   2.687   2.548  1.0542 -0.1920  0.0678
 8123SOL     OW36001   4.055   4.047   0.276  0.5795  0.7482 -0.5338
 8123SOL    HW136002   4.015   3.992   0.208 -0.3937  0.6663  0.1080
 8123SOL    HW236003   4.149   4.050   0.255  0.3777  2.2799 -1.2254
 8124SOL     OW36004   0.525   1.912   6.814 -0.2054 -0.0555 -0.1148
 8124SOL    HW136005   0.607   1.920   6.766  0.0584 -0.2328  0.3090
 8124SOL    HW236006   0.479   1.990   6.782 -0.5617 -0.4820 -0.6357
 8125SOL     OW36007   4.641   1.165   1.898  0.3093 -0.1015 -0.2776
 8125SOL    HW136008   4.635   1.194   1.807 -1.0992  0.4530 -0.0114
 8125SOL    HW236009   4.655   1.071   1.895 -0.5489 -0.1375 -2.5947
 8126SOL     OW36010   3.624   0.523  12.864 -0.0948 -0.1138  0.6260
 8126SOL    HW136011   3.597   0.472  12.788 -0.5011 -0.0278  0.7133
 8126SOL    HW236012   3.555   0.494  12.924 -1.4514  1.7053 -0.0429
 8127SOL     OW36013   1.134   0.646   7.392 -0.6529 -0.5802  0.0026
 8127SOL    HW136014   1.054   0.600   7.419  0.1448 -2.0435 -0.1240
 8127SOL    HW236015   1.111   0.739   7.399 -3.2514 -1.1265 -1.1759
 8128SOL     OW36016   0.379   4.235   6.095  0.2392  0.2007 -0.4093
 8128SOL    HW136017   0.363   4.296   6.023 -1.2869  2.6303  2.0077
 8128SOL    HW236018   0.303   4.178   6.082  0.7765  0.0069 -2.8512
 8129SOL     OW36019   4.206   3.692   7.109  0.2894 -0.4206 -0.8530
 8129SOL    HW136020   4.233   3.737   7.029  3.5256 -0.0990  0.4272
 8129SOL    HW236021   4.280   3.632   7.117  0.8475  0.1869 -1.4487
 8130SOL     OW36022   1.482   0.341  12.701  0.2106 -0.5322  0.1990
 8130SOL    HW136023   1.519   0.258  12.669 -0.4960  0.4362 -3.1152
 8130SOL    HW236024   1.389   0.331  12.679  0.9147 -1.8120 -2.2088
 8131SOL     OW36025   3.181   3.462   6.440 -0.2938 -0.1204 -0.5337
 8131SOL    HW136026   3.256   3.409   6.466 -0.1161  0.5650  0.3478
 8131SOL    HW236027   3.114   3.443   6.506  0.6302  0.1876  0.4857
 8132SOL     OW36028   3.935   1.241  17.449 -0.3408  0.5669 -0.0305
 8132SOL    HW136029   3.849   1.271  17.421  0.4753  1.1897 -1.8065
 8132SOL    HW236030   3.993   1.271  17.379  3.4847 -0.5046  2.6186
 8133SOL     OW36031   2.328   2.239   2.459 -0.2395 -0.1846  0.2341
 8133SOL    HW136032   2.386   2.180   2.410 -1.0824 -2.5480  2.0588
 8133SOL    HW236033   2.354   2.322   2.421  0.5836  0.0485  1.2940
 8134SOL     OW36034   3.099   0.064   8.988 -0.0999  0.0057  0.1660
 8134SOL    HW136035   3.066   0.137   8.936 -0.0882  0.0695  0.2475
 8134SOL    HW236036   3.023   0.008   8.976  1.0508 -1.5003 -0.0640
 8135SOL     OW36037   1.068   0.941   4.194 -0.2693  0.0966 -0.3276
 8135SOL    HW136038   0.975   0.961   4.185 -0.3988 -0.4617 -0.2456
 8135SOL    HW236039   1.073   0.858   4.147  0.9032  0.2455 -0.4629
 8136SOL     OW36040   3.499   0.660  12.348  0.0419 -0.3107  0.2865
 8136SOL    HW136041   3.570   0.640  12.409 -0.2595 -0.6293  0.5388
 8136SOL    HW236042   3.429   0.620  12.400 -0.7190 -0.7009 -1.0143
 8137SOL     OW36043   1.440   3.565   6.672 -0.5997 -0.3191 -0.1154
 8137SOL    HW136044   1.436   3.472   6.694  2.3249 -0.0091  1.7697
 8137SOL    HW236045   1.515   3.599   6.720 -0.7776 -0.9314  0.5904
 8138SOL     OW36046   3.326   4.303   8.672 -0.9087 -0.3203 -0.0334
 8138SOL    HW136047   3.410   4.347   8.678  0.2428 -2.5576  0.2575
 8138SOL    HW236048   3.348   4.218   8.635 -1.0028 -1.6710  2.9991
 8139SOL     OW36049   2.530   2.434   8.459  0.3712 -0.5720 -0.0347
 8139SOL    HW136050   2.591   2.416   8.388  0.8696  0.3272  0.1690
 8139SOL    HW236051   2.448   2.430   8.409  1.1736  0.9548 -1.4535
 8140SOL     OW36052   2.509   0.575   6.263  0.3278 -0.1660  0.3634
 8140SOL    HW136053   2.465   0.526   6.333 -0.2951 -0.0719  0.0335
 8140SOL    HW236054   2.435   0.604   6.209  0.3651  0.9829  0.9219
 8141SOL     OW36055   3.165   2.708   4.756 -0.1390  0.1096 -0.1224
 8141SOL    HW136056   3.222   2.768   4.804 -1.2495  1.4632 -0.4881
 8141SOL    HW236057   3.215   2.627   4.752 -0.6807 -0.2260 -0.0676
 8142SOL     OW36058   2.079   4.248   1.720 -0.0477  0.3891 -0.7248
 8142SOL    HW136059   2.104   4.167   1.764  0.7481 -0.4559 -2.7521
 8142SOL    HW236060   2.105   4.233   1.629 -0.4049  0.4619 -0.8392
 8143SOL     OW36061   4.690   0.565   3.268  0.0759 -0.3547 -0.4606
 8143SOL    HW136062   4.722   0.499   3.330  1.1222 -0.2689 -0.9109
 8143SOL    HW236063   4.595   0.555   3.263 -0.1262  0.8634  0.9559
 8144SOL     OW36064   2.803   0.607   4.112  0.0145 -0.2299 -0.1830
 8144SOL    HW136065   2.723   0.655   4.090 -1.0107 -0.6148  2.7071
 8144SOL    HW236066   2.844   0.581   4.029 -1.9155  0.2788 -1.2825
 8145SOL     OW36067   4.410   0.782  10.857  0.5283 -0.2385  0.6443
 8145SOL    HW136068   4.464   0.828  10.793 -1.1466  1.8495  0.7271
 8145SOL    HW236069   4.447   0.811  10.940  0.6618  0.2487  0.4185
 8146SOL     OW36070   3.607   2.178  10.286 -0.0758  0.0917  0.0354
 8146SOL    HW136071   3.571   2.267  10.282 -0.4835  0.0882  3.2124
 8146SOL    HW236072   3.532   2.137  10.330  0.1291  0.3672  0.6503
 8147SOL     OW36073   1.514   2.872   9.203 -0.4494 -0.3396 -0.1583
 8147SOL    HW136074   1.423   2.895   9.220 -0.1220  0.6396  0.2796
 8147SOL    HW236075   1.547   2.882   9.293 -2.1019  0.9903  0.2895
 8148SOL     OW36076   3.549   2.235  17.705 -0.0478  0.0057  0.2264
 8148SOL    HW136077   3.463   2.195  17.718 -0.6784  1.4658  0.5953
 8148SOL    HW236078   3.572   2.256   0.059  1.9504 -1.2850  0.0336
 8149SOL     OW36079   0.937   2.724   9.986 -0.0917  0.4253  0.0260
 8149SOL    HW136080   1.000   2.792  10.009  0.3788 -0.3880  1.1429
 8149SOL    HW236081   0.864   2.779   9.956 -0.0784  0.0502 -0.6940
 8150SOL     OW36082   1.029   2.360  13.411 -0.0227  0.2526 -0.3050
 8150SOL    HW136083   1.047   2.447  13.377  0.8151  0.1863 -0.0440
 8150SOL    HW236084   0.939   2.381  13.434  0.2802  0.6484  0.5253
 8151SOL     OW36085   4.300   3.538  12.064  1.2405  0.3389  0.3963
 8151SOL    HW136086   4.381   3.488  12.050  0.4966 -0.9944  0.8132
 8151SOL    HW236087   4.283   3.525  12.158 -1.3575 -0.8754 -0.2320
 8152SOL     OW36088   2.345   1.106   8.041 -0.2656  0.5824  0.3481
 8152SOL    HW136089   2.304   1.062   7.966 -2.1484 -0.1315  1.7931
 8152SOL    HW236090   2.413   1.048   8.074 -0.0736  1.1776  1.0056
 8153SOL     OW36091   0.339   2.835  10.940  1.2213  0.3542 -0.0776
 8153SOL    HW136092   0.423   2.876  10.916  0.1586  1.5064 -1.8779
 8153SOL    HW236093   0.284   2.864  10.867  0.5687  0.0009  0.2806
 8154SOL     OW36094   1.295   2.821   1.700 -0.2045 -0.0908 -0.5849
 8154SOL    HW136095   1.227   2.876   1.661 -1.2365  1.0011  2.6953
 8154SOL    HW236096   1.300   2.741   1.649  0.3156 -0.2489 -0.2877
 8155SOL     OW36097   1.614   3.533  10.242  0.3962 -0.4015  0.2893
 8155SOL    HW136098   1.639   3.441  10.232  2.6839 -0.0450  2.4806
 8155SOL    HW236099   1.661   3.550  10.324  1.4539 -1.6487 -0.0593
 8156SOL     OW36100   1.698   4.386   6.873 -0.4224 -0.0760 -0.2278
 8156SOL    HW136101   1.652   4.304   6.889  0.4887 -0.7095 -0.8132
 8156SOL    HW236102   1.643   4.461   6.896  1.5359  1.2478  0.1989
 8157SOL     OW36103   4.107   2.170   3.486 -0.6579  0.1861 -0.2749
 8157SOL    HW136104   4.118   2.180   3.580 -0.7202 -0.0684 -0.2384
 8157SOL    HW236105   4.014   2.193   3.479 -0.9639 -0.8750  0.2620
 8158SOL     OW36106   3.536   0.202   2.497  0.0316  0.3746  0.2731
 8158SOL    HW136107   3.470   0.154   2.447  1.3385 -2.3322  1.1402
 8158SOL    HW236108   3.597   0.130   2.513 -3.0714 -2.5390 -1.0956
 8159SOL     OW36109   3.908   3.225  14.801  0.2908  0.5010  0.0165
 8159SOL    HW136110   3.962   3.228  14.880  2.9261 -0.1308 -1.7656
 8159SOL    HW236111   3.979   3.240  14.738  0.4055 -0.0490  0.0112
 8160SOL     OW36112   1.103   0.893   2.875 -0.0604 -0.6555  0.0705
 8160SOL    HW136113   1.074   0.911   2.965 -2.5454 -4.1510 -0.0428
 8160SOL    HW236114   1.148   0.811   2.898  1.7401  0.4543  0.4920
 8161SOL     OW36115   2.113   1.373  17.482  0.2312 -0.4390 -0.2399
 8161SOL    HW136116   2.097   1.305  17.547 -0.1966  0.1851  0.3008
 8161SOL    HW236117   2.194   1.409  17.518 -0.9292  0.3155  1.6084
 8162SOL     OW36118   1.303   2.458   7.878  0.1530  0.0074 -0.0325
 8162SOL    HW136119   1.314   2.402   7.955  0.4156 -1.9418 -1.4837
 8162SOL    HW236120   1.333   2.546   7.903  0.1542 -0.0970  0.3418
 8163SOL     OW36121   1.363   1.699   9.238 -0.1151 -0.9854  0.3740
 8163SOL    HW136122   1.298   1.743   9.183 -0.7090  0.0474  1.9167
 8163SOL    HW236123   1.349   1.737   9.324 -1.1820 -0.0504 -0.2138
 8164SOL     OW36124   1.469   0.194  10.626  0.1056 -0.1072 -0.3248
 8164SOL    HW136125   1.510   0.156  10.703 -0.8224 -0.7880 -0.1744
 8164SOL    HW236126   1.537   0.178  10.560 -0.8363  0.1962 -1.3599
 8165SOL     OW36127   2.286   2.252   5.412  0.0272 -0.0113 -0.2026
 8165SOL    HW136128   2.335   2.252   5.494 -0.3276  0.5384  0.0124
 8165SOL    HW236129   2.328   2.177   5.371  2.2184  1.5511 -0.8447
 8166SOL     OW36130   3.820   4.605  10.640 -0.3463  0.4477  0.6767
 8166SOL    HW136131   3.793   4.605  10.548  2.9018 -1.9187 -0.2557
 8166SOL    HW236132   3.914   4.599  10.624 -0.6564 -3.0139  0.0821
 8167SOL     OW36133   1.507   2.998   0.748  0.4452 -0.4367 -0.2225
 8167SOL    HW136134   1.557   2.920   0.724 -0.2951 -0.3514 -2.0843
 8167SOL    HW236135   1.501   3.039   0.662  1.1667 -3.0979 -1.5712
 8168SOL     OW36136   3.671   0.665   9.081 -0.2593 -0.3951 -0.1943
 8168SOL    HW136137   3.582   0.690   9.054 -0.6921 -4.1058 -2.2330
 8168SOL    HW236138   3.697   0.611   9.007  2.3370  0.2553  0.2568
 8169SOL     OW36139   2.155   3.074   3.577  0.4902 -0.0630 -0.3244
 8169SOL    HW136140   2.118   3.121   3.652 -0.8697 -0.4336 -0.7553
 8169SOL    HW236141   2.137   3.133   3.505  1.2145  0.4455 -0.0841
 8170SOL     OW36142   2.457   3.413   0.730  0.0591 -0.7327 -0.0282
 8170SOL    HW136143   2.384   3.465   0.763  0.2648 -0.4494 -0.0201
 8170SOL    HW236144   2.411   3.329   0.724 -1.5337  0.1402 -0.0298
 8171SOL     OW36145   1.950   1.926  12.953 -0.1005  0.2731  0.4029
 8171SOL    HW136146   2.018   1.873  12.995 -0.1195 -0.8294 -0.9350
 8171SOL    HW236147   1.918   1.977  13.027 -0.2947  2.0959 -0.9471
 8172SOL     OW36148   0.734   0.957   8.774  0.0900  0.1609 -0.9208
 8172SOL    HW136149   0.764   0.907   8.698 -1.4019  0.8351 -1.9585
 8172SOL    HW236150   0.763   1.040   8.734 -3.2679  1.2074 -1.2154
 8173SOL     OW36151   2.306   0.005   2.929  0.8103 -0.1140  0.3120
 8173SOL    HW136152   2.248   4.703   2.995 -1.0151  3.1283  0.5060
 8173SOL    HW236153   2.376   4.674   2.926 -0.4045 -1.3247 -1.6335
 8174SOL     OW36154   1.913   2.049   5.384  0.0591  0.4318  0.1281
 8174SOL    HW136155   1.843   2.072   5.323 -1.8881 -0.0981  2.1602
 8174SOL    HW236156   1.961   1.988   5.328 -2.1408 -0.7668 -0.4617
 8175SOL     OW36157   0.444   1.927   2.140 -0.1976  0.3149  0.6380
 8175SOL    HW136158   0.426   1.848   2.191  0.3653  1.0056  1.9059
 8175SOL    HW236159   0.464   1.997   2.202 -0.5523  0.3416  0.7197
 8176SOL     OW36160   2.556   0.577   0.535  0.0782  0.5327  0.1729
 8176SOL    HW136161   2.577   0.574   0.442 -0.8044 -0.5526  0.0112
 8176SOL    HW236162   2.512   0.493   0.549 -2.3284  1.8571  0.5178
 8177SOL     OW36163   2.748   0.747   0.626  0.6485  0.1290 -0.0584
 8177SOL    HW136164   2.718   0.657   0.613  1.5779 -0.5461  2.3601
 8177SOL    HW236165   2.701   0.765   0.707 -1.8716 -2.1564 -1.0043
 8178SOL     OW36166   2.722   3.113   2.991 -0.2422  0.4759 -0.2505
 8178SOL    HW136167   2.763   3.057   3.058 -1.9483  1.9708  2.0607
 8178SOL    HW236168   2.760   3.079   2.910 -1.8587 -2.7892  0.3828
 8179SOL     OW36169   1.849   4.055   5.807  0.1927  0.0033  0.1362
 8179SOL    HW136170   1.774   3.995   5.811  1.4235 -1.4873  0.6827
 8179SOL    HW236171   1.806   4.140   5.804 -0.7488 -0.5105 -0.9216
 8180SOL     OW36172   0.142   0.363   1.036 -0.5820  0.4670  0.0542
 8180SOL    HW136173   0.099   0.353   0.951 -0.5975  2.1815 -0.1498
 8180SOL    HW236174   0.216   0.301   1.034 -1.3061 -0.3775 -0.3431
 8181SOL     OW36175   1.003   1.283   2.398 -0.1505 -0.2101 -0.0221
 8181SOL    HW136176   1.083   1.282   2.450  1.1189 -1.5863 -1.9997
 8181SOL    HW236177   0.947   1.332   2.459  1.4398  1.2523  0.2691
 8182SOL     OW36178   4.091   4.324   7.227 -0.2054 -0.0555  0.7158
 8182SOL    HW136179   4.088   4.404   7.280 -0.5253 -1.0388  2.1529
 8182SOL    HW236180   4.185   4.318   7.209  0.0404 -0.2114  2.0315
 8183SOL     OW36181   2.579   0.244   0.836 -0.1394  0.3423  0.5708
 8183SOL    HW136182   2.628   0.315   0.793 -0.7350  0.2867 -0.2118
 8183SOL    HW236183   2.651   0.188   0.863  0.4522  1.5982  1.5546
 8184SOL     OW36184   2.432   2.400   3.958 -0.0144 -0.3530 -0.0747
 8184SOL    HW136185   2.430   2.493   3.980  1.2732  0.0179 -1.5700
 8184SOL    HW236186   2.446   2.405   3.863  3.2194 -0.5163  0.4224
 8185SOL     OW36187   2.209   2.163  16.552 -0.3775  0.3836 -0.4137
 8185SOL    HW136188   2.302   2.149  16.570  0.0136  0.4209 -2.3702
 8185SOL    HW236189   2.225   2.213  16.472  1.3437 -1.4014 -1.1610
 8186SOL     OW36190   0.898   2.483  10.112  0.1168  0.3069 -0.7453
 8186SOL    HW136191   0.857   2.560  10.072 -1.7431  0.3390  1.2124
 8186SOL    HW236192   0.972   2.522  10.159  0.1333 -3.0687  2.0515
 8187SOL     OW36193   3.873   0.561   1.373  0.4634  0.2045 -0.2152
 8187SOL    HW136194   3.885   0.655   1.382  0.3288 -0.1338  3.4601
 8187SOL    HW236195   3.861   0.551   1.278 -2.8234 -0.4835  0.2505
 8188SOL     OW36196   2.650   2.330  15.435  0.1451  0.0866  0.9110
 8188SOL    HW136197   2.738   2.318  15.398 -0.2587  1.6388 -0.5213
 8188SOL    HW236198   2.611   2.380  15.364 -1.5222  0.0904  1.8240
 8189SOL     OW36199   0.987   0.644   6.513  0.0336 -0.2078  0.4665
 8189SOL    HW136200   0.931   0.579   6.471  0.1233  0.5857 -0.8929
 8189SOL    HW236201   1.078   0.617   6.502 -0.0521 -1.0656  1.8184
 8190SOL     OW36202   3.300   1.390   2.429  0.2085  0.7171 -0.3765
 8190SOL    HW136203   3.292   1.414   2.521 -0.4610 -1.3464  0.1025
 8190SOL    HW236204   3.290   1.295   2.430 -1.5035  0.9023 -0.8450
 8191SOL     OW36205   2.629   1.793   7.689 -0.2260 -0.0387  0.5040
 8191SOL    HW136206   2.674   1.864   7.735 -0.5567  0.5304 -0.0591
 8191SOL    HW236207   2.639   1.717   7.746  0.9958  0.6980  1.2725
 8192SOL     OW36208   0.595   3.043  14.276 -0.1947  0.1200  0.2693
 8192SOL    HW136209   0.632   2.958  14.252  0.9671  0.3713  1.1787
 8192SOL    HW236210   0.566   3.087  14.195  0.0077 -0.4718 -0.1231
 8193SOL     OW36211   1.280   3.197   5.244  0.0469 -0.0870  0.3411
 8193SOL    HW136212   1.368   3.230   5.225  0.1749 -0.8463 -0.3668
 8193SOL    HW236213   1.235   3.233   5.167 -1.0277 -0.6915  0.6899
 8194SOL     OW36214   1.292   4.160   9.416 -0.5735  0.3121  0.0939
 8194SOL    HW136215   1.363   4.170   9.353 -1.2909  0.8027 -0.6312
 8194SOL    HW236216   1.283   4.246   9.458  2.4764  0.7460 -0.1417
 8195SOL     OW36217   2.145   0.472  11.623 -0.3373  1.0722 -0.0945
 8195SOL    HW136218   2.050   0.476  11.636 -0.1433  0.7119  1.5482
 8195SOL    HW236219   2.163   0.411  11.696  1.5108 -0.4817 -1.8712
 8196SOL     OW36220   1.267   1.451   2.086  0.5593 -0.4277 -0.3970
 8196SOL    HW136221   1.195   1.388   2.074  0.6621 -0.6423  0.1333
 8196SOL    HW236222   1.232   1.517   2.145 -0.2251 -0.6791 -0.5709
 8197SOL     OW36223   2.209   1.408   6.096  0.0997 -0.1749 -0.3627
 8197SOL    HW136224   2.167   1.443   6.017  0.2423  0.5815 -0.0937
 8197SOL    HW236225   2.238   1.494   6.125 -0.1311 -0.6706  1.3329
 8198SOL     OW36226   3.055   3.669  16.829  0.1983  0.1985  0.0975
 8198SOL    HW136227   3.014   3.627  16.754 -1.9753  0.5655  1.0872
 8198SOL    HW236228   3.078   3.596  16.887 -0.6143 -0.8246 -0.8874
 8199SOL     OW36229   4.601   1.599   5.964  0.2857  0.7328 -0.1452
 8199SOL    HW136230   4.517   1.618   5.923  0.1935  0.3534 -0.1272
 8199SOL    HW236231   4.653   1.606   5.884 -0.9408  1.2286 -0.8985
 8200SOL     OW36232   3.254   1.446   3.542 -0.0593  0.0563 -0.8177
 8200SOL    HW136233   3.298   1.366   3.572  1.5342  1.0579 -0.4868
 8200SOL    HW236234   3.308   1.514   3.582  0.5423 -1.4550  0.9915
 8201SOL     OW36235   4.197   2.960  12.144  0.2075  0.1893  0.1966
 8201SOL    HW136236   4.116   3.005  12.168  0.3155 -0.8413  2.5005
 8201SOL    HW236237   4.174   2.870  12.167  0.4161  0.0124 -0.2890
 8202SOL     OW36238   4.662   4.628  17.127  0.0860 -0.2898  0.0665
 8202SOL    HW136239   0.022   4.625  17.109  0.1913  1.4254  0.2821
 8202SOL    HW236240   4.643   4.544  17.168 -1.3354 -0.4080 -0.8591
 8203SOL     OW36241   3.292   2.417   4.775  0.6427 -0.1892  0.0407
 8203SOL    HW136242   3.229   2.430   4.847 -1.2777 -1.0133 -1.5136
 8203SOL    HW236243   3.341   2.340   4.803 -0.4666 -0.6815  0.6025
 8204SOL     OW36244   3.458   4.164  10.351 -0.1186  0.0938  0.6977
 8204SOL    HW136245   3.385   4.156  10.412  1.2474 -1.6783  2.0900
 8204SOL    HW236246   3.422   4.228  10.290  0.6537 -0.8582 -0.7511
 8205SOL     OW36247   2.299   1.628   7.842  0.1832  0.2034  0.7622
 8205SOL    HW136248   2.222   1.607   7.895 -1.2313 -1.7507 -2.0082
 8205SOL    HW236249   2.338   1.541   7.841  0.1386  0.1908  0.2051
 8206SOL     OW36250   0.925   4.506  17.522  0.3526  0.4281 -0.4104
 8206SOL    HW136251   0.914   4.597  17.495  0.6333  1.2312  2.1624
 8206SOL    HW236252   0.835   4.473  17.532  0.9143 -1.0574 -0.2585
 8207SOL     OW36253   0.773   1.957   6.683 -0.2532  0.0333  0.3504
 8207SOL    HW136254   0.860   1.990   6.708 -0.4024  0.1013  0.7780
 8207SOL    HW236255   0.790   1.907   6.603 -1.4663  0.9525 -0.4832
 8208SOL     OW36256   2.409   0.187   3.482 -0.4626  0.5908 -0.6388
 8208SOL    HW136257   2.409   0.268   3.532  2.3177 -0.4657  1.0757
 8208SOL    HW236258   2.380   0.129   3.552  3.6724 -1.4442 -0.5600
 8209SOL     OW36259   1.099   0.728  16.053  0.8686  0.0927  0.7920
 8209SOL    HW136260   1.194   0.719  16.064  0.8591 -0.5391  0.3548
 8209SOL    HW236261   1.091   0.808  16.001  1.5065 -0.0837  0.4284
 8210SOL     OW36262   3.650   1.421  16.924 -0.0921  0.0618 -0.1884
 8210SOL    HW136263   3.692   1.362  16.986 -1.3664 -0.2258  0.4111
 8210SOL    HW236264   3.714   1.413  16.854 -0.5665  0.4478 -0.6684
 8211SOL     OW36265   4.652   1.046   7.251 -0.1582  0.2747 -0.2054
 8211SOL    HW136266   4.592   0.972   7.247 -0.0491  0.1410  0.6967
 8211SOL    HW236267   4.671   1.065   7.343  1.7997  1.0254 -0.7704
 8212SOL     OW36268   0.251   2.321  15.370 -0.4189 -0.3845 -0.3254
 8212SOL    HW136269   0.164   2.337  15.334 -1.0709  0.2454  1.5342
 8212SOL    HW236270   0.298   2.399  15.340 -0.7722 -0.8740 -2.1505
 8213SOL     OW36271   0.431   4.227   6.819 -0.2578  0.3806 -0.1182
 8213SOL    HW136272   0.441   4.322   6.819  3.8899 -0.0253 -1.6826
 8213SOL    HW236273   0.392   4.209   6.905 -0.0778  1.4920  0.2024
 8214SOL     OW36274   4.229   3.906  10.906 -0.7151  0.2730  0.0858
 8214SOL    HW136275   4.268   3.965  10.841  0.5516 -2.4777 -1.6130
 8214SOL    HW236276   4.219   3.835  10.843  2.1041  0.1257 -0.1931
 8215SOL     OW36277   1.737   1.379   6.569  0.0149  0.1801 -0.3365
 8215SOL    HW136278   1.783   1.295   6.565 -0.0131  0.1188  0.7837
 8215SOL    HW236279   1.799   1.442   6.531 -1.4320  0.7477 -1.7500
 8216SOL     OW36280   3.818   4.700   7.221  0.5209  0.1478  0.3214
 8216SOL    HW136281   3.876   4.632   7.255 -1.2947 -0.7326  1.6155
 8216SOL    HW236282   3.784   4.725   7.307  2.6692 -1.8294  1.7518
 8217SOL     OW36283   2.983   3.961  14.545 -0.0933  0.0905 -0.0627
 8217SOL    HW136284   2.946   3.955  14.457  0.8626  3.2352 -0.6646
 8217SOL    HW236285   3.075   3.950  14.521 -0.1818  1.2094 -0.8689
 8218SOL     OW36286   4.423   3.708   1.725 -0.0289 -0.0211  0.0924
 8218SOL    HW136287   4.408   3.614   1.730  1.5604 -0.2450  0.8115
 8218SOL    HW236288   4.495   3.719   1.787 -0.1157 -0.1503  0.2150
 8219SOL     OW36289   1.790   2.244  10.276  0.0056  0.1063  0.0773
 8219SOL    HW136290   1.807   2.226  10.368  0.6907  1.4014  0.2022
 8219SOL    HW236291   1.738   2.324  10.284  1.3690  1.4120 -4.0012
 8220SOL     OW36292   0.844   2.969   1.756  0.4294  0.5384  0.0963
 8220SOL    HW136293   0.921   2.963   1.700  1.9217  0.7386  2.1346
 8220SOL    HW236294   0.865   3.027   1.829 -0.4938 -1.1178  1.6692
 8221SOL     OW36295   1.176   2.674   8.688  0.0668 -0.6296  0.1489
 8221SOL    HW136296   1.245   2.733   8.718 -1.3495  0.2573  1.6392
 8221SOL    HW236297   1.210   2.662   8.599  0.3906 -1.4993  0.3968
 8222SOL     OW36298   1.409   3.863   2.475 -0.2624  0.2811 -0.5973
 8222SOL    HW136299   1.426   3.943   2.426  0.6710 -0.7894 -2.0441
 8222SOL    HW236300   1.314   3.856   2.481  0.0561 -2.1537  1.7238
 8223SOL     OW36301   2.342   0.133   2.175 -0.4253 -1.1615 -0.1032
 8223SOL    HW136302   2.252   0.127   2.145  0.0242 -1.0049 -1.4654
 8223SOL    HW236303   2.329   0.117   2.269  0.7800  0.7335  0.3926
 8224SOL     OW36304   2.358   3.588   3.287  0.0850  0.3540 -0.0492
 8224SOL    HW136305   2.276   3.548   3.257 -1.2556  2.2824  0.9716
 8224SOL    HW236306   2.326   3.678   3.289  1.4501  0.8266  0.6573
 8225SOL     OW36307   2.819   4.057   7.697  0.1346  0.3968 -0.2856
 8225SOL    HW136308   2.866   4.015   7.624 -0.2848  1.5681 -1.2386
 8225SOL    HW236309   2.860   4.143   7.695  1.9237 -0.4558 -0.4021
 8226SOL     OW36310   0.705   4.669   7.759  0.0445 -0.3110 -0.0194
 8226SOL    HW136311   0.669   4.610   7.693  1.0623  0.5016 -1.2985
 8226SOL    HW236312   0.671   4.618   7.833  3.2794  1.5713  2.7490
 8227SOL     OW36313   1.466   1.241  11.623 -0.2710  0.2266 -0.8054
 8227SOL    HW136314   1.486   1.276  11.536  1.3683  0.4758 -0.3218
 8227SOL    HW236315   1.540   1.262  11.680 -1.5490 -1.0117  1.2667
 8228SOL     OW36316   0.689   3.255   2.541  0.3950  0.4066 -0.3088
 8228SOL    HW136317   0.698   3.241   2.636  1.4907  0.2492 -0.4305
 8228SOL    HW236318   0.774   3.219   2.516  0.4719 -0.4119  1.1552
 8229SOL     OW36319   4.148   3.302  12.195  0.3094 -0.3016  0.7194
 8229SOL    HW136320   4.059   3.267  12.189  0.2476  0.0538 -0.2996
 8229SOL    HW236321   4.135   3.396  12.201 -1.2766 -0.5939  1.9972
 8230SOL     OW36322   2.882   4.481   4.753 -0.8639  0.5700 -0.2518
 8230SOL    HW136323   2.901   4.400   4.801  1.3360  1.0620 -0.2664
 8230SOL    HW236324   2.899   4.450   4.664  0.7447 -2.1874  1.0128
 8231SOL     OW36325   3.365   0.721   7.836  0.2228  0.9701  0.0209
 8231SOL    HW136326   3.306   0.797   7.830 -0.0286  0.8373  0.7530
 8231SOL    HW236327   3.384   0.722   7.930 -0.9260 -3.3428  0.3071
 8232SOL     OW36328   2.537   1.507   9.565 -0.2977 -0.0662  0.3714
 8232SOL    HW136329   2.526   1.421   9.524 -0.2309 -0.5551  1.3625
 8232SOL    HW236330   2.448   1.509   9.600  0.2732  1.9990  1.6950
 8233SOL     OW36331   3.805   3.345   7.191 -0.2473 -0.2562  0.6177
 8233SOL    HW136332   3.823   3.346   7.097  0.4108 -0.3429  0.7432
 8233SOL    HW236333   3.830   3.256   7.216 -0.5444 -0.5878 -0.2867
 8234SOL     OW36334   3.480   0.482   0.249  0.2347  0.0642 -0.1390
 8234SOL    HW136335   3.454   0.570   0.219  0.3318  1.5768  4.2569
 8234SOL    HW236336   3.460   0.494   0.342  1.6002  0.0317  0.1485
 8235SOL     OW36337   2.537   1.260  17.471  0.2238 -0.0463 -0.1685
 8235SOL    HW136338   2.442   1.249  17.459  0.4687 -2.8654  0.5254
 8235SOL    HW236339   2.559   1.168  17.483  2.0015  0.2246 -1.4184
 8236SOL     OW36340   2.845   3.231   3.468 -0.3661  0.2063 -0.0514
 8236SOL    HW136341   2.833   3.147   3.512  0.5292 -0.4490 -1.0352
 8236SOL    HW236342   2.789   3.283   3.525 -3.6147 -2.4485 -0.7746
 8237SOL     OW36343   0.902   1.569   6.131 -0.2233 -0.4682 -0.5374
 8237SOL    HW136344   0.982   1.619   6.151  0.1357 -0.9354 -0.8030
 8237SOL    HW236345   0.872   1.629   6.063  1.5351  0.8281 -0.1821
 8238SOL     OW36346   2.817   2.046   3.364  0.1340 -0.5599 -0.7959
 8238SOL    HW136347   2.854   1.962   3.391 -1.2291 -0.4702  1.3698
 8238SOL    HW236348   2.727   2.016   3.346 -0.1003  0.9227 -2.1070
 8239SOL     OW36349   2.906   0.344  15.872  0.2024  0.1602 -0.0432
 8239SOL    HW136350   2.831   0.395  15.901  1.0489  1.3362  0.0958
 8239SOL    HW236351   2.936   0.394  15.797 -0.0810 -0.5900 -0.6527
 8240SOL     OW36352   3.215   2.223   2.792 -0.2555  0.0908 -0.3060
 8240SOL    HW136353   3.221   2.131   2.768  0.7714 -0.0827  0.6522
 8240SOL    HW236354   3.129   2.227   2.833 -1.1449 -2.5497 -1.8884
 8241SOL     OW36355   3.276   4.523   8.029 -0.0490  0.5935 -0.0409
 8241SOL    HW136356   3.320   4.497   7.948 -0.4904 -1.1738  0.2854
 8241SOL    HW236357   3.302   4.453   8.090  1.4820  1.1985 -0.0103
 8242SOL     OW36358   2.686   0.358   6.150  0.1608 -0.1757 -0.8794
 8242SOL    HW136359   2.640   0.286   6.194 -1.3345  1.5956  0.4461
 8242SOL    HW236360   2.624   0.425   6.178 -1.3954 -1.0351 -2.2445
 8243SOL     OW36361   0.164   2.627   3.806 -0.1818  0.1456  0.3673
 8243SOL    HW136362   0.236   2.571   3.778 -1.0258 -1.0844  0.6247
 8243SOL    HW236363   0.186   2.710   3.765  0.3959  0.7388  1.8769
 8244SOL     OW36364   0.471   0.922   4.123  0.3972 -0.1594 -0.2173
 8244SOL    HW136365   0.551   0.898   4.077 -0.6416 -1.2260 -1.4626
 8244SOL    HW236366   0.407   0.893   4.058 -0.1861 -0.1994  0.3683
 8245SOL     OW36367   2.117   2.082   5.979 -0.1456  1.0405  0.0496
 8245SOL    HW136368   2.143   2.111   5.892  0.0081 -0.3235 -0.3718
 8245SOL    HW236369   2.056   2.009   5.962 -0.6640  2.0255 -2.2418
 8246SOL     OW36370   2.983   3.611   4.495 -0.2079  0.5267 -0.1302
 8246SOL    HW136371   2.896   3.642   4.470  0.1286  1.8910  0.4111
 8246SOL    HW236372   2.995   3.658   4.578  1.6376 -3.3337  1.7851
 8247SOL     OW36373   2.606   1.126   1.745 -0.3457 -0.6633  0.3664
 8247SOL    HW136374   2.653   1.180   1.809 -1.6434  0.6489  0.2106
 8247SOL    HW236375   2.601   1.047   1.800  1.3445 -2.0690 -1.4933
 8248SOL     OW36376   0.248   2.307   9.717  0.0895 -0.1999  0.6148
 8248SOL    HW136377   0.325   2.363   9.704  0.3838 -0.7470  0.0146
 8248SOL    HW236378   0.203   2.325   9.634  0.1458 -1.6327  0.2792
 8249SOL     OW36379   2.729   1.900   4.141  0.1503  0.1522  0.5038
 8249SOL    HW136380   2.720   1.821   4.087  2.4619  0.0608  0.2541
 8249SOL    HW236381   2.825   1.903   4.139  0.0310  3.0389 -0.4831
 8250SOL     OW36382   1.930   3.390  17.064  0.1069 -0.3752 -0.3553
 8250SOL    HW136383   1.981   3.375  16.984  2.4269 -0.0236  1.0846
 8250SOL    HW236384   1.971   3.468  17.102  1.0613 -1.2743  0.4417
 8251SOL     OW36385   0.196   4.231   5.253 -0.1509 -0.1512 -0.3616
 8251SOL    HW136386   0.242   4.251   5.334 -1.6958 -0.3728  0.5604
 8251SOL    HW236387   0.117   4.280   5.274  0.9008  1.6503 -0.5283
 8252SOL     OW36388   2.929   2.560   4.497 -0.3414 -0.2199 -0.6808
 8252SOL    HW136389   2.857   2.549   4.434 -1.0035  0.7714 -0.0926
 8252SOL    HW236390   2.947   2.471   4.528 -1.1929 -0.0604  0.2421
 8253SOL     OW36391   1.179   0.354   6.517 -0.0141  0.0189 -0.8859
 8253SOL    HW136392   1.173   0.339   6.611 -1.1381  0.4881 -0.8837
 8253SOL    HW236393   1.102   0.305   6.489 -0.3885  0.5276 -0.7410
 8254SOL     OW36394   0.584   1.973  13.434 -0.1445  0.1280  0.4426
 8254SOL    HW136395   0.660   2.006  13.386 -0.0320  0.6193  0.9490
 8254SOL    HW236396   0.624   1.972  13.522  0.3526  1.4156  0.2273
 8255SOL     OW36397   0.120   2.391   3.216  0.2036  0.0255  0.1983
 8255SOL    HW136398   0.099   2.314   3.269 -0.8825 -0.4217 -0.8694
 8255SOL    HW236399   0.119   2.459   3.283  2.2816  1.4599 -1.2360
 8256SOL     OW36400   2.224   1.175   8.723  0.1379 -0.9764 -0.1073
 8256SOL    HW136401   2.272   1.189   8.805 -1.8259  1.4566  0.6082
 8256SOL    HW236402   2.152   1.237   8.738  0.9010 -0.2755  0.6767
 8257SOL     OW36403   3.422   4.569   5.863  0.0139  0.1663 -0.0286
 8257SOL    HW136404   3.410   4.604   5.951 -1.7309 -1.1317  0.2619
 8257SOL    HW236405   3.495   4.508   5.868 -1.5221 -1.4683  1.9872
 8258SOL     OW36406   2.988   1.417   3.591 -0.7933  0.0185 -0.7701
 8258SOL    HW136407   3.078   1.426   3.561 -0.4114 -0.1685  0.3026
 8258SOL    HW236408   2.990   1.475   3.667  1.4806 -0.0240 -0.8062
 8259SOL     OW36409   4.192   1.751   3.840 -0.1523 -0.0220 -0.7803
 8259SOL    HW136410   4.204   1.818   3.907 -0.4222 -0.0659 -0.6888
 8259SOL    HW236411   4.208   1.799   3.759  0.1676  0.4579 -0.4241
 8260SOL     OW36412   0.631   4.634  16.401 -0.2491  0.0251  0.1534
 8260SOL    HW136413   0.600   4.711  16.449 -1.1588  1.0364 -2.0297
 8260SOL    HW236414   0.618   4.559  16.459  0.6792  1.0002  1.6182
 8261SOL     OW36415   1.953   0.171   9.119 -0.4334 -0.2203  0.2390
 8261SOL    HW136416   2.019   0.209   9.177 -0.9143 -0.1009  0.7047
 8261SOL    HW236417   1.940   0.083   9.154 -1.1380  0.7990  2.4779
 8262SOL     OW36418   0.256   3.313   3.805 -0.0204  0.3735  0.1780
 8262SOL    HW136419   0.338   3.295   3.850 -0.6473 -1.0332  0.7417
 8262SOL    HW236420   0.209   3.378   3.858  2.5518  1.4534  1.1387
 8263SOL     OW36421   0.677   1.701   4.469  0.1342 -0.4357  0.1836
 8263SOL    HW136422   0.664   1.719   4.376 -2.1455 -1.5011  0.2902
 8263SOL    HW236423   0.649   1.786   4.502 -0.7305 -0.4898 -0.3997
 8264SOL     OW36424   1.114   0.563   4.608 -0.6533  0.2815 -0.4946
 8264SOL    HW136425   1.101   0.473   4.639  0.9198 -0.0505 -0.7800
 8264SOL    HW236426   1.033   0.580   4.561 -0.6333 -0.0514 -0.6555
 8265SOL     OW36427   3.689   3.719   6.411 -0.1555 -0.2372  0.0633
 8265SOL    HW136428   3.742   3.653   6.366 -2.0665 -3.0280  1.8983
 8265SOL    HW236429   3.752   3.789   6.426  1.2051 -0.7353 -3.2579
 8266SOL     OW36430   2.982   3.758   8.426  0.3310  0.5394  0.3332
 8266SOL    HW136431   2.973   3.832   8.486 -0.4940  2.8481 -2.6349
 8266SOL    HW236432   2.889   3.733   8.422  0.4521  0.2455 -0.6165
 8267SOL     OW36433   1.023   2.031   6.734  0.2577 -0.0804 -0.0916
 8267SOL    HW136434   1.080   2.028   6.658  1.5212 -1.1185  0.8836
 8267SOL    HW236435   1.042   2.114   6.778  0.8762 -1.2683  1.9038
 8268SOL     OW36436   0.016   4.043   6.392 -0.4638  0.0079  0.2363
 8268SOL    HW136437   4.725   4.131   6.365 -0.9058 -0.3002 -0.3436
 8268SOL    HW236438   4.666   4.001   6.404 -0.5066  0.3521  1.1489
 8269SOL     OW36439   1.020   2.251   7.570 -0.4385 -0.2280  0.1217
 8269SOL    HW136440   1.017   2.309   7.646  0.0456  0.1869 -0.1740
 8269SOL    HW236441   0.942   2.200   7.591 -0.5262  0.2360  0.9453
 8270SOL     OW36442   1.282   3.593   4.347 -0.0017 -0.0779  0.0723
 8270SOL    HW136443   1.246   3.596   4.435 -0.0579  0.9773  0.0140
 8270SOL    HW236444   1.374   3.568   4.345  0.2910  0.9317  1.3408
 8271SOL     OW36445   4.266   2.922  11.880  0.8177 -0.2110  0.2605
 8271SOL    HW136446   4.286   2.840  11.926  0.6126 -0.8035 -0.7134
 8271SOL    HW236447   4.212   2.950  11.954  0.6196  0.7769 -0.2641
 8272SOL     OW36448   1.501   2.668   8.975 -0.2783 -0.8095  0.0620
 8272SOL    HW136449   1.519   2.649   9.067  1.0918 -3.3415 -0.7482
 8272SOL    HW236450   1.495   2.763   8.989  3.7437 -0.9498  2.8038
 8273SOL     OW36451   1.643   4.000  10.790 -0.0573  0.0739  0.3684
 8273SOL    HW136452   1.700   3.940  10.741  0.3744  0.8232 -0.0397
 8273SOL    HW236453   1.609   4.041  10.710 -0.5690 -0.8024  0.1338
 8274SOL     OW36454   3.266   4.223  15.182  0.1361 -0.2815  0.0262
 8274SOL    HW136455   3.298   4.133  15.174  0.9329 -0.1352  1.6787
 8274SOL    HW236456   3.176   4.195  15.199  0.5272 -1.0938  0.7669
 8275SOL     OW36457   4.239   4.365  12.395 -0.2677 -0.1866  0.1173
 8275SOL    HW136458   4.308   4.406  12.446 -0.4070  0.1085  0.0707
 8275SOL    HW236459   4.181   4.441  12.388  0.4548  0.4377  1.0416
 8276SOL     OW36460   1.816   1.462   6.945 -0.0960 -0.4070 -0.0990
 8276SOL    HW136461   1.722   1.480   6.950  0.5771  3.3899 -0.8567
 8276SOL    HW236462   1.838   1.506   6.863  0.0349  1.8067  1.1232
 8277SOL     OW36463   0.351   2.374   1.454  0.9610 -0.0808  0.3102
 8277SOL    HW136464   0.263   2.403   1.477  1.0769  1.1409 -0.7521
 8277SOL    HW236465   0.327   2.352   1.364  1.1196  1.3258 -0.0743
 8278SOL     OW36466   1.608   2.202  15.824  0.1542  0.0423 -0.3546
 8278SOL    HW136467   1.691   2.157  15.837  0.5982  0.6158 -1.2076
 8278SOL    HW236468   1.578   2.220  15.913  1.0479  3.0754 -0.6535
 8279SOL     OW36469   1.186   4.264   5.544 -0.5718  0.4585 -0.2805
 8279SOL    HW136470   1.268   4.244   5.589 -1.2259  2.3512  1.7700
 8279SOL    HW236471   1.129   4.194   5.576  2.5676 -1.2541  1.5794
 8280SOL     OW36472   4.729   2.540  16.713  0.0590 -0.2232  0.1380
 8280SOL    HW136473   4.692   2.500  16.634  1.1483 -0.5821 -0.1903
 8280SOL    HW236474   0.065   2.590  16.672  0.1440 -0.3891  0.0829
 8281SOL     OW36475   2.127   0.647   5.046  0.1254  0.2309  0.3189
 8281SOL    HW136476   2.133   0.557   5.015 -1.3474  0.5186 -0.7907
 8281SOL    HW236477   2.043   0.673   5.008  0.3648 -1.1254 -1.1400
 8282SOL     OW36478   4.167   0.680   9.286  0.1234 -0.3034 -0.2365
 8282SOL    HW136479   4.224   0.629   9.229 -1.9433  0.5892 -3.0852
 8282SOL    HW236480   4.122   0.610   9.333 -0.1361  0.3703  0.5383
 8283SOL     OW36481   2.729   3.348   7.796 -0.2768 -0.2727 -0.7437
 8283SOL    HW136482   2.812   3.316   7.831  0.7888  1.8955 -1.2858
 8283SOL    HW236483   2.657   3.288   7.818 -1.5301  1.6628  0.3808
 8284SOL     OW36484   4.344   0.572   7.912 -0.0109 -0.8690  0.5410
 8284SOL    HW136485   4.249   0.570   7.903 -0.0635  2.6823  0.2965
 8284SOL    HW236486   4.370   0.615   7.831 -0.7146 -0.0118  0.7766
 8285SOL     OW36487   3.153   0.542   7.136  0.3322  0.3185  0.1489
 8285SOL    HW136488   3.135   0.498   7.053 -0.1560  0.2799  0.2715
 8285SOL    HW236489   3.115   0.628   7.120  1.2497  0.4569 -1.2390
 8286SOL     OW36490   0.570   0.638   4.002  0.2478 -0.6889  0.1347
 8286SOL    HW136491   0.622   0.583   4.060  1.8977  0.9634  0.2371
 8286SOL    HW236492   0.510   0.573   3.966 -0.3354  0.0981 -0.3274
 8287SOL     OW36493   0.559   2.068   7.271  0.6073 -0.2234  0.0590
 8287SOL    HW136494   0.525   2.093   7.185 -1.0256 -1.0994  0.4436
 8287SOL    HW236495   0.543   2.150   7.318 -0.0853 -1.5867  2.2178
 8288SOL     OW36496   4.130   2.585  11.149 -0.7244  0.1001 -0.0383
 8288SOL    HW136497   4.186   2.530  11.095 -0.3580  0.7114 -0.2881
 8288SOL    HW236498   4.169   2.598  11.235 -0.4510 -0.1280 -0.1292
 8289SOL     OW36499   2.344   0.402   3.626  0.0830  0.1795 -0.1474
 8289SOL    HW136500   2.256   0.439   3.626  0.3322  0.7777 -0.9718
 8289SOL    HW236501   2.388   0.478   3.664 -1.6255  1.5765 -0.9565
 8290SOL     OW36502   2.634   4.719   6.800 -0.0329 -0.1645 -0.1909
 8290SOL    HW136503   2.704   4.675   6.751  0.3756 -0.7049  0.8734
 8290SOL    HW236504   2.663   4.700   6.890 -3.9580  0.3078  1.1701
 8291SOL     OW36505   0.652   0.095   5.845  0.2979  0.4124 -0.1673
 8291SOL    HW136506   0.650   0.086   5.749 -0.3969  0.9412 -0.2096
 8291SOL    HW236507   0.607   0.012   5.863  2.2086 -1.0607 -2.1950
 8292SOL     OW36508   3.099   4.703   4.516  0.2673  0.3978 -0.1339
 8292SOL    HW136509   3.006   4.711   4.494  0.1915  0.7973  0.3170
 8292SOL    HW236510   3.092   4.687   4.610  1.4492  3.7168  0.5332
 8293SOL     OW36511   2.051   4.691  14.284  0.1062  0.3780 -0.3627
 8293SOL    HW136512   1.977   0.010  14.312 -1.5469 -2.5179  0.7920
 8293SOL    HW236513   2.114   4.699  14.355 -2.2182  2.1360  1.5046
 8294SOL     OW36514   4.471   1.231  14.426 -0.3414  0.8116  0.3635
 8294SOL    HW136515   4.543   1.232  14.363  1.5628 -0.9044  2.4892
 8294SOL    HW236516   4.404   1.179  14.382 -0.3999  1.1935  0.0073
 8295SOL     OW36517   4.171   3.645   8.475 -0.5033 -0.2493 -0.3170
 8295SOL    HW136518   4.095   3.695   8.445 -0.6386  0.0133  0.4648
 8295SOL    HW236519   4.155   3.577   8.410  0.2518 -1.4567  0.7738
 8296SOL     OW36520   3.134   1.697   4.832  0.0003  0.0138 -0.0780
 8296SOL    HW136521   3.110   1.629   4.770 -1.6955  2.1668 -1.7807
 8296SOL    HW236522   3.146   1.778   4.782 -2.3744  1.6246  1.9584
 8297SOL     OW36523   2.309   1.735  12.272  0.0920 -0.4287 -0.1020
 8297SOL    HW136524   2.269   1.669  12.329 -1.3578 -0.2654 -0.9240
 8297SOL    HW236525   2.396   1.702  12.253 -0.2259 -2.1700  1.5261
 8298SOL     OW36526   3.396   3.150   3.944  0.4363 -0.4612  0.5086
 8298SOL    HW136527   3.342   3.123   4.019  1.2843 -0.7711  1.0078
 8298SOL    HW236528   3.435   3.066   3.919 -2.4101 -0.4824 -3.9154
 8299SOL     OW36529   1.634   2.593   7.862 -0.4564 -0.1996  1.0544
 8299SOL    HW136530   1.678   2.620   7.942  1.8320  2.1765 -1.0177
 8299SOL    HW236531   1.690   2.526   7.823  1.0901  0.9132  1.4050
 8300SOL     OW36532   0.780   0.075  12.847  0.0688 -0.1516 -0.1975
 8300SOL    HW136533   0.689   0.051  12.829  0.0286 -0.0732 -0.0974
 8300SOL    HW236534   0.825   0.043  12.769  0.9150 -0.4165  0.4068
 8301SOL     OW36535   0.631   0.244  14.972  0.3864  0.2588 -0.5265
 8301SOL    HW136536   0.580   0.309  15.019 -1.5413 -0.0169 -2.2284
 8301SOL    HW236537   0.566   0.215  14.907  0.2526 -0.3698 -0.1146
 8302SOL     OW36538   0.151   4.244   9.969  0.1597 -0.3591  0.4007
 8302SOL    HW136539   0.200   4.325   9.984 -0.9555  0.3355  0.3711
 8302SOL    HW236540   0.071   4.290   9.942  1.2638  0.3298 -1.6327
 8303SOL     OW36541   4.105   0.549   7.364  0.5478 -0.1566 -0.2804
 8303SOL    HW136542   4.154   0.529   7.443  0.2737 -0.2110 -0.1249
 8303SOL    HW236543   4.051   0.618   7.403  0.3294 -0.2954 -0.3359
 8304SOL     OW36544   2.961   1.806   1.026  0.0387 -0.6226  0.0029
 8304SOL    HW136545   2.972   1.779   1.117  0.5830  1.7254  0.6221
 8304SOL    HW236546   2.936   1.719   0.994 -0.7682 -0.1747 -0.5932
 8305SOL     OW36547   0.308   3.980   1.844 -0.5870 -0.4972 -0.3488
 8305SOL    HW136548   0.267   4.059   1.879 -0.3331 -1.4596  2.0676
 8305SOL    HW236549   0.271   3.986   1.756 -1.8386 -0.6159  0.1726
 8306SOL     OW36550   0.997   1.376   5.816  0.3719 -0.2138  0.0727
 8306SOL    HW136551   0.933   1.306   5.804  0.6217 -0.4716  0.2532
 8306SOL    HW236552   0.935   1.450   5.814  0.7282  0.0607 -0.7850
 8307SOL     OW36553   0.702   0.009   5.551  0.4433  0.1348 -0.4238
 8307SOL    HW136554   0.683   4.686   5.477  2.3027 -3.0493  1.5253
 8307SOL    HW236555   0.639   0.080   5.541 -0.4452 -0.6110 -0.2394
 8308SOL     OW36556   1.351   3.625  13.864 -0.0195 -0.1566  0.6417
 8308SOL    HW136557   1.388   3.701  13.910 -0.1157  2.0526 -2.8988
 8308SOL    HW236558   1.435   3.583  13.847  0.3663  0.6354  0.5424
 8309SOL     OW36559   0.691   0.243  16.166  0.4315  0.2151  0.2963
 8309SOL    HW136560   0.681   0.315  16.103 -1.2312 -1.2853 -1.1272
 8309SOL    HW236561   0.612   0.241  16.220 -0.1315  0.1718 -0.5186
 8310SOL     OW36562   0.560   1.116   4.535  0.2639  0.5337  0.3009
 8310SOL    HW136563   0.473   1.150   4.557 -0.4117 -0.7145 -0.3902
 8310SOL    HW236564   0.547   1.022   4.550  1.4298  0.5629  1.4857
 8311SOL     OW36565   4.583   3.664   5.041  0.4804 -0.2320  0.3271
 8311SOL    HW136566   4.496   3.626   5.036 -0.6185  1.6976  4.4919
 8311SOL    HW236567   4.565   3.757   5.054 -2.9491 -0.7992 -0.5685
 8312SOL     OW36568   2.003   1.080  14.113 -0.8259  0.3519  0.2231
 8312SOL    HW136569   2.057   1.155  14.089  0.6804 -0.1581  2.0045
 8312SOL    HW236570   2.022   1.036  14.030  1.0155  1.8197 -0.1332
 8313SOL     OW36571   1.696   3.163   4.738  0.1454  0.4739  0.0109
 8313SOL    HW136572   1.713   3.241   4.791  0.0280  0.5327 -0.0361
 8313SOL    HW236573   1.760   3.176   4.669 -0.5109 -2.4426 -1.1249
 8314SOL     OW36574   2.657   2.606   4.426 -0.1796  0.9002 -0.3696
 8314SOL    HW136575   2.667   2.699   4.404  1.3950  0.3408 -2.0380
 8314SOL    HW236576   2.627   2.569   4.343 -0.2897 -0.1985  0.1645
 8315SOL     OW36577   1.374   1.529   3.271  0.3108 -0.3975  0.0471
 8315SOL    HW136578   1.332   1.585   3.206 -1.6800 -1.2664  0.5984
 8315SOL    HW236579   1.419   1.472   3.208  3.4506  0.6702  1.3274
 8316SOL     OW36580   1.399   2.785  12.162 -0.9854 -0.4132  0.6204
 8316SOL    HW136581   1.328   2.836  12.123 -1.4330 -1.1144  0.5086
 8316SOL    HW236582   1.393   2.708  12.106  0.7813 -0.4014  0.4305
 8317SOL     OW36583   0.301   3.479   8.424 -0.2936 -0.2215 -0.3297
 8317SOL    HW136584   0.208   3.501   8.421 -0.1303  0.3349 -1.1499
 8317SOL    HW236585   0.330   3.537   8.495 -1.8840 -0.3089  0.3901
 8318SOL     OW36586   4.505   1.978   5.717 -0.1375  0.1390 -0.0777
 8318SOL    HW136587   4.424   1.951   5.674 -1.3272  3.3156  0.1889
 8318SOL    HW236588   4.528   2.065   5.683  1.7474  0.4419  1.9317
 8319SOL     OW36589   4.067   1.691   7.571  0.0725  0.6764 -0.6307
 8319SOL    HW136590   4.086   1.779   7.606 -1.6881  0.2332  1.4341
 8319SOL    HW236591   4.148   1.646   7.594 -0.3811  0.4347  0.4889
 8320SOL     OW36592   1.936   3.308   7.837  0.1095  0.5247 -0.2244
 8320SOL    HW136593   1.955   3.221   7.803  0.0069  0.5149 -0.2573
 8320SOL    HW236594   1.882   3.281   7.912  0.3944 -0.5753 -0.4189
 8321SOL     OW36595   1.726   3.155   8.328  0.0906  0.2614  0.2615
 8321SOL    HW136596   1.678   3.184   8.405  0.6284  3.6519 -0.6660
 8321SOL    HW236597   1.719   3.060   8.323  0.1226  0.2252  1.0010
 8322SOL     OW36598   2.707   4.538  17.631 -0.6922 -0.2446 -0.0313
 8322SOL    HW136599   2.727   4.533  17.537 -1.8660  0.1974 -0.3111
 8322SOL    HW236600   2.614   4.558  17.622 -0.6661 -0.3576 -0.6045
 8323SOL     OW36601   1.366   2.679  16.155  0.1974  0.0775 -0.2958
 8323SOL    HW136602   1.437   2.744  16.156 -0.3254  0.6397  0.6614
 8323SOL    HW236603   1.412   2.605  16.115  1.7260  1.9529 -2.0092
 8324SOL     OW36604   4.581   0.438   8.695  0.8988  0.2285 -0.4806
 8324SOL    HW136605   4.571   0.363   8.636 -1.1570  0.8680 -0.9577
 8324SOL    HW236606   4.521   0.506   8.665  0.4998  0.2285  0.3069
 8325SOL     OW36607   3.656   4.207   2.380 -0.7306  0.6513  0.1805
 8325SOL    HW136608   3.569   4.171   2.366 -0.3727 -0.2186  0.2259
 8325SOL    HW236609   3.687   4.137   2.438 -2.4422 -1.0841 -1.0219
 8326SOL     OW36610   2.157   1.415   8.974 -0.8937  0.1271  0.0164
 8326SOL    HW136611   2.232   1.436   9.029 -1.7368 -1.4563  1.7649
 8326SOL    HW236612   2.146   1.323   8.997  0.7388  0.0695  0.5452
 8327SOL     OW36613   1.765   0.335   0.031 -0.3478  0.0068  0.0363
 8327SOL    HW136614   1.701   0.403   0.006  0.9027  0.5580 -1.6126
 8327SOL    HW236615   1.816   0.329  17.688 -2.1239  2.7507 -1.2996
 8328SOL     OW36616   3.642   2.870   3.793 -0.3243 -0.5893 -0.3940
 8328SOL    HW136617   3.655   2.775   3.796  1.5986 -0.2762  0.8960
 8328SOL    HW236618   3.572   2.881   3.729  0.1797 -1.0180 -1.0154
 8329SOL     OW36619   3.156   1.862  10.255 -0.4374  0.0820 -1.0486
 8329SOL    HW136620   3.067   1.829  10.254 -1.3707  2.5283  0.4251
 8329SOL    HW236621   3.172   1.853  10.349  0.2892 -0.3219 -1.2115
 8330SOL     OW36622   1.816   4.674   7.808  0.2577  0.7738  0.0253
 8330SOL    HW136623   1.828   4.621   7.729  1.3304  0.2919  0.5043
 8330SOL    HW236624   1.832   0.023   7.765 -0.5169  0.7065 -0.3845
 8331SOL     OW36625   2.582   1.334   6.073  0.3663  0.0319  0.0774
 8331SOL    HW136626   2.646   1.268   6.046  0.6684  0.0766  0.6898
 8331SOL    HW236627   2.541   1.299   6.152 -0.1736 -2.3321 -1.2431
 8332SOL     OW36628   2.419   0.179  17.147 -0.2065  0.0349  0.3390
 8332SOL    HW136629   2.495   0.213  17.195  1.9524 -2.5980 -1.2138
 8332SOL    HW236630   2.437   0.085  17.141  0.1887  0.0940  0.5751
 8333SOL     OW36631   0.925   3.806   9.095 -0.0347 -0.9406  0.1288
 8333SOL    HW136632   0.968   3.770   9.173 -1.4218  1.5811  2.0452
 8333SOL    HW236633   0.884   3.727   9.058 -0.5861 -0.4883 -0.2097
 8334SOL     OW36634   1.976   4.717   5.730  0.1014 -0.9237  0.2798
 8334SOL    HW136635   1.952   0.066   5.769  1.2726  0.1555 -1.3042
 8334SOL    HW236636   2.010   0.011   5.645 -1.5898 -0.2714 -0.1791
 8335SOL     OW36637   0.452   2.529   7.582 -0.2344 -0.3502  0.3840
 8335SOL    HW136638   0.472   2.579   7.503 -0.9263 -0.3561  0.2116
 8335SOL    HW236639   0.444   2.595   7.651 -0.7647  0.8679 -0.8510
 8336SOL     OW36640   1.858   0.052   2.309  0.6222  0.0670  0.3022
 8336SOL    HW136641   1.924   0.103   2.356 -1.2231  1.6748  1.1538
 8336SOL    HW236642   1.863   0.083   2.219 -0.6097 -1.1199 -0.1644
 8337SOL     OW36643   2.274   1.166   5.512  0.1779 -0.6045  0.3554
 8337SOL    HW136644   2.264   1.115   5.431  0.0285 -0.5188  0.3214
 8337SOL    HW236645   2.362   1.205   5.515  0.2255 -0.3588 -4.1154
 8338SOL     OW36646   0.472   1.464   5.506 -0.5074 -1.1324 -0.1160
 8338SOL    HW136647   0.542   1.402   5.526  0.3259 -0.3927 -0.7630
 8338SOL    HW236648   0.466   1.451   5.412 -0.1991  1.2058 -0.4753
 8339SOL     OW36649   3.352   3.646   1.053 -0.3235  0.3466 -0.2515
 8339SOL    HW136650   3.354   3.590   0.975 -1.1627 -2.0170  1.4011
 8339SOL    HW236651   3.370   3.580   1.121 -1.1382 -1.1156 -1.4596
 8340SOL     OW36652   0.290   4.228   2.422 -0.4372 -0.2706 -0.2600
 8340SOL    HW136653   0.367   4.271   2.385  0.1468  1.0263  2.4276
 8340SOL    HW236654   0.246   4.296   2.473  0.4365  1.5389 -1.9461
 8341SOL     OW36655   2.701   2.268  16.682  0.3153 -0.1726  0.5010
 8341SOL    HW136656   2.736   2.255  16.594  0.5652 -0.8397  0.7037
 8341SOL    HW236657   2.735   2.356  16.697 -0.7332  0.5909 -1.6131
 8342SOL     OW36658   3.244   4.299  11.738  0.3264  0.6237 -0.4915
 8342SOL    HW136659   3.292   4.227  11.696  0.3378  1.6322 -2.1885
 8342SOL    HW236660   3.303   4.374  11.728 -1.0490  2.0786  2.5653
 8343SOL     OW36661   1.756   0.093   6.104 -0.2048  0.4569 -0.7837
 8343SOL    HW136662   1.845   0.078   6.136  0.3043  1.1306 -1.9000
 8343SOL    HW236663   1.719   0.143   6.177  0.8516 -0.4348  0.3678
 8344SOL     OW36664   4.253   1.237  14.608 -0.1504 -0.0650 -0.1942
 8344SOL    HW136665   4.271   1.252  14.701 -1.5863  1.0347 -0.0940
 8344SOL    HW236666   4.338   1.257  14.568  0.1633 -0.9479  0.0415
 8345SOL     OW36667   4.206   2.464  16.755 -0.0764  0.8238 -0.3153
 8345SOL    HW136668   4.118   2.483  16.721  0.3007 -2.3757 -3.0931
 8345SOL    HW236669   4.204   2.370  16.740  1.3594  0.3677  2.5330
 8346SOL     OW36670   1.823   4.395  12.351 -0.4041 -0.5884  0.4373
 8346SOL    HW136671   1.893   4.457  12.328 -1.0386 -0.2098 -0.4838
 8346SOL    HW236672   1.877   4.337  12.405  0.2120  0.4499  0.9328
 8347SOL     OW36673   3.518   1.577   2.899 -0.1613 -0.2502 -0.4644
 8347SOL    HW136674   3.575   1.616   2.832 -0.0946 -0.3339 -0.4570
 8347SOL    HW236675   3.436   1.623   2.882 -0.6309 -1.0345 -0.3263
 8348SOL     OW36676   1.740   0.385   6.215 -0.0558  0.0940  0.4121
 8348SOL    HW136677   1.679   0.439   6.164  1.2877  1.5572  0.3530
 8348SOL    HW236678   1.818   0.441   6.212 -0.3077  0.3834 -0.7790
 8349SOL     OW36679   2.494   0.251  15.864 -0.0811  0.1549  0.1205
 8349SOL    HW136680   2.564   0.315  15.848  0.2123 -0.1132  0.3266
 8349SOL    HW236681   2.422   0.292  15.815 -0.7103 -1.0951 -0.0098
 8350SOL     OW36682   1.603   2.451   6.860  0.6733 -0.1235  0.1428
 8350SOL    HW136683   1.590   2.367   6.817 -0.8034  0.5461 -0.7329
 8350SOL    HW236684   1.552   2.442   6.941 -1.1799  2.8577 -0.6934
 8351SOL     OW36685   3.445   2.359   6.617 -0.8755  0.4614  0.8822
 8351SOL    HW136686   3.447   2.289   6.551  2.6968  1.6030 -0.2441
 8351SOL    HW236687   3.427   2.307   6.696 -0.3122 -0.9027  0.1146
 8352SOL     OW36688   3.067   3.038   7.695 -0.0498 -1.0954 -0.0450
 8352SOL    HW136689   3.072   3.075   7.783 -2.4657 -0.5603 -0.1273
 8352SOL    HW236690   3.114   3.110   7.652 -0.5629  0.4159  1.9004
 8353SOL     OW36691   2.764   0.434   7.598  0.0818 -0.1251 -0.2706
 8353SOL    HW136692   2.736   0.368   7.661 -0.5151 -0.0377 -0.4414
 8353SOL    HW236693   2.826   0.390   7.540 -0.1032 -2.8467  1.5763
 8354SOL     OW36694   1.293   1.164  17.335 -0.2950  0.2018 -0.0999
 8354SOL    HW136695   1.222   1.228  17.338  1.3843  2.1396 -1.4194
 8354SOL    HW236696   1.360   1.197  17.274  0.8074 -0.2528  0.8729
 8355SOL     OW36697   1.357   1.374   3.979  0.1022 -0.5649 -0.3026
 8355SOL    HW136698   1.350   1.457   3.931  0.4214 -0.8566 -0.8557
 8355SOL    HW236699   1.268   1.339   3.989 -0.5541  1.1921 -0.0423
 8356SOL     OW36700   2.897   1.744   1.865 -0.2827  0.4319  0.3512
 8356SOL    HW136701   2.880   1.683   1.794  0.0651  2.5147 -1.5196
 8356SOL    HW236702   2.868   1.686   1.935  2.2727 -2.6850 -1.1632
 8357SOL     OW36703   2.867   4.431   7.341  0.2501 -0.4863  0.3454
 8357SOL    HW136704   2.957   4.434   7.372 -0.2202 -0.7581  1.7488
 8357SOL    HW236705   2.815   4.429   7.422  0.8583  1.8122  0.7789
 8358SOL     OW36706   3.789   4.096   2.600 -0.1407 -0.4566  0.0193
 8358SOL    HW136707   3.816   4.004   2.600  3.6279  0.6248  2.1222
 8358SOL    HW236708   3.871   4.134   2.630  0.3850 -1.2932 -0.3493
 8359SOL     OW36709   4.258   3.583   7.419  0.3492 -0.2035  0.2145
 8359SOL    HW136710   4.312   3.538   7.484 -0.6259 -2.5767 -0.6368
 8359SOL    HW236711   4.182   3.527   7.403  0.1392  0.3798 -0.8229
 8360SOL     OW36712   4.409   3.188   4.352  0.1558 -0.2315  0.2533
 8360SOL    HW136713   4.352   3.244   4.299  1.7172  1.7422  0.6555
 8360SOL    HW236714   4.343   3.144   4.406  1.3570 -1.7105  0.5285
 8361SOL     OW36715   2.568   3.007   6.568 -0.2705 -0.2301 -0.3851
 8361SOL    HW136716   2.542   2.921   6.599  0.9934 -0.9483 -1.3502
 8361SOL    HW236717   2.549   3.062   6.644 -3.3573 -0.8866 -0.6748
 8362SOL     OW36718   2.639   2.688   7.671  0.1980 -0.3980  0.0188
 8362SOL    HW136719   2.662   2.596   7.656  1.8237 -0.0418  0.2991
 8362SOL    HW236720   2.716   2.718   7.720 -1.1062  1.5855  0.8242
 8363SOL     OW36721   1.545   3.696   3.857 -0.0418  0.3724 -0.7430
 8363SOL    HW136722   1.552   3.630   3.787  2.1992 -0.6331  0.4209
 8363SOL    HW236723   1.469   3.666   3.907  1.2025  0.2317  1.0855
 8364SOL     OW36724   4.266   3.035  16.955  0.3184  0.2265 -0.2340
 8364SOL    HW136725   4.279   3.085  16.874  0.2729 -0.4815 -0.6760
 8364SOL    HW236726   4.252   3.101  17.022 -1.1246 -1.4199  1.0881
 8365SOL     OW36727   4.006   2.652   7.762  0.1967 -0.1082 -0.7011
 8365SOL    HW136728   3.937   2.608   7.811  1.1427  0.7146  1.3542
 8365SOL    HW236729   3.940   2.707   7.721 -0.2236 -0.2095 -0.1644
 8366SOL     OW36730   1.118   1.133   8.123 -0.3974  0.1166  0.7288
 8366SOL    HW136731   1.139   1.045   8.093  0.8398  0.3775  0.7889
 8366SOL    HW236732   1.084   1.159   8.038 -1.2822 -0.5860  0.8771
 8367SOL     OW36733   0.395   2.410   3.962 -0.3788  0.1613 -0.2281
 8367SOL    HW136734   0.324   2.361   3.920 -0.0834 -0.9506  0.5847
 8367SOL    HW236735   0.467   2.353   3.936 -0.8184  0.4021 -1.9989
 8368SOL     OW36736   3.290   4.040  11.172  0.5611  0.0122  0.2409
 8368SOL    HW136737   3.361   4.075  11.226  1.9392 -3.4717  0.7253
 8368SOL    HW236738   3.332   3.980  11.110 -1.8571 -0.9536 -0.4473
 8369SOL     OW36739   3.001   3.683   2.028  0.4100 -0.2701 -0.0213
 8369SOL    HW136740   2.970   3.632   1.953 -0.3005  0.5595 -0.3012
 8369SOL    HW236741   3.096   3.674   2.020  0.3234  0.2114 -1.5588
 8370SOL     OW36742   0.785   2.772   9.732 -0.0828 -0.2787 -0.2740
 8370SOL    HW136743   0.714   2.833   9.713  0.5299  0.5643  0.1496
 8370SOL    HW236744   0.832   2.766   9.649 -2.7074  1.1703 -1.8569
 8371SOL     OW36745   0.642   0.593   4.369 -0.3103  0.3989  0.3222
 8371SOL    HW136746   0.667   0.504   4.348 -0.8773  0.6881 -1.5862
 8371SOL    HW236747   0.576   0.582   4.438  1.4833 -3.1721  1.4623
 8372SOL     OW36748   2.425   0.487   4.954 -0.1886  0.8289  0.6230
 8372SOL    HW136749   2.456   0.578   4.958 -0.3022  0.7680  2.8606
 8372SOL    HW236750   2.428   0.467   4.860  2.3743 -0.1197  0.9082
 8373SOL     OW36751   4.126   0.497  10.900  0.6615  0.3364 -0.2560
 8373SOL    HW136752   4.202   0.463  10.853 -0.3473 -2.2656 -0.0146
 8373SOL    HW236753   4.139   0.588  10.874 -3.3266  0.7677 -0.8249
 8374SOL     OW36754   2.153   1.179   6.698 -0.6873 -0.1997  0.0035
 8374SOL    HW136755   2.160   1.095   6.744 -0.8295 -0.8835 -1.2173
 8374SOL    HW236756   2.089   1.221   6.755  1.2130  1.3359  0.9825
 8375SOL     OW36757   1.009   2.786   4.352  0.0541  0.5028  0.1392
 8375SOL    HW136758   1.066   2.854   4.389 -0.5284 -0.0768  2.1369
 8375SOL    HW236759   0.963   2.850   4.299  0.9546 -0.5354 -1.9021
 8376SOL     OW36760   4.061   3.247   3.404 -0.1086 -0.0327 -0.2682
 8376SOL    HW136761   3.985   3.294   3.370  0.4452 -0.8040 -2.5593
 8376SOL    HW236762   4.032   3.158   3.388  1.4510 -0.4691 -0.7320
 8377SOL     OW36763   3.082   1.737   1.272 -0.1996 -0.0770  0.0485
 8377SOL    HW136764   3.108   1.705   1.359  0.5089  1.5793  0.4590
 8377SOL    HW236765   3.147   1.806   1.256 -0.6665  0.5181  0.6704
 8378SOL     OW36766   4.363   2.612   4.208 -0.6481  0.0889 -0.1042
 8378SOL    HW136767   4.337   2.618   4.116  2.1399  0.3036 -0.8861
 8378SOL    HW236768   4.319   2.690   4.241 -1.2428 -0.7046  0.9619
 8379SOL     OW36769   2.462   2.269  12.365  0.5104  0.1684  0.4822
 8379SOL    HW136770   2.374   2.245  12.393 -0.3635 -0.4668 -2.8003
 8379SOL    HW236771   2.509   2.209  12.422  0.8456  0.4380  0.4920
 8380SOL     OW36772   4.159   3.623  11.862 -0.0368 -0.7404 -0.2809
 8380SOL    HW136773   4.185   3.713  11.845  0.2152 -0.6370  0.6757
 8380SOL    HW236774   4.207   3.600  11.941  0.0511 -1.9432 -0.6832
 8381SOL     OW36775   1.870   4.156  12.121 -0.1803  0.1363  0.0137
 8381SOL    HW136776   1.888   4.245  12.151  0.6399  0.1179 -0.4010
 8381SOL    HW236777   1.775   4.158  12.114 -0.0803  0.4106 -1.3629
 8382SOL     OW36778   2.689   1.085   0.743  0.7759 -0.2522  0.9022
 8382SOL    HW136779   2.748   1.064   0.671 -0.5501 -0.3871 -0.1491
 8382SOL    HW236780   2.671   0.997   0.776 -1.5032  0.4992  1.6918
 8383SOL     OW36781   1.778   0.547  16.026  0.0682 -0.1437 -0.0183
 8383SOL    HW136782   1.730   0.619  15.984  2.2552 -0.9579 -3.9098
 8383SOL    HW236783   1.717   0.483  15.991 -0.0712 -0.1730  0.2792
 8384SOL     OW36784   0.586   3.993  15.292 -0.0354 -0.0639 -0.1819
 8384SOL    HW136785   0.629   4.078  15.292 -0.8694  0.3549  0.8754
 8384SOL    HW236786   0.661   3.942  15.260 -0.4771 -0.9974  0.2722
 8385SOL     OW36787   0.575   1.910   3.041 -0.2758  0.1384  0.2092
 8385SOL    HW136788   0.487   1.947   3.033 -0.4483  0.0853  1.8775
 8385SOL    HW236789   0.609   1.984   3.093  0.0190  0.5737 -0.6063
 8386SOL     OW36790   4.202   2.510   8.020 -0.1846 -0.1664  0.1639
 8386SOL    HW136791   4.138   2.576   8.048 -2.0279 -2.4806  1.4068
 8386SOL    HW236792   4.249   2.576   7.969 -1.6836  1.1964  0.5323
 8387SOL     OW36793   3.475   3.126   8.598 -0.5050  0.5249 -0.3829
 8387SOL    HW136794   3.435   3.211   8.579 -1.1227 -0.0695 -1.7752
 8387SOL    HW236795   3.466   3.133   8.693 -0.0702 -0.0965 -0.3011
 8388SOL     OW36796   1.881   4.630  10.788  0.0112 -0.3632 -0.3897
 8388SOL    HW136797   1.941   4.704  10.779  0.6699 -1.0379 -1.5608
 8388SOL    HW236798   1.907   4.582  10.710  0.2334  0.0332 -0.5573
 8389SOL     OW36799   3.389   3.479  16.946  0.2012  0.5660  0.3172
 8389SOL    HW136800   3.463   3.492  17.006  0.3494  1.6323 -0.0924
 8389SOL    HW236801   3.309   3.504  16.991 -0.2843 -1.3427  0.5180
 8390SOL     OW36802   2.569   1.807   1.653 -0.0711  0.4083 -0.2831
 8390SOL    HW136803   2.595   1.854   1.732  2.2063 -0.0113 -0.7796
 8390SOL    HW236804   2.641   1.837   1.598 -0.3013 -0.5069 -1.0955
 8391SOL     OW36805   2.491   2.226   2.964  0.1768 -0.7059  0.0625
 8391SOL    HW136806   2.440   2.227   2.883 -0.8013  0.9981  0.7103
 8391SOL    HW236807   2.426   2.207   3.032  1.2997  0.4164  1.4480
 8392SOL     OW36808   1.827   0.620   1.354 -0.3922 -0.3498  0.2712
 8392SOL    HW136809   1.811   0.708   1.320 -0.6945 -1.3437 -2.0869
 8392SOL    HW236810   1.822   0.565   1.276  0.7209  2.1678 -1.5698
 8393SOL     OW36811   0.276   4.529   1.741  0.4215 -0.2152 -0.1261
 8393SOL    HW136812   0.255   4.603   1.798 -1.6683 -0.1642 -0.9470
 8393SOL    HW236813   0.202   4.471   1.760  0.7141 -0.4227  0.3614
 8394SOL     OW36814   0.595   3.763  13.844 -0.3325  0.2403  0.5512
 8394SOL    HW136815   0.579   3.669  13.856  1.5277 -0.2971 -1.2043
 8394SOL    HW236816   0.690   3.767  13.860 -0.0324  0.3809 -1.2171
 8395SOL     OW36817   0.857   3.739  13.881  0.4125 -0.0665 -0.3651
 8395SOL    HW136818   0.929   3.797  13.904 -0.0287  0.4014 -0.1615
 8395SOL    HW236819   0.879   3.714  13.792 -1.1464  0.5942 -0.9397
 8396SOL     OW36820   0.031   4.399   1.739  0.5558  0.1968 -0.2842
 8396SOL    HW136821   4.706   4.323   1.740 -0.0143  0.6316 -0.7806
 8396SOL    HW236822   4.716   4.479   1.720 -0.6404 -0.2859  0.8225
 8397SOL     OW36823   1.726   2.340  11.494  0.0807 -0.0483  0.0747
 8397SOL    HW136824   1.811   2.374  11.520 -0.3982  1.3969 -0.2731
 8397SOL    HW236825   1.679   2.349  11.577 -1.0198 -0.4411 -0.4987
 8398SOL     OW36826   0.708   3.199   3.755  0.5964  0.7803 -0.6556
 8398SOL    HW136827   0.801   3.205   3.734  1.0380 -2.0031  0.4964
 8398SOL    HW236828   0.667   3.278   3.720 -0.9709  0.1055 -0.3305
 8399SOL     OW36829   1.857   1.239   4.394 -0.1380  0.1879 -0.4205
 8399SOL    HW136830   1.927   1.271   4.451 -1.5025 -0.3830  1.5561
 8399SOL    HW236831   1.789   1.205   4.452 -0.8127 -0.5722 -1.6703
 8400SOL     OW36832   4.011   4.561  16.154  0.6279  1.0509 -0.5059
 8400SOL    HW136833   3.928   4.608  16.160  0.4098  0.7316 -0.9756
 8400SOL    HW236834   3.995   4.539  16.062  1.0331 -2.3544  0.2294
 8401SOL     OW36835   1.934   4.417  17.114  0.0842  0.2902  0.1289
 8401SOL    HW136836   1.944   4.338  17.060 -0.9519 -0.9163  1.6977
 8401SOL    HW236837   1.991   4.472  17.060 -1.4447  3.8755  2.1764
 8402SOL     OW36838   2.895   1.461   7.463 -0.2361 -0.0376 -0.0611
 8402SOL    HW136839   2.821   1.521   7.474  1.6542  2.1254  0.7672
 8402SOL    HW236840   2.854   1.383   7.424  0.7106 -0.7580  0.3738
 8403SOL     OW36841   4.478   4.061   8.874 -0.2402  0.3825 -0.4304
 8403SOL    HW136842   4.528   3.981   8.884 -0.1499  0.4871 -0.0169
 8403SOL    HW236843   4.552   4.121   8.876  0.3819 -0.3695 -1.6616
 8404SOL     OW36844   4.304   2.124   2.138  0.0693 -0.1917  0.1455
 8404SOL    HW136845   4.219   2.158   2.113  0.5403  0.7976 -0.0950
 8404SOL    HW236846   4.283   2.040   2.179 -0.6612 -0.4360 -0.7374
 8405SOL     OW36847   2.980   2.184   3.206  0.0646 -0.2751  0.2409
 8405SOL    HW136848   3.050   2.206   3.267  0.7629 -1.1480 -0.2359
 8405SOL    HW236849   2.922   2.136   3.265  1.7664 -3.3607 -0.5527
 8406SOL     OW36850   4.384   2.998  14.940 -0.0139 -0.2624 -0.2596
 8406SOL    HW136851   4.471   2.966  14.917  0.7931  1.4291  0.4001
 8406SOL    HW236852   4.370   3.049  14.860  3.4998 -0.8427 -1.2334
 8407SOL     OW36853   2.900   2.789   2.963 -0.1027  0.1567 -0.2192
 8407SOL    HW136854   2.883   2.703   3.000 -0.2282 -0.4928 -1.7876
 8407SOL    HW236855   2.857   2.839   3.032  0.7140  1.7876 -0.8856
 8408SOL     OW36856   0.916   4.653   0.922 -0.5010  0.5984  0.1703
 8408SOL    HW136857   0.984   4.696   0.871 -0.8015 -0.1076 -0.8229
 8408SOL    HW236858   0.945   4.658   1.013 -1.7553  0.8278  0.5617
 8409SOL     OW36859   4.305   2.293   9.130 -0.1136 -0.1159  0.2718
 8409SOL    HW136860   4.344   2.209   9.152  0.2226 -0.2368 -0.7375
 8409SOL    HW236861   4.380   2.315   9.074 -1.5614 -0.8076 -1.9673
 8410SOL     OW36862   0.733   3.019   6.159  0.5737 -0.4143 -0.0860
 8410SOL    HW136863   0.815   2.996   6.201  0.8237  2.2949  0.9200
 8410SOL    HW236864   0.683   3.058   6.231  3.1132  1.1905  0.8011
 8411SOL     OW36865   1.804   0.734  17.045 -0.2103  0.4008  0.1423
 8411SOL    HW136866   1.855   0.815  17.040  0.4193  0.1398  2.5107
 8411SOL    HW236867   1.872   0.670  17.024 -0.8264 -0.5104  0.9744
 8412SOL     OW36868   1.588   2.734  14.763 -0.4372 -0.0263  0.0485
 8412SOL    HW136869   1.517   2.707  14.821 -0.0768  1.6989  1.3131
 8412SOL    HW236870   1.636   2.792  14.822  1.1372 -3.0658  1.7988
 8413SOL     OW36871   1.949   3.334   8.567 -0.0276  0.4202  0.3341
 8413SOL    HW136872   1.881   3.329   8.634 -0.9203 -0.3380 -0.6292
 8413SOL    HW236873   2.021   3.381   8.609  0.0558  0.7603 -0.1909
 8414SOL     OW36874   2.023   0.935   4.375  0.2760  0.2034  0.3905
 8414SOL    HW136875   2.075   0.898   4.446 -0.4653 -0.0238  0.8172
 8414SOL    HW236876   2.003   1.026   4.394 -0.0609  0.2446 -0.1421
 8415SOL     OW36877   1.211   4.645   4.613  0.1711  0.0098  0.7889
 8415SOL    HW136878   1.294   4.657   4.660  0.4339  0.3736  0.2259
 8415SOL    HW236879   1.237   4.564   4.570 -0.6334 -1.6452  3.3752
 8416SOL     OW36880   1.912   3.445  11.856 -0.1372 -0.6301  0.0395
 8416SOL    HW136881   1.987   3.433  11.914 -0.7352  3.4366  1.6819
 8416SOL    HW236882   1.883   3.535  11.872  3.7661  0.6132  0.1034
 8417SOL     OW36883   1.840   3.037   4.951 -0.4236  0.2220 -0.4742
 8417SOL    HW136884   1.791   3.088   4.886 -0.0804 -1.7952 -2.3202
 8417SOL    HW236885   1.908   3.100   4.976 -0.2840  0.5293 -1.6081
 8418SOL     OW36886   2.259   4.629  10.719 -0.2045  0.5660  0.1198
 8418SOL    HW136887   2.350   4.655  10.706  0.2340  0.6614  3.3877
 8418SOL    HW236888   2.229   4.719  10.708  0.1586  0.3505 -2.6184
 8419SOL     OW36889   3.367   2.125   4.544 -0.4565  0.0906  0.6702
 8419SOL    HW136890   3.419   2.156   4.618 -0.5043  0.8635  0.3760
 8419SOL    HW236891   3.413   2.171   4.474 -0.6129 -0.4145  0.2309
 8420SOL     OW36892   4.179   2.865  14.812  0.0759 -0.3717 -0.2312
 8420SOL    HW136893   4.228   2.911  14.880  3.8198  0.1902 -3.2767
 8420SOL    HW236894   4.086   2.882  14.825  0.1311 -0.1549 -0.1154
 8421SOL     OW36895   0.142   0.931   1.171  0.4818  0.0357  0.3825
 8421SOL    HW136896   0.098   0.870   1.112  3.5080  0.1504 -1.9822
 8421SOL    HW236897   0.159   1.009   1.118  1.0487  0.3007  0.9457
 8422SOL     OW36898   2.347   3.640  11.742 -0.2716  0.6670 -0.1401
 8422SOL    HW136899   2.346   3.648  11.646 -2.4421  0.9780 -0.0969
 8422SOL    HW236900   2.302   3.724  11.754  1.2448  0.9570  3.3603
 8423SOL     OW36901   3.246   1.737  12.218 -0.0277  0.2077 -0.2393
 8423SOL    HW136902   3.314   1.720  12.283  0.4040 -0.9447 -0.9899
 8423SOL    HW236903   3.249   1.832  12.228  0.7054 -0.0261  1.5938
 8424SOL     OW36904   1.999   0.773   5.385  0.1007 -0.4627  0.5308
 8424SOL    HW136905   1.903   0.772   5.384  0.1039 -1.0041  0.6268
 8424SOL    HW236906   2.008   0.868   5.374  0.1081 -0.7471 -1.7769
 8425SOL     OW36907   1.579   0.199   4.851  0.1492 -0.5617 -0.0562
 8425SOL    HW136908   1.604   0.128   4.909  1.7534  0.4055  0.4481
 8425SOL    HW236909   1.599   0.156   4.768 -0.0486 -0.6546 -0.0552
 8426SOL     OW36910   3.999   4.097   3.972 -0.3892  0.1551  0.0823
 8426SOL    HW136911   3.988   4.127   3.882 -1.0510 -0.6421 -0.0992
 8426SOL    HW236912   3.990   4.183   4.013 -2.1440  1.6839 -3.5285
 8427SOL     OW36913   1.816   2.481   6.693 -0.1321  0.6734 -0.0233
 8427SOL    HW136914   1.766   2.441   6.622 -1.4486 -1.4688  2.1165
 8427SOL    HW236915   1.750   2.485   6.762  0.3310 -0.2494  0.4786
 8428SOL     OW36916   4.215   4.277   1.810  0.5601  0.7492 -0.4893
 8428SOL    HW136917   4.218   4.345   1.877 -1.6511 -0.0443  0.4202
 8428SOL    HW236918   4.152   4.313   1.747 -1.2841 -0.2446  0.7888
 8429SOL     OW36919   4.712   3.839  14.044  0.4809  0.2656 -0.1814
 8429SOL    HW136920   0.015   3.885  13.969  1.3002  1.7125  1.1078
 8429SOL    HW236921   4.728   3.905  14.112  2.1382  0.3275 -0.6342
 8430SOL     OW36922   2.822   4.556   9.403  0.1885 -0.0786 -0.3277
 8430SOL    HW136923   2.914   4.571   9.381 -0.0345  1.4696 -0.2050
 8430SOL    HW236924   2.833   4.483   9.464  2.3127  0.3021 -0.2760
 8431SOL     OW36925   2.191   2.179   7.925  0.0532 -0.0967 -0.6948
 8431SOL    HW136926   2.203   2.150   8.016 -0.6588 -2.1511 -1.2465
 8431SOL    HW236927   2.278   2.168   7.886  1.2012 -0.5694  1.9300
 8432SOL     OW36928   4.157   4.216  13.931 -0.3925 -0.0365 -0.2013
 8432SOL    HW136929   4.216   4.248  13.999 -1.4545  0.1083  0.6540
 8432SOL    HW236930   4.188   4.269  13.858 -2.5093  1.9261  0.3194
 8433SOL     OW36931   3.107   1.481   7.136  0.3955  0.1590 -0.6416
 8433SOL    HW136932   3.132   1.510   7.049 -2.0381 -0.6474 -1.5786
 8433SOL    HW236933   3.062   1.403   7.106 -0.9473  0.2247  1.1885
 8434SOL     OW36934   1.230   2.674   7.645 -0.0207  0.1626 -0.3570
 8434SOL    HW136935   1.282   2.677   7.725 -1.3558 -1.4964  0.5506
 8434SOL    HW236936   1.283   2.728   7.586  1.7845 -2.7525 -1.4594
 8435SOL     OW36937   3.695   1.651  14.557  0.5291 -0.0338  0.6122
 8435SOL    HW136938   3.767   1.673  14.617 -0.1488  2.1489  0.6341
 8435SOL    HW236939   3.634   1.725  14.553  0.8794  0.1293 -1.4905
 8436SOL     OW36940   4.292   2.702   7.828 -0.2186  0.0181 -0.6485
 8436SOL    HW136941   4.318   2.645   7.755 -0.1314 -0.9372  0.1258
 8436SOL    HW236942   4.206   2.726   7.794 -0.1727 -0.3724 -1.0460
 8437SOL     OW36943   3.664   3.304  14.103 -0.3834 -0.4269 -0.4483
 8437SOL    HW136944   3.624   3.376  14.055 -1.8084 -0.3359  0.8456
 8437SOL    HW236945   3.647   3.226  14.050 -3.2974  0.1923 -0.4666
 8438SOL     OW36946   3.135   1.980   0.847 -0.6443 -0.2092 -0.1021
 8438SOL    HW136947   3.075   1.940   0.910  0.8928 -0.4370  1.2248
 8438SOL    HW236948   3.072   2.016   0.784  0.2534  1.4586 -0.0385
 8439SOL     OW36949   1.797   3.662   5.818 -0.6048 -0.0468 -0.0852
 8439SOL    HW136950   1.766   3.617   5.896  0.4333  0.7593  0.8014
 8439SOL    HW236951   1.884   3.628   5.797  0.0640  1.2039  0.5926
 8440SOL     OW36952   0.929   0.179   8.381  0.1619 -1.1067 -0.2087
 8440SOL    HW136953   1.016   0.173   8.420  0.4002 -0.4711 -0.6468
 8440SOL    HW236954   0.942   0.228   8.300 -1.3196 -0.0037  0.2148
 8441SOL     OW36955   4.536   4.133   5.355  0.0515  0.2055  0.5503
 8441SOL    HW136956   4.540   4.126   5.450 -0.5873 -2.1715  0.4184
 8441SOL    HW236957   4.562   4.046   5.324 -0.7541 -1.3832  4.2964
 8442SOL     OW36958   1.921   1.841   9.689 -0.6890  0.2857 -0.4239
 8442SOL    HW136959   1.882   1.829   9.602  1.4708 -0.4807 -1.2947
 8442SOL    HW236960   1.857   1.855   9.758 -2.2410 -1.2498 -1.5560
 8443SOL     OW36961   0.820   2.411  17.569  0.4397  0.1733  0.2956
 8443SOL    HW136962   0.896   2.354  17.581  0.3996 -0.1279 -0.8814
 8443SOL    HW236963   0.762   2.354  17.518 -0.0180 -0.5073  1.5595
 8444SOL     OW36964   0.996   1.042  15.381  0.1178  0.0652  0.4618
 8444SOL    HW136965   0.988   0.994  15.299 -0.3780  1.4364 -0.2940
 8444SOL    HW236966   0.925   1.014  15.440 -1.5578  2.0201 -0.6157
 8445SOL     OW36967   3.740   0.077   1.024  0.1562  0.3755 -0.3811
 8445SOL    HW136968   3.753   0.024   1.103  1.9703  1.3786 -0.0121
 8445SOL    HW236969   3.665   0.033   0.984  0.0728  1.7040 -1.6829
 8446SOL     OW36970   0.044   2.427  12.846  0.4564  0.1609  0.1565
 8446SOL    HW136971   0.076   2.392  12.763 -1.0101 -1.0428  0.1085
 8446SOL    HW236972   4.727   2.352  12.874  1.2590  0.4661  2.4275
 8447SOL     OW36973   2.147   3.994   8.155  0.2308  0.5715 -0.3649
 8447SOL    HW136974   2.132   3.996   8.060  3.4066 -2.7613 -0.9489
 8447SOL    HW236975   2.133   4.087   8.172  2.7953  1.2515 -1.8326
 8448SOL     OW36976   3.857   1.838   8.362  0.1891  0.1643  0.0075
 8448SOL    HW136977   3.812   1.769   8.412  1.4687 -0.2631  0.5655
 8448SOL    HW236978   3.925   1.861   8.425 -0.4336  1.6883  0.1305
 8449SOL     OW36979   4.673   0.494   0.513 -0.1516 -0.0554 -0.9375
 8449SOL    HW136980   4.693   0.401   0.500 -1.5016 -0.4304 -0.2230
 8449SOL    HW236981   4.687   0.500   0.607  3.0920 -1.4605 -1.3098
 8450SOL     OW36982   3.462   1.289   7.469 -0.2915 -0.2444 -0.2289
 8450SOL    HW136983   3.556   1.296   7.455 -0.2872  0.4500  0.1072
 8450SOL    HW236984   3.467   1.285   7.565 -0.5406  2.6312 -0.0811
 8451SOL     OW36985   0.889   1.871   9.666  0.3692 -0.5538  0.3727
 8451SOL    HW136986   0.858   1.829   9.586 -0.6153 -1.3650  1.1848
 8451SOL    HW236987   0.979   1.840   9.677  0.6874 -0.1883 -1.2278
 8452SOL     OW36988   4.622   0.512  11.718 -1.2802 -0.0043 -0.4434
 8452SOL    HW136989   4.577   0.554  11.644 -1.1860 -0.6331 -0.8548
 8452SOL    HW236990   4.640   0.589  11.772  1.2675 -0.9145  0.0032
 8453SOL     OW36991   3.213   4.488   5.363 -0.1425  0.4393  0.1623
 8453SOL    HW136992   3.226   4.507   5.456 -0.4242  1.4636 -0.0125
 8453SOL    HW236993   3.249   4.564   5.318 -1.5665  2.1856  1.9710
 8454SOL     OW36994   0.974   1.954   4.913  0.5750 -0.0370  0.7963
 8454SOL    HW136995   0.913   1.883   4.895 -0.5395  1.1584 -0.1008
 8454SOL    HW236996   1.057   1.922   4.878  1.1014  0.8710  1.2055
 8455SOL     OW36997   0.935   0.141   5.072 -0.2492  0.6500  0.1853
 8455SOL    HW136998   0.924   0.228   5.036 -0.5471  0.5974  0.1556
 8455SOL    HW236999   0.925   0.078   5.001 -0.7987 -1.8626  2.4515
 8456SOL     OW37000   3.730   2.700  13.642 -0.2868 -0.6309  0.7159
 8456SOL    HW137001   3.647   2.668  13.678 -1.1811  1.2519  0.3373
 8456SOL    HW237002   3.774   2.620  13.614  1.1582  0.8150 -1.2047
 8457SOL     OW37003   0.207   1.942   7.113  0.9397 -0.0839  0.1634
 8457SOL    HW137004   0.112   1.952   7.118  1.0675  0.0262  2.4247
 8457SOL    HW237005   0.229   1.960   7.022  1.0463  1.4468  0.4949
 8458SOL     OW37006   1.184   1.730   3.703  0.2512 -0.0465  0.5667
 8458SOL    HW137007   1.184   1.821   3.733 -1.0822 -0.0376  0.5220
 8458SOL    HW237008   1.208   1.705   3.792  3.1538  1.7864  0.3099
 8459SOL     OW37009   2.542   0.144   6.599  0.2751  0.0869 -0.3343
 8459SOL    HW137010   2.541   0.059   6.554  1.7043  0.8153 -1.7267
 8459SOL    HW237011   2.583   0.110   6.679  0.6301  2.1873  0.3831
 8460SOL     OW37012   2.290   2.421  11.630  0.3882  0.0605  0.2212
 8460SOL    HW137013   2.278   2.509  11.665 -0.8677 -0.2974  0.6974
 8460SOL    HW237014   2.267   2.449  11.541  1.2472 -0.5754 -0.1978
 8461SOL     OW37015   0.752   2.544   4.144  0.0858  0.2058 -0.1612
 8461SOL    HW137016   0.722   2.511   4.229 -1.6438 -2.9410 -1.9925
 8461SOL    HW237017   0.707   2.629   4.143  1.6992  1.0421 -1.4799
 8462SOL     OW37018   1.347   0.592  12.349  0.2127 -0.6709 -0.3717
 8462SOL    HW137019   1.326   0.674  12.304  0.6885  0.8483  2.1638
 8462SOL    HW237020   1.388   0.627  12.428 -0.6729 -0.5060  0.0051
 8463SOL     OW37021   3.858   2.731   9.659 -0.3748  0.0407  0.3910
 8463SOL    HW137022   3.950   2.757   9.662 -0.4109  0.3625 -1.1729
 8463SOL    HW237023   3.869   2.636   9.661  4.2969  0.5812 -0.8175
 8464SOL     OW37024   4.448   0.162   1.598  0.4768  0.4268 -0.2101
 8464SOL    HW137025   4.435   0.125   1.511 -3.2866  1.1435  0.0438
 8464SOL    HW237026   4.531   0.122   1.625 -1.2952 -2.1138  1.5299
 8465SOL     OW37027   3.994   3.867   1.498  0.3592 -0.2124 -0.4190
 8465SOL    HW137028   4.088   3.862   1.479  1.2326  0.7753  3.7243
 8465SOL    HW237029   3.989   3.798   1.565 -0.3527  0.2030 -0.0459
 8466SOL     OW37030   3.206   1.891   2.131  0.2553 -0.0225 -0.4607
 8466SOL    HW137031   3.120   1.925   2.106  0.8991  0.3029 -2.1790
 8466SOL    HW237032   3.236   1.850   2.050  0.4758  0.9581 -0.8739
 8467SOL     OW37033   0.440   1.025   6.625  0.0827  0.4978 -0.1021
 8467SOL    HW137034   0.379   1.042   6.697  2.3706  0.2272  1.8785
 8467SOL    HW237035   0.392   1.083   6.566 -2.0959 -2.5352 -1.3129
 8468SOL     OW37036   2.957   2.710   1.710  0.3295 -0.0446 -0.4383
 8468SOL    HW137037   3.017   2.644   1.747 -1.9699 -1.9708 -0.1119
 8468SOL    HW237038   2.943   2.757   1.792 -0.1085 -0.9188 -0.0133
 8469SOL     OW37039   2.071   3.734   8.462 -0.2054 -0.3496  0.1065
 8469SOL    HW137040   2.102   3.757   8.549 -1.6451 -2.1982  1.1209
 8469SOL    HW237041   1.977   3.723   8.476 -0.1223 -0.8715  0.2570
 8470SOL     OW37042   1.880   4.181  10.487  0.1280 -0.2729 -0.1484
 8470SOL    HW137043   1.868   4.258  10.431  0.4271 -1.2168 -1.4977
 8470SOL    HW237044   1.792   4.148  10.504  0.1719  0.3221  1.2388
 8471SOL     OW37045   2.235   0.495  11.347 -0.1161  0.6320 -0.2565
 8471SOL    HW137046   2.309   0.477  11.406  1.4342  1.1486 -2.0596
 8471SOL    HW237047   2.183   0.551  11.404 -0.1363  0.0197  0.3307
 8472SOL     OW37048   3.495   1.428   7.051 -0.3942  0.2709 -0.2803
 8472SOL    HW137049   3.535   1.514   7.066 -0.1983  0.1151  0.1015
 8472SOL    HW237050   3.574   1.374   7.054  0.7831  2.0250  0.4067
 8473SOL     OW37051   1.374   1.369   4.664  0.1860  0.2911 -0.4882
 8473SOL    HW137052   1.309   1.379   4.595 -0.3316 -1.4203 -0.2489
 8473SOL    HW237053   1.329   1.405   4.740  0.5693 -2.9048  1.2771
 8474SOL     OW37054   0.099   4.525   7.799 -0.4738  0.1666  0.4678
 8474SOL    HW137055   0.077   4.441   7.840 -1.1319  0.4741  0.7406
 8474SOL    HW237056   0.138   4.573   7.872 -0.4685 -1.0447  1.2626
 8475SOL     OW37057   4.053   0.146   6.749 -0.1657  0.5587  0.3013
 8475SOL    HW137058   4.059   0.233   6.709  3.1121 -0.3590 -1.2052
 8475SOL    HW237059   4.001   0.174   6.824 -2.1001  0.2970 -0.9430
 8476SOL     OW37060   1.519   3.740  12.101 -0.0041 -0.1958  0.4163
 8476SOL    HW137061   1.511   3.743  12.006 -0.0027  0.4044  0.4386
 8476SOL    HW237062   1.529   3.644  12.106 -2.3811 -0.5200 -1.2352
 8477SOL     OW37063   0.530   1.450   8.196  0.5126 -0.0332 -0.0015
 8477SOL    HW137064   0.510   1.486   8.283 -2.1435 -2.9573  0.6280
 8477SOL    HW237065   0.444   1.412   8.179  0.5443 -0.3373  0.4861
 8478SOL     OW37066   2.686   1.091   5.487 -0.3686  0.1986 -0.4160
 8478SOL    HW137067   2.643   1.165   5.531 -1.5921 -1.3468  0.9716
 8478SOL    HW237068   2.731   1.046   5.559 -1.8343  0.6275  0.7876
 8479SOL     OW37069   1.950   1.958   6.843 -0.0333 -0.5910 -0.4020
 8479SOL    HW137070   1.872   1.921   6.883  0.2358  0.1852  0.8446
 8479SOL    HW237071   2.011   1.962   6.916 -0.4180 -1.2830 -0.0489
 8480SOL     OW37072   3.066   3.723   8.176 -0.3365  0.3856  0.4446
 8480SOL    HW137073   3.044   3.742   8.268 -1.0092  0.9866  0.1609
 8480SOL    HW237074   3.154   3.758   8.184  0.7788 -2.3241 -0.0625
 8481SOL     OW37075   2.707   1.496   2.749  0.1588 -0.0120 -0.4484
 8481SOL    HW137076   2.723   1.439   2.674 -1.2610 -2.3257  0.9811
 8481SOL    HW237077   2.779   1.462   2.803  0.1099  0.2273 -0.2314
 8482SOL     OW37078   1.783   0.757   3.499 -0.1652 -0.4664  0.1845
 8482SOL    HW137079   1.805   0.828   3.438 -0.9394 -1.8560 -1.7006
 8482SOL    HW237080   1.763   0.682   3.444  2.3806  0.1257 -1.5723
 8483SOL     OW37081   0.940   0.712   5.294 -0.2424 -0.1397 -0.1872
 8483SOL    HW137082   0.899   0.635   5.334  0.6144 -0.4220  0.1467
 8483SOL    HW237083   0.882   0.783   5.320  0.6006 -0.6303  3.1134
 8484SOL     OW37084   2.960   3.602   5.834  0.3562  0.3644 -0.1446
 8484SOL    HW137085   3.018   3.535   5.799 -1.5666 -0.9546 -0.8105
 8484SOL    HW237086   2.880   3.594   5.782  0.5245 -1.8355 -0.0411
 8485SOL     OW37087   2.400   2.511   1.461  0.4714 -0.3586 -0.0629
 8485SOL    HW137088   2.327   2.573   1.449 -0.0209 -0.7619  0.8568
 8485SOL    HW237089   2.467   2.577   1.476 -1.4027  1.9443 -1.7817
 8486SOL     OW37090   1.878   3.417   1.490  0.6509  0.1174  0.0298
 8486SOL    HW137091   1.902   3.325   1.479  3.7766  1.1097 -1.4076
 8486SOL    HW237092   1.960   3.460   1.465  0.7366 -0.6823 -1.0825
 8487SOL     OW37093   4.186   1.888  11.613 -0.6432 -0.5229 -0.6020
 8487SOL    HW137094   4.118   1.947  11.647  1.5485  1.1386  0.8520
 8487SOL    HW237095   4.127   1.827  11.568 -0.4871 -0.8736 -0.3318
 8488SOL     OW37096   4.429   4.390   3.631  0.1310 -0.3041  0.3736
 8488SOL    HW137097   4.469   4.454   3.690  2.7087 -0.8858 -0.7396
 8488SOL    HW237098   4.490   4.411   3.561 -0.6482  1.1114  0.1162
 8489SOL     OW37099   2.772   0.760   5.255  0.4422  0.4639 -0.1466
 8489SOL    HW137100   2.678   0.773   5.266  0.1046 -0.7373 -1.6801
 8489SOL    HW237101   2.772   0.684   5.197  0.2638  0.1257  0.3034
 8490SOL     OW37102   4.407   1.023  15.047 -0.3050 -0.8876  0.5310
 8490SOL    HW137103   4.410   0.976  14.964 -0.8789 -0.7743  0.4441
 8490SOL    HW237104   4.363   1.106  15.026  0.8281 -0.0219  1.5602
 8491SOL     OW37105   2.749   0.970  16.296 -0.0116  0.4508 -0.3580
 8491SOL    HW137106   2.727   1.038  16.232 -0.3249  0.2550 -0.4593
 8491SOL    HW237107   2.783   0.909  16.231 -0.4130 -0.7011  0.5057
 8492SOL     OW37108   1.380   3.978   5.255  0.6877 -0.2697 -0.3650
 8492SOL    HW137109   1.364   4.055   5.310 -0.3254 -0.1660 -0.7930
 8492SOL    HW237110   1.390   3.907   5.318  0.5423 -1.1049 -1.2748
 8493SOL     OW37111   1.210   3.611   9.472  0.3421 -0.5886  0.0651
 8493SOL    HW137112   1.166   3.527   9.472 -1.0684  0.1494 -0.0683
 8493SOL    HW237113   1.267   3.598   9.547 -0.0223 -1.2362  0.2279
 8494SOL     OW37114   1.638   0.834   6.607 -0.0002  0.3762 -0.4720
 8494SOL    HW137115   1.593   0.750   6.609  0.8633 -0.0784  0.0207
 8494SOL    HW237116   1.601   0.883   6.680  1.1493  1.6878 -0.7731
 8495SOL     OW37117   4.633   3.190   4.499  0.1189 -0.3209 -0.1066
 8495SOL    HW137118   4.587   3.261   4.544  1.5775 -0.7336  2.0569
 8495SOL    HW237119   4.567   3.183   4.430  0.1000  0.5761 -0.1700
 8496SOL     OW37120   1.742   4.275   6.608 -0.1955  1.1019  0.5153
 8496SOL    HW137121   1.730   4.339   6.679  3.5485  1.7149  0.6403
 8496SOL    HW237122   1.786   4.209   6.661 -1.4733  0.0786  0.2853
 8497SOL     OW37123   4.059   0.220   6.277  0.6630 -0.1471 -0.0360
 8497SOL    HW137124   4.092   0.157   6.340  2.6332  0.8818 -0.0568
 8497SOL    HW237125   4.112   0.292   6.310 -0.1432  0.1227  0.6863
 8498SOL     OW37126   4.295   1.631   7.852  0.1668  0.3732  0.0087
 8498SOL    HW137127   4.222   1.572   7.871  1.7510 -1.1904  1.2250
 8498SOL    HW237128   4.264   1.704   7.905 -0.9207  0.0212 -0.1339
 8499SOL     OW37129   4.383   3.975   7.828  0.3845  0.0857  0.4463
 8499SOL    HW137130   4.321   4.041   7.796  2.1205  2.3830  1.7419
 8499SOL    HW237131   4.369   3.901   7.769 -1.5366  0.4244  0.4860
 8500SOL     OW37132   0.432   3.801  10.631  0.2044  0.5248  0.7695
 8500SOL    HW137133   0.451   3.811  10.538  0.1591 -0.3526  0.6651
 8500SOL    HW237134   0.427   3.706  10.643 -0.1079  0.2745 -1.2787
 8501SOL     OW37135   1.261   2.816  11.014 -0.0131  0.2756 -1.2129
 8501SOL    HW137136   1.343   2.789  11.055  0.2637  1.0614 -1.2589
 8501SOL    HW237137   1.213   2.830  11.096  0.0613 -1.3337 -0.8845
 8502SOL     OW37138   2.543   2.114  10.685  0.1017  0.6409 -0.5839
 8502SOL    HW137139   2.608   2.136  10.751 -0.0281 -0.3759 -0.1115
 8502SOL    HW237140   2.539   2.194  10.632 -0.7149 -0.3748 -2.0572
 8503SOL     OW37141   2.581   2.723   1.451  0.3624 -0.3891 -0.3675
 8503SOL    HW137142   2.663   2.765   1.475  0.9139 -0.5487 -1.9829
 8503SOL    HW237143   2.578   2.721   1.356  2.5782 -0.5407 -0.4195
 8504SOL     OW37144   0.940   2.606   3.868 -0.2307 -0.0296 -0.0710
 8504SOL    HW137145   0.996   2.598   3.945 -0.3053  0.8924  0.0792
 8504SOL    HW237146   0.873   2.668   3.898  0.1642 -0.2188  1.1934
 8505SOL     OW37147   3.687   0.795  14.700  0.1912  0.5253  0.0025
 8505SOL    HW137148   3.661   0.871  14.752 -1.4476  0.4997 -0.7872
 8505SOL    HW237149   3.729   0.840  14.627  0.3792 -0.5465 -0.5461
 8506SOL     OW37150   2.104   2.615   6.873  0.3055  0.6905  0.2522
 8506SOL    HW137151   2.091   2.522   6.852 -0.5966  0.9011 -0.1339
 8506SOL    HW237152   2.160   2.650   6.804  2.7738 -1.4434  1.1959
 8507SOL     OW37153   2.915   3.791  13.325  0.0336 -0.0285 -0.4466
 8507SOL    HW137154   2.993   3.845  13.340 -0.9491  1.5792 -1.0095
 8507SOL    HW237155   2.941   3.713  13.276  1.4652  1.1941 -1.6360
 8508SOL     OW37156   2.223   2.868   3.850 -0.1861  0.0784  0.0216
 8508SOL    HW137157   2.233   2.783   3.807 -0.1485 -1.2881  2.7059
 8508SOL    HW237158   2.160   2.916   3.796  1.0678 -0.2688 -1.7220
 8509SOL     OW37159   0.227   0.791   7.836  0.2263  0.6517 -0.5654
 8509SOL    HW137160   0.265   0.703   7.844  0.4909  0.6719 -1.5476
 8509SOL    HW237161   0.185   0.799   7.921  0.0580 -0.6551 -0.5319
 8510SOL     OW37162   1.108   0.856   0.368  0.8666 -0.9261 -0.3029
 8510SOL    HW137163   1.158   0.803   0.306  2.1335 -1.2335  0.9869
 8510SOL    HW237164   1.070   0.922   0.311  2.4457  0.6864  0.5255
 8511SOL     OW37165   3.927   3.775  13.950  0.4412  0.0641  0.0943
 8511SOL    HW137166   4.002   3.813  13.997 -0.5362  0.2677  1.4837
 8511SOL    HW237167   3.930   3.688  13.990  1.4396 -0.0260 -0.1569
 8512SOL     OW37168   4.194   2.185  13.269  0.4787  0.0151  0.2778
 8512SOL    HW137169   4.109   2.207  13.229 -0.9632  0.4995  3.6260
 8512SOL    HW237170   4.207   2.101  13.225 -0.3558  0.1475 -0.2224
 8513SOL     OW37171   2.391   2.271   4.655 -0.0859  0.6058  0.1078
 8513SOL    HW137172   2.363   2.325   4.582  2.8970 -0.4663 -1.8196
 8513SOL    HW237173   2.411   2.188   4.612 -1.7795  1.1080 -1.6640
 8514SOL     OW37174   3.512   3.887   7.186 -0.2348 -0.1105 -0.3572
 8514SOL    HW137175   3.601   3.860   7.165 -0.1668 -1.9391  2.2970
 8514SOL    HW237176   3.531   3.980   7.193  0.8373 -0.2952 -0.8343
 8515SOL     OW37177   2.851   2.646   2.225  0.4543  0.4225  0.3832
 8515SOL    HW137178   2.777   2.674   2.278  0.7225  1.2629  0.3176
 8515SOL    HW237179   2.893   2.581   2.280  0.3188  1.6826  1.9779
 8516SOL     OW37180   0.387   0.531   9.809 -0.1459  0.3524 -0.3941
 8516SOL    HW137181   0.334   0.539   9.730  0.4062  0.8142 -0.7173
 8516SOL    HW237182   0.464   0.486   9.773 -0.6937 -1.4178  0.6485
 8517SOL     OW37183   3.607   4.460   8.361 -0.0008 -0.1384 -0.6113
 8517SOL    HW137184   3.647   4.377   8.389 -0.1135  0.3573  0.9955
 8517SOL    HW237185   3.557   4.487   8.438  1.3594 -0.5439  0.4219
 8518SOL     OW37186   3.823   0.670   6.458  0.2111  0.2760 -0.5479
 8518SOL    HW137187   3.833   0.644   6.549 -1.1083 -0.7885 -0.7111
 8518SOL    HW237188   3.734   0.638   6.440  0.6361 -0.6864 -0.9788
 8519SOL     OW37189   3.753   0.047   7.477  0.1035 -0.6834  0.2612
 8519SOL    HW137190   3.684   0.092   7.525  0.8342 -0.1300  0.7879
 8519SOL    HW237191   3.804   0.025   7.555  1.7277 -1.6071 -1.0683
 8520SOL     OW37192   4.175   1.119   7.031  0.2074 -0.8272 -0.1876
 8520SOL    HW137193   4.220   1.166   7.101  1.0759  1.4615 -2.2894
 8520SOL    HW237194   4.110   1.186   7.010  1.0699 -0.0356 -0.3274
 8521SOL     OW37195   3.627   0.671   4.667 -0.0741  0.1897  0.0751
 8521SOL    HW137196   3.620   0.753   4.618  0.2126 -0.1691 -0.5726
 8521SOL    HW237197   3.545   0.627   4.644 -0.4911  0.2085  1.5164
 8522SOL     OW37198   4.118   1.321   6.761  0.3101  0.5812  0.4403
 8522SOL    HW137199   4.070   1.369   6.693 -0.2741  0.0357  0.4726
 8522SOL    HW237200   4.091   1.229   6.753  1.4524  0.4956 -2.5943
 8523SOL     OW37201   1.048   0.642   4.850  0.4387  0.4121  0.1409
 8523SOL    HW137202   1.084   0.616   4.765 -3.6198  0.8765 -1.7246
 8523SOL    HW237203   0.982   0.711   4.841 -0.6392 -0.2630  3.1618
 8524SOL     OW37204   4.348   0.962  11.645  0.7049  0.4255 -0.1148
 8524SOL    HW137205   4.335   0.876  11.605  1.6134  0.5896 -0.7542
 8524SOL    HW237206   4.331   1.015  11.567 -1.1243 -0.6014 -0.4017
 8525SOL     OW37207   0.038   1.356   6.313 -0.1924  0.0896  0.1049
 8525SOL    HW137208   0.106   1.390   6.372  2.0322 -2.3132 -1.1034
 8525SOL    HW237209   4.701   1.373   6.375 -0.2082  0.3243  0.0227
 8526SOL     OW37210   1.107   3.133   4.115 -0.3338  0.2150  0.3947
 8526SOL    HW137211   1.033   3.192   4.101  0.8033  1.7248  0.7971
 8526SOL    HW237212   1.164   3.167   4.046 -0.7629 -0.8227 -0.4856
 8527SOL     OW37213   4.293   1.839  15.282 -0.1356  0.4614 -0.1536
 8527SOL    HW137214   4.316   1.808  15.195 -2.1866  0.2118 -0.6013
 8527SOL    HW237215   4.210   1.885  15.269 -0.5162 -1.1978 -3.6173
 8528SOL     OW37216   2.316   3.191   4.386 -0.1778 -1.0965  0.0295
 8528SOL    HW137217   2.241   3.133   4.397  0.6926 -1.6548  2.9580
 8528SOL    HW237218   2.385   3.159   4.444 -0.8111  1.9981  2.5010
 8529SOL     OW37219   4.335   3.590   8.053  0.1543 -0.0456  0.1143
 8529SOL    HW137220   4.358   3.609   7.962  1.6514 -4.1932 -0.3375
 8529SOL    HW237221   4.336   3.683   8.079  1.2217 -0.1208  0.3386
 8530SOL     OW37222   0.111   4.210   8.312 -0.2332 -0.1488  0.5127
 8530SOL    HW137223   0.032   4.234   8.362 -1.3969 -1.6193 -0.6404
 8530SOL    HW237224   0.089   4.119   8.296 -2.0616  0.5697 -1.0033
 8531SOL     OW37225   3.613   3.021  17.271  0.4056  0.9671 -0.3669
 8531SOL    HW137226   3.628   2.926  17.265  0.5850  0.8925  1.2242
 8531SOL    HW237227   3.643   3.035  17.361 -0.4965  2.1288 -0.2523
 8532SOL     OW37228   1.396   0.299   3.698 -0.1511 -0.0893  0.1420
 8532SOL    HW137229   1.459   0.309   3.627  0.9603  0.2218  1.1609
 8532SOL    HW237230   1.334   0.368   3.675 -0.1062  0.1605  0.7696
 8533SOL     OW37231   3.063   0.944   9.475  0.0711 -0.2717  0.7517
 8533SOL    HW137232   3.015   1.012   9.523 -1.6732 -0.4726 -0.6924
 8533SOL    HW237233   2.996   0.875   9.477  0.1786 -0.3985  0.1131
 8534SOL     OW37234   1.558   4.291   7.849  0.0605 -0.3456  0.1484
 8534SOL    HW137235   1.639   4.329   7.816  0.1223  0.5732  1.3636
 8534SOL    HW237236   1.568   4.204   7.811 -0.4816 -0.0853 -0.5749
 8535SOL     OW37237   2.518   0.957   3.311  0.2770 -0.3824 -0.0180
 8535SOL    HW137238   2.453   0.889   3.294 -0.2926  0.1278  0.0865
 8535SOL    HW237239   2.600   0.913   3.291  0.9517  1.6871 -1.8481
 8536SOL     OW37240   0.837   2.197  10.324  0.1860  0.0717 -0.3416
 8536SOL    HW137241   0.770   2.207  10.391  0.6161  1.6629 -0.1549
 8536SOL    HW237242   0.789   2.232  10.249 -0.9947  1.7664  1.2248
 8537SOL     OW37243   1.661   1.459  14.744 -0.3199 -0.0411  0.2501
 8537SOL    HW137244   1.704   1.543  14.758 -0.0986  0.1587 -1.6793
 8537SOL    HW237245   1.579   1.500  14.716 -0.7960 -1.0158  0.2266
 8538SOL     OW37246   0.806   1.035   4.146 -0.1528 -0.4471 -0.5170
 8538SOL    HW137247   0.763   1.046   4.061 -2.1765 -1.2095  0.4011
 8538SOL    HW237248   0.729   1.015   4.199 -0.4194 -1.3660 -1.2559
 8539SOL     OW37249   1.315   0.409   8.533  0.4001 -0.2192  0.1823
 8539SOL    HW137250   1.338   0.471   8.464 -1.7864  0.6273  0.2121
 8539SOL    HW237251   1.391   0.426   8.588  1.4619 -0.2729 -1.2718
 8540SOL     OW37252   1.225   4.312   6.173 -0.3266 -0.2210  0.0823
 8540SOL    HW137253   1.259   4.381   6.229  0.3913  1.4854 -2.4336
 8540SOL    HW237254   1.259   4.233   6.213  0.2561 -0.3457 -0.6535
 8541SOL     OW37255   3.583   3.833   7.646 -0.3979  0.3691 -0.7814
 8541SOL    HW137256   3.587   3.928   7.642  3.2515  0.1536 -2.5069
 8541SOL    HW237257   3.650   3.811   7.581  1.8178 -0.8485  1.9042
 8542SOL     OW37258   0.342   2.292   5.328  0.5512  0.0853 -0.4790
 8542SOL    HW137259   0.393   2.367   5.358  0.4801 -1.3780  3.3374
 8542SOL    HW237260   0.370   2.234   5.399  1.3833  0.7490 -0.2598
 8543SOL     OW37261   3.957   4.432   7.843 -0.2779  0.1627  0.2196
 8543SOL    HW137262   4.031   4.446   7.784 -1.8028  0.9609 -1.5183
 8543SOL    HW237263   3.951   4.337   7.844  1.0062  0.0774 -1.7676
 8544SOL     OW37264   3.000   1.328   4.598  0.1679  0.3547 -0.1725
 8544SOL    HW137265   2.937   1.309   4.667  0.5514  0.1425  0.1230
 8544SOL    HW237266   3.077   1.276   4.623 -1.2758 -1.8928 -0.3974
 8545SOL     OW37267   3.101   0.487  11.942  0.0912 -0.5982 -0.5953
 8545SOL    HW137268   3.125   0.429  11.869  0.2425 -2.1462  0.6746
 8545SOL    HW237269   3.182   0.537  11.943  0.9112 -1.9031 -0.5784
 8546SOL     OW37270   0.177   2.825  16.362  0.4949 -0.4555 -0.3097
 8546SOL    HW137271   0.179   2.811  16.267 -0.1492  1.5374 -0.6105
 8546SOL    HW237272   0.260   2.865  16.384 -0.3557  0.3934  1.3087
 8547SOL     OW37273   3.037   4.307   9.378 -0.2000 -0.3271 -0.1303
 8547SOL    HW137274   3.033   4.222   9.334 -0.2674 -0.5722  0.3475
 8547SOL    HW237275   3.077   4.291   9.463 -0.3298  0.3148  0.0535
 8548SOL     OW37276   0.656   0.914   2.692 -0.4835  0.0512  0.3295
 8548SOL    HW137277   0.746   0.881   2.687 -0.2404  0.4625  1.8666
 8548SOL    HW237278   0.619   0.869   2.616  0.3438 -1.6296  0.9092
 8549SOL     OW37279   4.395   0.625  11.120 -0.3643  0.2341  0.7814
 8549SOL    HW137280   4.303   0.653  11.123  0.3734  2.2611  3.8435
 8549SOL    HW237281   4.421   0.636  11.211  2.7010 -1.1174  0.0585
 8550SOL     OW37282   1.388   0.626   8.364 -0.3433  0.0499 -0.1927
 8550SOL    HW137283   1.305   0.670   8.381 -0.0066  0.6916 -0.1833
 8550SOL    HW237284   1.454   0.690   8.393 -0.9492  0.9231 -0.7312
 8551SOL     OW37285   2.001   4.330   6.406  0.6896  0.4808  0.1561
 8551SOL    HW137286   1.923   4.277   6.387  1.2051 -0.3453  0.3589
 8551SOL    HW237287   1.960   4.373   6.481 -0.9155 -0.8769  0.0619
 8552SOL     OW37288   2.329   2.476   9.269  0.0063 -0.1687 -0.2402
 8552SOL    HW137289   2.246   2.431   9.251  0.1829 -0.7295  0.3429
 8552SOL    HW237290   2.351   2.497   9.178 -1.7527 -0.3191 -0.7154
 8553SOL     OW37291   0.436   3.627   7.602  0.6497  0.6619  0.2442
 8553SOL    HW137292   0.494   3.704   7.603 -0.5374  1.5923 -1.2552
 8553SOL    HW237293   0.445   3.589   7.689 -1.2989  2.9905  1.4649
 8554SOL     OW37294   2.996   4.689  17.394  0.1124 -0.4023  0.3495
 8554SOL    HW137295   2.964   4.731  17.314  2.3562 -0.8444 -0.8218
 8554SOL    HW237296   3.076   0.000  17.420 -0.8400  0.9014  0.9391
 8555SOL     OW37297   2.156   1.614   7.162 -0.1893  0.0402  0.6540
 8555SOL    HW137298   2.067   1.612   7.197  0.0754  1.5186  1.4075
 8555SOL    HW237299   2.173   1.522   7.141  1.1019  0.1810  1.1196
 8556SOL     OW37300   1.432   3.672   8.736  0.2666 -0.3231  0.1986
 8556SOL    HW137301   1.453   3.685   8.643  0.6224  2.7554  0.7103
 8556SOL    HW237302   1.339   3.651   8.730  0.9831 -3.5543 -0.0704
 8557SOL     OW37303   3.712   1.005   6.039 -0.3146  0.4457 -0.4630
 8557SOL    HW137304   3.631   1.029   6.084 -1.7939 -3.4667 -1.0546
 8557SOL    HW237305   3.669   0.995   5.954  0.2775 -2.4718 -0.4148
 8558SOL     OW37306   2.097   1.401   3.809 -0.2291  0.0164  0.1324
 8558SOL    HW137307   2.083   1.454   3.730 -0.4114  0.5794  0.5385
 8558SOL    HW237308   2.111   1.315   3.769 -0.2557 -0.8742  2.0479
 8559SOL     OW37309   2.751   0.463   5.411  0.4981  0.7600 -0.4664
 8559SOL    HW137310   2.769   0.423   5.326  0.8799  2.2576 -1.1034
 8559SOL    HW237311   2.680   0.404   5.436  1.9200 -0.0430  1.6557
 8560SOL     OW37312   2.303   3.878   9.542  0.4425 -0.3739  0.2069
 8560SOL    HW137313   2.226   3.902   9.595  1.2746 -3.7435  2.8954
 8560SOL    HW237314   2.292   3.783   9.542  2.4595 -0.6099 -1.5206
 8561SOL     OW37315   2.915   3.527  10.396 -0.9334  0.0532  0.1957
 8561SOL    HW137316   2.954   3.614  10.395  1.2778 -0.9636 -1.0485
 8561SOL    HW237317   2.861   3.539  10.318  0.2287 -0.1152 -0.6418
 8562SOL     OW37318   4.574   4.403  11.378 -0.3818 -0.2063 -0.2075
 8562SOL    HW137319   4.542   4.449  11.301  1.5300  1.1992 -0.1612
 8562SOL    HW237320   4.634   4.344  11.332  0.6818  0.0675  0.8021
 8563SOL     OW37321   4.004   3.683  16.094  1.0338 -0.0307  0.3996
 8563SOL    HW137322   3.961   3.767  16.081 -1.2962 -1.3664 -0.4459
 8563SOL    HW237323   3.954   3.624  16.038  1.5186  1.8191 -1.9588
 8564SOL     OW37324   3.527   4.419   2.293  0.4669  0.0673 -0.2295
 8564SOL    HW137325   3.607   4.449   2.250  1.6096  0.5490  2.2310
 8564SOL    HW237326   3.553   4.332   2.324  0.1333  0.3840  0.9699
 8565SOL     OW37327   3.689   2.099   6.543  0.3962  0.0046  0.0827
 8565SOL    HW137328   3.655   2.180   6.506 -0.4020 -0.4198 -0.1256
 8565SOL    HW237329   3.675   2.039   6.470  0.3460  0.3877 -0.2190
 8566SOL     OW37330   4.473   1.036  15.768  0.1222  0.0366  0.0491
 8566SOL    HW137331   4.444   0.960  15.819 -2.0685  0.2275 -0.9090
 8566SOL    HW237332   4.454   1.101  15.835  1.2434  0.3228  0.0884
 8567SOL     OW37333   0.866   2.504   6.214  0.4492 -0.1628  0.1599
 8567SOL    HW137334   0.955   2.507   6.179  1.5402  1.1480  3.0520
 8567SOL    HW237335   0.844   2.411   6.200 -0.5097  0.4615 -2.5260
 8568SOL     OW37336   2.969   1.422   9.638 -0.1053  0.7627 -0.0257
 8568SOL    HW137337   3.033   1.465   9.582 -0.8021  1.3736 -0.3561
 8568SOL    HW237338   2.898   1.487   9.637  1.9087  2.9343 -3.6001
 8569SOL     OW37339   1.740   3.281  10.210  0.4741  0.4680  0.5585
 8569SOL    HW137340   1.692   3.210  10.253  0.7228 -0.0431 -0.0003
 8569SOL    HW237341   1.828   3.258  10.241  0.1026  0.7188  1.7900
 8570SOL     OW37342   3.901   1.899   0.651 -0.1102  0.4370 -0.1618
 8570SOL    HW137343   3.880   1.949   0.572 -1.1386  0.9039  0.4034
 8570SOL    HW237344   3.818   1.858   0.678  1.5634 -1.8877  1.3999
 8571SOL     OW37345   0.969   4.490   7.463  0.2597  0.3385 -0.2210
 8571SOL    HW137346   0.877   4.508   7.449  0.8240  2.0387 -1.6377
 8571SOL    HW237347   0.995   4.541   7.540 -1.5696 -0.6184  1.0534
 8572SOL     OW37348   1.830   0.719  16.229  0.4705 -0.1341 -0.4025
 8572SOL    HW137349   1.882   0.676  16.296 -1.6306 -2.0244  0.0243
 8572SOL    HW237350   1.825   0.641  16.173  0.7668 -1.1092  0.9395
 8573SOL     OW37351   4.404   2.586   2.470 -0.1759  0.5482 -0.4767
 8573SOL    HW137352   4.392   2.535   2.550 -0.2347  1.0223 -0.1857
 8573SOL    HW237353   4.379   2.517   2.408  1.3937 -0.9636  0.5842
 8574SOL     OW37354   4.663   2.957   6.523 -0.2405 -0.3261 -0.0226
 8574SOL    HW137355   4.603   3.030   6.540  1.5352  1.0315  0.3943
 8574SOL    HW237356   0.004   2.998   6.566 -0.3459 -0.1269 -0.0258
 8575SOL     OW37357   1.748   2.003   0.742  0.0944  0.4185 -0.7846
 8575SOL    HW137358   1.714   2.039   0.824 -2.4792  0.1916 -1.7274
 8575SOL    HW237359   1.669   2.008   0.687 -0.4740  3.6151  0.2987
 8576SOL     OW37360   3.349   0.926  12.001 -0.2322  0.7957  0.5004
 8576SOL    HW137361   3.442   0.909  11.987 -0.5490  0.9477 -1.6996
 8576SOL    HW237362   3.352   0.982  12.079 -1.0595  0.0483  1.0793
 8577SOL     OW37363   2.785   4.732   2.411  0.2278 -0.2797 -0.1975
 8577SOL    HW137364   2.826   4.661   2.461 -1.1684 -0.4123  0.7549
 8577SOL    HW237365   2.712   0.024   2.467 -0.8588 -0.5590 -1.4716
 8578SOL     OW37366   4.372   3.314   8.583 -0.2731  0.7201 -0.8824
 8578SOL    HW137367   4.377   3.253   8.656  1.6910  2.8699  0.7589
 8578SOL    HW237368   4.334   3.256   8.516 -1.3244  0.2810  0.0883
 8579SOL     OW37369   3.799   2.087  17.687  0.7903 -0.0284 -0.4592
 8579SOL    HW137370   3.720   2.138  17.670  0.2488 -1.9178 -3.5423
 8579SOL    HW237371   3.795   2.006  17.635 -0.0398 -0.4452  0.2341
 8580SOL     OW37372   0.959   3.110   8.382 -0.2743  0.5504  0.0324
 8580SOL    HW137373   1.006   3.191   8.404  0.0548 -0.1168  1.8369
 8580SOL    HW237374   0.867   3.125   8.402  0.1421  1.2145  1.4979
 8581SOL     OW37375   1.599   3.030  17.195  0.2210  0.2705  0.3056
 8581SOL    HW137376   1.692   3.011  17.191  0.3578  0.8496  0.6743
 8581SOL    HW237377   1.583   3.045  17.102  2.7843  0.9201 -0.0332
 8582SOL     OW37378   0.346   0.334   9.307 -0.3863  0.1218 -0.1436
 8582SOL    HW137379   0.414   0.317   9.242 -1.4046 -3.1819 -0.3797
 8582SOL    HW237380   0.268   0.299   9.264 -1.5334  1.0275  1.1985
 8583SOL     OW37381   2.833   3.146   8.249 -0.5091 -0.0885 -0.1201
 8583SOL    HW137382   2.904   3.148   8.313 -0.6003 -0.5601 -0.0011
 8583SOL    HW237383   2.851   3.228   8.204 -1.5395  0.6841  0.8708
 8584SOL     OW37384   3.908   3.582  14.151  0.0536 -0.2463 -0.1889
 8584SOL    HW137385   3.849   3.643  14.196  1.3479 -0.3426  1.6399
 8584SOL    HW237386   3.992   3.619  14.179 -0.5710  0.5756  0.5806
 8585SOL     OW37387   0.300   2.067   0.158 -0.2139  0.1800 -0.2133
 8585SOL    HW137388   0.320   2.104   0.072  0.1104  0.9801  0.1988
 8585SOL    HW237389   0.345   2.128   0.218  0.2919 -0.3690 -0.0356
 8586SOL     OW37390   3.606   2.167   4.712 -0.1780 -0.0302  0.1861
 8586SOL    HW137391   3.621   2.116   4.791 -1.8246  0.7487  1.0080
 8586SOL    HW237392   3.688   2.213   4.727 -0.3736 -0.1723  1.6311
 8587SOL     OW37393   0.412   3.800   6.551  0.0231 -0.3919 -0.0475
 8587SOL    HW137394   0.455   3.871   6.504 -0.4371 -0.7144 -0.9678
 8587SOL    HW237395   0.319   3.824   6.549  0.4035  1.0637  0.5618
 8588SOL     OW37396   3.563   2.016   7.520  0.2468  0.4408 -0.1487
 8588SOL    HW137397   3.581   2.101   7.480 -1.1097  0.8796  0.1680
 8588SOL    HW237398   3.568   1.952   7.450  2.0183  0.8953 -0.4383
 8589SOL     OW37399   1.795   4.223   5.056 -0.1865 -0.4521  0.5434
 8589SOL    HW137400   1.858   4.199   5.123  1.7308  0.0977 -1.0688
 8589SOL    HW237401   1.734   4.279   5.104  1.5939  1.4210  0.6110
 8590SOL     OW37402   0.396   1.255  15.445  0.0479 -0.0331  0.1320
 8590SOL    HW137403   0.357   1.329  15.399  0.7128  0.6428  0.6524
 8590SOL    HW237404   0.329   1.233  15.509  1.6401 -0.5461  1.6219
 8591SOL     OW37405   4.468   4.164  14.088  0.0694 -0.4199  0.5327
 8591SOL    HW137406   4.432   4.076  14.079 -0.2915 -0.4372  2.0801
 8591SOL    HW237407   4.410   4.199  14.156  0.8222 -0.9766  1.4638
 8592SOL     OW37408   0.474   1.261   4.082  0.2454 -0.1669  0.7798
 8592SOL    HW137409   0.539   1.253   4.012 -1.2273 -0.9483 -0.4934
 8592SOL    HW237410   0.469   1.170   4.112 -0.9679 -0.2045  0.4538
 8593SOL     OW37411   3.813   2.388   4.791 -0.0167 -0.2845  0.0830
 8593SOL    HW137412   3.897   2.370   4.834  1.4224  2.6503 -1.5147
 8593SOL    HW237413   3.752   2.389   4.866 -0.1157 -0.9961  0.0144
 8594SOL     OW37414   3.111   3.402   2.319  0.3891  0.3654 -0.3027
 8594SOL    HW137415   3.197   3.373   2.349 -0.3893  0.0611  1.6185
 8594SOL    HW237416   3.103   3.496   2.335 -1.3384  0.0381  0.7986
 8595SOL     OW37417   2.003   3.065   7.777 -0.0174  0.8423 -0.3706
 8595SOL    HW137418   2.055   3.006   7.832 -0.2442 -1.0889 -2.2277
 8595SOL    HW237419   1.920   3.018   7.773  0.3690  0.0785  0.6704
 8596SOL     OW37420   4.327   2.046   3.423 -0.3074  0.2100  0.1574
 8596SOL    HW137421   4.254   2.105   3.441 -1.1271 -1.0835  1.1112
 8596SOL    HW237422   4.284   1.993   3.356 -2.0949  0.4038  1.1372
 8597SOL     OW37423   2.358   0.066   6.185 -0.1909  0.8027 -0.0104
 8597SOL    HW137424   2.385   0.047   6.095 -1.4877 -0.7895 -0.0688
 8597SOL    HW237425   2.302   4.723   6.194 -2.0507  2.2285  0.5641
 8598SOL     OW37426   3.849   0.153  11.236  0.0074 -0.1614  0.2001
 8598SOL    HW137427   3.854   0.063  11.267 -3.5896  0.8083  3.5973
 8598SOL    HW237428   3.760   0.181  11.258  0.5416  2.3604 -0.8119
 8599SOL     OW37429   3.703   0.617   1.580 -0.2642 -0.3142 -0.2845
 8599SOL    HW137430   3.770   0.572   1.529  1.1159 -1.0969  2.1898
 8599SOL    HW237431   3.769   0.674   1.620  0.2859 -1.6674  0.7439
 8600SOL     OW37432   3.794   3.723   9.489 -0.2409 -0.4897  0.5737
 8600SOL    HW137433   3.849   3.672   9.549  0.3771 -0.0500  0.3778
 8600SOL    HW237434   3.861   3.758   9.431 -0.8272 -1.7069 -0.8386
 8601SOL     OW37435   3.069   2.254   2.314 -0.0598  0.0043 -0.0708
 8601SOL    HW137436   3.007   2.248   2.241  0.4727  2.1909 -0.7062
 8601SOL    HW237437   3.038   2.187   2.375  0.6232 -1.5187 -1.3847
 8602SOL     OW37438   4.405   4.689   2.319 -0.0424  0.0724 -0.6345
 8602SOL    HW137439   4.445   0.025   2.268 -0.8289  2.3909  1.9130
 8602SOL    HW237440   4.483   4.647   2.355 -0.4407  0.2439  0.4355
 8603SOL     OW37441   0.136   2.385   6.842 -0.1639 -0.5040 -0.5519
 8603SOL    HW137442   0.127   2.457   6.905  1.6707 -0.2679 -0.5497
 8603SOL    HW237443   0.045   2.367   6.820 -0.1305 -0.6571 -0.5654
 8604SOL     OW37444   3.103   1.573   2.955  0.2940  0.1708  0.3672
 8604SOL    HW137445   3.008   1.568   2.965  0.3460  0.5097  0.9958
 8604SOL    HW237446   3.130   1.490   2.995  0.8510  0.9887  1.6809
 8605SOL     OW37447   4.501   4.499  11.115 -0.0157 -0.1224  0.1472
 8605SOL    HW137448   4.570   4.490  11.050  2.3278  1.7829  2.3769
 8605SOL    HW237449   4.430   4.452  11.071  0.1659 -1.0860  0.8728
 8606SOL     OW37450   1.272   2.459  17.303 -0.4951 -0.1588 -0.7890
 8606SOL    HW137451   1.327   2.535  17.282 -0.1909  0.0210  0.6494
 8606SOL    HW237452   1.201   2.458  17.239 -1.7726  0.5198  0.6407
 8607SOL     OW37453   4.279   3.486   3.316  0.4093  0.2285 -0.5961
 8607SOL    HW137454   4.249   3.522   3.399  0.0040  0.4044 -0.8210
 8607SOL    HW237455   4.360   3.438   3.332  0.0018 -0.8831 -1.9108
 8608SOL     OW37456   0.424   2.945  13.058  0.5947 -0.9376 -0.0482
 8608SOL    HW137457   0.484   2.986  12.996  1.5795 -1.2620  0.6827
 8608SOL    HW237458   0.418   2.857  13.020  3.1825 -1.1572  0.0311
 8609SOL     OW37459   4.597   0.537  10.963 -0.1879 -0.1527 -0.7761
 8609SOL    HW137460   4.557   0.530  10.876  1.2214  2.2947 -1.6256
 8609SOL    HW237461   4.526   0.559  11.022 -2.0739 -3.1171 -1.9821
 8610SOL     OW37462   1.878   4.508   4.821 -0.1176  0.3924  0.4196
 8610SOL    HW137463   1.896   4.587   4.871 -1.0441 -0.5300  2.2051
 8610SOL    HW237464   1.860   4.454   4.898 -0.1398  0.9388  0.7961
 8611SOL     OW37465   3.582   3.252   3.221  0.1275 -0.3946  0.3419
 8611SOL    HW137466   3.540   3.178   3.264  0.5153 -0.8651 -0.0963
 8611SOL    HW237467   3.512   3.294   3.171  1.2817 -0.8578 -1.6725
 8612SOL     OW37468   0.461   0.762  16.540 -0.0547 -0.3222 -0.5326
 8612SOL    HW137469   0.371   0.762  16.508 -1.1922 -1.8525  2.6207
 8612SOL    HW237470   0.463   0.822  16.615  0.6035 -1.4941  0.3895
 8613SOL     OW37471   4.660   2.900   6.144 -0.2371  0.0265  0.5768
 8613SOL    HW137472   0.001   2.864   6.191 -0.1569  0.2911  0.6503
 8613SOL    HW237473   4.679   2.993   6.154  1.1826 -0.2230  0.2120
 8614SOL     OW37474   0.652   1.249   3.397 -0.0607 -0.2231 -0.1002
 8614SOL    HW137475   0.660   1.332   3.444 -1.3752  0.4747 -1.1069
 8614SOL    HW237476   0.561   1.251   3.368  0.1859 -1.8848 -0.9524
 8615SOL     OW37477   4.083   3.562   3.136  0.0230 -0.2727  0.0894
 8615SOL    HW137478   4.144   3.503   3.181 -0.4085 -1.5994 -1.0497
 8615SOL    HW237479   4.144   3.583   3.066  0.3518 -2.2764 -0.2401
 8616SOL     OW37480   0.934   2.447   0.125 -0.0014  1.2348 -0.4263
 8616SOL    HW137481   0.852   2.438   0.077 -1.1986  2.0965  1.4706
 8616SOL    HW237482   0.988   2.379   0.086 -0.2089 -0.4616  2.2024
 8617SOL     OW37483   0.334   0.337   7.639 -0.3192 -0.2747 -0.0885
 8617SOL    HW137484   0.249   0.325   7.596  0.9903  1.2745 -3.1230
 8617SOL    HW237485   0.390   0.326   7.562 -0.3485 -0.4521 -0.0844
 8618SOL     OW37486   0.634   3.400   6.095 -0.2527  0.3527  0.1072
 8618SOL    HW137487   0.713   3.385   6.146  0.0521  1.1205 -0.1379
 8618SOL    HW237488   0.676   3.449   6.024 -0.0155 -0.4171 -0.2751
 8619SOL     OW37489   4.158   2.764  16.921 -0.0152 -0.0892 -0.8423
 8619SOL    HW137490   4.235   2.730  16.876  1.1115 -1.8442  2.4981
 8619SOL    HW237491   4.186   2.856  16.921 -1.2143  0.2635  2.5927
 8620SOL     OW37492   3.696   0.527  10.289  0.4786 -0.0293  0.1261
 8620SOL    HW137493   3.747   0.607  10.280  2.6078 -1.4822 -0.5937
 8620SOL    HW237494   3.735   0.488  10.367  0.6035 -1.3788 -0.6094
 8621SOL     OW37495   0.410   3.936  13.913 -0.3816  0.1884 -0.0150
 8621SOL    HW137496   0.472   3.870  13.882  1.5045  2.3347 -0.7869
 8621SOL    HW237497   0.348   3.878  13.956 -0.7011  1.0358  0.6689
 8622SOL     OW37498   0.606   0.744   2.489  0.8524 -0.0809  0.1075
 8622SOL    HW137499   0.621   0.650   2.500  1.8905  0.1361  0.5549
 8622SOL    HW237500   0.523   0.764   2.446  0.6510 -1.2788 -0.0685
 8623SOL     OW37501   3.083   3.297   2.015 -0.3348 -0.4334  0.0533
 8623SOL    HW137502   3.111   3.367   2.074 -3.4349  0.1112  0.8935
 8623SOL    HW237503   3.168   3.254   2.011 -0.3671 -0.6824  2.4150
 8624SOL     OW37504   0.809   0.077  17.096 -0.3434 -0.1980  0.2506
 8624SOL    HW137505   0.822   0.171  17.105 -2.7724  0.3843 -2.3985
 8624SOL    HW237506   0.780   0.075  17.005  1.6605 -0.2693 -0.3977
 8625SOL     OW37507   3.266   0.658  17.659  0.7281  0.8460  0.3860
 8625SOL    HW137508   3.226   0.687  17.576 -1.7570  2.0060  1.9940
 8625SOL    HW237509   3.222   0.580  17.691  2.1688 -0.1210  0.0165
 8626SOL     OW37510   1.603   3.226   5.458  0.7128  0.3027 -0.3438
 8626SOL    HW137511   1.591   3.252   5.366  0.3172  0.4863 -0.2416
 8626SOL    HW237512   1.572   3.136   5.446  1.3926  0.2906 -2.1055
 8627SOL     OW37513   2.504   3.527   7.623  0.0002 -0.3089 -0.3095
 8627SOL    HW137514   2.424   3.564   7.662  1.1216  0.6945  1.0576
 8627SOL    HW237515   2.566   3.588   7.664 -1.1934  0.7698 -0.0832
 8628SOL     OW37516   0.694   3.594   5.885  0.1853 -0.1830 -0.0386
 8628SOL    HW137517   0.684   3.679   5.842  2.7105 -0.1149 -0.4861
 8628SOL    HW237518   0.787   3.586   5.905  0.6294  0.4810 -1.8647
 8629SOL     OW37519   3.668   2.062   4.949  0.5157  0.1093  0.0174
 8629SOL    HW137520   3.628   1.998   5.008 -0.7902 -0.0449 -1.0271
 8629SOL    HW237521   3.654   2.142   5.001 -0.6610 -0.5615  0.7453
 8630SOL     OW37522   1.536   2.407   8.520  0.1296  0.6621 -0.2285
 8630SOL    HW137523   1.604   2.352   8.559 -2.4842 -0.7439  2.3653
 8630SOL    HW237524   1.508   2.459   8.595  0.3852  1.5376 -0.7346
 8631SOL     OW37525   3.421   1.486  17.549 -0.2373 -0.0148  0.4194
 8631SOL    HW137526   3.438   1.547  17.620 -0.4632  1.2267 -0.5837
 8631SOL    HW237527   3.352   1.423  17.569  0.0862 -0.8148 -0.9867
 8632SOL     OW37528   2.149   3.538   8.975  0.1311 -0.1486 -0.0547
 8632SOL    HW137529   2.154   3.617   9.029  0.8207 -0.9990  1.1341
 8632SOL    HW237530   2.055   3.525   8.972  0.1234 -0.1577  0.2189
 8633SOL     OW37531   0.229   3.869   0.390  0.0581 -0.1237 -0.1279
 8633SOL    HW137532   0.178   3.924   0.330 -0.2437 -1.6844 -1.3212
 8633SOL    HW237533   0.226   3.911   0.475 -0.6215 -0.1423 -0.1453
 8634SOL     OW37534   4.204   0.646   3.455  0.2170  0.1000  0.8982
 8634SOL    HW137535   4.178   0.735   3.477  0.0058  0.6025 -1.3156
 8634SOL    HW237536   4.179   0.595   3.532 -0.0133  1.5221  1.7642
 8635SOL     OW37537   2.288   1.027  15.186 -0.1048 -0.1673  0.4231
 8635SOL    HW137538   2.381   1.004  15.180  0.4601  2.1763 -0.1654
 8635SOL    HW237539   2.265   1.001  15.275 -0.8346  2.2938  0.9711
 8636SOL     OW37540   1.731   2.793   4.160  0.5899  0.0306 -0.1541
 8636SOL    HW137541   1.779   2.780   4.078 -1.0694  0.9311 -1.2529
 8636SOL    HW237542   1.665   2.856   4.132  0.6391  1.2459  2.4611
 8637SOL     OW37543   3.931   4.214   3.748  0.5002  0.0812 -0.5645
 8637SOL    HW137544   3.878   4.291   3.731  1.7834  1.1525  0.2958
 8637SOL    HW237545   4.005   4.229   3.689 -1.4984  0.1198 -3.0271
 8638SOL     OW37546   1.163   0.352   8.812  0.5989 -0.1989  0.3602
 8638SOL    HW137547   1.186   0.441   8.838  0.1885 -0.3210  1.1361
 8638SOL    HW237548   1.175   0.360   8.717  1.0140 -0.3415  0.4010
 8639SOL     OW37549   3.381   3.784  17.737  0.3304  0.5250  0.1389
 8639SOL    HW137550   3.322   3.713  17.712  1.0187 -0.8106  2.3574
 8639SOL    HW237551   3.322   3.859  17.725  0.0136  0.1410 -0.7465
 8640SOL     OW37552   1.379   0.489   3.961  0.0408  0.0219 -0.4621
 8640SOL    HW137553   1.441   0.439   3.908  1.2948  0.4348  0.6085
 8640SOL    HW237554   1.336   0.533   3.887  0.8294 -0.7494 -1.3826
 8641SOL     OW37555   0.141   2.435  16.060  0.6216 -0.5020 -0.1119
 8641SOL    HW137556   0.203   2.451  16.131  0.4871  2.1854 -0.5917
 8641SOL    HW237557   0.132   2.520  16.018 -0.2962 -0.3257  0.4280
 8642SOL     OW37558   3.214   1.993   6.765 -0.4370  0.2116  0.0056
 8642SOL    HW137559   3.213   1.981   6.860 -2.5889 -0.5317 -0.1235
 8642SOL    HW237560   3.126   2.006   6.732 -1.3726 -1.3124  1.9119
 8643SOL     OW37561   3.578   3.543   5.468  0.3630  0.2547  0.1166
 8643SOL    HW137562   3.495   3.537   5.420 -0.4300  2.3023  1.2045
 8643SOL    HW237563   3.577   3.461   5.516 -2.3852 -0.5127 -1.2376
 8644SOL     OW37564   4.688   2.169   7.368  0.4416  0.3615 -0.4888
 8644SOL    HW137565   0.047   2.186   7.360  0.5727  0.3164  0.9160
 8644SOL    HW237566   4.665   2.262   7.371 -0.1178  0.2398 -1.0544
 8645SOL     OW37567   2.420   0.247  10.880 -0.0544  0.1054 -0.5153
 8645SOL    HW137568   2.482   0.312  10.913 -1.7951  0.6896  1.6004
 8645SOL    HW237569   2.459   0.167  10.914 -0.7380 -0.4220 -0.9724
 8646SOL     OW37570   0.340   0.290   5.756 -0.1560  0.1554  0.7158
 8646SOL    HW137571   0.426   0.306   5.793 -0.3757 -1.7990  2.0833
 8646SOL    HW237572   0.305   0.231   5.823 -1.7397  1.8843  1.4249
 8647SOL     OW37573   3.158   0.759   9.021  0.2301  0.0563  0.2554
 8647SOL    HW137574   3.122   0.671   9.030 -2.6389  1.0278 -1.5656
 8647SOL    HW237575   3.166   0.766   8.926 -1.2053 -1.5268  0.0274
 8648SOL     OW37576   0.489   1.049   3.662 -0.2223  0.0162  0.4978
 8648SOL    HW137577   0.446   1.073   3.744 -1.0375 -1.4011  0.4896
 8648SOL    HW237578   0.440   1.098   3.596  2.2498  1.5384 -0.1841
 8649SOL     OW37579   4.616   2.450   4.203 -0.3405 -0.2041  0.4457
 8649SOL    HW137580   4.541   2.509   4.202  1.4138  2.0134 -1.2663
 8649SOL    HW237581   4.678   2.522   4.221  1.3291 -2.1744  2.5645
 8650SOL     OW37582   4.134   0.040   2.133 -0.5297  0.0776  0.3085
 8650SOL    HW137583   4.186   4.698   2.157 -2.0256 -0.7417  0.9605
 8650SOL    HW237584   4.067   4.725   2.087 -0.8118 -0.0749  0.8817
 8651SOL     OW37585   2.693   1.629   7.448 -1.2810 -0.0460  0.4194
 8651SOL    HW137586   2.650   1.644   7.363 -1.4625  0.5997  0.6256
 8651SOL    HW237587   2.628   1.675   7.501 -3.0950 -1.4708 -0.5742
 8652SOL     OW37588   1.292   2.727   4.876  0.3351  0.3795  0.4714
 8652SOL    HW137589   1.381   2.761   4.868  0.6243 -0.3747  0.4768
 8652SOL    HW237590   1.259   2.790   4.940  0.5184  0.6134  0.3331
 8653SOL     OW37591   2.697   0.429   2.399 -0.1473 -0.2263 -0.5557
 8653SOL    HW137592   2.693   0.521   2.425  1.2562  0.5420 -3.0403
 8653SOL    HW237593   2.645   0.387   2.468 -1.1182  0.2250 -1.0116
 8654SOL     OW37594   0.363   2.377   5.654 -0.3994 -0.5083  0.9402
 8654SOL    HW137595   0.394   2.287   5.656 -1.4513 -0.9310 -2.0492
 8654SOL    HW237596   0.406   2.413   5.577 -0.4384  0.9148  1.5681
 8655SOL     OW37597   0.827   2.657   8.963  0.3999  0.4730 -0.2927
 8655SOL    HW137598   0.905   2.703   8.992  0.7307 -0.8168  0.8285
 8655SOL    HW237599   0.835   2.637   8.870  0.0205 -0.1734 -0.1897
 8656SOL     OW37600   2.688   3.410   2.169 -0.5227 -0.2706 -0.0109
 8656SOL    HW137601   2.724   3.471   2.233 -2.2544  0.0566  0.6756
 8656SOL    HW237602   2.680   3.469   2.095  0.2271  1.3076  1.1783
 8657SOL     OW37603   3.106   1.693   7.305 -0.0798 -0.0217 -0.3513
 8657SOL    HW137604   3.088   1.605   7.271 -0.0507 -0.2554  0.2530
 8657SOL    HW237605   3.200   1.683   7.322 -0.1683  0.1336  0.2286
 8658SOL     OW37606   4.729   1.275  16.076  0.3344  0.4160 -0.0837
 8658SOL    HW137607   0.056   1.321  16.019  2.1299 -0.4553  1.1493
 8658SOL    HW237608   4.724   1.329  16.155 -0.7483 -0.7156  0.6317
 8659SOL     OW37609   2.538   2.884   2.707 -0.1869 -0.2873 -0.1980
 8659SOL    HW137610   2.525   2.824   2.634  0.6520  0.5015 -0.9869
 8659SOL    HW237611   2.616   2.932   2.681  0.0280 -1.4038 -1.5894
 8660SOL     OW37612   1.636   3.869   8.678 -0.1217  0.0817  0.3531
 8660SOL    HW137613   1.689   3.936   8.721  1.1019 -0.2361 -0.6371
 8660SOL    HW237614   1.588   3.821   8.745  1.8862  0.8169  2.2992
 8661SOL     OW37615   1.035   4.433   3.338  0.0498  0.0859  0.0353
 8661SOL    HW137616   1.098   4.500   3.311 -1.7944  1.0324 -1.9203
 8661SOL    HW237617   1.092   4.377   3.391  1.3542 -0.9748 -2.5237
 8662SOL     OW37618   1.108   1.065   1.937  0.0495  0.1781 -0.1299
 8662SOL    HW137619   1.160   1.124   1.883  0.7405 -0.1870  0.1346
 8662SOL    HW237620   1.078   1.116   2.012 -0.3313 -1.9966  1.2178
 8663SOL     OW37621   0.785   0.999   6.224 -0.0633 -0.6739 -0.0963
 8663SOL    HW137622   0.840   1.077   6.227 -0.9986  0.0348 -1.8825
 8663SOL    HW237623   0.758   0.990   6.315 -1.1561 -1.1750 -0.4755
 8664SOL     OW37624   4.173   0.002  13.142 -0.3193 -0.1731 -0.9551
 8664SOL    HW137625   4.181   0.094  13.168 -3.5745 -0.3832  0.8237
 8664SOL    HW237626   4.218   4.692  13.214 -1.9780  1.0021  0.8241
 8665SOL     OW37627   3.385   3.488   5.905  0.4860 -0.1640 -0.1974
 8665SOL    HW137628   3.390   3.413   5.965 -1.7503 -0.9886 -1.0728
 8665SOL    HW237629   3.390   3.562   5.966  3.9896 -0.7675  0.2514
 8666SOL     OW37630   3.102   2.294   8.200 -0.0106  0.3190 -0.2050
 8666SOL    HW137631   3.042   2.273   8.129 -0.6213 -0.3952  0.5171
 8666SOL    HW237632   3.183   2.277   8.152  0.7381 -2.6966  2.1118
 8667SOL     OW37633   1.305   1.035   6.498 -0.7020  0.2011 -0.1959
 8667SOL    HW137634   1.366   1.095   6.455 -1.5368  1.7547  0.8075
 8667SOL    HW237635   1.243   0.999   6.435 -2.0463 -0.3340  1.4187
 8668SOL     OW37636   4.659   0.823  17.678 -0.1492  0.2004  0.4239
 8668SOL    HW137637   4.664   0.900  17.735 -0.2870  0.3615  0.2185
 8668SOL    HW237638   4.710   0.757  17.724  0.4733  1.4281  1.5112
 8669SOL     OW37639   0.992   3.917   2.140 -0.1425 -0.1950 -0.2221
 8669SOL    HW137640   0.990   3.823   2.123 -1.1383 -0.3476  0.8094
 8669SOL    HW237641   0.987   3.922   2.235 -0.6783 -0.7313 -0.2261
 8670SOL     OW37642   3.573   3.253   6.962 -0.5366 -0.0956  0.6704
 8670SOL    HW137643   3.482   3.245   6.991 -0.9000 -1.3608 -0.8065
 8670SOL    HW237644   3.611   3.171   6.995 -1.0817 -0.2263  0.9675
 8671SOL     OW37645   4.233   2.814   6.487  0.3531 -0.2728  0.4143
 8671SOL    HW137646   4.316   2.768   6.477  1.1024  0.9228  1.1368
 8671SOL    HW237647   4.255   2.907   6.493  0.5996 -0.4278  1.8815
 8672SOL     OW37648   0.015   0.011   6.543  0.1885 -0.3957 -0.1848
 8672SOL    HW137649   0.072   4.684   6.590  0.2215 -1.0334 -1.0615
 8672SOL    HW237650   4.666   4.713   6.576 -1.3596  1.7708 -1.9798
 8673SOL     OW37651   0.508   1.634   7.842  0.0148  0.2325  0.4590
 8673SOL    HW137652   0.538   1.711   7.794 -1.1033 -0.0364 -0.6490
 8673SOL    HW237653   0.427   1.608   7.798  0.8937 -2.7710  0.6481
 8674SOL     OW37654   3.938   1.704   8.081 -0.2449  0.2326  0.2724
 8674SOL    HW137655   3.868   1.638   8.080  1.9589 -2.0413 -2.1751
 8674SOL    HW237656   3.901   1.763   8.147 -0.6464  0.5243 -0.2085
 8675SOL     OW37657   2.601   2.502   2.888 -0.3691 -0.6548 -0.1150
 8675SOL    HW137658   2.536   2.432   2.879 -1.1982  0.1644 -0.5445
 8675SOL    HW237659   2.663   2.471   2.822 -0.4320 -1.6365  0.2801
 8676SOL     OW37660   3.855   0.460   8.621  0.1780  0.6025 -0.3536
 8676SOL    HW137661   3.906   0.458   8.540 -2.9157 -0.4330 -2.2477
 8676SOL    HW237662   3.827   0.369   8.614  2.3954  0.0594 -2.1187
 8677SOL     OW37663   1.186   0.180   8.460  0.3898 -0.2730 -0.3976
 8677SOL    HW137664   1.237   0.252   8.497  0.6711 -1.2050  1.0621
 8677SOL    HW237665   1.142   0.149   8.540 -2.8009 -0.2299 -2.1428
 8678SOL     OW37666   1.535   2.632  16.431  0.3608 -0.3433  0.4593
 8678SOL    HW137667   1.606   2.652  16.369  0.0085 -1.1556 -0.2098
 8678SOL    HW237668   1.547   2.539  16.448  0.0563 -0.2317  1.2541
 8679SOL     OW37669   4.175   1.081   5.898 -0.4447  0.4004 -0.2736
 8679SOL    HW137670   4.104   1.065   5.960 -0.4526  2.5084  0.2545
 8679SOL    HW237671   4.128   1.097   5.816  0.5638  1.0715 -0.7172
 8680SOL     OW37672   2.884   2.060  10.011  0.5265 -0.3972  0.1316
 8680SOL    HW137673   2.914   2.127   9.949 -0.8144 -0.1791 -0.2803
 8680SOL    HW237674   2.942   2.091  10.081  0.4494 -1.4031  0.6481
 8681SOL     OW37675   2.289   4.570  15.896  0.1457  0.1928  0.5823
 8681SOL    HW137676   2.347   4.630  15.850  0.1556  0.2068  0.6130
 8681SOL    HW237677   2.325   4.486  15.869  1.9890  0.7892  1.1959
 8682SOL     OW37678   2.513   3.870  10.949  0.2310  0.4136 -0.8865
 8682SOL    HW137679   2.468   3.940  10.902 -1.1401  0.7258  0.9300
 8682SOL    HW237680   2.528   3.801  10.884  0.3689  2.1312 -2.7079
 8683SOL     OW37681   1.343   4.517   6.345 -0.1573 -1.2931  0.3092
 8683SOL    HW137682   1.352   4.613   6.347  3.5471 -1.6860  2.2810
 8683SOL    HW237683   1.432   4.493   6.369 -0.2071 -1.7112  0.0558
 8684SOL     OW37684   1.773   3.531   4.597  0.0353  0.3305 -0.3243
 8684SOL    HW137685   1.808   3.446   4.571  2.4452  0.5592  2.2369
 8684SOL    HW237686   1.688   3.494   4.620 -0.4962  0.9608 -1.2546
 8685SOL     OW37687   0.232   2.444   2.197  0.4310 -0.1141 -0.3672
 8685SOL    HW137688   0.163   2.464   2.133  1.9313  0.5581 -1.7788
 8685SOL    HW237689   0.181   2.465   2.275  0.0087  1.4965 -1.0848
 8686SOL     OW37690   4.353   1.150   1.328 -0.1833  0.2825 -0.3033
 8686SOL    HW137691   4.261   1.169   1.346 -0.1530  0.0647  0.0945
 8686SOL    HW237692   4.386   1.239   1.325 -0.1274  0.2647 -0.2067
 8687SOL     OW37693   0.862   3.694   3.807 -0.2648  0.4045  0.0417
 8687SOL    HW137694   0.773   3.665   3.823 -0.5617  1.4208  0.1901
 8687SOL    HW237695   0.847   3.775   3.758  1.2862 -0.7481 -2.3581
 8688SOL     OW37696   4.313   2.666  12.027 -0.7065  0.2939 -0.2397
 8688SOL    HW137697   4.390   2.694  12.076 -0.8711  0.7869 -0.2642
 8688SOL    HW237698   4.244   2.669  12.094 -0.5321 -1.7916  0.0268
 8689SOL     OW37699   0.027   1.883   4.265  0.1162 -0.2368  0.1086
 8689SOL    HW137700   0.002   1.961   4.216  0.1482  0.2449  0.8563
 8689SOL    HW237701   0.088   1.843   4.203 -0.7647 -0.6159 -0.5150
 8690SOL     OW37702   2.169   2.150  15.145  0.1461  0.3937  0.1109
 8690SOL    HW137703   2.175   2.075  15.086 -0.3658 -0.5526  1.2694
 8690SOL    HW237704   2.238   2.122  15.205 -0.4123 -0.5351  0.3005
 8691SOL     OW37705   2.354   0.714   8.177 -0.3253  1.0437  0.3430
 8691SOL    HW137706   2.327   0.735   8.266  0.3610  0.8731  0.5902
 8691SOL    HW237707   2.406   0.635   8.193  0.7892  1.5856 -0.5980
 8692SOL     OW37708   1.761   0.560  12.046  0.1594 -0.3861 -0.3303
 8692SOL    HW137709   1.791   0.504  12.118  0.5164  1.2209  0.7738
 8692SOL    HW237710   1.844   0.601  12.020  0.2079  1.4370  2.7254
 8693SOL     OW37711   0.642   2.997  12.904 -0.6158  0.5296 -0.1582
 8693SOL    HW137712   0.597   2.983  12.821 -0.2533 -1.2850 -0.0584
 8693SOL    HW237713   0.716   3.055  12.886  0.7548 -0.3684  2.5013
 8694SOL     OW37714   4.094   4.415  17.087  0.2475 -0.4589 -0.1951
 8694SOL    HW137715   4.123   4.409  16.996  0.6399  0.9152 -0.1629
 8694SOL    HW237716   4.015   4.360  17.086  0.3176 -0.5792  0.4863
 8695SOL     OW37717   0.501   2.178   7.028 -0.2650 -0.1794  0.3908
 8695SOL    HW137718   0.465   2.117   6.964 -0.0690 -0.0163  0.1245
 8695SOL    HW237719   0.498   2.265   6.988  1.5578  0.0920  0.8152
 8696SOL     OW37720   2.990   1.417   0.650 -0.1578  0.2590 -0.1461
 8696SOL    HW137721   2.905   1.462   0.654  0.0844  0.9183 -2.5113
 8696SOL    HW237722   3.038   1.471   0.712 -1.2953  1.0921  0.0123
 8697SOL     OW37723   4.411   1.086   8.852  0.3377 -0.0039 -0.5123
 8697SOL    HW137724   4.403   1.097   8.757  1.1471 -0.3328 -0.6214
 8697SOL    HW237725   4.502   1.055   8.857  0.7228  1.1571 -0.1587
 8698SOL     OW37726   2.860   2.781   6.626 -0.0670 -0.5215 -0.1469
 8698SOL    HW137727   2.805   2.719   6.578 -1.9331  0.0835  1.1970
 8698SOL    HW237728   2.923   2.721   6.667  2.2241  1.6889 -0.4428
 8699SOL     OW37729   1.547   4.170  11.609 -0.1548  0.3154 -0.3925
 8699SOL    HW137730   1.475   4.162  11.546 -0.9379  0.5179  0.4638
 8699SOL    HW237731   1.521   4.093  11.661  0.1747  0.9047  0.6553
 8700SOL     OW37732   3.433   0.071   2.145 -0.2408  0.1668 -0.4071
 8700SOL    HW137733   3.498   0.027   2.091 -1.1217  0.4942 -1.7156
 8700SOL    HW237734   3.393   0.132   2.084 -1.3986  0.1632  0.3378
 8701SOL     OW37735   3.000   1.760   2.356  0.5610 -0.1949 -0.1255
 8701SOL    HW137736   3.034   1.680   2.315  0.2996 -2.0075  3.1810
 8701SOL    HW237737   2.988   1.813   2.278  0.7205  0.4641  0.2981
 8702SOL     OW37738   2.464   0.526  12.957 -0.0905  0.3273  0.6176
 8702SOL    HW137739   2.395   0.462  12.975 -1.9487  1.6012 -2.0453
 8702SOL    HW237740   2.418   0.567  12.883 -2.0829 -0.3925  1.4515
 8703SOL     OW37741   2.221   4.014   3.993 -0.0795 -0.1902  0.0799
 8703SOL    HW137742   2.233   3.921   3.975  2.5980 -0.1190  1.5285
 8703SOL    HW237743   2.142   4.038   3.943 -0.4792  0.7502  1.1597
 8704SOL     OW37744   2.529   1.527   2.389 -0.4110 -0.3785 -0.0158
 8704SOL    HW137745   2.618   1.540   2.355 -0.2764 -0.7519  0.1981
 8704SOL    HW237746   2.522   1.437   2.419  0.9493 -0.6745 -0.5637
 8705SOL     OW37747   0.050   2.513   2.979 -0.7191 -0.6023  0.3609
 8705SOL    HW137748   0.047   2.474   3.067 -2.0840 -0.2877  0.4394
 8705SOL    HW237749   0.038   2.437   2.922  1.3562 -2.7972  2.7682
 8706SOL     OW37750   3.346   4.151   9.066 -0.0946  0.1528  0.3184
 8706SOL    HW137751   3.366   4.064   9.101  1.5887 -0.1542 -1.4208
 8706SOL    HW237752   3.431   4.195   9.057 -0.9214  2.0352  1.8258
 8707SOL     OW37753   0.082   0.594  11.337  0.1448  0.2689  0.1220
 8707SOL    HW137754   4.729   0.620  11.366  0.7037  0.5324  1.5406
 8707SOL    HW237755   0.078   0.618  11.244 -0.2595 -1.0118 -0.1870
 8708SOL     OW37756   1.006   3.221   3.694  0.3588 -0.2605 -0.5401
 8708SOL    HW137757   1.008   3.255   3.604 -3.1483 -0.6696 -0.7532
 8708SOL    HW237758   1.058   3.140   3.691  0.3397 -0.2544 -1.0303
 8709SOL     OW37759   1.090   1.280   8.505 -0.2862  0.1569 -0.8806
 8709SOL    HW137760   1.089   1.331   8.424  0.9567 -0.4553 -1.2813
 8709SOL    HW237761   1.163   1.220   8.489 -1.3903 -0.9980 -1.5214
 8710SOL     OW37762   0.330   1.236   4.747 -0.0552 -0.3001  0.3853
 8710SOL    HW137763   0.395   1.207   4.811 -0.0263  0.0237  0.5049
 8710SOL    HW237764   0.268   1.272   4.810  1.4082 -0.3042  1.8359
 8711SOL     OW37765   0.207   0.928  16.679 -0.2553  0.8392  0.7046
 8711SOL    HW137766   0.128   0.959  16.722 -0.4216  1.6745 -0.2107
 8711SOL    HW237767   0.198   0.952  16.587 -0.8506 -2.5604 -0.1299
 8712SOL     OW37768   0.054   0.571  15.242  0.2315 -0.4458  0.2688
 8712SOL    HW137769   0.067   0.649  15.189 -0.7607  0.7216  1.7310
 8712SOL    HW237770   4.713   0.598  15.294 -1.0537  2.7323 -3.2720
 8713SOL     OW37771   3.609   2.828   7.390 -0.1069  0.4885  0.0614
 8713SOL    HW137772   3.691   2.787   7.361  0.4035 -0.6484  3.1027
 8713SOL    HW237773   3.606   2.891   7.318 -0.1320 -0.5669 -0.8704
 8714SOL     OW37774   3.630   1.262   3.342 -0.2455  0.0198  0.4038
 8714SOL    HW137775   3.610   1.299   3.256  0.9399  0.4311  0.3134
 8714SOL    HW237776   3.689   1.324   3.385  0.1926 -0.5720  0.6495
 8715SOL     OW37777   2.287   4.072  15.161  0.7008  0.4220 -0.0812
 8715SOL    HW137778   2.293   4.036  15.073  0.2952 -0.5976  0.3155
 8715SOL    HW237779   2.288   3.999  15.222 -3.0776 -0.0004 -0.5292
 8716SOL     OW37780   4.525   0.885   5.499  0.0510  0.1207  0.2507
 8716SOL    HW137781   4.446   0.937   5.508 -0.0437 -0.1822  1.1905
 8716SOL    HW237782   4.545   0.893   5.592  0.4167 -0.6351  0.2410
 8717SOL     OW37783   2.452   3.815   3.482  0.2005  0.3464 -0.2974
 8717SOL    HW137784   2.362   3.828   3.451  0.4809 -0.5400 -1.4621
 8717SOL    HW237785   2.502   3.879   3.432 -0.2227 -0.5214 -1.8330
 8718SOL     OW37786   1.616   2.711   0.647  0.2655  0.7549  0.4374
 8718SOL    HW137787   1.694   2.660   0.623 -0.1236 -0.0660  0.8969
 8718SOL    HW237788   1.594   2.665   0.728  3.1172 -0.5637  0.4769
 8719SOL     OW37789   4.295   0.272   1.262  0.2313  0.3452  0.8846
 8719SOL    HW137790   4.351   0.195   1.276  0.9205  0.9761  1.6086
 8719SOL    HW237791   4.244   0.271   1.342  1.6223 -1.5647  1.7580
 8720SOL     OW37792   0.569   2.589   2.350  0.0606 -0.5121 -0.5160
 8720SOL    HW137793   0.663   2.574   2.338  0.1096  0.1948 -1.0682
 8720SOL    HW237794   0.535   2.518   2.296 -0.7226 -2.4206  2.4862
 8721SOL     OW37795   4.379   3.601   9.817  0.4832  0.1343 -0.0454
 8721SOL    HW137796   4.303   3.571   9.767  0.7903 -0.7547  0.0210
 8721SOL    HW237797   4.354   3.689   9.846  0.8805  0.7666 -1.6416
 8722SOL     OW37798   2.001   1.246   6.467  0.0771 -0.7345  0.0388
 8722SOL    HW137799   2.063   1.236   6.539 -0.2839  0.5033  0.5225
 8722SOL    HW237800   2.021   1.166   6.418 -0.8160 -0.5248 -0.6728
 8723SOL     OW37801   3.285   4.190  13.714 -0.0875  0.1567 -0.6917
 8723SOL    HW137802   3.371   4.228  13.732 -0.1840 -0.5833  1.4266
 8723SOL    HW237803   3.301   4.141  13.634 -0.8693  0.3774 -0.9792
 8724SOL     OW37804   1.888   0.201   7.713  0.1065 -0.1483  0.5388
 8724SOL    HW137805   1.944   0.277   7.698  0.8050 -0.8303 -0.2407
 8724SOL    HW237806   1.819   0.225   7.776  1.1534  0.4841  1.4517
 8725SOL     OW37807   0.473   2.704  12.978 -0.6219 -0.1420 -0.3617
 8725SOL    HW137808   0.552   2.666  13.016  0.5773  0.7285 -1.9727
 8725SOL    HW237809   0.476   2.670  12.889 -1.1859  1.4855 -1.0093
 8726SOL     OW37810   1.978   2.731   3.286  0.4299 -0.2724 -0.8929
 8726SOL    HW137811   1.985   2.789   3.210  0.3742  0.8459 -0.0511
 8726SOL    HW237812   2.062   2.688   3.301  0.6425  0.0804 -1.0599
 8727SOL     OW37813   4.403   1.825  17.108  0.3490 -0.3726 -0.2470
 8727SOL    HW137814   4.370   1.819  17.018 -2.0181 -0.3430  0.6290
 8727SOL    HW237815   4.332   1.780  17.154  0.4723  0.2399  0.5348
 8728SOL     OW37816   4.070   1.322   7.526  0.1368 -0.0110 -0.0814
 8728SOL    HW137817   4.079   1.380   7.450  1.4267 -2.0494 -1.4918
 8728SOL    HW237818   4.017   1.255   7.483 -0.0799 -0.6216  1.1252
 8729SOL     OW37819   2.164   3.014  10.475 -0.3602  0.4543  0.2358
 8729SOL    HW137820   2.232   2.951  10.496 -0.4731  0.6068  1.0604
 8729SOL    HW237821   2.096   2.956  10.439  0.6869 -0.1616 -0.7691
 8730SOL     OW37822   2.035   2.715   9.111 -0.2793 -0.1241  0.2119
 8730SOL    HW137823   1.955   2.678   9.147  1.0564 -2.2637  0.9488
 8730SOL    HW237824   2.050   2.653   9.039  0.0800  0.7965 -0.5089
 8731SOL     OW37825   1.170   0.541   6.908 -0.3816  0.2425 -0.7518
 8731SOL    HW137826   1.101   0.559   6.973 -0.6402  0.8143 -1.1856
 8731SOL    HW237827   1.175   0.446   6.908 -1.9966  0.1576 -0.7924
 8732SOL     OW37828   4.107   3.751  15.023  0.0898 -0.0659  0.5683
 8732SOL    HW137829   4.182   3.773  15.079 -0.8535  0.3508  1.6718
 8732SOL    HW237830   4.085   3.842  15.000 -1.0611  0.1860  2.6777
 8733SOL     OW37831   4.479   1.455   8.129  0.0970 -0.4905 -0.1897
 8733SOL    HW137832   4.518   1.379   8.171  0.1013 -0.3314  0.0890
 8733SOL    HW237833   4.434   1.419   8.052 -1.8509  2.5624 -0.5074
 8734SOL     OW37834   4.042   2.232   2.038 -0.2978  0.2416 -0.1378
 8734SOL    HW137835   4.083   2.315   2.061  2.0605 -1.0927  0.5278
 8734SOL    HW237836   4.096   2.194   1.968  0.0176  1.1202 -0.3682
 8735SOL     OW37837   0.210   4.528   5.356  0.5277 -0.2852 -0.3186
 8735SOL    HW137838   0.135   4.470   5.368  0.6831 -0.7904 -1.8556
 8735SOL    HW237839   0.162   4.594   5.307  1.4167  1.1783  0.7951
 8736SOL     OW37840   3.083   1.041   6.589 -0.1758 -0.1184  0.2744
 8736SOL    HW137841   3.103   1.068   6.679 -1.1854  0.0111  0.4718
 8736SOL    HW237842   2.989   1.050   6.605 -0.2970 -1.3035  0.2042
 8737SOL     OW37843   1.982   2.817  14.083  0.0961 -0.1993  0.5269
 8737SOL    HW137844   1.951   2.901  14.050  0.4239 -0.0787  0.5348
 8737SOL    HW237845   1.986   2.849  14.174  3.0122  0.7573  0.0448
 8738SOL     OW37846   2.329   0.526   7.095 -0.1582 -0.0658 -0.4774
 8738SOL    HW137847   2.380   0.448   7.075 -1.5996 -1.1604  0.1425
 8738SOL    HW237848   2.394   0.578   7.142  1.1542 -0.6000 -1.7062
 8739SOL     OW37849   3.277   2.979  12.560 -0.1595 -0.0528 -1.0590
 8739SOL    HW137850   3.363   2.947  12.589 -0.1750 -0.9775 -2.0223
 8739SOL    HW237851   3.249   3.003  12.649  0.0096  0.2742 -1.0942
 8740SOL     OW37852   1.119   2.836   6.813  0.0646 -0.4801 -0.5089
 8740SOL    HW137853   1.132   2.822   6.720  0.8243 -0.2705 -0.4353
 8740SOL    HW237854   1.179   2.768   6.847  0.6521  0.3673  0.1546
 8741SOL     OW37855   4.433   3.196   1.736 -0.1350  0.1119  0.5178
 8741SOL    HW137856   4.384   3.175   1.656  0.0773  1.1765  0.1139
 8741SOL    HW237857   4.500   3.128   1.731 -1.3988 -1.1663  0.8849
 8742SOL     OW37858   2.317   0.793   2.796  0.1050 -0.4369 -0.1487
 8742SOL    HW137859   2.285   0.879   2.768  2.3368  0.4181 -0.0949
 8742SOL    HW237860   2.327   0.807   2.890 -1.7379  0.9340 -0.1576
 8743SOL     OW37861   3.447   4.554   3.945  0.3391 -0.4018 -0.7319
 8743SOL    HW137862   3.448   4.603   4.027  0.9609  1.6595 -1.9616
 8743SOL    HW237863   3.436   4.635   3.895  2.0887  0.5980  0.4908
 8744SOL     OW37864   4.435   0.646   1.559 -0.2460 -0.3160 -0.2160
 8744SOL    HW137865   4.510   0.660   1.500 -1.4525  0.0348 -1.6738
 8744SOL    HW237866   4.466   0.568   1.605  0.1816  0.5172  0.8904
 8745SOL     OW37867   2.430   0.356  11.175  0.4136 -0.7242 -0.3006
 8745SOL    HW137868   2.476   0.392  11.250 -1.3231  1.5498 -0.3440
 8745SOL    HW237869   2.342   0.370  11.209 -0.1465  0.5032 -2.2638
 8746SOL     OW37870   2.881   4.510   3.637 -0.3131  0.2987 -0.1676
 8746SOL    HW137871   2.941   4.512   3.712 -3.2858  1.7335  2.1803
 8746SOL    HW237872   2.947   4.518   3.568 -0.3614  2.6686  0.0409
 8747SOL     OW37873   3.453   0.662   8.100  0.3026  0.5806 -0.5119
 8747SOL    HW137874   3.544   0.681   8.076  0.3753  1.3249  0.3492
 8747SOL    HW237875   3.425   0.739   8.149  0.5984  0.9641 -0.9445
 8748SOL     OW37876   3.310   0.820   5.426 -0.1315 -0.0922  0.0063
 8748SOL    HW137877   3.333   0.841   5.336 -1.0490 -3.5245 -1.0024
 8748SOL    HW237878   3.216   0.800   5.428  0.0387 -1.0304 -1.7804
 8749SOL     OW37879   3.999   4.518   0.254 -0.3101  0.9604 -0.9060
 8749SOL    HW137880   3.926   4.577   0.274  0.3768  1.3201  0.5307
 8749SOL    HW237881   4.014   4.534   0.161  0.2474  2.8395 -0.4913
 8750SOL     OW37882   0.699   3.581   1.978  0.8075  0.0959 -0.0163
 8750SOL    HW137883   0.641   3.529   1.922  1.3153 -2.1072  1.5167
 8750SOL    HW237884   0.755   3.629   1.916  1.6662  0.1551  0.7969
 8751SOL     OW37885   2.366   2.973   4.990  0.4995 -0.2972 -0.0974
 8751SOL    HW137886   2.277   2.992   4.960  0.2780 -0.9978  0.1180
 8751SOL    HW237887   2.357   2.883   5.021  0.4856 -0.6908 -1.2701
 8752SOL     OW37888   2.015   3.203   9.610 -0.1895 -0.4312  0.0283
 8752SOL    HW137889   2.056   3.283   9.579 -1.4075 -0.1993 -0.9625
 8752SOL    HW237890   2.076   3.166   9.674  0.2195 -0.4754 -0.3925
 8753SOL     OW37891   2.121   0.529   3.612 -0.2901  0.4201 -0.0938
 8753SOL    HW137892   2.096   0.620   3.628 -0.3756  0.3206  0.3327
 8753SOL    HW237893   2.064   0.512   3.537 -0.9127 -0.9418  0.6880
 8754SOL     OW37894   3.288   0.773   2.009 -0.0400 -0.2118 -0.1383
 8754SOL    HW137895   3.216   0.807   2.062 -1.5796 -1.3518 -1.5025
 8754SOL    HW237896   3.255   0.703   1.952  2.3106 -3.1680  2.2024
 8755SOL     OW37897   2.105   4.406   3.889  0.2820  0.2421 -0.0881
 8755SOL    HW137898   2.189   4.428   3.850  0.7092 -0.1271  0.6282
 8755SOL    HW237899   2.082   4.492   3.924 -2.5166  0.1111 -1.5822
 8756SOL     OW37900   1.957   2.217   1.440 -0.5335  0.5577 -0.7583
 8756SOL    HW137901   1.915   2.131   1.438  1.2144 -0.2779 -2.5810
 8756SOL    HW237902   2.045   2.206   1.403  0.1747  2.7882  0.3177
 8757SOL     OW37903   0.954   1.427   6.963 -0.5721  0.3622  0.6104
 8757SOL    HW137904   0.915   1.514   6.972 -1.1082  0.3075 -1.1916
 8757SOL    HW237905   0.875   1.374   6.957 -1.0456  1.5674 -3.5847
 8758SOL     OW37906   4.626   3.913   4.600 -0.2182  0.3985 -0.0821
 8758SOL    HW137907   4.538   3.949   4.597  0.5762  2.2742 -0.8381
 8758SOL    HW237908   4.648   3.920   4.693  2.0224  0.6176 -0.6326
 8759SOL     OW37909   2.263   0.501  13.860 -0.0910 -0.2605  0.2260
 8759SOL    HW137910   2.230   0.574  13.913 -2.0864 -0.8919 -0.1570
 8759SOL    HW237911   2.265   0.540  13.773  0.8847  3.5753  1.9408
 8760SOL     OW37912   2.031   0.152  15.815  0.1739 -0.3310 -0.4970
 8760SOL    HW137913   1.971   0.201  15.758  0.0191 -1.1712 -1.0530
 8760SOL    HW237914   1.972   0.082  15.840  2.5012 -1.0337  2.8681
 8761SOL     OW37915   0.863   3.602   6.144  0.2283  0.7663 -0.2343
 8761SOL    HW137916   0.924   3.632   6.077 -0.8694  3.6054  0.0118
 8761SOL    HW237917   0.811   3.679   6.169 -2.3885 -0.7851 -0.8999
 8762SOL     OW37918   4.051   1.089   2.015 -0.1385  0.2229 -0.0538
 8762SOL    HW137919   4.096   1.169   1.987  2.1058 -1.1323 -0.3498
 8762SOL    HW237920   3.986   1.133   2.070 -1.5170  0.3857 -1.7987
 8763SOL     OW37921   2.122   0.479   8.162  0.2442  0.5412  0.0784
 8763SOL    HW137922   2.164   0.396   8.141 -0.7405  0.5420 -1.9176
 8763SOL    HW237923   2.165   0.542   8.103 -1.1763  0.0600 -1.4683
 8764SOL     OW37924   2.799   1.271   2.979 -0.1634 -0.0566 -0.5911
 8764SOL    HW137925   2.814   1.183   2.946 -0.8115 -0.8633  1.2773
 8764SOL    HW237926   2.728   1.262   3.044  0.2971 -2.3830 -0.4307
 8765SOL     OW37927   1.878   2.188  13.833 -0.0103 -0.0157  0.6601
 8765SOL    HW137928   1.935   2.223  13.765 -0.4380  1.1779  0.9258
 8765SOL    HW237929   1.874   2.260  13.895 -1.9373 -0.4666  1.0652
 8766SOL     OW37930   1.375   3.170   0.932  0.2556 -0.2320 -0.0832
 8766SOL    HW137931   1.446   3.232   0.946 -0.0136 -0.1235  0.8418
 8766SOL    HW237932   1.421   3.113   0.871 -0.1962 -0.5322 -0.1484
 8767SOL     OW37933   0.211   1.254  16.709  0.9144 -0.1882 -0.2131
 8767SOL    HW137934   0.251   1.210  16.634  0.5330  1.0295 -1.1278
 8767SOL    HW237935   0.239   1.344  16.693 -0.2605  0.2956  0.4370
 8768SOL     OW37936   3.695   0.482   6.945 -0.1664 -0.1361 -0.5417
 8768SOL    HW137937   3.617   0.536   6.933  0.5410  0.9264 -0.4266
 8768SOL    HW237938   3.708   0.511   7.035  0.1550 -0.4405 -0.4912
 8769SOL     OW37939   3.680   4.105   2.104 -0.0796  0.1340 -0.2987
 8769SOL    HW137940   3.756   4.152   2.070 -0.1721 -1.6750 -2.9815
 8769SOL    HW237941   3.682   4.133   2.195  1.2435 -2.2239  0.3854
 8770SOL     OW37942   2.472   0.645   0.796 -0.2351 -0.5117 -0.0257
 8770SOL    HW137943   2.498   0.618   0.708  0.8533  1.5603 -0.3410
 8770SOL    HW237944   2.409   0.581   0.830 -1.5133  0.5514 -0.3448
 8771SOL     OW37945   3.454   3.072   8.124  0.6468 -0.7138 -0.2893
 8771SOL    HW137946   3.429   2.996   8.176 -1.6536  0.7006  0.6363
 8771SOL    HW237947   3.525   3.095   8.184  0.5471  2.0339 -1.2415
 8772SOL     OW37948   3.525   0.661   9.635  0.2558  0.7083 -0.3026
 8772SOL    HW137949   3.437   0.639   9.606 -0.4392  2.1648  0.6992
 8772SOL    HW237950   3.576   0.660   9.554 -1.7738 -1.2181 -1.5542
 8773SOL     OW37951   4.396   1.595  15.032 -0.3296 -0.5214 -0.6172
 8773SOL    HW137952   4.347   1.676  15.021  0.0645 -0.1005  0.6842
 8773SOL    HW237953   4.322   1.544  15.066 -0.7804 -1.5017 -3.0850
 8774SOL     OW37954   0.488   3.474   5.742 -0.3371 -0.0514  0.1933
 8774SOL    HW137955   0.427   3.455   5.813  1.4779 -0.3134  1.6860
 8774SOL    HW237956   0.563   3.502   5.795 -0.2189  0.5036 -0.2675
 8775SOL     OW37957   3.991   1.688   0.332 -0.0373 -0.2361  0.1117
 8775SOL    HW137958   3.994   1.650   0.420  0.5192  1.8158  0.9675
 8775SOL    HW237959   4.084   1.710   0.329 -0.2964  0.8470  0.0902
 8776SOL     OW37960   4.531   2.648  15.826  0.1361  0.3006  0.4244
 8776SOL    HW137961   4.559   2.645  15.918  1.6628 -0.1136 -0.0490
 8776SOL    HW237962   4.470   2.721  15.822  1.1043  0.9663 -1.8726
 8777SOL     OW37963   3.924   2.870   7.578 -0.2676  0.3374 -0.1428
 8777SOL    HW137964   4.009   2.906   7.604  0.4095 -0.0459 -1.8231
 8777SOL    HW237965   3.878   2.935   7.631 -0.8615  0.4111 -0.7491
 8778SOL     OW37966   1.303   3.988   6.897 -0.1491  0.3820 -0.6283
 8778SOL    HW137967   1.381   3.990   6.952 -1.0486  1.7586  0.6107
 8778SOL    HW237968   1.234   4.000   6.963  0.7399 -0.3354  0.4367
 8779SOL     OW37969   3.359   1.538   3.243 -0.3324  0.3611 -0.3706
 8779SOL    HW137970   3.312   1.488   3.177 -0.4936  0.9193 -0.6764
 8779SOL    HW237971   3.308   1.510   3.319 -2.9652  1.8606 -1.5900
 8780SOL     OW37972   0.729   0.421   1.968 -0.6814 -0.4370 -0.3149
 8780SOL    HW137973   0.758   0.500   1.924  1.1788 -0.5769  0.6581
 8780SOL    HW237974   0.719   0.448   2.060 -2.6836 -2.4751  0.0736
 8781SOL     OW37975   2.188   1.602   6.422 -0.3139  0.5350 -0.2568
 8781SOL    HW137976   2.106   1.558   6.397  0.1126  0.2283 -1.1091
 8781SOL    HW237977   2.233   1.627   6.341  0.4258  1.4601  0.4496
 8782SOL     OW37978   2.042   1.951   4.896  0.2745  0.5801 -0.0254
 8782SOL    HW137979   1.977   2.022   4.897  1.0278  1.2714 -0.3619
 8782SOL    HW237980   2.121   2.003   4.881  0.2530  0.9470  1.1391
 8783SOL     OW37981   4.682   1.619   3.564 -0.3283 -0.3139 -0.4090
 8783SOL    HW137982   0.024   1.655   3.519 -1.2070  0.8818 -0.9317
 8783SOL    HW237983   4.682   1.524   3.557 -1.6521 -0.5146  2.4239
 8784SOL     OW37984   0.007   0.552   2.106 -0.5672 -0.0328 -0.0221
 8784SOL    HW137985   4.656   0.570   2.143 -1.0840 -0.1542 -1.1682
 8784SOL    HW237986   4.722   0.581   2.017  1.4090  0.5859 -0.2745
 8785SOL     OW37987   4.019   2.372   4.986 -0.3612 -0.0050  0.4076
 8785SOL    HW137988   4.057   2.337   5.067 -1.2473  3.9316  2.5113
 8785SOL    HW237989   3.960   2.431   5.032 -0.6644  0.8437 -1.0890
 8786SOL     OW37990   3.858   1.791   7.267 -0.2544 -0.0911  0.2942
 8786SOL    HW137991   3.901   1.876   7.278 -2.0171  0.7459  0.7072
 8786SOL    HW237992   3.900   1.760   7.187 -0.8348  0.4620 -0.2192
 8787SOL     OW37993   2.945   3.901   2.254 -0.2665 -0.0643  0.4810
 8787SOL    HW137994   2.896   3.982   2.271 -2.2062 -1.3541  0.9367
 8787SOL    HW237995   2.940   3.851   2.335 -0.7540 -0.6182  0.1075
 8788SOL     OW37996   0.492   4.488   0.671 -0.8436  0.8032 -0.0160
 8788SOL    HW137997   0.511   4.471   0.763  0.5129  0.5054 -0.3543
 8788SOL    HW237998   0.559   4.426   0.640  0.3007  2.7104 -1.3241
 8789SOL     OW37999   2.933   4.633  11.405 -1.1392 -0.1241 -0.2995
 8789SOL    HW138000   3.002   4.670  11.351  1.3464 -2.2371  1.3910
 8789SOL    HW238001   2.906   4.560  11.350  1.3750 -0.8210 -0.6341
 8790SOL     OW38002   3.896   2.936  14.828  0.5872  0.3235 -0.2517
 8790SOL    HW138003   3.907   3.030  14.817  1.6915  0.2268  0.0898
 8790SOL    HW238004   3.800   2.930  14.832  0.4928  2.5419  0.6289
 8791SOL     OW38005   4.527   0.990   6.475 -0.4360  0.1524 -0.1402
 8791SOL    HW138006   4.550   0.995   6.568 -0.2891 -1.2627 -0.1117
 8791SOL    HW238007   4.610   0.965   6.435 -0.8475 -2.5682  0.7053
 8792SOL     OW38008   3.247   0.031   9.557  0.0781  0.3191  0.2751
 8792SOL    HW138009   3.175   0.047   9.619 -0.1978  1.1425 -0.2632
 8792SOL    HW238010   3.205   4.694   9.511  1.3524 -0.0996 -0.2268
 8793SOL     OW38011   1.828   2.875   2.713  0.2157 -0.1577  0.1932
 8793SOL    HW138012   1.890   2.806   2.738  3.1790  1.9897 -1.0856
 8793SOL    HW238013   1.873   2.952   2.748 -0.5743  0.5213 -0.2790
 8794SOL     OW38014   2.241   4.354   9.250 -0.0210  0.2061 -0.0905
 8794SOL    HW138015   2.146   4.343   9.252 -0.0261  0.1362 -0.7985
 8794SOL    HW238016   2.247   4.450   9.249 -0.2274  0.2210  0.1187
 8795SOL     OW38017   3.946   0.123   0.478  0.0340  0.1709  0.5116
 8795SOL    HW138018   3.971   0.063   0.548  1.9822 -0.5731 -0.8225
 8795SOL    HW238019   3.989   0.205   0.500  0.5061 -0.3276  1.4242
 8796SOL     OW38020   2.912   1.356  16.926 -0.2834 -0.4571 -0.1949
 8796SOL    HW138021   2.859   1.425  16.887 -2.6838 -0.8341  2.3869
 8796SOL    HW238022   2.951   1.319  16.846 -0.6492  1.2877 -1.1707
 8797SOL     OW38023   3.175   4.684  11.289 -0.1989 -0.0111 -0.1521
 8797SOL    HW138024   3.207   4.662  11.201 -0.7106 -0.7408 -0.1603
 8797SOL    HW238025   3.207   4.613  11.344 -0.8104 -0.6535 -0.6146
 8798SOL     OW38026   3.042   3.248   2.669  0.0973  0.1347 -0.1946
 8798SOL    HW138027   3.089   3.180   2.621 -0.5539 -0.7207  0.3748
 8798SOL    HW238028   3.065   3.220   2.758 -1.2270 -0.5984 -0.0823
 8799SOL     OW38029   1.888   2.001   8.436 -0.0350  0.2737 -0.0610
 8799SOL    HW138030   1.937   1.918   8.430 -0.4421  0.0975 -1.0499
 8799SOL    HW238031   1.958   2.048   8.482  0.2812  0.8237 -1.0979
 8800SOL     OW38032   3.996   4.591   8.064  0.2568  0.0311  0.5097
 8800SOL    HW138033   3.986   4.545   7.980  0.4347  1.1993 -0.1556
 8800SOL    HW238034   3.907   4.579   8.096 -0.3419  0.1982 -1.0490
 8801SOL     OW38035   1.147   1.240   3.129  0.2138 -0.1465  0.2759
 8801SOL    HW138036   1.053   1.230   3.114  0.3361 -0.4002 -0.3118
 8801SOL    HW238037   1.173   1.148   3.133 -0.1667 -0.2473  0.4507
 8802SOL     OW38038   3.263   3.052  16.685  0.4882  0.3440 -0.3907
 8802SOL    HW138039   3.205   3.119  16.650 -0.5002 -0.5580 -0.4801
 8802SOL    HW238040   3.341   3.095  16.720 -0.2241  1.7027 -0.4773
 8803SOL     OW38041   0.140   2.835  10.725  0.4634 -1.0542 -0.1756
 8803SOL    HW138042   0.076   2.904  10.745  1.1541 -0.3624 -0.3725
 8803SOL    HW238043   0.179   2.869  10.644 -2.3152  2.5833 -0.0041
 8804SOL     OW38044   1.430   2.413   7.069  0.4350  0.0531  0.1497
 8804SOL    HW138045   1.345   2.456   7.082  0.7094  1.3879 -2.3669
 8804SOL    HW238046   1.421   2.355   7.145  1.7195 -0.8765 -0.4033
 8805SOL     OW38047   0.427   2.683   1.923 -0.8084 -0.4027 -0.6929
 8805SOL    HW138048   0.427   2.611   1.859 -2.0104  0.0788 -1.2359
 8805SOL    HW238049   0.368   2.643   1.988 -1.9926 -0.3553 -1.7421
 8806SOL     OW38050   3.323   3.480   8.169 -0.6146  0.2413  0.5417
 8806SOL    HW138051   3.274   3.536   8.230 -0.2393  0.7725  0.3473
 8806SOL    HW238052   3.258   3.459   8.102 -0.7565  1.1986  0.3710
 8807SOL     OW38053   3.848   1.485   5.750 -0.1999  0.1204  0.3128
 8807SOL    HW138054   3.870   1.467   5.659 -2.7749 -0.0495 -0.2640
 8807SOL    HW238055   3.826   1.396   5.780  1.4846 -0.5664 -0.4505
 8808SOL     OW38056   4.020   4.408  10.277  0.0667  0.2609  0.5685
 8808SOL    HW138057   4.069   4.443  10.350  0.9856  2.0203 -0.8917
 8808SOL    HW238058   3.950   4.359  10.320  0.8689 -1.5721 -0.1945
 8809SOL     OW38059   1.206   2.048  10.166  0.0563  0.2081 -0.2494
 8809SOL    HW138060   1.220   2.141  10.145  3.4034 -0.1737  0.2823
 8809SOL    HW238061   1.124   2.039  10.117 -0.6397  0.1449  0.9326
 8810SOL     OW38062   1.409   2.994   4.451  0.4712  0.2361  0.1585
 8810SOL    HW138063   1.349   2.923   4.472 -1.5057  1.8008 -0.2206
 8810SOL    HW238064   1.404   2.972   4.358 -1.1629  1.8830 -0.1508
 8811SOL     OW38065   4.128   3.694   4.915  0.3251 -0.9011 -0.0383
 8811SOL    HW138066   4.165   3.751   4.847  0.9043 -1.2219  0.0093
 8811SOL    HW238067   4.207   3.652   4.948 -1.1869 -0.3886  4.1981
 8812SOL     OW38068   4.419   0.630   4.416 -0.4144  0.2262 -0.0776
 8812SOL    HW138069   4.483   0.679   4.364  2.3145 -1.9448  1.2839
 8812SOL    HW238070   4.331   0.654   4.386 -0.7759 -1.4166 -0.3384
 8813SOL     OW38071   0.042   1.292   5.496  0.4093  0.3447  0.3224
 8813SOL    HW138072   0.030   1.199   5.475 -1.8431  0.9143 -0.7921
 8813SOL    HW238073   0.105   1.312   5.427 -0.6905 -0.1203 -0.8079
 8814SOL     OW38074   0.240   0.462   7.108 -0.3181  0.6024 -0.6254
 8814SOL    HW138075   0.249   0.382   7.159  4.5546  2.2055  1.0578
 8814SOL    HW238076   0.298   0.445   7.034  0.5188 -2.3445  0.6786
 8815SOL     OW38077   1.088   2.306  10.345  0.1098 -0.2417  0.4652
 8815SOL    HW138078   1.015   2.244  10.346  0.4954 -0.7145 -0.3546
 8815SOL    HW238079   1.076   2.334  10.254 -1.0984 -0.3216  0.5957
 8816SOL     OW38080   2.605   4.575   3.435 -0.4968  0.1783  0.3872
 8816SOL    HW138081   2.620   4.666   3.410 -1.8236  0.2352 -0.1778
 8816SOL    HW238082   2.681   4.552   3.489 -0.7351  1.5412  1.2794
 8817SOL     OW38083   1.807   2.185   7.577  0.0856 -0.2884 -0.0636
 8817SOL    HW138084   1.868   2.150   7.642 -0.3616 -0.6617  0.1518
 8817SOL    HW238085   1.734   2.124   7.585 -0.1800  0.3312  2.2366
 8818SOL     OW38086   0.584   0.261   6.193  0.4474 -0.2446  0.3020
 8818SOL    HW138087   0.510   0.205   6.168  0.8717 -0.1375 -1.2021
 8818SOL    HW238088   0.554   0.276   6.282  0.9985  0.9467  0.2752
 8819SOL     OW38089   4.206   0.257   5.507  0.1835  0.2706  0.5530
 8819SOL    HW138090   4.239   0.180   5.461 -1.9548 -0.9410  1.0576
 8819SOL    HW238091   4.256   0.250   5.589  0.6230 -1.4224  0.1448
 8820SOL     OW38092   0.277   1.681   8.086  0.0780 -0.4065  0.5962
 8820SOL    HW138093   0.280   1.772   8.056  0.8736 -0.2490  1.1298
 8820SOL    HW238094   0.212   1.632   8.037  1.2869 -0.7388 -0.6764
 8821SOL     OW38095   3.688   3.696   7.878 -0.1478 -0.8269 -0.2376
 8821SOL    HW138096   3.622   3.705   7.809 -0.4239  1.4623  0.3365
 8821SOL    HW238097   3.648   3.633   7.938 -1.1124  1.5355  1.5921
 8822SOL     OW38098   3.509   4.273  11.039  0.1674 -0.0201  0.4153
 8822SOL    HW138099   3.487   4.231  11.123  1.9450 -0.1952  0.7930
 8822SOL    HW238100   3.603   4.279  11.056  0.5777 -1.0395 -1.6013
 8823SOL     OW38101   4.659   0.946   4.548  0.2359 -0.2644 -0.3629
 8823SOL    HW138102   0.014   0.945   4.581  0.9553  1.1922 -2.2917
 8823SOL    HW238103   4.629   0.986   4.630 -1.1865  0.8425 -1.4318
 8824SOL     OW38104   2.533   3.480   7.231  0.5219  0.0447 -0.5298
 8824SOL    HW138105   2.438   3.493   7.224  0.2750 -0.3237  2.0251
 8824SOL    HW238106   2.576   3.562   7.204  1.4899 -0.1647  0.3742
 8825SOL     OW38107   3.082   0.563   4.176  0.2407  0.2966  0.2562
 8825SOL    HW138108   2.988   0.573   4.164  0.4229  0.5737 -0.9377
 8825SOL    HW238109   3.113   0.607   4.097 -1.3022 -0.5418 -0.8130
 8826SOL     OW38110   2.915   2.563  13.186  0.2252 -0.3477 -0.3324
 8826SOL    HW138111   2.870   2.591  13.265 -1.5236  0.9424 -1.7722
 8826SOL    HW238112   2.996   2.614  13.194 -0.5196  0.4379  2.0420
 8827SOL     OW38113   2.193   3.346   8.741 -0.0199  0.6170  0.6184
 8827SOL    HW138114   2.216   3.419   8.798  2.2095  1.9533 -1.9954
 8827SOL    HW238115   2.203   3.264   8.789  1.4447  1.1688  1.2759
 8828SOL     OW38116   3.913   3.680  11.958  0.5494  0.0761 -0.1808
 8828SOL    HW138117   3.876   3.606  12.005 -0.2992  0.6364  0.0460
 8828SOL    HW238118   3.996   3.653  11.919  1.0531  2.3130 -0.6566
 8829SOL     OW38119   0.761   0.661  17.179  0.5605 -0.6592  0.7242
 8829SOL    HW138120   0.815   0.737  17.200 -1.5245  0.4639  2.1716
 8829SOL    HW238121   0.718   0.644  17.263 -2.3560  0.6319 -0.4728
 8830SOL     OW38122   0.566   0.619   0.148 -0.0300 -0.5351  0.1931
 8830SOL    HW138123   0.483   0.651   0.182 -0.0194  1.1775 -1.3870
 8830SOL    HW238124   0.561   0.630   0.053  2.9339 -0.3965  0.0510
 8831SOL     OW38125   3.082   3.264  16.442  0.7707 -0.2753  0.2262
 8831SOL    HW138126   3.160   3.319  16.448  1.3723 -1.2022  0.8557
 8831SOL    HW238127   3.084   3.243  16.348 -3.6195 -0.9182  0.2853
 8832SOL     OW38128   0.165   0.214   4.020  0.4212 -0.4479 -0.5912
 8832SOL    HW138129   0.177   0.120   4.029 -0.1752 -0.4071  0.6233
 8832SOL    HW238130   0.203   0.235   3.935 -0.3272 -0.9248 -1.0381
 8833SOL     OW38131   1.392   3.347   2.704 -0.8170  0.5948  0.2202
 8833SOL    HW138132   1.317   3.287   2.705  0.9102 -1.5239  0.0760
 8833SOL    HW238133   1.408   3.347   2.610 -0.5199  2.0899  0.2678
 8834SOL     OW38134   4.135   1.329   1.928  0.1868 -0.1709 -0.7084
 8834SOL    HW138135   4.219   1.369   1.907 -1.1053  2.2471 -1.2890
 8834SOL    HW238136   4.088   1.322   1.845 -1.1234  0.1766 -0.0134
 8835SOL     OW38137   0.231   1.841   6.652  0.3279  0.0322  0.2612
 8835SOL    HW138138   0.243   1.827   6.558 -0.0590 -0.2993  0.2593
 8835SOL    HW238139   0.152   1.892   6.667  1.9663  2.0399  2.0751
 8836SOL     OW38140   1.399   1.539   8.912 -0.8239 -0.2240  0.3230
 8836SOL    HW138141   1.482   1.581   8.889 -2.7602  2.3275 -2.1078
 8836SOL    HW238142   1.417   1.481   8.986 -2.1570 -2.4253 -1.0782
 8837SOL     OW38143   0.617   3.298   4.877 -0.5713 -0.1903  0.0860
 8837SOL    HW138144   0.588   3.207   4.877 -0.0994 -0.3447  1.5943
 8837SOL    HW238145   0.561   3.345   4.939 -1.3197  0.6017 -1.1834
 8838SOL     OW38146   2.492   1.224   9.533  0.8442  0.1662  0.5806
 8838SOL    HW138147   2.568   1.170   9.557  0.8641 -0.1574 -0.2254
 8838SOL    HW238148   2.423   1.158   9.525  0.6217  0.1516  2.7169
 8839SOL     OW38149   3.864   4.499   1.560  0.0701 -0.3189 -0.2891
 8839SOL    HW138150   3.893   4.589   1.547  1.8329 -0.7685  0.5716
 8839SOL    HW238151   3.908   4.457   1.486  0.1158  0.8595 -0.9219
 8840SOL     OW38152   1.181   3.617   6.676  0.0253 -0.1390  0.1745
 8840SOL    HW138153   1.193   3.524   6.692  2.0175  0.5063  2.5911
 8840SOL    HW238154   1.273   3.627   6.650  0.3833 -0.3406  1.3335
 8841SOL     OW38155   4.288   4.192   5.535  0.7300  0.0267  0.2380
 8841SOL    HW138156   4.298   4.114   5.480  0.4805 -0.6689  1.1871
 8841SOL    HW238157   4.194   4.205   5.522  0.9406  0.9051 -0.4620
 8842SOL     OW38158   3.058   1.312   5.503 -0.0530  0.0335  0.5415
 8842SOL    HW138159   3.153   1.320   5.501 -0.1579  1.0373 -0.8885
 8842SOL    HW238160   3.045   1.228   5.548 -0.3034  0.5644  1.4564
 8843SOL     OW38161   2.109   4.257   8.264  0.1013  0.4612  0.1049
 8843SOL    HW138162   2.053   4.308   8.322  1.2175  0.0874  1.5037
 8843SOL    HW238163   2.170   4.324   8.233  1.1676 -0.8591 -0.6504
 8844SOL     OW38164   0.933   4.289   8.957 -0.2072 -0.3928 -0.0038
 8844SOL    HW138165   0.861   4.331   8.911 -0.8813 -0.0607  1.3457
 8844SOL    HW238166   0.959   4.218   8.898  2.2107 -0.6165  1.3121
 8845SOL     OW38167   2.800   0.379  16.823 -0.4376  0.3236  0.4696
 8845SOL    HW138168   2.721   0.335  16.791  0.3042 -0.2417 -0.5593
 8845SOL    HW238169   2.782   0.460  16.774 -2.6594 -0.2455  0.3467
 8846SOL     OW38170   1.288   0.341   6.176 -0.2557  0.0296 -0.3813
 8846SOL    HW138171   1.282   0.273   6.110  0.7789 -1.1092  0.6796
 8846SOL    HW238172   1.209   0.393   6.163  0.3947  1.5553  1.5777
 8847SOL     OW38173   2.606   3.535  12.511  0.4617  0.8449 -0.3182
 8847SOL    HW138174   2.611   3.523  12.417 -3.4964  1.3384 -0.5663
 8847SOL    HW238175   2.544   3.608  12.508  0.2345  0.6974  0.7145
 8848SOL     OW38176   1.222   0.316  16.111 -0.0491  0.0979  0.2003
 8848SOL    HW138177   1.140   0.364  16.127  0.4427  1.1687 -0.4811
 8848SOL    HW238178   1.287   0.351  16.172  2.7427 -1.1619 -2.0730
 8849SOL     OW38179   1.854   1.437   6.079 -0.7904  0.3292  0.0186
 8849SOL    HW138180   1.870   1.444   5.985 -1.1687 -0.3325 -0.0952
 8849SOL    HW238181   1.849   1.343   6.090  0.2680  0.3444  0.5556
 8850SOL     OW38182   4.155   4.176   8.985  0.5051 -0.3289 -0.0663
 8850SOL    HW138183   4.207   4.118   9.042 -1.0584 -1.6384  0.0238
 8850SOL    HW238184   4.228   4.220   8.942 -0.6046  2.1942  0.6475
 8851SOL     OW38185   2.171   0.537   4.471  0.3703  0.2707 -0.0598
 8851SOL    HW138186   2.106   0.542   4.541 -0.8765  0.6198 -1.2299
 8851SOL    HW238187   2.253   0.524   4.518 -0.1371 -0.9584  0.4810
 8852SOL     OW38188   1.552   3.022   4.029  0.1896 -0.5096  0.1926
 8852SOL    HW138189   1.457   3.022   4.031  0.1907  2.4959 -0.3439
 8852SOL    HW238190   1.575   3.037   3.937 -1.9447  3.3396  0.2943
 8853SOL     OW38191   2.203   1.039   4.015 -0.4615 -0.4147  0.3482
 8853SOL    HW138192   2.127   1.089   4.045  0.6230 -0.1417  2.5969
 8853SOL    HW238193   2.266   1.085   4.070  0.9308  1.2883 -2.6820
 8854SOL     OW38194   4.073   3.038   5.378  0.3752  0.5326  0.1576
 8854SOL    HW138195   4.123   2.957   5.370  1.3519  1.3627 -2.0513
 8854SOL    HW238196   3.986   3.007   5.352  0.1730  0.3375  1.0681
 8855SOL     OW38197   1.810   3.621  13.876  0.4713 -0.7993  0.1896
 8855SOL    HW138198   1.823   3.555  13.943 -2.9737 -0.4106  1.2196
 8855SOL    HW238199   1.897   3.613  13.837  0.7846 -0.2082  0.7722
 8856SOL     OW38200   4.167   1.519   4.089  0.1487 -0.6942 -0.2035
 8856SOL    HW138201   4.236   1.568   4.135 -1.5988  0.7626  0.8593
 8856SOL    HW238202   4.227   1.449   4.064  1.6043  0.8458 -1.0089
 8857SOL     OW38203   3.232   3.309   3.278  0.1572  0.0402  0.2134
 8857SOL    HW138204   3.143   3.346   3.281 -0.0237 -0.2488 -1.6691
 8857SOL    HW238205   3.231   3.246   3.350  1.1163 -0.3764 -0.1402
 8858SOL     OW38206   0.318   3.221   3.362 -0.3897  0.3083  0.6231
 8858SOL    HW138207   0.297   3.207   3.454 -1.2241 -1.1135  0.2257
 8858SOL    HW238208   0.258   3.155   3.325 -1.1062  0.6501  1.1789
 8859SOL     OW38209   4.099   3.518   5.627 -0.1729  0.1151  0.2223
 8859SOL    HW138210   4.008   3.525   5.656 -0.4994  4.8627 -1.8486
 8859SOL    HW238211   4.076   3.453   5.561 -1.1381  2.0478 -1.3535
 8860SOL     OW38212   2.581   1.058   3.845  0.0081  0.1165 -0.5219
 8860SOL    HW138213   2.541   1.073   3.760 -0.2145  0.4614 -0.3541
 8860SOL    HW238214   2.522   1.107   3.902 -1.8779 -2.3838 -0.3432
 8861SOL     OW38215   2.079   1.325   5.630 -0.0355 -0.4941  0.3041
 8861SOL    HW138216   2.142   1.396   5.634 -0.9143  0.3602 -0.8450
 8861SOL    HW238217   2.129   1.255   5.587 -0.2059 -1.9635  2.5073
 8862SOL     OW38218   1.671   1.971   8.598  0.2854 -0.2255  0.2931
 8862SOL    HW138219   1.736   2.010   8.540 -0.4768 -0.4651 -0.7294
 8862SOL    HW238220   1.716   1.893   8.631 -0.1420  0.8179  3.2701
 8863SOL     OW38221   4.015   0.770   6.276  0.7627  0.4829  0.2617
 8863SOL    HW138222   3.967   0.789   6.195 -1.1993 -0.4506  1.1981
 8863SOL    HW238223   3.939   0.758   6.334  1.1259  1.2620  0.9062
 8864SOL     OW38224   2.313   2.919   8.439 -0.1264 -0.3269 -0.4044
 8864SOL    HW138225   2.224   2.954   8.437  0.2563  0.6359 -0.3650
 8864SOL    HW238226   2.346   2.948   8.524  0.0782  1.9328 -1.2580
 8865SOL     OW38227   2.744   3.923  16.589  0.0645 -0.1747  0.1378
 8865SOL    HW138228   2.759   3.836  16.551 -0.1805 -0.8783  1.6553
 8865SOL    HW238229   2.665   3.907  16.641  0.1983  0.8094  0.6374
 8866SOL     OW38230   2.835   1.062   6.933 -0.6627 -0.3458  0.3170
 8866SOL    HW138231   2.827   0.971   6.960  3.1606 -1.0507 -0.9112
 8866SOL    HW238232   2.906   1.108   6.978 -0.7853  0.2240 -0.0712
 8867SOL     OW38233   1.445   3.919   4.569  0.4445  0.2578  0.4858
 8867SOL    HW138234   1.351   3.918   4.554  0.6880 -1.8388 -0.9274
 8867SOL    HW238235   1.462   3.834   4.528 -0.4394 -0.6915  2.0807
 8868SOL     OW38236   4.135   0.044   3.065 -0.2226 -0.0984 -0.4254
 8868SOL    HW138237   4.147   4.701   3.011  1.5873 -1.2324  1.6001
 8868SOL    HW238238   4.052   0.081   3.036  1.0065  1.4689 -1.9426
 8869SOL     OW38239   2.043   4.626   4.036  0.7690 -0.1565 -0.3722
 8869SOL    HW138240   1.967   4.663   3.992  0.1502 -2.2770 -1.0862
 8869SOL    HW238241   2.011   4.569   4.106  0.7129 -0.5087 -0.6856
 8870SOL     OW38242   1.580   0.985   7.577 -0.0382  0.0039  0.6888
 8870SOL    HW138243   1.500   1.011   7.624 -0.4348  0.3726 -0.1726
 8870SOL    HW238244   1.620   1.071   7.566  0.3707 -0.0490  1.7663
 8871SOL     OW38245   1.927   4.022   8.600  0.1375  0.2452 -0.1424
 8871SOL    HW138246   1.909   4.067   8.683 -1.3501 -0.1208 -0.2641
 8871SOL    HW238247   2.013   3.986   8.621  0.0276  0.5986  0.9218
 8872SOL     OW38248   4.412   2.394   6.331 -0.1823 -0.2665  0.2668
 8872SOL    HW138249   4.369   2.308   6.329 -0.7664 -0.0154  2.5802
 8872SOL    HW238250   4.431   2.415   6.239  0.6840  1.0581  0.7506
 8873SOL     OW38251   2.928   4.307   8.264  0.8315  0.8973  0.1211
 8873SOL    HW138252   2.860   4.341   8.206 -2.0154 -2.3446  1.5762
 8873SOL    HW238253   2.938   4.217   8.232 -2.8760  0.8145 -0.8001
 8874SOL     OW38254   1.871   2.894   0.780  0.1208 -0.1751 -0.2227
 8874SOL    HW138255   1.912   2.890   0.866 -0.2027  0.5163 -0.0337
 8874SOL    HW238256   1.941   2.866   0.720  0.6620  0.4707  0.1039
 8875SOL     OW38257   1.394   4.442   3.967  0.5871  0.7194  0.5101
 8875SOL    HW138258   1.321   4.491   4.006  2.2964  2.2660  1.7127
 8875SOL    HW238259   1.364   4.355   3.941  2.6300  0.5306 -1.1987
 8876SOL     OW38260   0.925   2.797   7.514 -0.1662 -0.6841 -0.2222
 8876SOL    HW138261   0.993   2.767   7.453 -1.3158 -1.1237 -1.2793
 8876SOL    HW238262   0.881   2.714   7.532 -0.3070 -0.9868 -2.0015
 8877SOL     OW38263   0.609   0.146   7.193  0.3220 -0.1862  0.0200
 8877SOL    HW138264   0.518   0.122   7.177 -0.0710  1.0853  0.3023
 8877SOL    HW238265   0.624   0.200   7.115 -0.4438 -1.0315 -0.6972
 8878SOL     OW38266   3.634   0.070   6.863  0.2351  0.3417  0.1145
 8878SOL    HW138267   3.614   0.132   6.793  1.7143 -0.8060 -1.3160
 8878SOL    HW238268   3.700   0.119   6.912  0.5136  1.3466 -1.2469
 8879SOL     OW38269   1.451   4.646   4.760  0.2164 -0.1741 -0.0046
 8879SOL    HW138270   1.542   4.656   4.730 -0.0708  1.8719 -0.1556
 8879SOL    HW238271   1.457   4.559   4.799  0.1227  0.8485  2.2705
 8880SOL     OW38272   0.213   2.690   4.648 -0.6628  0.9263 -0.5254
 8880SOL    HW138273   0.185   2.662   4.735 -2.3849  0.3043 -1.2617
 8880SOL    HW238274   0.156   2.763   4.624  1.7315  3.0936  0.4550
 8881SOL     OW38275   0.955   2.854  14.175  0.6432 -0.3939 -0.9775
 8881SOL    HW138276   0.969   2.763  14.147 -0.4032 -0.9549  0.3393
 8881SOL    HW238277   0.917   2.843  14.262  0.2604  3.2512 -0.6972
 8882SOL     OW38278   3.067   3.250   9.083  0.2390 -0.5019  0.8098
 8882SOL    HW138279   2.988   3.283   9.040 -1.3629 -1.6376  2.8165
 8882SOL    HW238280   3.040   3.159   9.094  1.0832 -0.8116  0.2806
 8883SOL     OW38281   1.988   3.168   3.080 -0.7336 -0.0796  0.4433
 8883SOL    HW138282   1.971   3.250   3.126  1.0395  0.8209 -0.5382
 8883SOL    HW238283   2.082   3.167   3.064 -1.2515 -1.5551 -2.4754
 8884SOL     OW38284   4.122   4.489  10.031 -0.0986  0.2988 -0.1039
 8884SOL    HW138285   4.068   4.448  10.098 -0.1572  0.7117  0.1048
 8884SOL    HW238286   4.165   4.563  10.074  0.0829 -0.2603  0.6739
 8885SOL     OW38287   0.325   2.876   1.761 -0.0991 -0.3259  0.3102
 8885SOL    HW138288   0.355   2.807   1.820 -3.7241  0.4017  3.0547
 8885SOL    HW238289   0.230   2.860   1.765  0.0312 -1.3899 -0.8179
 8886SOL     OW38290   1.252   4.552   1.525  0.3294 -0.3931 -0.2937
 8886SOL    HW138291   1.214   4.471   1.561 -0.6107  0.4722  0.6493
 8886SOL    HW238292   1.197   4.620   1.563  0.3470 -1.3992  1.5123
 8887SOL     OW38293   2.068   2.634   4.028  0.3729  0.4757  0.0446
 8887SOL    HW138294   2.151   2.629   3.980 -0.7855  0.2584 -1.9461
 8887SOL    HW238295   2.022   2.706   3.985 -0.5242  0.9219  1.7644
 8888SOL     OW38296   1.622   2.493  14.412  0.0402  0.1299  0.6508
 8888SOL    HW138297   1.682   2.507  14.339 -0.4567 -1.0302  0.0240
 8888SOL    HW238298   1.628   2.398  14.422  0.0022 -0.0864 -1.4564
 8889SOL     OW38299   2.074   0.519  15.929 -0.1891  0.5413  0.1280
 8889SOL    HW138300   2.055   0.606  15.894  0.7832  0.4051 -0.7501
 8889SOL    HW238301   1.982   0.493  15.923  0.1686 -0.1839 -2.2557
 8890SOL     OW38302   3.055   4.282   8.833  0.3645 -0.3682  0.5716
 8890SOL    HW138303   3.047   4.186   8.837  0.5209 -0.3535  1.2345
 8890SOL    HW238304   3.146   4.297   8.808 -0.1387  0.9506 -0.4442
 8891SOL     OW38305   0.416   1.583   7.505  0.0240  0.2109  0.1087
 8891SOL    HW138306   0.507   1.557   7.487  0.1695  1.8320 -1.5748
 8891SOL    HW238307   0.363   1.531   7.444 -1.7883  2.0839  0.0984
 8892SOL     OW38308   2.929   3.951  16.792  0.2651 -0.0932  0.2098
 8892SOL    HW138309   2.866   3.982  16.726  0.2960 -1.9322 -0.6885
 8892SOL    HW238310   2.940   3.862  16.760 -3.0496 -1.2601  2.3382
 8893SOL     OW38311   3.421   1.477   5.136  0.1132  0.3572 -0.3963
 8893SOL    HW138312   3.493   1.531   5.170  0.0377  0.6817 -0.7488
 8893SOL    HW238313   3.388   1.527   5.061  4.2239  0.3297 -2.2300
 8894SOL     OW38314   1.198   0.116   8.922 -0.0589 -0.7395 -0.0390
 8894SOL    HW138315   1.160   0.058   8.856 -0.9849 -1.0081  0.7269
 8894SOL    HW238316   1.198   0.197   8.871  0.9210  0.0626  1.2370
 8895SOL     OW38317   4.014   4.542   6.294 -0.7486  0.0934  0.4521
 8895SOL    HW138318   3.924   4.535   6.326 -0.4791 -0.2387  1.1376
 8895SOL    HW238319   4.045   4.615   6.347  0.8648 -0.0481 -0.2795
 8896SOL     OW38320   1.139   3.131   9.507 -0.8440 -0.0479 -0.1298
 8896SOL    HW138321   1.149   3.203   9.445  0.8141  1.0265  1.3773
 8896SOL    HW238322   1.045   3.117   9.501 -1.2226  1.2047  2.8125
 8897SOL     OW38323   3.228   1.333  13.012  0.3064 -0.3227 -0.0397
 8897SOL    HW138324   3.280   1.322  13.092  0.1107  0.7728  0.2413
 8897SOL    HW238325   3.255   1.258  12.959  0.3635 -0.4040  0.1043
 8898SOL     OW38326   3.484   2.496  16.523 -0.1905 -0.5271  0.2015
 8898SOL    HW138327   3.455   2.461  16.607 -0.6221  0.1989  0.3583
 8898SOL    HW238328   3.578   2.512  16.537 -0.7111  2.2082  0.6000
 8899SOL     OW38329   2.092   0.742   1.686 -0.5313 -0.6064 -0.3790
 8899SOL    HW138330   2.151   0.686   1.737  0.4977  0.7808 -0.0686
 8899SOL    HW238331   2.150   0.807   1.646  0.3515  0.0484  1.9264
 8900SOL     OW38332   2.671   2.289   0.233 -0.6361 -0.1560 -0.3414
 8900SOL    HW138333   2.620   2.218   0.194 -2.0620  0.3465  0.6168
 8900SOL    HW238334   2.604   2.353   0.258 -2.1186 -2.1646  0.8363
 8901SOL     OW38335   1.353   1.970   3.844  0.0660  0.3313  0.3017
 8901SOL    HW138336   1.381   1.906   3.910  1.9650  1.4913  0.5925
 8901SOL    HW238337   1.433   2.022   3.851  0.6634 -0.6184  0.6071
 8902SOL     OW38338   3.753   1.866  13.220 -0.1299  0.1308  0.2036
 8902SOL    HW138339   3.691   1.852  13.292 -2.3240  2.0353 -1.3277
 8902SOL    HW238340   3.707   1.831  13.144 -0.0480 -0.3242  0.3645
 8903SOL     OW38341   1.706   1.820   3.653 -0.0633 -0.0560  0.3519
 8903SOL    HW138342   1.728   1.887   3.719  0.1900  2.1690 -1.9941
 8903SOL    HW238343   1.767   1.751   3.679 -1.6576 -1.3603  0.5450
 8904SOL     OW38344   0.919   4.380   2.346  0.6004  0.3762  0.3488
 8904SOL    HW138345   1.003   4.343   2.319 -1.0023 -3.9073  1.2298
 8904SOL    HW238346   0.939   4.424   2.428  3.5414 -0.3142 -0.0028
 8905SOL     OW38347   4.709   0.155  17.157 -0.0672 -0.0108  0.1843
 8905SOL    HW138348   0.037   0.125  17.223  1.3922  2.1765 -0.1966
 8905SOL    HW238349   4.665   0.072  17.136  0.8758 -0.3704 -0.3675
 8906SOL     OW38350   2.989   3.830   6.361  0.2653 -0.0652  0.4654
 8906SOL    HW138351   3.055   3.881   6.408 -0.4412  0.7391  0.5805
 8906SOL    HW238352   2.925   3.819   6.431 -0.0748  2.6785  0.5765
 8907SOL     OW38353   3.721   4.305   6.777  0.1753 -0.1025  0.2667
 8907SOL    HW138354   3.658   4.264   6.719 -0.0549 -0.8952  1.0859
 8907SOL    HW238355   3.711   4.258   6.859 -1.0002 -1.1919 -0.5035
 8908SOL     OW38356   2.819   2.698   5.226  0.3600  0.0852  0.4284
 8908SOL    HW138357   2.864   2.763   5.281  0.1640 -0.9127  1.7644
 8908SOL    HW238358   2.729   2.712   5.256  0.6518  0.9407  0.9014
 8909SOL     OW38359   3.384   0.458   5.409  0.0056  0.3565 -0.5866
 8909SOL    HW138360   3.327   0.417   5.474  0.5009  1.1965  0.3889
 8909SOL    HW238361   3.470   0.453   5.451  1.1517  0.7313 -2.9027
 8910SOL     OW38362   0.274   3.659   2.752 -0.0525 -0.2380 -0.2242
 8910SOL    HW138363   0.354   3.663   2.699 -0.8349 -0.1565 -1.3894
 8910SOL    HW238364   0.306   3.683   2.839  2.9999  0.1279 -1.4307
 8911SOL     OW38365   1.812   2.945   3.398 -0.7994  0.0673 -0.3276
 8911SOL    HW138366   1.862   2.874   3.357 -1.7062 -0.6689 -0.1735
 8911SOL    HW238367   1.768   2.976   3.319  0.2411 -1.1963 -1.4092
 8912SOL     OW38368   3.378   4.266   5.693 -0.0490  0.0346  0.1439
 8912SOL    HW138369   3.405   4.195   5.751  1.0479  0.4521  0.1580
 8912SOL    HW238370   3.439   4.336   5.718 -0.9298 -0.3221  3.2276
 8913SOL     OW38371   1.471   0.272  16.716 -0.6594 -0.1919  0.5039
 8913SOL    HW138372   1.462   0.309  16.804  2.3394 -1.6107  1.4146
 8913SOL    HW238373   1.404   0.317  16.663  0.0359 -0.3080 -0.4726
 8914SOL     OW38374   3.492   0.405  12.638 -0.3650  0.1116 -0.1002
 8914SOL    HW138375   3.434   0.470  12.599  1.0171  0.7675 -1.0624
 8914SOL    HW238376   3.437   0.328  12.645  0.1765 -0.0206  2.9818
 8915SOL     OW38377   0.863   2.515   9.798  0.3805  0.3794 -0.0606
 8915SOL    HW138378   0.812   2.536   9.719 -0.7483  1.1937  0.8928
 8915SOL    HW238379   0.847   2.595   9.848 -1.1966 -0.8207  1.3446
 8916SOL     OW38380   0.658   3.685  14.216  0.2624 -0.4825  0.6852
 8916SOL    HW138381   0.715   3.737  14.272  2.6831 -0.1274 -2.1176
 8916SOL    HW238382   0.726   3.633  14.173  1.1326  0.4444  0.9455
 8917SOL     OW38383   2.751   3.175   5.331 -0.3731 -0.1167 -0.4831
 8917SOL    HW138384   2.786   3.203   5.416 -0.3657 -0.4328 -0.3787
 8917SOL    HW238385   2.660   3.195   5.355 -1.0573 -2.5597 -1.0248
 8918SOL     OW38386   1.967   1.292   8.234  0.4702  0.3966  0.0025
 8918SOL    HW138387   1.938   1.261   8.148 -0.9504  1.9699 -0.0786
 8918SOL    HW238388   1.890   1.321   8.283 -1.6213 -0.2759 -2.9240
 8919SOL     OW38389   4.410   3.581   3.733 -0.2084  0.0431  0.0694
 8919SOL    HW138390   4.342   3.592   3.667 -0.8356  1.0458  0.8647
 8919SOL    HW238391   4.490   3.570   3.682 -0.9723  0.5718 -1.2293
 8920SOL     OW38392   0.512   3.443   7.264 -0.5237 -0.5538  0.2848
 8920SOL    HW138393   0.453   3.510   7.230 -0.0984 -0.3268  0.0063
 8920SOL    HW238394   0.594   3.484   7.237  0.1004  1.0843  4.7168
 8921SOL     OW38395   3.252   1.116   5.191  0.4751 -0.3278  0.4053
 8921SOL    HW138396   3.302   1.139   5.112 -0.0995 -1.4239 -0.2786
 8921SOL    HW238397   3.161   1.131   5.163  0.9278  0.1568 -0.8230
 8922SOL     OW38398   0.708   1.277   3.930 -0.0218  0.1876  0.7037
 8922SOL    HW138399   0.760   1.222   3.871  0.3889  0.1016  1.1501
 8922SOL    HW238400   0.721   1.362   3.888  3.3768 -0.2383  0.9309
 8923SOL     OW38401   4.487   0.223  16.438 -0.1853 -0.1401  0.5922
 8923SOL    HW138402   4.550   0.290  16.464  1.5432 -1.2628 -0.8102
 8923SOL    HW238403   4.517   0.167  16.510  0.6353  0.2634  0.5632
 8924SOL     OW38404   2.289   2.705   5.077  0.3262  0.0326 -0.1898
 8924SOL    HW138405   2.238   2.680   4.999  0.6186  0.1687 -0.4254
 8924SOL    HW238406   2.370   2.661   5.052  0.2749 -0.1199 -0.0855
 8925SOL     OW38407   2.420   2.426   3.246  0.0023  0.5201  0.3258
 8925SOL    HW138408   2.479   2.354   3.224  1.0447  0.5712  2.9847
 8925SOL    HW238409   2.439   2.433   3.339  1.3555  0.4386  0.0503
 8926SOL     OW38410   0.048   2.952   4.221  0.5841 -0.0056  0.0104
 8926SOL    HW138411   4.690   2.941   4.199  0.2695  3.3146 -0.4332
 8926SOL    HW238412   0.091   2.919   4.143 -1.7814  0.2404 -1.3938
 8927SOL     OW38413   0.167   0.412   3.040  0.0753  0.1774 -0.0015
 8927SOL    HW138414   0.074   0.430   3.032  0.0978  0.6167  0.7766
 8927SOL    HW238415   0.200   0.454   2.960 -1.0708  0.8963 -0.0946
 8928SOL     OW38416   2.103   4.124  13.397 -0.1496  0.1629  0.1040
 8928SOL    HW138417   2.035   4.153  13.337 -1.2626  1.0793  1.8111
 8928SOL    HW238418   2.124   4.210  13.434 -1.1316  0.4197  0.0739
 8929SOL     OW38419   0.186   4.374   9.203  0.5122  0.3243  0.0062
 8929SOL    HW138420   0.102   4.331   9.189  0.7618  0.3200 -1.5048
 8929SOL    HW238421   0.232   4.331   9.131 -1.9531 -0.7763 -0.9035
 8930SOL     OW38422   2.449   4.045   3.066  0.2014  0.5254  0.2047
 8930SOL    HW138423   2.515   3.995   3.018  0.6389  0.4972  0.8324
 8930SOL    HW238424   2.373   3.989   3.082  0.5790  0.4054  1.5412
 8931SOL     OW38425   1.082   0.445   2.678  0.1373  0.6253 -0.4724
 8931SOL    HW138426   1.099   0.436   2.772 -1.0008  1.3209 -0.1910
 8931SOL    HW238427   1.012   0.380   2.671  0.6121 -0.0906  1.2963
 8932SOL     OW38428   3.321   0.621   4.302 -0.5931  0.6497  0.7505
 8932SOL    HW138429   3.340   0.542   4.352  1.2083  0.9207  0.4853
 8932SOL    HW238430   3.233   0.596   4.274  0.0491  0.5499 -1.1864
 8933SOL     OW38431   2.670   1.362   4.138  0.1496 -0.1883 -0.1747
 8933SOL    HW138432   2.684   1.432   4.203 -0.0135 -0.4918  0.1875
 8933SOL    HW238433   2.712   1.290   4.185 -1.9778 -0.2376  1.6343
 8934SOL     OW38434   3.885   1.875   6.819 -0.3176 -0.3121 -0.0137
 8934SOL    HW138435   3.949   1.942   6.843 -0.8632  0.5625 -0.9908
 8934SOL    HW238436   3.806   1.928   6.809 -0.5896 -0.6796  0.1616
 8935SOL     OW38437   4.297   3.345  12.575  0.5486 -0.7237  0.0479
 8935SOL    HW138438   4.285   3.268  12.520 -0.3370 -1.1880  0.8907
 8935SOL    HW238439   4.393   3.346  12.574  0.5160  1.2077 -1.2686
 8936SOL     OW38440   0.781   3.816   6.980  0.3455 -0.2078  0.7743
 8936SOL    HW138441   0.719   3.825   6.907 -1.0282 -3.1077  1.5842
 8936SOL    HW238442   0.860   3.789   6.934  1.0828  0.0377  1.8942
 8937SOL     OW38443   2.626   0.129   5.586 -0.4806  0.6458 -0.2763
 8937SOL    HW138444   2.602   0.200   5.527 -0.0063  2.3869  1.6019
 8937SOL    HW238445   2.557   0.065   5.570 -0.3893  0.3581  0.4889
 8938SOL     OW38446   3.066   0.652   1.794  0.2123  0.5317  0.1488
 8938SOL    HW138447   3.025   0.739   1.798 -1.6050 -0.4245  1.8566
 8938SOL    HW238448   3.081   0.654   1.699 -1.4851  2.2322 -0.0835
 8939SOL     OW38449   2.093   0.514   7.263 -0.0881 -0.3116 -0.5096
 8939SOL    HW138450   2.024   0.572   7.230  1.8013  3.6588  2.5523
 8939SOL    HW238451   2.153   0.505   7.189  3.2247  0.2982  2.0894
 8940SOL     OW38452   2.543   1.346   7.194  0.6221  0.2271  0.4249
 8940SOL    HW138453   2.596   1.340   7.115  0.2851  1.7297  0.0739
 8940SOL    HW238454   2.521   1.439   7.202  0.6285  0.5653 -3.7207
 8941SOL     OW38455   2.155   2.710   4.315 -0.3591  0.2256  0.0585
 8941SOL    HW138456   2.060   2.719   4.312 -0.4870 -1.4980 -1.2817
 8941SOL    HW238457   2.172   2.686   4.224  1.0513  0.5858  0.2176
 8942SOL     OW38458   1.201   3.141   3.050 -0.0066  0.6290  0.1995
 8942SOL    HW138459   1.161   3.084   3.116  1.2834 -0.7028 -0.1676
 8942SOL    HW238460   1.245   3.079   2.993 -0.6030  1.1327 -0.7982
 8943SOL     OW38461   3.215   0.264   4.690 -0.1864 -0.1520 -0.9705
 8943SOL    HW138462   3.261   0.254   4.773  0.2173  1.3018 -1.0166
 8943SOL    HW238463   3.131   0.221   4.705 -0.5096  0.8455  0.1502
 8944SOL     OW38464   1.883   3.090   6.187  0.3713 -0.0488  0.4369
 8944SOL    HW138465   1.885   3.151   6.261 -0.5965  1.2314 -0.5812
 8944SOL    HW238466   1.887   3.009   6.238  1.5081 -1.2432 -1.5491
 8945SOL     OW38467   4.559   1.447   5.554 -0.2768 -0.1490 -0.2859
 8945SOL    HW138468   4.497   1.379   5.527  0.0293 -0.6398  0.2487
 8945SOL    HW238469   4.635   1.389   5.554  0.3015  0.6155  0.9287
 8946SOL     OW38470   0.380   1.409  11.959 -0.0904 -0.4106  0.2052
 8946SOL    HW138471   0.459   1.355  11.963  0.1262 -0.0993  0.1444
 8946SOL    HW238472   0.330   1.348  11.904  0.4271 -0.2279 -0.4680
 8947SOL     OW38473   3.432   2.787   8.482  0.5434  0.5491 -0.0885
 8947SOL    HW138474   3.372   2.719   8.512  0.1605  1.2925  0.8211
 8947SOL    HW238475   3.460   2.836   8.560 -0.7071  1.9800 -0.5410
 8948SOL     OW38476   2.864   1.194   4.841 -0.2202  0.5419 -0.6450
 8948SOL    HW138477   2.863   1.287   4.862 -0.7773  0.0943  1.3336
 8948SOL    HW238478   2.849   1.165   4.931  0.3469  0.8641 -0.4484
 8949SOL     OW38479   3.035   0.821  14.126 -0.3359 -0.1100 -0.3113
 8949SOL    HW138480   3.074   0.734  14.115 -0.1131 -0.2151  1.3336
 8949SOL    HW238481   2.945   0.801  14.100 -1.1505  1.1148  1.5316
 8950SOL     OW38482   0.506   3.440   1.850 -0.2189  0.2934  0.4810
 8950SOL    HW138483   0.481   3.370   1.789  1.0674 -0.5056  0.8516
 8950SOL    HW238484   0.436   3.438   1.915  0.6385  0.8148  1.4135
 8951SOL     OW38485   4.734   1.085   3.462  0.2445  0.2295  0.4108
 8951SOL    HW138486   4.651   1.039   3.473  0.0571  0.9028  1.8606
 8951SOL    HW238487   0.055   1.008   3.472 -0.5346 -0.2184  1.2723
 8952SOL     OW38488   2.943   0.246   4.704 -0.5054  0.2456 -0.0681
 8952SOL    HW138489   2.901   0.183   4.645 -0.5079  1.5217 -1.4211
 8952SOL    HW238490   2.919   0.204   4.787  0.4049  2.6466  1.4072
 8953SOL     OW38491   4.455   0.985  11.179 -0.3494 -0.0273 -0.2041
 8953SOL    HW138492   4.537   0.991  11.228  0.2097  0.6349 -1.2187
 8953SOL    HW238493   4.488   0.980  11.089 -0.6904  0.8693 -0.3803
 8954SOL     OW38494   4.504   3.125   6.266 -0.5432 -0.2128  0.5331
 8954SOL    HW138495   4.592   3.153   6.240 -1.7438  0.8509 -2.3250
 8954SOL    HW238496   4.499   3.032   6.248 -0.1012 -0.2635  0.6822
 8955SOL     OW38497   2.107   2.278   2.197  0.1220 -0.1375  0.0635
 8955SOL    HW138498   2.124   2.243   2.110  4.8878 -0.3265  1.0934
 8955SOL    HW238499   2.197   2.302   2.218  0.0123  0.4578 -0.1501
 8956SOL     OW38500   1.423   0.253  16.394 -0.0339  0.3968  0.1910
 8956SOL    HW138501   1.403   0.338  16.357 -0.2159  1.5788  3.0049
 8956SOL    HW238502   1.491   0.271  16.459  0.5391  1.6213 -0.7549
 8957SOL     OW38503   0.262   1.926  13.044 -0.4244  0.3656  0.6461
 8957SOL    HW138504   0.346   1.949  13.084 -0.0595 -1.8871  1.1849
 8957SOL    HW238505   0.212   1.894  13.119 -1.3916 -5.0334 -2.2622
 8958SOL     OW38506   0.556   0.891   6.073 -0.6364 -0.6722  0.0132
 8958SOL    HW138507   0.475   0.941   6.071  0.1626  0.6496  0.4481
 8958SOL    HW238508   0.629   0.953   6.075  0.7846 -2.3628  0.6939
 8959SOL     OW38509   3.410   3.923   9.197 -0.1242  0.0513  0.0684
 8959SOL    HW138510   3.490   3.895   9.242  0.7241  1.9066 -0.2772
 8959SOL    HW238511   3.385   3.831   9.193  0.4792 -0.0854 -0.6150
 8960SOL     OW38512   1.202   2.114   4.210  0.2727  0.4624 -0.1815
 8960SOL    HW138513   1.176   2.147   4.296 -1.8644  0.1943 -0.7131
 8960SOL    HW238514   1.278   2.171   4.198 -1.0812  2.6732  1.6620
 8961SOL     OW38515   0.651   3.757   5.594  0.0320  0.1636 -0.4953
 8961SOL    HW138516   0.619   3.847   5.582 -0.6777 -0.3809 -2.8415
 8961SOL    HW238517   0.579   3.696   5.610  0.6919 -1.0061 -2.0435
 8962SOL     OW38518   4.192   0.985  15.245  0.4509 -0.2178  0.2466
 8962SOL    HW138519   4.207   0.964  15.337 -1.5917 -1.8930  0.2136
 8962SOL    HW238520   4.250   0.931  15.192  0.3231  1.2465 -1.3750
 8963SOL     OW38521   2.568   0.283   4.537 -0.6200 -0.0377  0.4604
 8963SOL    HW138522   2.640   0.234   4.497  0.9920  1.7795  1.1491
 8963SOL    HW238523   2.510   0.310   4.465 -0.1802 -1.4081 -0.4031
 8964SOL     OW38524   4.226   1.275   3.696 -0.0822  0.2866 -0.1199
 8964SOL    HW138525   4.271   1.272   3.781 -0.7328 -0.2459  0.2041
 8964SOL    HW238526   4.282   1.224   3.638 -2.2441 -0.6750 -1.3556
 8965SOL     OW38527   1.301   0.085   2.946 -0.6101 -0.7215 -0.7602
 8965SOL    HW138528   1.347   0.120   3.023 -0.8685 -0.2796 -0.8059
 8965SOL    HW238529   1.352   0.012   2.914 -0.6728  0.0499 -2.6027
 8966SOL     OW38530   2.966   3.818   5.351  0.5312  0.4111  0.2620
 8966SOL    HW138531   3.043   3.815   5.295  0.5086  1.9542  0.1426
 8966SOL    HW238532   3.002   3.880   5.414  0.8599  0.3661  0.1153
 8967SOL     OW38533   0.023   3.171   6.225 -0.8609 -0.1222  0.8175
 8967SOL    HW138534   0.106   3.135   6.258 -1.0639 -0.3458  1.0837
 8967SOL    HW238535   0.044   3.264   6.227  0.0384 -0.2975 -0.8256
 8968SOL     OW38536   0.482   4.687  15.025 -0.1895  0.2563 -0.4349
 8968SOL    HW138537   0.436   0.035  15.019 -0.3255  0.2502  0.4944
 8968SOL    HW238538   0.466   4.658  14.935  0.2399 -1.5538  0.0633
 8969SOL     OW38539   0.746   1.757   0.893 -0.8856  0.1368 -0.5186
 8969SOL    HW138540   0.690   1.684   0.864 -0.2778 -0.6774  0.3409
 8969SOL    HW238541   0.806   1.764   0.820  2.3998  3.6101  2.5298
 8970SOL     OW38542   1.220   3.391   8.986 -0.5522 -0.3694  0.2787
 8970SOL    HW138543   1.229   3.449   9.062 -1.5032 -0.6244  0.5870
 8970SOL    HW238544   1.229   3.452   8.912  0.8041  0.1387  0.8489
 8971SOL     OW38545   0.672   4.617   3.132  0.0189 -0.7894  0.2791
 8971SOL    HW138546   0.763   4.637   3.153  0.5329 -1.0261 -1.6804
 8971SOL    HW238547   0.631   4.670   3.201 -1.0701 -0.0234 -0.9493
 8972SOL     OW38548   1.050   2.334   7.847 -0.6550  0.2299  0.1122
 8972SOL    HW138549   1.086   2.249   7.873 -1.4203 -0.7534 -2.0950
 8972SOL    HW238550   1.131   2.386   7.841 -0.5570  0.0176 -0.4509
 8973SOL     OW38551   1.557   1.365   4.905  0.3144  0.7877 -0.6132
 8973SOL    HW138552   1.513   1.340   4.824  1.3584 -0.6908 -0.7146
 8973SOL    HW238553   1.613   1.292   4.931  0.8596  1.4269 -0.0071
 8974SOL     OW38554   0.220   3.206  13.759  0.7497 -0.3686  0.7916
 8974SOL    HW138555   0.137   3.186  13.802  1.0227 -0.0546  1.4633
 8974SOL    HW238556   0.275   3.131  13.783  0.1412 -1.0279  0.1173
 8975SOL     OW38557   1.571   4.158  12.063 -0.3965 -0.2972 -0.1428
 8975SOL    HW138558   1.588   4.167  11.969 -1.3913  1.5380 -0.1497
 8975SOL    HW238559   1.497   4.217  12.075  0.3600  0.6840 -0.2653
 8976SOL     OW38560   0.432   3.078   5.650  0.2085  0.0576  0.1865
 8976SOL    HW138561   0.487   3.022   5.705  0.5029 -0.9900 -1.1909
 8976SOL    HW238562   0.499   3.111   5.590 -0.2021  0.9815  0.2377
 8977SOL     OW38563   3.045   3.790   4.709 -0.3792  0.1699 -0.2198
 8977SOL    HW138564   3.035   3.822   4.798  0.7257  1.0805 -0.4227
 8977SOL    HW238565   3.136   3.761   4.697  0.1653  2.2157 -1.0040
 8978SOL     OW38566   0.358   2.155  12.074  0.2387 -0.1310 -0.0477
 8978SOL    HW138567   0.307   2.235  12.085 -0.6937 -0.6016 -0.9892
 8978SOL    HW238568   0.289   2.102  12.034 -1.1366 -0.0393  2.2391
 8979SOL     OW38569   4.706   1.744   7.579  0.1788  0.0828  0.0408
 8979SOL    HW138570   4.678   1.829   7.546 -0.3197  0.8404  2.4738
 8979SOL    HW238571   4.675   1.739   7.669  0.2426 -1.5235 -0.0227
 8980SOL     OW38572   4.620   3.466   4.383  0.3573  0.4436 -0.2962
 8980SOL    HW138573   4.673   3.542   4.406 -0.3884  0.3504  1.6671
 8980SOL    HW238574   4.576   3.448   4.466 -3.5550 -0.8502 -2.6710
 8981SOL     OW38575   1.854   1.944   1.489 -0.3761 -0.2035 -0.4040
 8981SOL    HW138576   1.850   1.921   1.582 -1.6720 -1.8716 -0.8710
 8981SOL    HW238577   1.795   1.878   1.452  0.8749 -2.1284  1.0048
 8982SOL     OW38578   3.796   1.871  17.516  0.0642  0.1374 -0.6751
 8982SOL    HW138579   3.768   1.820  17.441  1.3415 -0.9763 -0.3973
 8982SOL    HW238580   3.750   1.830  17.589  1.4007  0.5293  0.4005
 8983SOL     OW38581   1.648   1.180  12.610  0.3944 -0.1164  0.1133
 8983SOL    HW138582   1.618   1.245  12.546  1.5455  0.0792 -0.2187
 8983SOL    HW238583   1.563   1.138  12.625  0.1162  0.8375  1.1886
 8984SOL     OW38584   3.939   3.864   6.111 -0.3840  0.1706  0.0868
 8984SOL    HW138585   3.992   3.936   6.078 -1.6093  0.8562 -0.3901
 8984SOL    HW238586   3.913   3.888   6.200  3.6371  1.6982  0.8373
 8985SOL     OW38587   0.229   3.603   0.474  0.1308  0.0280 -0.2023
 8985SOL    HW138588   0.248   3.683   0.425  3.1399 -0.9726 -0.6848
 8985SOL    HW238589   0.300   3.545   0.447 -0.0939  0.1558 -1.0437
 8986SOL     OW38590   2.279   2.159  11.628  0.5430 -0.3515 -0.3238
 8986SOL    HW138591   2.300   2.252  11.637 -0.0488 -0.0981 -1.5324
 8986SOL    HW238592   2.269   2.137  11.720  0.7549 -1.3748 -0.5394
 8987SOL     OW38593   1.843   0.202   7.222  0.2252 -0.7545 -0.2279
 8987SOL    HW138594   1.806   0.191   7.310  0.9948 -3.3479 -0.2306
 8987SOL    HW238595   1.896   0.122   7.225 -0.5382 -1.1705  2.9112
 8988SOL     OW38596   0.203   1.135   0.988 -0.1393  0.5311  0.5046
 8988SOL    HW138597   0.281   1.092   0.954  0.1676  0.7286  0.9470
 8988SOL    HW238598   0.207   1.216   0.938 -1.0169  1.5386  2.0593
 8989SOL     OW38599   1.573   2.371   3.505  0.0876 -0.2662  0.1961
 8989SOL    HW138600   1.477   2.373   3.508  0.0809 -0.5777  0.1383
 8989SOL    HW238601   1.581   2.288   3.551 -1.4913  0.1764  1.2457
 8990SOL     OW38602   3.351   1.993   2.852 -0.2690 -0.1812  0.6380
 8990SOL    HW138603   3.312   2.004   2.938  0.5988 -3.3110  1.4141
 8990SOL    HW238604   3.345   1.898   2.841 -0.5954 -0.0705 -0.1804
 8991SOL     OW38605   2.647   0.309   2.856 -0.3412 -0.5422  0.5141
 8991SOL    HW138606   2.736   0.326   2.888  0.1529 -0.0668 -1.1164
 8991SOL    HW238607   2.607   0.252   2.922 -1.0208  1.3281  1.7139
 8992SOL     OW38608   3.966   2.976   6.645  0.1971  0.0444 -0.4034
 8992SOL    HW138609   3.991   2.924   6.568  0.4516 -0.5555  0.0788
 8992SOL    HW238610   3.872   2.957   6.646  0.2131  0.0126  0.3999
 8993SOL     OW38611   4.409   3.383   3.067  0.2780  0.1215  0.1421
 8993SOL    HW138612   4.464   3.338   3.003 -1.2295 -0.5180 -0.7009
 8993SOL    HW238613   4.400   3.321   3.140 -1.8842 -0.1445 -0.3504
 8994SOL     OW38614   4.151   1.651   9.955  0.1413 -0.4130 -0.2550
 8994SOL    HW138615   4.069   1.607   9.975  0.3170 -0.7956 -0.3751
 8994SOL    HW238616   4.163   1.701  10.035  0.3794 -0.6569 -0.1386
 8995SOL     OW38617   4.651   4.492   3.491 -0.2413 -0.9099  0.0389
 8995SOL    HW138618   4.615   4.500   3.403 -0.8052 -4.0389 -0.0193
 8995SOL    HW238619   4.730   4.441   3.470  1.1998  0.4729  2.0756
 8996SOL     OW38620   3.133   3.818   5.817  0.1142  0.5377  0.0494
 8996SOL    HW138621   3.084   3.737   5.833  0.1986  0.7645  1.5400
 8996SOL    HW238622   3.130   3.858   5.904  0.0684  0.3205  0.1481
 8997SOL     OW38623   1.797   4.427  10.924 -0.1167 -0.1409 -0.1339
 8997SOL    HW138624   1.823   4.513  10.891 -0.3102 -0.0118  0.0461
 8997SOL    HW238625   1.877   4.381  10.899 -0.7916 -1.8419  0.8103
 8998SOL     OW38626   1.549   3.103  10.331 -0.1310  0.3668  0.3582
 8998SOL    HW138627   1.486   3.049  10.282  0.1677  0.7349 -0.4331
 8998SOL    HW238628   1.606   3.032  10.362  0.1713  0.1346 -0.7093
 8999SOL     OW38629   2.850   0.003   0.778  0.0416  0.4766  0.1246
 8999SOL    HW138630   2.883   4.648   0.790  1.2967  1.1596  1.7614
 8999SOL    HW238631   2.909   0.066   0.819 -1.4517  2.4342 -0.7364
 9000SOL     OW38632   4.327   2.694   3.914 -0.0665  0.3388 -0.3252
 9000SOL    HW138633   4.312   2.730   3.827 -1.2156  1.9287  0.5357
 9000SOL    HW238634   4.400   2.744   3.952  0.7486 -1.7170  0.8266
 9001SOL     OW38635   0.163   4.163   7.017 -0.4755  0.5288  0.1721
 9001SOL    HW138636   0.196   4.249   7.043 -0.0171  1.0522 -2.2165
 9001SOL    HW238637   0.075   4.187   6.990 -1.0193 -2.8597 -1.0425
 9002SOL     OW38638   1.975   2.765   7.266 -0.2618  0.0551  0.3782
 9002SOL    HW138639   2.028   2.686   7.253 -1.2696 -0.5657  0.0589
 9002SOL    HW238640   1.921   2.769   7.187  0.1914  0.1943  0.0731
 9003SOL     OW38641   0.969   2.685   7.873  0.7451 -0.4511 -0.6900
 9003SOL    HW138642   0.883   2.671   7.833  1.1061 -0.0206 -1.6053
 9003SOL    HW238643   1.000   2.764   7.829 -1.9028 -0.3205 -2.3362
 9004SOL     OW38644   2.504   0.966   5.752  0.0082 -0.1223  0.0787
 9004SOL    HW138645   2.483   0.957   5.845  0.4506  1.3083  0.3199
 9004SOL    HW238646   2.514   1.061   5.743  3.3182 -0.4775 -0.1977
 9005SOL     OW38647   4.642   3.523   5.977  0.1776 -0.2590  0.0348
 9005SOL    HW138648   4.657   3.435   5.944 -1.5660  0.1413 -1.8344
 9005SOL    HW238649   4.560   3.503   6.022  0.3634 -1.1055  0.0026
 9006SOL     OW38650   3.202   1.542   6.897  0.1590  0.2099  0.3293
 9006SOL    HW138651   3.206   1.490   6.817 -1.0996  0.7566 -0.0877
 9006SOL    HW238652   3.128   1.591   6.862 -0.5561  1.4647  3.5785
 9007SOL     OW38653   3.316   1.646  13.110 -0.1132 -0.2753 -0.7721
 9007SOL    HW138654   3.402   1.605  13.096  0.0478 -0.8888  1.8704
 9007SOL    HW238655   3.270   1.656  13.027  0.2364  2.9556 -0.5699
 9008SOL     OW38656   2.955   3.614   3.407 -0.2099  0.3420  0.3351
 9008SOL    HW138657   2.920   3.614   3.496  0.0996  1.3417  0.4548
 9008SOL    HW238658   3.039   3.658   3.423  0.3303  0.1548 -1.9314
 9009SOL     OW38659   2.116   3.505   5.594 -0.5672 -0.1189 -0.2984
 9009SOL    HW138660   2.124   3.415   5.624 -0.6014 -0.0582 -0.1088
 9009SOL    HW238661   2.084   3.546   5.674  0.5621  1.7698 -0.8074
 9010SOL     OW38662   1.453   2.249   4.213 -0.1499  0.3416 -0.3079
 9010SOL    HW138663   1.535   2.215   4.178  0.7458  0.5435  1.6389
 9010SOL    HW238664   1.483   2.319   4.271 -2.4155  0.0337  1.2371
 9011SOL     OW38665   4.544   1.153   6.833  0.8127  0.5370 -0.5902
 9011SOL    HW138666   4.462   1.104   6.825  1.0144 -0.1557  1.5298
 9011SOL    HW238667   4.504   1.233   6.799 -0.6254  0.0866  0.0433
 9012SOL     OW38668   0.653   0.574  16.957 -0.3060  0.6423 -0.1138
 9012SOL    HW138669   0.675   0.589  17.049 -0.9244  2.0822 -0.1898
 9012SOL    HW238670   0.595   0.650  16.947  0.7426  1.6875  1.6429
 9013SOL     OW38671   2.997   1.520   6.386  0.5785 -0.4822  0.4497
 9013SOL    HW138672   2.985   1.425   6.386 -2.0234 -0.1632  2.4048
 9013SOL    HW238673   2.947   1.534   6.306  1.2821  1.6707  0.3842
 9014SOL     OW38674   0.956   3.070  13.412  0.0348 -0.0155 -0.4035
 9014SOL    HW138675   1.031   3.011  13.413 -1.0534 -1.3739  1.0066
 9014SOL    HW238676   0.905   3.038  13.338 -1.1143  0.2939  0.2488
 9015SOL     OW38677   4.477   4.547   1.137 -0.2923 -0.1751 -0.6115
 9015SOL    HW138678   4.492   4.490   1.212 -2.0305 -0.4126 -0.4495
 9015SOL    HW238679   4.382   4.535   1.142 -0.3072  0.9554  1.8135
 9016SOL     OW38680   3.313   3.161   1.431 -0.6596 -0.4088 -0.6520
 9016SOL    HW138681   3.355   3.185   1.513 -1.7942 -0.4239 -0.0785
 9016SOL    HW238682   3.238   3.220   1.432  0.3018  0.8285 -1.5636
 9017SOL     OW38683   0.625   3.377   4.506 -0.1769  0.2522 -0.0613
 9017SOL    HW138684   0.582   3.292   4.507 -0.2726  0.3493  4.0735
 9017SOL    HW238685   0.592   3.403   4.420  0.6078 -2.2141 -1.1217
 9018SOL     OW38686   1.508   4.467   1.255  0.8719 -0.7918 -0.0108
 9018SOL    HW138687   1.602   4.467   1.240  1.0655  0.0279  1.2271
 9018SOL    HW238688   1.490   4.550   1.299  1.6250 -1.0977  0.8581
 9019SOL     OW38689   1.553   1.875   5.374  0.3575 -1.0922  0.1648
 9019SOL    HW138690   1.637   1.905   5.341  0.0940 -0.3062  0.2167
 9019SOL    HW238691   1.570   1.809   5.441 -0.5325 -0.1865  1.2921
 9020SOL     OW38692   4.691   4.386   5.347 -0.1153 -0.1334 -0.0368
 9020SOL    HW138693   4.649   4.303   5.324 -0.8150  0.1840  0.0909
 9020SOL    HW238694   4.628   4.428   5.405 -0.7984 -0.3225 -0.6472
 9021SOL     OW38695   3.249   4.144  10.606 -0.4725  0.6546  0.5806
 9021SOL    HW138696   3.274   4.220  10.658  3.2466 -0.4985  0.4816
 9021SOL    HW238697   3.249   4.072  10.669  0.7576  0.1470  0.0006
 9022SOL     OW38698   4.212   0.759   0.305 -0.9651  0.2599  0.2193
 9022SOL    HW138699   4.136   0.814   0.289 -1.9040 -0.4513  2.2835
 9022SOL    HW238700   4.229   0.753   0.399  1.9549 -0.6006 -0.3664
 9023SOL     OW38701   1.979   2.295   5.401 -0.0041 -0.4714 -0.1873
 9023SOL    HW138702   1.951   2.204   5.415 -0.8148 -0.1710  0.1782
 9023SOL    HW238703   2.074   2.293   5.405  0.0351  1.4961 -0.1358
 9024SOL     OW38704   3.460   0.932   4.260 -0.1433  0.2169  0.5011
 9024SOL    HW138705   3.431   1.009   4.209 -1.8582 -0.8213 -0.1079
 9024SOL    HW238706   3.393   0.867   4.240 -0.9526  0.4657  2.4531
 9025SOL     OW38707   2.682   2.436   7.551 -0.0373  0.2195  0.7211
 9025SOL    HW138708   2.614   2.372   7.531  0.4134 -0.7480  2.3179
 9025SOL    HW238709   2.712   2.451   7.461  0.4053 -0.8231  0.6977
 9026SOL     OW38710   1.105   0.117   1.293 -0.3869 -0.5626 -0.3532
 9026SOL    HW138711   1.162   0.176   1.342 -0.3863 -0.0820 -0.9215
 9026SOL    HW238712   1.038   0.093   1.357 -0.2364  1.2293  0.4762
 9027SOL     OW38713   3.308   3.555   2.733 -0.2139 -0.3093 -0.4218
 9027SOL    HW138714   3.326   3.520   2.820  0.3580 -1.1494 -0.8834
 9027SOL    HW238715   3.398   3.566   2.702 -0.7876  1.9852 -1.3459
 9028SOL     OW38716   1.149   1.474   6.457  0.0651  0.2486 -0.2703
 9028SOL    HW138717   1.086   1.539   6.426  1.1844  1.8569  0.8228
 9028SOL    HW238718   1.091   1.425   6.515  1.3657 -2.0728 -0.9258
 9029SOL     OW38719   1.032   2.904  10.285 -0.0288  0.6476 -0.0330
 9029SOL    HW138720   0.937   2.911  10.301 -0.5725 -2.2733 -2.0868
 9029SOL    HW238721   1.064   2.994  10.290  1.5909 -0.0070  1.2636
 9030SOL     OW38722   3.309   0.621   6.371 -0.6573 -0.0766 -0.6119
 9030SOL    HW138723   3.266   0.706   6.375  0.2983  0.3334  1.1966
 9030SOL    HW238724   3.238   0.568   6.336 -2.1431  2.2588 -1.1028
 9031SOL     OW38725   2.570   0.695  13.217 -0.2352  0.7823  0.2173
 9031SOL    HW138726   2.657   0.713  13.252  0.4711 -0.5349 -0.8822
 9031SOL    HW238727   2.554   0.747  13.138  1.1184  0.2817 -0.3864
 9032SOL     OW38728   3.150   0.736   3.215  0.0916 -0.2582  0.0053
 9032SOL    HW138729   3.172   0.646   3.192  0.9742 -0.5007  1.8159
 9032SOL    HW238730   3.132   0.733   3.309 -2.3646 -0.7685 -0.4760
 9033SOL     OW38731   1.272   2.643  17.573 -0.0941  0.0826 -0.1340
 9033SOL    HW138732   1.318   2.579  17.627 -0.5133  0.8739  1.1778
 9033SOL    HW238733   1.344   2.673  17.518 -0.7817 -1.5711 -1.8997
 9034SOL     OW38734   1.668   2.473   4.261 -0.0539  0.7336 -0.6908
 9034SOL    HW138735   1.718   2.410   4.208 -0.2094 -2.4815  2.9858
 9034SOL    HW238736   1.741   2.523   4.297 -0.5004  0.6532  0.3156
 9035SOL     OW38737   3.422   2.778   5.500 -0.0274 -0.5556 -0.1215
 9035SOL    HW138738   3.379   2.715   5.441 -1.6034 -0.7275  1.2314
 9035SOL    HW238739   3.399   2.748   5.587  0.6149 -1.5224 -0.2789
 9036SOL     OW38740   2.758   2.178   2.977 -0.5520 -0.6984  0.0911
 9036SOL    HW138741   2.795   2.207   2.894 -0.9371  1.5955  0.7182
 9036SOL    HW238742   2.664   2.189   2.963  0.0695  1.8835 -1.8850
 9037SOL     OW38743   1.963   1.052   7.901 -0.2812 -0.4946  0.3560
 9037SOL    HW138744   1.943   1.021   7.989  1.0447  0.2798  0.9253
 9037SOL    HW238745   1.917   0.987   7.848  1.7077  0.2219 -2.2192
 9038SOL     OW38746   1.512   0.152  15.851  0.1942  0.7482 -0.1086
 9038SOL    HW138747   1.474   0.171  15.765  2.0756 -0.5001 -1.2124
 9038SOL    HW238748   1.459   0.081  15.886  1.1574  0.7177  1.2987
 9039SOL     OW38749   4.051   3.759   1.760  0.1894  0.3584  0.2038
 9039SOL    HW138750   4.113   3.693   1.790  0.9669 -0.5519 -3.4629
 9039SOL    HW238751   4.080   3.829   1.818 -0.1759  0.0826  0.7145
 9040SOL     OW38752   0.328   3.973   2.523 -0.0727 -0.6386 -0.4179
 9040SOL    HW138753   0.420   3.991   2.504 -0.2449  0.8553  0.1462
 9040SOL    HW238754   0.295   4.051   2.479 -0.6073  0.3565  1.7208
 9041SOL     OW38755   1.744   2.068   2.978  0.5587 -0.1829 -0.3489
 9041SOL    HW138756   1.658   2.057   3.019  2.3023 -0.6555  3.1217
 9041SOL    HW238757   1.795   2.114   3.045 -0.2626 -1.9320  1.4820
 9042SOL     OW38758   2.941   1.141   9.617 -0.0985 -0.0558 -0.1124
 9042SOL    HW138759   2.919   1.234   9.621  0.2593  0.0237  0.0456
 9042SOL    HW238760   2.981   1.128   9.704 -0.5289 -1.0626 -0.0678
 9043SOL     OW38761   4.647   1.359  12.455 -0.0852  0.0495  0.0973
 9043SOL    HW138762   4.699   1.313  12.522  0.8256  1.4409  0.3545
 9043SOL    HW238763   4.650   1.301  12.379  0.8176 -1.9519  1.6272
 9044SOL     OW38764   3.566   1.825   8.866 -0.6469 -0.1042  0.1647
 9044SOL    HW138765   3.517   1.743   8.856 -0.7717  0.0312 -0.3100
 9044SOL    HW238766   3.565   1.836   8.961  0.3909 -3.0400  0.5222
 9045SOL     OW38767   4.554   2.323   9.021 -0.0409  0.4541  0.3346
 9045SOL    HW138768   4.604   2.292   8.946  1.8433 -0.5737  2.0418
 9045SOL    HW238769   4.567   2.416   9.001 -0.6018  0.5145  0.2544
 9046SOL     OW38770   0.451   0.760  16.849  0.1240 -0.3621  0.5220
 9046SOL    HW138771   0.371   0.737  16.802 -0.0634 -0.4423  0.8871
 9046SOL    HW238772   0.418   0.827  16.909 -0.2303  1.7498 -2.0413
 9047SOL     OW38773   3.964   2.814   8.406  0.3527 -0.1794 -0.4899
 9047SOL    HW138774   4.049   2.771   8.393  2.0891  3.1647 -0.1981
 9047SOL    HW238775   3.969   2.841   8.498  0.3861 -3.2046  0.3974
 9048SOL     OW38776   1.788   2.980   9.938 -0.2253  0.2864  0.2182
 9048SOL    HW138777   1.782   2.885   9.946  2.0841  0.3254  2.2599
 9048SOL    HW238778   1.705   3.002   9.979  0.1563  1.1966  0.4946
 9049SOL     OW38779   4.202   2.173   1.827  0.6850  0.3182 -0.5408
 9049SOL    HW138780   4.169   2.154   1.739  2.5477 -1.7513 -0.7893
 9049SOL    HW238781   4.294   2.146   1.821  1.0524  1.2450  0.9641
 9050SOL     OW38782   2.406   1.823   5.574 -0.3984  0.3186 -0.1483
 9050SOL    HW138783   2.311   1.814   5.581 -0.3879  1.1899  1.1567
 9050SOL    HW238784   2.438   1.747   5.526 -0.9515 -0.6438  0.9878
 9051SOL     OW38785   0.351   4.659   0.326  0.0391  0.2434 -0.7917
 9051SOL    HW138786   0.364   4.674   0.420 -2.2181 -2.0055 -0.1074
 9051SOL    HW238787   0.388   0.004   0.288  0.0569  1.1750  1.1461
 9052SOL     OW38788   1.240   4.152   7.756 -0.8027  0.0481  0.2862
 9052SOL    HW138789   1.165   4.105   7.720  0.6128 -4.0798  2.7209
 9052SOL    HW238790   1.269   4.103   7.833  0.0556 -1.1739 -0.8274
 9053SOL     OW38791   3.393   1.462   1.792  0.3303 -0.2441 -0.1538
 9053SOL    HW138792   3.324   1.397   1.782 -0.1723  0.0373  1.5901
 9053SOL    HW238793   3.472   1.409   1.779  1.1235  0.4372  1.8812
 9054SOL     OW38794   2.147   4.634  17.008  0.1434 -0.9148 -0.1368
 9054SOL    HW138795   2.114   4.715  16.970 -1.2425 -0.3982  2.1902
 9054SOL    HW238796   2.242   4.645  17.015  0.2977 -1.6812 -1.0038
 9055SOL     OW38797   4.641   2.768   6.802  0.3807 -0.0284 -0.2792
 9055SOL    HW138798   4.728   2.729   6.792  1.7960  2.9914  0.3261
 9055SOL    HW238799   4.633   2.833   6.732 -0.7236  1.3074  1.1013
 9056SOL     OW38800   2.971   1.593   5.969 -0.7826  0.3681  0.5368
 9056SOL    HW138801   3.012   1.522   6.019 -2.2194  0.2209  1.5289
 9056SOL    HW238802   3.041   1.658   5.966  0.6378 -1.3304 -3.6383
 9057SOL     OW38803   2.072   3.561  13.845 -0.7690  0.4004  0.0167
 9057SOL    HW138804   2.156   3.607  13.856  0.0916 -1.3990  0.9279
 9057SOL    HW238805   2.094   3.503  13.918 -0.7476  2.8152  1.9246
 9058SOL     OW38806   2.412   4.508   7.388  0.2130  0.2069 -0.2879
 9058SOL    HW138807   2.490   4.526   7.441  0.2312 -0.4333 -0.1001
 9058SOL    HW238808   2.410   4.583   7.328 -0.6257  0.8745  0.5881
 9059SOL     OW38809   1.699   1.403   4.227 -0.0504 -0.0946 -0.8507
 9059SOL    HW138810   1.767   1.346   4.262  1.6395  2.6643  0.3441
 9059SOL    HW238811   1.634   1.332   4.232 -0.5265  0.3214 -1.2168
 9060SOL     OW38812   1.875   0.330  14.166 -0.1577  0.5086 -0.3720
 9060SOL    HW138813   1.803   0.277  14.133  0.0182  0.2085 -0.2699
 9060SOL    HW238814   1.931   0.346  14.090  1.4858  0.3393  0.7898
 9061SOL     OW38815   0.137   0.425   5.570  0.2763  0.8476  0.3723
 9061SOL    HW138816   0.049   0.408   5.605  0.7887 -1.6120  0.4564
 9061SOL    HW238817   0.191   0.394   5.643  1.1352 -2.3303 -1.6402
 9062SOL     OW38818   0.816   0.804   7.793  0.1297  0.4078  0.1954
 9062SOL    HW138819   0.865   0.856   7.857  1.3600 -1.4637  0.8077
 9062SOL    HW238820   0.797   0.861   7.719 -1.1812 -0.7948 -0.4007
 9063SOL     OW38821   2.857   1.176   3.623  0.6314 -0.1700 -0.7353
 9063SOL    HW138822   2.914   1.254   3.627  1.9635 -1.2394  1.8117
 9063SOL    HW238823   2.784   1.222   3.582 -0.8368 -3.6995 -2.0305
 9064SOL     OW38824   4.459   3.298  10.957 -0.1207 -0.2023  0.1889
 9064SOL    HW138825   4.519   3.367  10.983  1.7685 -1.3406 -1.1482
 9064SOL    HW238826   4.384   3.341  10.916 -0.0110 -0.8623 -0.7009
 9065SOL     OW38827   2.759   0.586   9.294  0.1386  0.5145 -0.0816
 9065SOL    HW138828   2.809   0.640   9.355  0.9874 -0.6355  0.2586
 9065SOL    HW238829   2.804   0.599   9.210  0.6224  0.0701  0.1033
 9066SOL     OW38830   1.064   3.067   4.666  0.5497  0.2664  0.0004
 9066SOL    HW138831   1.074   3.086   4.573  2.0775 -2.4422 -0.3941
 9066SOL    HW238832   1.131   2.999   4.673  1.1920  0.6839 -1.9342
 9067SOL     OW38833   4.344   3.857   4.816  0.0280  0.0801 -0.6304
 9067SOL    HW138834   4.347   3.953   4.820 -0.9362  0.0571  0.4795
 9067SOL    HW238835   4.340   3.849   4.720 -0.1574 -1.3922 -0.4953
 9068SOL     OW38836   0.960   2.195   3.431 -0.3948  0.2320 -0.1030
 9068SOL    HW138837   0.905   2.134   3.480 -0.2671  0.5040  0.3788
 9068SOL    HW238838   1.046   2.191   3.473 -0.2648 -2.4374 -0.6214
 9069SOL     OW38839   3.093   0.480   6.322 -0.0722 -0.5856 -0.1772
 9069SOL    HW138840   3.091   0.403   6.265 -1.0313 -0.1116 -0.7985
 9069SOL    HW238841   3.000   0.503   6.322 -0.1843 -1.0086  1.1876
 9070SOL     OW38842   3.802   4.709   4.132 -0.6550  0.3218 -0.1073
 9070SOL    HW138843   3.894   4.704   4.104 -0.0133 -0.2918  2.1132
 9070SOL    HW238844   3.802   4.647   4.205 -2.2614  2.2666  1.5555
 9071SOL     OW38845   2.236   0.556   1.835  0.4041  0.5481 -0.2646
 9071SOL    HW138846   2.297   0.486   1.861 -1.0549 -0.0484  1.4981
 9071SOL    HW238847   2.154   0.513   1.858  0.4879  0.9270  0.7353
 9072SOL     OW38848   1.968   1.169  17.628  0.1596  0.0889  0.2097
 9072SOL    HW138849   1.891   1.128  17.588 -0.7896  2.4456 -0.4296
 9072SOL    HW238850   2.027   1.094  17.632  0.0040 -0.0882 -0.8905
 9073SOL     OW38851   1.226   0.700   3.267 -0.5943  0.3663 -0.1019
 9073SOL    HW138852   1.164   0.640   3.308  0.1209  0.3180  0.9010
 9073SOL    HW238853   1.313   0.661   3.265 -0.1617  1.2661  1.1080
 9074SOL     OW38854   4.407   3.031   1.347  0.4616  0.2429  0.5064
 9074SOL    HW138855   4.420   3.125   1.342 -1.4694  0.5116  0.7753
 9074SOL    HW238856   4.312   3.030   1.342  0.5725 -0.2310 -1.4151
 9075SOL     OW38857   1.959   2.361   9.435  0.1739 -0.1266 -0.1192
 9075SOL    HW138858   1.974   2.455   9.432 -0.6004 -0.0789 -2.2002
 9075SOL    HW238859   1.998   2.326   9.515  0.6955  2.0104  0.5622
 9076SOL     OW38860   4.172   4.364   3.713  0.1974  0.2713 -0.6499
 9076SOL    HW138861   4.181   4.359   3.809 -4.2092 -0.3494 -0.2513
 9076SOL    HW238862   4.266   4.361   3.697  0.0208  1.7893 -1.9905
 9077SOL     OW38863   2.648   3.612  16.290  0.3976 -0.4780 -0.3193
 9077SOL    HW138864   2.613   3.579  16.373 -2.7556 -0.4284 -1.6275
 9077SOL    HW238865   2.695   3.691  16.319 -0.9101 -0.8189  2.8079
 9078SOL     OW38866   3.131   1.716   2.602  0.0600 -0.1089  0.5995
 9078SOL    HW138867   3.085   1.763   2.533 -0.0577 -0.7338  0.2519
 9078SOL    HW238868   3.198   1.676   2.547 -1.5702 -0.0062 -1.4365
 9079SOL     OW38869   1.925   0.070   8.256 -0.2656 -0.3618 -0.1497
 9079SOL    HW138870   1.992   0.001   8.247 -0.1459 -0.2226 -0.3230
 9079SOL    HW238871   1.844   0.022   8.239 -0.1546 -0.4576 -0.4215
 9080SOL     OW38872   1.791   4.601  11.517  0.4477 -0.1473  0.6634
 9080SOL    HW138873   1.740   4.671  11.477 -0.2262 -1.0008  0.0272
 9080SOL    HW238874   1.745   4.528  11.474 -0.7330  0.7363  0.4366
 9081SOL     OW38875   3.763   0.217   8.576  0.1377 -0.0190 -0.1976
 9081SOL    HW138876   3.707   0.209   8.653 -0.0640  0.1165 -0.3310
 9081SOL    HW238877   3.757   0.133   8.530 -0.4181 -0.6551  1.0422
 9082SOL     OW38878   1.576   1.984   7.125  0.4647 -0.0408 -0.1964
 9082SOL    HW138879   1.494   1.994   7.174  0.8533 -0.2608  0.4947
 9082SOL    HW238880   1.645   2.006   7.188 -0.7883  0.2681  1.0874
 9083SOL     OW38881   3.960   2.700   2.980  0.0923 -0.7149  0.4782
 9083SOL    HW138882   3.989   2.702   2.889 -1.4253 -0.6655 -0.0045
 9083SOL    HW238883   4.017   2.627   3.003  0.2759 -1.3580 -2.0493
 9084SOL     OW38884   2.727   0.364   9.120 -0.1960 -0.3162 -0.5973
 9084SOL    HW138885   2.727   0.409   9.205 -1.8778 -0.6710 -0.4058
 9084SOL    HW238886   2.785   0.424   9.072 -0.2093  1.1196  1.1695
 9085SOL     OW38887   4.189   2.949   4.774 -0.4867  0.7047  0.5692
 9085SOL    HW138888   4.194   2.883   4.843 -1.3292 -0.2786 -0.3060
 9085SOL    HW238889   4.096   2.971   4.780 -0.6514  0.1610  0.0262
 9086SOL     OW38890   3.345   4.274   5.232  0.7177 -0.4907 -0.5943
 9086SOL    HW138891   3.404   4.260   5.307  1.3062  0.4929 -0.8655
 9086SOL    HW238892   3.264   4.308   5.270  0.9828 -0.5031 -0.0152
 9087SOL     OW38893   0.521   2.146  12.863 -0.4624  0.7448 -0.3039
 9087SOL    HW138894   0.492   2.191  12.943 -0.0979  2.1912 -0.9815
 9087SOL    HW238895   0.545   2.058  12.892  0.6302  0.8033 -1.0715
 9088SOL     OW38896   1.510   1.047   4.662 -0.1067 -0.1049  0.2357
 9088SOL    HW138897   1.483   0.963   4.700  0.8506 -0.3683  0.3351
 9088SOL    HW238898   1.440   1.099   4.701 -1.7938 -0.6881 -2.0037
 9089SOL     OW38899   4.244   1.319   5.066 -0.3130  0.3280 -0.1474
 9089SOL    HW138900   4.331   1.288   5.042 -0.9826 -0.2661 -1.8467
 9089SOL    HW238901   4.210   1.307   4.977  3.7618 -0.8525 -1.5141
 9090SOL     OW38902   1.185   0.204  12.294 -0.0655 -0.0079 -0.1753
 9090SOL    HW138903   1.280   0.197  12.287  0.1267  0.6063  1.7095
 9090SOL    HW238904   1.170   0.132  12.356  0.6431  1.0007  1.1534
 9091SOL     OW38905   0.292   0.535  12.028 -0.8301 -0.0399 -0.4604
 9091SOL    HW138906   0.383   0.560  12.044 -1.2234  2.0453 -1.4390
 9091SOL    HW238907   0.250   0.620  12.042 -1.2101 -0.2960 -0.0954
 9092SOL     OW38908   0.078   2.521   3.445 -0.1267  0.0057  0.0027
 9092SOL    HW138909   4.725   2.552   3.467 -0.2321 -0.4230  0.1822
 9092SOL    HW238910   0.114   2.506   3.533 -1.7126  1.4380  0.8909
 9093SOL     OW38911   2.584   3.136   5.845 -0.1587 -0.0178 -0.1287
 9093SOL    HW138912   2.619   3.079   5.777 -3.1761  2.1725 -3.5532
 9093SOL    HW238913   2.495   3.102   5.832 -0.1913  0.3934 -0.9856
 9094SOL     OW38914   2.665   4.238   6.093  0.0714 -0.2206  0.5148
 9094SOL    HW138915   2.614   4.203   6.166 -1.6718  0.5497 -0.3334
 9094SOL    HW238916   2.745   4.241   6.146 -0.4426  2.4192  1.1407
 9095SOL     OW38917   2.743   3.027   2.600 -0.0788  0.0527  0.5386
 9095SOL    HW138918   2.775   3.094   2.540 -0.7690  0.2061  0.3446
 9095SOL    HW238919   2.825   2.978   2.599  0.1633  0.4587  0.2690
 9096SOL     OW38920   2.631   4.469   5.778  0.4134  0.3605 -0.0239
 9096SOL    HW138921   2.718   4.492   5.745  0.3630  0.8490  0.1871
 9096SOL    HW238922   2.589   4.448   5.694  1.7242  2.8623 -1.2876
 9097SOL     OW38923   3.434   0.810   3.841  0.5624 -0.3118 -0.1347
 9097SOL    HW138924   3.464   0.786   3.929  2.7638  1.0080 -0.5285
 9097SOL    HW238925   3.471   0.894   3.815 -0.7072  0.7742  1.5221
 9098SOL     OW38926   1.163   0.653   2.511 -0.0642  0.4632  0.5454
 9098SOL    HW138927   1.120   0.595   2.575 -0.0633 -0.6900 -0.4883
 9098SOL    HW238928   1.099   0.656   2.439  1.3089  0.8996 -0.6584
 9099SOL     OW38929   0.897   4.162   4.606  0.1932  0.1494 -0.6517
 9099SOL    HW138930   0.854   4.215   4.539 -0.8071  0.7058  0.4405
 9099SOL    HW238931   0.820   4.134   4.657  0.3408 -0.7919 -0.9513
 9100SOL     OW38932   4.317   0.543   8.995 -0.2677 -0.2386  0.3889
 9100SOL    HW138933   4.342   0.633   9.017  0.6002 -0.2499 -0.5626
 9100SOL    HW238934   4.314   0.506   9.083 -0.2266 -0.7270  0.1833
 9101SOL     OW38935   2.325   1.809   8.489  0.1867 -0.0139  0.8796
 9101SOL    HW138936   2.409   1.848   8.511  1.1074 -1.1672 -0.6102
 9101SOL    HW238937   2.340   1.717   8.509 -0.1020 -0.3077 -0.2585
 9102SOL     OW38938   1.702   3.098  11.427  0.2225 -0.0277  0.2442
 9102SOL    HW138939   1.692   3.158  11.353  0.5525  0.8400  0.8996
 9102SOL    HW238940   1.735   3.148  11.501  0.4938 -1.2655  0.9691
 9103SOL     OW38941   1.483   0.395  10.929 -0.5398  0.1635 -0.4999
 9103SOL    HW138942   1.403   0.345  10.913 -0.7773  1.0923 -2.2267
 9103SOL    HW238943   1.513   0.356  11.011  1.8575 -0.1415 -1.5208
 9104SOL     OW38944   1.249   1.303  14.025 -0.1735 -0.3983 -0.1907
 9104SOL    HW138945   1.335   1.263  14.017  0.6079  0.8077  2.2399
 9104SOL    HW238946   1.207   1.278  13.943 -1.8129  1.4091  0.0976
 9105SOL     OW38947   2.622   2.703   8.852  0.0376 -0.4187 -0.2534
 9105SOL    HW138948   2.572   2.644   8.796 -0.4383  0.1163 -0.3884
 9105SOL    HW238949   2.651   2.634   8.911 -0.6685  0.5531  1.2191
 9106SOL     OW38950   2.995   3.238   5.992  0.2190 -0.0967 -0.2449
 9106SOL    HW138951   2.926   3.303   6.010 -0.8793 -0.3372 -3.4858
 9106SOL    HW238952   3.015   3.256   5.900  1.2780 -1.8113 -0.3319
 9107SOL     OW38953   0.680   0.513   0.772 -0.7755 -1.2251  0.8947
 9107SOL    HW138954   0.715   0.474   0.692 -0.8752 -0.4161  0.4564
 9107SOL    HW238955   0.743   0.582   0.794  0.7457 -2.2653 -0.1859
 9108SOL     OW38956   0.915   2.626   8.693 -0.0638  0.6634  0.3509
 9108SOL    HW138957   0.933   2.583   8.609  0.2061  1.4156  0.0246
 9108SOL    HW238958   1.001   2.662   8.714 -0.0576  1.7221 -1.4709
 9109SOL     OW38959   1.742   0.550   3.320  0.1331 -0.4884 -0.0697
 9109SOL    HW138960   1.728   0.528   3.228 -0.8043 -2.1027  0.4654
 9109SOL    HW238961   1.816   0.495   3.346  1.9039  0.7354 -2.4270
 9110SOL     OW38962   1.149   2.169   8.285 -0.0560  0.5360  0.1125
 9110SOL    HW138963   1.191   2.239   8.334 -1.6736  0.9438  0.8935
 9110SOL    HW238964   1.192   2.091   8.321 -1.7245 -0.9166 -1.0139
 9111SOL     OW38965   0.380   0.079   7.079  0.3195  0.2484  0.3528
 9111SOL    HW138966   0.297   0.052   7.119 -0.8159  4.1569  0.6278
 9111SOL    HW238967   0.352   0.083   6.988  0.6637  1.6327  0.3159
 9112SOL     OW38968   3.054   3.251  11.613  0.2953 -0.0364 -0.4446
 9112SOL    HW138969   3.038   3.211  11.527 -0.4290  1.3737 -0.9699
 9112SOL    HW238970   3.126   3.314  11.613 -0.4118  0.7685  0.5536
 9113SOL     OW38971   1.917   0.780  15.526 -0.1237 -0.3086  0.0897
 9113SOL    HW138972   1.950   0.870  15.529 -0.1042 -0.2496 -1.9028
 9113SOL    HW238973   1.950   0.745  15.608 -0.4478  0.5551  0.5923
 9114SOL     OW38974   1.190   4.694  15.322  0.3971 -0.0163  0.2497
 9114SOL    HW138975   1.131   4.623  15.346 -2.3305  2.5949  1.2567
 9114SOL    HW238976   1.145   4.729  15.245  0.8114  0.1061  0.0622
 9115SOL     OW38977   3.381   3.287  12.579 -0.4216  0.1398 -0.1364
 9115SOL    HW138978   3.467   3.305  12.617 -1.1792  0.4422  1.4379
 9115SOL    HW238979   3.388   3.199  12.542 -0.2320 -0.4894  1.3799
 9116SOL     OW38980   2.662   1.002   2.494 -0.2852  0.4697  0.5788
 9116SOL    HW138981   2.580   1.009   2.445  1.0793 -0.6137 -1.8828
 9116SOL    HW238982   2.644   0.932   2.557  1.2750 -0.9000 -0.5121
 9117SOL     OW38983   0.190   4.345  12.983 -0.0898  0.1547  0.5695
 9117SOL    HW138984   0.172   4.297  13.063 -1.5235 -1.4191 -0.6964
 9117SOL    HW238985   0.199   4.270  12.924  1.9959  0.5816  0.3258
 9118SOL     OW38986   1.806   4.296   1.712 -0.0942 -0.8260 -0.1237
 9118SOL    HW138987   1.896   4.265   1.724 -0.2080 -0.7093  0.9984
 9118SOL    HW238988   1.792   4.265   1.622 -2.0748  2.6570 -0.9805
 9119SOL     OW38989   4.525   3.816   5.602  0.6710  0.2555  0.1576
 9119SOL    HW138990   4.447   3.848   5.647  0.3946 -0.3837  0.1341
 9119SOL    HW238991   4.513   3.723   5.622  0.0075  0.4369  0.6017
 9120SOL     OW38992   2.319   0.467   3.322 -0.3452 -0.2683  0.0408
 9120SOL    HW138993   2.273   0.398   3.273  0.5332 -0.3548 -0.6640
 9120SOL    HW238994   2.327   0.437   3.412 -1.5168  2.4196  1.0205
 9121SOL     OW38995   2.687   0.078   0.561 -0.1193  0.2752 -0.0031
 9121SOL    HW138996   2.718   0.015   0.626  1.8205  0.6737 -0.5460
 9121SOL    HW238997   2.712   0.167   0.587 -2.7869  0.7397  0.9842
 9122SOL     OW38998   3.955   0.763   7.469 -0.5015 -0.2802  0.0695
 9122SOL    HW138999   3.907   0.754   7.552  0.4348 -3.0698  0.3038
 9122SOL    HW239000   4.035   0.810   7.492 -1.1763  0.0392  1.7651
 9123SOL     OW39001   0.531   3.121   9.210 -0.4461 -0.0370  0.4716
 9123SOL    HW139002   0.528   3.180   9.134  0.9538  1.0881  1.2958
 9123SOL    HW239003   0.466   3.055   9.185  0.7282 -1.4353  1.0810
 9124SOL     OW39004   4.724   2.424   6.160  0.1718 -0.9996  0.3773
 9124SOL    HW139005   4.709   2.331   6.146 -0.0928 -0.8182 -0.5858
 9124SOL    HW239006   4.638   2.455   6.129  0.1899 -0.8192  0.5100
 9125SOL     OW39007   4.403   3.848  11.168 -0.0925 -0.3040 -0.6052
 9125SOL    HW139008   4.387   3.754  11.159 -0.7459 -0.4270  2.1567
 9125SOL    HW239009   4.374   3.879  11.082  1.0482  1.1219 -0.4773
 9126SOL     OW39010   4.001   2.551  13.811  0.6269 -0.0916  0.3607
 9126SOL    HW139011   3.942   2.514  13.746 -0.1995 -1.8101  2.1075
 9126SOL    HW239012   4.091   2.528  13.787  0.2566 -0.8643 -0.2757
 9127SOL     OW39013   3.572   4.631   1.958 -0.2526 -0.2450  0.0505
 9127SOL    HW139014   3.523   4.579   1.894 -0.6140  0.1917 -0.0282
 9127SOL    HW239015   3.613   4.568   2.016 -3.4882 -1.1252  1.3618
 9128SOL     OW39016   4.379   0.791  17.631 -0.2000  0.1760  0.4519
 9128SOL    HW139017   4.466   0.822  17.657  0.3990 -1.3273  0.2618
 9128SOL    HW239018   4.367   0.735  17.708  0.5048  0.0901  0.4954
 9129SOL     OW39019   2.416   3.320  10.738  0.1457 -0.0303  0.5231
 9129SOL    HW139020   2.364   3.329  10.819  1.0785  0.1885  1.0925
 9129SOL    HW239021   2.474   3.247  10.758 -0.0570 -0.3862 -0.1721
 9130SOL     OW39022   1.460   4.056   0.635 -0.2107  0.1238  0.1732
 9130SOL    HW139023   1.410   3.974   0.640 -0.8837  0.6184  1.5132
 9130SOL    HW239024   1.465   4.076   0.729 -2.7461 -1.9158  0.7503
 9131SOL     OW39025   4.513   4.567  10.468  0.1227 -0.3781 -0.0004
 9131SOL    HW139026   4.566   4.488  10.477 -1.1905 -1.4769 -1.9569
 9131SOL    HW239027   4.517   4.606  10.555  0.4802 -1.1444  0.3283
 9132SOL     OW39028   1.564   1.868  16.601  0.5769 -0.0286  0.1173
 9132SOL    HW139029   1.472   1.844  16.589  0.1458 -0.0732  3.2832
 9132SOL    HW239030   1.575   1.832  16.690  0.6768 -2.5821 -0.9335
 9133SOL     OW39031   3.231   0.685   1.086 -0.1483  0.3223 -0.4649
 9133SOL    HW139032   3.183   0.740   1.024 -1.9758  1.6177  2.1344
 9133SOL    HW239033   3.164   0.682   1.154 -0.2093  1.5224 -0.4614
 9134SOL     OW39034   0.502   4.323   3.969 -0.4428 -0.3979  0.0291
 9134SOL    HW139035   0.461   4.273   4.040 -1.4052 -1.1330 -1.0494
 9134SOL    HW239036   0.471   4.271   3.895  3.1250 -2.2633 -0.1748
 9135SOL     OW39037   3.617   1.643   5.545 -0.4328  0.1305  0.4689
 9135SOL    HW139038   3.573   1.558   5.547 -0.4075  0.0557 -2.3066
 9135SOL    HW239039   3.560   1.693   5.603 -1.6512  2.1156 -2.4603
 9136SOL     OW39040   3.168   4.333   0.767  0.0827 -0.2718 -0.2094
 9136SOL    HW139041   3.127   4.249   0.748  1.1405 -0.3794 -2.0283
 9136SOL    HW239042   3.184   4.324   0.860 -0.1732  2.1312  0.0709
 9137SOL     OW39043   2.008   4.265  10.824  0.0723  0.1596 -0.3141
 9137SOL    HW139044   2.092   4.221  10.810 -0.2495 -0.6481  0.2913
 9137SOL    HW239045   1.977   4.262  10.734  1.5789  0.5830 -0.8455
 9138SOL     OW39046   0.852   1.320   4.159  0.2930  0.1876 -0.0234
 9138SOL    HW139047   0.797   1.313   4.237  0.9105 -1.0048  0.3078
 9138SOL    HW239048   0.794   1.307   4.084  0.7262 -2.5509  0.1306
 9139SOL     OW39049   1.667   3.680   6.791  0.4056  0.3030 -0.4060
 9139SOL    HW139050   1.731   3.614   6.816 -0.4558 -0.9459 -1.5327
 9139SOL    HW239051   1.701   3.717   6.710  0.0810  0.2376 -0.5724
 9140SOL     OW39052   4.598   0.497  17.068  0.4500 -0.5164 -0.0415
 9140SOL    HW139053   4.524   0.512  17.127  1.4471 -0.6733  1.2484
 9140SOL    HW239054   4.552   0.442  17.004  0.2999  1.5489 -1.7180
 9141SOL     OW39055   4.717   0.215   1.233  0.0042 -0.7295  0.0409
 9141SOL    HW139056   0.018   0.285   1.177  1.5375 -2.4252 -1.1026
 9141SOL    HW239057   0.049   0.147   1.222 -1.3896 -2.2502  1.0791
 9142SOL     OW39058   0.054   1.698   0.468 -0.2255 -0.2435 -0.6626
 9142SOL    HW139059   0.091   1.610   0.467 -2.0288 -1.0086 -0.1833
 9142SOL    HW239060   0.134   1.750   0.461 -1.0985  1.0515 -0.9184
 9143SOL     OW39061   1.485   3.289   0.135 -0.2509  0.5770  0.1886
 9143SOL    HW139062   1.535   3.212   0.164 -0.6058 -0.5118 -2.0723
 9143SOL    HW239063   1.422   3.239   0.083 -0.3255  3.9528 -2.9135
 9144SOL     OW39064   0.115   0.850  15.151 -0.4404 -0.6588 -0.2970
 9144SOL    HW139065   0.139   0.942  15.143  1.2556 -0.8935  1.8981
 9144SOL    HW239066   0.023   0.853  15.178  0.2176 -1.1855  1.9954
 9145SOL     OW39067   0.018   4.442   5.718  0.2207 -0.1843 -0.5396
 9145SOL    HW139068   4.681   4.450   5.655  0.9983 -1.1345 -1.5359
 9145SOL    HW239069   4.713   4.435   5.806 -1.4211  0.3083 -1.2323
 9146SOL     OW39070   2.638   2.957   8.267  0.4657  0.0997  0.0647
 9146SOL    HW139071   2.712   3.012   8.292  0.4279 -0.5878  1.6782
 9146SOL    HW239072   2.569   3.011   8.305 -0.9426 -2.7546  1.5752
 9147SOL     OW39073   2.638   4.637   0.367 -0.8550  0.3961 -0.0153
 9147SOL    HW139074   2.545   4.649   0.387 -1.1939 -0.1857 -1.3083
 9147SOL    HW239075   2.673   4.711   0.417  0.6556 -0.6374  0.4544
 9148SOL     OW39076   3.106   2.493   4.961  0.2502 -0.3047 -0.2468
 9148SOL    HW139077   3.032   2.467   5.017  1.3237 -0.4656  1.0868
 9148SOL    HW239078   3.115   2.585   4.985 -0.3582 -0.6506  1.2599
 9149SOL     OW39079   3.284   3.678   5.575 -0.3401  0.4838  0.4091
 9149SOL    HW139080   3.299   3.680   5.481  0.6806 -2.3374  0.5171
 9149SOL    HW239081   3.200   3.722   5.591 -1.1376 -0.7601 -0.3375
 9150SOL     OW39082   1.582   1.659   4.249  0.6563  0.7996 -0.0025
 9150SOL    HW139083   1.504   1.626   4.294  0.0704  2.6603  0.3723
 9150SOL    HW239084   1.628   1.577   4.237 -0.2647  0.1543  0.9019
 9151SOL     OW39085   2.230   2.425  14.779  0.2447  0.6425  0.4721
 9151SOL    HW139086   2.278   2.507  14.783  2.6482 -0.7805  1.0706
 9151SOL    HW239087   2.197   2.421  14.869 -0.8216 -1.8612 -0.0206
 9152SOL     OW39088   1.109   0.476  10.485 -0.1982  0.3126 -0.7560
 9152SOL    HW139089   1.018   0.464  10.457 -0.1247  2.0200 -1.6986
 9152SOL    HW239090   1.117   0.568  10.510  0.0900  0.4096 -1.2024
 9153SOL     OW39091   0.883   2.238   8.179 -0.2176  0.2807 -0.3980
 9153SOL    HW139092   0.975   2.232   8.203 -0.2070  0.7768 -0.3130
 9153SOL    HW239093   0.880   2.332   8.161  1.0513  0.3825 -0.0670
 9154SOL     OW39094   0.058   0.489   3.632  0.8141  0.1555 -0.4040
 9154SOL    HW139095   0.078   0.453   3.545  0.5489  1.8186 -1.1639
 9154SOL    HW239096   0.138   0.532   3.661  0.6663 -2.0089  3.2601
 9155SOL     OW39097   4.305   2.323   4.231  0.5876  0.2692  0.2033
 9155SOL    HW139098   4.323   2.296   4.141  2.9677 -0.1722  0.8111
 9155SOL    HW239099   4.342   2.411   4.242  1.5539 -0.1533  0.3127
 9156SOL     OW39100   2.156   3.336   0.976  0.3148  0.1483 -0.1477
 9156SOL    HW139101   2.240   3.302   1.008  0.9937  1.9794  0.0413
 9156SOL    HW239102   2.131   3.272   0.909  0.9680 -1.3294  1.0269
 9157SOL     OW39103   0.580   0.765  13.981 -0.2109 -0.0354 -0.1385
 9157SOL    HW139104   0.499   0.815  13.984  1.0469  2.0721 -1.9868
 9157SOL    HW239105   0.631   0.843  14.003  0.1873 -0.6005  0.9575
 9158SOL     OW39106   3.174   2.363  16.839 -0.3852  0.2717  0.3545
 9158SOL    HW139107   3.122   2.339  16.762 -1.8422 -0.8864  1.7194
 9158SOL    HW239108   3.148   2.454  16.855  0.4146  0.5000  0.4060
 9159SOL     OW39109   1.602   4.069  10.520  0.0194 -0.4778  0.1527
 9159SOL    HW139110   1.526   4.122  10.497  0.5322  0.5792  0.8918
 9159SOL    HW239111   1.597   3.998  10.456 -2.1829 -1.2855  1.2027
 9160SOL     OW39112   2.322   0.095   3.225 -0.5258  0.3056 -0.1809
 9160SOL    HW139113   2.242   0.045   3.242 -2.1022  3.0472  0.5573
 9160SOL    HW239114   2.332   0.128   3.314  0.3590 -3.2080  1.0050
 9161SOL     OW39115   4.488   0.003  16.267  0.0671  0.3808  0.1022
 9161SOL    HW139116   4.520   4.676  16.333  0.3171  1.6778  1.2024
 9161SOL    HW239117   4.483   0.087  16.312  0.6445  1.1014 -1.1869
 9162SOL     OW39118   0.615   4.245  11.514 -0.4088 -0.1587 -0.6363
 9162SOL    HW139119   0.697   4.291  11.531 -1.2533  1.2093 -0.2425
 9162SOL    HW239120   0.557   4.317  11.539 -2.1179 -1.3883 -1.0940
 9163SOL     OW39121   1.657   2.992   8.992  0.1803  0.0309 -0.0848
 9163SOL    HW139122   1.675   3.081   9.023  1.5784  0.1618 -1.3071
 9163SOL    HW239123   1.611   2.955   9.068 -0.7813  1.1827 -0.0969
 9164SOL     OW39124   0.028   4.638  14.624  1.0305  0.2351 -0.8068
 9164SOL    HW139125   0.056   4.604  14.709 -4.0731  0.6205  0.9905
 9164SOL    HW239126   0.092   4.612  14.558  1.2568  1.8479 -1.2247
 9165SOL     OW39127   4.199   1.507   8.866 -0.8016  0.6903  0.5442
 9165SOL    HW139128   4.190   1.572   8.936  0.5518  1.0847  0.3621
 9165SOL    HW239129   4.230   1.430   8.914  2.5686  1.1992 -0.7675
 9166SOL     OW39130   2.204   3.954   8.667 -0.1351 -0.0525 -0.1253
 9166SOL    HW139131   2.291   3.915   8.673 -0.6834 -1.7196 -2.8504
 9166SOL    HW239132   2.210   4.037   8.712 -1.1472  0.0966 -0.2709
 9167SOL     OW39133   1.532   0.304   2.460  0.0420 -0.0749 -0.0871
 9167SOL    HW139134   1.566   0.394   2.462  0.0368 -0.0734 -0.0672
 9167SOL    HW239135   1.440   0.329   2.448  1.0848  3.2484 -1.2943
 9168SOL     OW39136   2.750   2.930   5.979  0.2862 -0.2499  0.3479
 9168SOL    HW139137   2.660   2.904   5.999  0.3116 -0.7593 -0.2101
 9168SOL    HW239138   2.731   3.021   5.956  1.3118 -0.6087 -1.8169
 9169SOL     OW39139   0.867   3.770   3.456  0.3401 -0.0021 -0.4790
 9169SOL    HW139140   0.792   3.726   3.495  0.1593  0.9324  0.2366
 9169SOL    HW239141   0.880   3.836   3.524 -4.1102  0.7688 -0.3522
 9170SOL     OW39142   3.842   2.080   1.250  0.0464 -0.1946  0.2652
 9170SOL    HW139143   3.812   2.170   1.266  3.0919  0.9467 -0.2433
 9170SOL    HW239144   3.761   2.038   1.221  1.6244 -1.6295 -2.0118
 9171SOL     OW39145   1.929   0.698   7.201  0.2017  0.1363  0.1163
 9171SOL    HW139146   1.891   0.698   7.289  0.6650 -0.7665  0.3211
 9171SOL    HW239147   1.855   0.739   7.156  0.0893  1.1165  1.1870
 9172SOL     OW39148   2.354   2.206   2.743  0.7031  0.6991 -0.0644
 9172SOL    HW139149   2.259   2.216   2.745  0.4502 -1.4841 -0.8739
 9172SOL    HW239150   2.360   2.225   2.649 -1.5975 -2.9267 -0.9471
 9173SOL     OW39151   1.507   0.235   7.302  0.0679  0.0674 -0.3252
 9173SOL    HW139152   1.583   0.223   7.358  1.3984  0.9856 -1.9246
 9173SOL    HW239153   1.456   0.300   7.352 -1.3493 -1.8706  0.7298
 9174SOL     OW39154   1.255   0.536  17.733  0.4279  0.5235 -0.0803
 9174SOL    HW139155   1.283   0.579  17.652 -0.0147  1.8010  0.4421
 9174SOL    HW239156   1.236   0.598   0.067 -0.4825 -1.5724  1.5019
 9175SOL     OW39157   3.755   0.799   3.622 -0.3217  0.2513  0.0801
 9175SOL    HW139158   3.742   0.837   3.709 -0.0223 -0.7079  0.5526
 9175SOL    HW239159   3.759   0.867   3.555 -2.6845  0.0884 -0.2397
 9176SOL     OW39160   0.119   0.632   2.583 -0.2096 -0.2021 -0.3249
 9176SOL    HW139161   0.193   0.575   2.604 -1.4544 -2.6340 -2.5018
 9176SOL    HW239162   0.089   0.575   2.512 -1.4738 -0.7152  0.6109
 9177SOL     OW39163   0.357   0.561   7.825  0.1188  0.0543  0.7728
 9177SOL    HW139164   0.353   0.479   7.777 -0.4239  0.3436  0.3268
 9177SOL    HW239165   0.449   0.585   7.829 -0.0889  1.0132 -0.3577
 9178SOL     OW39166   1.999   3.744   7.829  0.7329  0.0264  0.6371
 9178SOL    HW139167   1.945   3.688   7.773 -1.3554  1.9895  0.6738
 9178SOL    HW239168   2.054   3.675   7.866  0.7651 -0.2839  0.0020
 9179SOL     OW39169   4.553   2.357  13.174  0.5854 -0.0705  0.2404
 9179SOL    HW139170   4.625   2.318  13.123  0.0313  0.7248 -1.1389
 9179SOL    HW239171   4.603   2.427  13.215 -0.8550  0.2832  1.3498
 9180SOL     OW39172   0.638   2.891   5.695 -0.1735  0.0226 -0.5355
 9180SOL    HW139173   0.651   2.957   5.763  0.0983 -2.0700  1.4346
 9180SOL    HW239174   0.730   2.893   5.669 -0.1970  2.3156 -0.3948
 9181SOL     OW39175   2.465   4.360   6.438  0.5848 -0.3210 -0.4047
 9181SOL    HW139176   2.529   4.295   6.408  0.6737 -0.1582 -0.5738
 9181SOL    HW239177   2.396   4.351   6.372 -1.3426  0.9761  1.4672
 9182SOL     OW39178   2.468   3.217   5.004 -0.3966 -0.4118  0.3910
 9182SOL    HW139179   2.441   3.125   4.997  0.6732 -0.9347  3.1880
 9182SOL    HW239180   2.562   3.209   4.990  0.2766 -0.1772  4.7825
 9183SOL     OW39181   3.640   2.113   8.475  0.2826  0.4692 -0.0921
 9183SOL    HW139182   3.700   2.059   8.526 -0.9094  0.3360  1.1774
 9183SOL    HW239183   3.585   2.146   8.546 -1.6805 -3.8093  0.3945
 9184SOL     OW39184   0.021   0.234   2.125 -0.7134  0.1105 -0.4827
 9184SOL    HW139185   4.664   0.252   2.101 -1.7171  0.1846  3.3845
 9184SOL    HW239186   0.057   0.295   2.061  0.6439  0.0690  0.2437
 9185SOL     OW39187   2.898   4.570   5.707 -0.2482 -0.6198 -0.5209
 9185SOL    HW139188   2.973   4.517   5.735 -0.2479  0.1702  0.9418
 9185SOL    HW239189   2.905   4.572   5.611 -1.1512 -0.7068 -0.5828
 9186SOL     OW39190   0.985   2.769   6.002  0.3837  0.0164  0.1630
 9186SOL    HW139191   0.908   2.732   5.961  0.1149  3.0680 -2.0970
 9186SOL    HW239192   1.046   2.698   5.982  0.7462 -0.0946  1.6506
 9187SOL     OW39193   3.328   4.306   7.121 -0.2932 -0.2678  0.2190
 9187SOL    HW139194   3.342   4.315   7.027 -0.8711  2.8804  0.4312
 9187SOL    HW239195   3.402   4.247   7.139  0.6650  0.2229 -2.1535
 9188SOL     OW39196   2.983   1.405   8.000  0.0017 -0.5619  0.4671
 9188SOL    HW139197   2.966   1.423   8.092  1.9926 -0.5691  0.8354
 9188SOL    HW239198   2.894   1.374   7.985 -0.8064  2.7348 -1.5883
 9189SOL     OW39199   2.468   0.057   9.602 -0.3572  0.2091 -0.3697
 9189SOL    HW139200   2.542   0.062   9.541  1.0159  1.5912  1.4019
 9189SOL    HW239201   2.460   4.696   9.598  0.2450  0.2355 -2.5821
 9190SOL     OW39202   0.957   2.586  14.121  0.2730  0.3035  0.8877
 9190SOL    HW139203   0.882   2.531  14.143  1.4301 -0.9212  1.8005
 9190SOL    HW239204   1.026   2.548  14.176  0.2159  0.3707  1.0066
 9191SOL     OW39205   0.532   2.099  10.758  0.2680  0.4714 -0.2206
 9191SOL    HW139206   0.507   2.079  10.668 -1.1833 -1.3329  0.5881
 9191SOL    HW239207   0.462   2.052  10.802  2.0361 -1.2173  0.7495
 9192SOL     OW39208   3.417   4.468   1.812  0.0559 -0.3273 -0.6701
 9192SOL    HW139209   3.345   4.475   1.748  0.0326 -0.3564 -0.6469
 9192SOL    HW239210   3.414   4.378   1.844 -1.4341  0.0767  0.3358
 9193SOL     OW39211   1.425   4.502  11.620  0.6424  0.0508 -0.1306
 9193SOL    HW139212   1.381   4.531  11.700 -2.3426 -1.7780 -1.1170
 9193SOL    HW239213   1.419   4.584  11.570  1.0947 -0.2692 -0.7196
 9194SOL     OW39214   3.904   2.903   5.746  0.0763 -0.1398  0.0999
 9194SOL    HW139215   3.967   2.911   5.817  0.7053 -0.4284 -0.4161
 9194SOL    HW239216   3.849   2.836   5.787 -1.0560 -0.4455 -1.8823
 9195SOL     OW39217   1.592   0.870   4.358 -0.3692 -0.5311 -0.2691
 9195SOL    HW139218   1.625   0.853   4.270 -1.7136  1.2621 -1.1268
 9195SOL    HW239219   1.502   0.900   4.340  1.1786  4.6195  0.4595
 9196SOL     OW39220   0.182   1.033   2.042 -0.3161  0.1756  0.0464
 9196SOL    HW139221   0.240   1.015   2.117 -1.5814 -0.6640  0.8184
 9196SOL    HW239222   0.104   0.987   2.073 -0.7940  1.4618  0.7658
 9197SOL     OW39223   4.099   2.221   5.669  0.3352 -0.0429 -0.3601
 9197SOL    HW139224   4.070   2.305   5.705  0.1781  0.0375 -0.6778
 9197SOL    HW239225   4.083   2.170   5.749  2.1397  0.8199  0.5412
 9198SOL     OW39226   4.234   2.702   8.372 -0.3164  0.5932 -0.7354
 9198SOL    HW139227   4.298   2.759   8.329 -0.6036  0.2923 -1.5689
 9198SOL    HW239228   4.284   2.638   8.421  0.3835  0.9339 -1.0056
 9199SOL     OW39229   2.431   3.573  15.531  0.0337 -0.2660 -0.3591
 9199SOL    HW139230   2.407   3.585  15.623 -0.8439  1.8255 -0.8538
 9199SOL    HW239231   2.383   3.494  15.504  0.5859 -0.9987  0.7987
 9200SOL     OW39232   2.527   3.678  15.135  0.3380  0.3612 -0.4542
 9200SOL    HW139233   2.570   3.683  15.220 -2.2882  1.1554  0.8272
 9200SOL    HW239234   2.546   3.768  15.108 -1.5392  1.3829  1.6693
 9201SOL     OW39235   1.605   2.497   4.917 -0.4062  0.5412  0.0034
 9201SOL    HW139236   1.585   2.582   4.956  1.3978  0.3045  1.4606
 9201SOL    HW239237   1.613   2.506   4.822 -0.8182 -0.2039 -0.1007
 9202SOL     OW39238   4.330   1.802   5.150  0.6230 -0.3951 -0.0793
 9202SOL    HW139239   4.421   1.789   5.178  0.2224  0.0268  1.3986
 9202SOL    HW239240   4.295   1.713   5.151  1.9285 -0.9422 -2.0017
 9203SOL     OW39241   4.644   0.426   5.387  0.2138 -0.1430  0.2323
 9203SOL    HW139242   4.698   0.371   5.444  1.2763  0.6012 -0.0510
 9203SOL    HW239243   4.582   0.365   5.347 -0.4637  0.8376 -0.2006
 9204SOL     OW39244   0.733   1.996   0.668  0.1620 -0.0698 -0.2190
 9204SOL    HW139245   0.802   1.931   0.678  0.1760  0.1179  0.8828
 9204SOL    HW239246   0.776   2.078   0.691  3.4597 -1.7282 -0.4794
 9205SOL     OW39247   1.152   4.389   8.390 -0.1030  0.3182  0.3606
 9205SOL    HW139248   1.066   4.423   8.362 -2.2788 -4.9133  0.6087
 9205SOL    HW239249   1.191   4.455   8.448 -1.8280  4.0142 -2.6440
 9206SOL     OW39250   3.717   2.088   1.611  0.3072  0.5627 -0.1252
 9206SOL    HW139251   3.769   2.157   1.651  0.5678  2.2700 -3.4022
 9206SOL    HW239252   3.630   2.098   1.649  1.0486  1.7646  1.2277
 9207SOL     OW39253   3.712   4.258   5.255  0.3905  0.2476 -0.3359
 9207SOL    HW139254   3.663   4.271   5.336  0.5263  0.8256 -0.3477
 9207SOL    HW239255   3.714   4.347   5.220 -0.2698  0.1978 -0.4968
 9208SOL     OW39256   0.363   0.695   1.818 -0.7077  0.1559  0.2197
 9208SOL    HW139257   0.433   0.708   1.754 -1.2344 -2.6179 -0.8931
 9208SOL    HW239258   0.284   0.721   1.772 -2.2650 -3.0202  1.0993
 9209SOL     OW39259   2.485   1.524   0.066  0.2648 -0.2495 -0.0089
 9209SOL    HW139260   2.480   1.617   0.086 -0.9440 -0.3418  0.0956
 9209SOL    HW239261   2.523   1.495   0.150 -0.6914  0.2281  0.5908
 9210SOL     OW39262   2.503   1.046   7.452 -0.2597  0.7305 -0.6182
 9210SOL    HW139263   2.572   1.096   7.495  0.4585  0.6334 -1.6529
 9210SOL    HW239264   2.428   1.102   7.473 -1.3172 -0.6579 -0.6794
 9211SOL     OW39265   4.450   2.630   8.753 -0.5907  0.3844  0.4591
 9211SOL    HW139266   4.460   2.638   8.848 -0.1340  0.1149  0.4322
 9211SOL    HW239267   4.411   2.543   8.747 -0.7457  0.4425  0.6335
 9212SOL     OW39268   1.615   3.314   2.817 -0.1754  0.0451 -0.1118
 9212SOL    HW139269   1.629   3.224   2.787 -1.8640 -0.0413 -0.6260
 9212SOL    HW239270   1.531   3.333   2.776  0.8045 -1.1866 -2.7067
 9213SOL     OW39271   2.478   2.538   5.617  0.2886  0.2883 -0.1345
 9213SOL    HW139272   2.497   2.570   5.529  1.2378 -1.0590 -0.4250
 9213SOL    HW239273   2.566   2.512   5.645  1.1102  2.7596 -0.3747
 9214SOL     OW39274   2.891   1.945  14.498  0.2098 -0.1849  0.1454
 9214SOL    HW139275   2.841   2.021  14.530 -0.9297  0.0852 -2.2600
 9214SOL    HW239276   2.868   1.870  14.553  1.0802  0.7257  1.7649
 9215SOL     OW39277   3.787   0.678  12.400  0.0058 -0.4297 -0.0628
 9215SOL    HW139278   3.873   0.657  12.438  1.4035  1.9929 -1.8554
 9215SOL    HW239279   3.788   0.773  12.388  0.5473 -0.4405 -0.1044
 9216SOL     OW39280   4.462   1.220   4.945  0.1389  0.1992  0.1336
 9216SOL    HW139281   4.535   1.166   4.973 -0.2886  0.7543  2.3158
 9216SOL    HW239282   4.479   1.229   4.851 -0.0042 -1.0029 -0.0055
 9217SOL     OW39283   3.613   2.861   9.698 -0.3153 -0.3353 -0.1050
 9217SOL    HW139284   3.684   2.797   9.707  1.7579  1.8625 -0.6275
 9217SOL    HW239285   3.547   2.818   9.752 -0.6322  0.1195 -0.1257
 9218SOL     OW39286   2.469   1.370   5.519 -0.1099 -0.2203  0.6580
 9218SOL    HW139287   2.524   1.444   5.497  2.5777 -2.2661  0.4776
 9218SOL    HW239288   2.388   1.409   5.553 -0.4016  0.7258 -1.1338
 9219SOL     OW39289   3.577   0.733   2.448 -0.0729  0.1645  0.0953
 9219SOL    HW139290   3.623   0.768   2.371 -2.4626 -0.1387 -1.4633
 9219SOL    HW239291   3.527   0.669   2.398  1.5558 -0.0405 -1.2999
 9220SOL     OW39292   2.520   1.170  10.200  0.5543  0.2796 -0.3363
 9220SOL    HW139293   2.540   1.116  10.276 -0.7482 -1.4046 -1.1780
 9220SOL    HW239294   2.557   1.109  10.136 -2.7063  0.2736 -2.2575
 9221SOL     OW39295   0.297   1.055   7.362  0.2282  0.4092 -0.3490
 9221SOL    HW139296   0.241   1.052   7.440 -0.5382 -1.8217 -0.9828
 9221SOL    HW239297   0.281   1.141   7.324 -1.3243  0.4840  0.4599
 9222SOL     OW39298   0.556   1.391  14.316  0.3287 -0.0946  0.4278
 9222SOL    HW139299   0.636   1.350  14.283  0.6343  1.6537 -0.9855
 9222SOL    HW239300   0.558   1.465  14.255  2.3340 -0.3961  0.1445
 9223SOL     OW39301   1.876   1.162   3.742  0.3060 -0.2892 -0.0406
 9223SOL    HW139302   1.899   1.185   3.832  0.7286  0.8962 -0.4468
 9223SOL    HW239303   1.816   1.233   3.722 -1.1214 -1.2343  0.8852
 9224SOL     OW39304   4.237   1.124   4.522 -0.4122  0.3306 -0.1084
 9224SOL    HW139305   4.283   1.100   4.442  0.7596 -0.1402  0.7081
 9224SOL    HW239306   4.304   1.188   4.549 -0.8345  1.2432 -1.2541
 9225SOL     OW39307   1.892   3.528   7.698 -0.7777 -0.0746 -0.0343
 9225SOL    HW139308   1.911   3.442   7.736  1.0704  0.5819  0.5004
 9225SOL    HW239309   1.800   3.512   7.675 -0.4396 -0.8693 -0.8756
 9226SOL     OW39310   1.751   2.719   9.924  0.5508 -0.1099  0.0943
 9226SOL    HW139311   1.738   2.704   9.831 -1.2907  0.7709  0.2141
 9226SOL    HW239312   1.666   2.684   9.950 -1.2319  3.5696 -0.8290
 9227SOL     OW39313   2.631   0.850   0.874 -0.0299  0.3081  0.6489
 9227SOL    HW139314   2.561   0.786   0.889 -1.5111  1.3250 -1.8372
 9227SOL    HW239315   2.617   0.898   0.956 -0.5005  1.9872 -0.4121
 9228SOL     OW39316   0.492   0.900   3.214 -0.6403  0.3854 -0.4398
 9228SOL    HW139317   0.463   0.954   3.140  0.4363 -0.2576 -1.3194
 9228SOL    HW239318   0.519   0.818   3.174  0.5067  1.6591 -2.2210
 9229SOL     OW39319   0.050   1.966   2.980 -0.3474 -0.2727  0.5702
 9229SOL    HW139320   4.731   1.977   3.058 -1.9937 -0.7558 -0.5047
 9229SOL    HW239321   4.731   1.910   2.924  0.8145 -0.0768 -0.7361
 9230SOL     OW39322   3.373   3.175  15.458 -1.0459  0.8087  0.3184
 9230SOL    HW139323   3.432   3.236  15.503 -0.0898  1.3504 -1.6737
 9230SOL    HW239324   3.406   3.096  15.499 -2.9251 -1.7658 -3.1829
 9231SOL     OW39325   4.178   3.316   7.300 -0.0472 -0.1430 -0.1125
 9231SOL    HW139326   4.247   3.296   7.363  0.9241 -0.6639 -1.3334
 9231SOL    HW239327   4.176   3.236   7.248 -2.0780 -0.7038  0.8475
 9232SOL     OW39328   0.366   3.524   5.291  0.0820  0.0155 -0.5657
 9232SOL    HW139329   0.355   3.619   5.290 -0.9044 -0.0914  0.6037
 9232SOL    HW239330   0.393   3.511   5.381  2.5320 -0.0178 -1.3079
 9233SOL     OW39331   3.571   3.970  12.285  0.6708  0.2682  0.1413
 9233SOL    HW139332   3.547   3.899  12.345 -1.5393  0.5201 -0.4701
 9233SOL    HW239333   3.644   3.926  12.242  0.3222 -0.7899  0.6269
 9234SOL     OW39334   1.209   2.854  13.126 -0.2850 -0.9954 -0.9435
 9234SOL    HW139335   1.281   2.878  13.068 -0.3710 -0.5170 -0.8491
 9234SOL    HW239336   1.129   2.863  13.074 -0.7013  0.8914  0.0314
 9235SOL     OW39337   0.283   3.980  17.057 -0.0948 -0.1024  0.5588
 9235SOL    HW139338   0.342   3.906  17.073  0.3686 -0.3935 -2.3976
 9235SOL    HW239339   0.210   3.958  17.115 -1.0180 -1.8504 -1.2371
 9236SOL     OW39340   0.504   4.387   2.359 -0.8642  0.1295 -0.6253
 9236SOL    HW139341   0.525   4.465   2.308  0.3156 -0.8682 -1.6392
 9236SOL    HW239342   0.588   4.343   2.347 -1.2708 -1.3783  1.9779
 9237SOL     OW39343   2.389   2.041   4.491  0.0803  0.0385  0.8607
 9237SOL    HW139344   2.474   2.042   4.448 -0.1294 -0.2624  0.4403
 9237SOL    HW239345   2.368   1.947   4.495 -1.8542  0.4122 -0.2524
 9238SOL     OW39346   2.317   2.135   3.156  0.5868  0.2703  0.5089
 9238SOL    HW139347   2.291   2.153   3.246 -0.7582 -1.1210  0.3986
 9238SOL    HW239348   2.240   2.100   3.112 -0.1369  1.0917  1.1426
 9239SOL     OW39349   2.031   3.146   0.801  0.3549  0.1027 -0.3043
 9239SOL    HW139350   2.037   3.081   0.731  0.3546  0.8803 -1.0220
 9239SOL    HW239351   2.001   3.088   0.871 -0.1945  0.4501 -0.2557
 9240SOL     OW39352   0.726   4.165   7.673  0.0030 -0.4596  0.1850
 9240SOL    HW139353   0.758   4.213   7.750 -2.9221  3.3194 -0.9672
 9240SOL    HW239354   0.804   4.123   7.637  0.7601  1.1246 -0.0250
 9241SOL     OW39355   4.049   4.417   9.124  0.6218 -0.0258  0.3101
 9241SOL    HW139356   4.071   4.326   9.101 -0.2425  0.0376 -0.7564
 9241SOL    HW239357   4.124   4.454   9.170  2.5457 -1.2185 -1.8393
 9242SOL     OW39358   2.430   1.189   9.102 -0.3477 -0.5033 -0.1538
 9242SOL    HW139359   2.501   1.171   9.164  1.7168 -1.8894 -2.8963
 9242SOL    HW239360   2.428   1.284   9.109  2.6133 -0.4630  0.3434
 9243SOL     OW39361   0.382   1.053   1.637 -0.5292 -0.1119  0.5443
 9243SOL    HW139362   0.351   1.026   1.551  2.7776 -0.7043 -0.4461
 9243SOL    HW239363   0.306   1.040   1.694  1.7437 -1.4704  3.2308
 9244SOL     OW39364   3.790   1.687   7.492 -0.1276 -0.1963 -0.2066
 9244SOL    HW139365   3.820   1.720   7.407 -0.2219 -0.4312 -0.3320
 9244SOL    HW239366   3.873   1.678   7.538  1.2047 -0.1988 -2.5864
 9245SOL     OW39367   2.509   1.558  11.915 -0.2113  0.0294 -0.0279
 9245SOL    HW139368   2.452   1.632  11.895  0.2375  0.5127  0.4752
 9245SOL    HW239369   2.508   1.498  11.841 -2.0187  0.6883 -0.5276
 9246SOL     OW39370   2.666   2.008   5.586 -0.0437 -0.1504 -0.0709
 9246SOL    HW139371   2.630   1.944   5.647 -1.2245  0.6521  0.0788
 9246SOL    HW239372   2.716   1.946   5.533  2.6336  0.0159  2.2700
 9247SOL     OW39373   3.457   3.457   0.855  0.4826  0.4920  0.2193
 9247SOL    HW139374   3.509   3.385   0.890  0.7912  1.0596  0.9254
 9247SOL    HW239375   3.524   3.498   0.800 -0.5366  0.2543 -1.2009
 9248SOL     OW39376   0.176   4.357  14.849  0.7944  0.0456  0.0765
 9248SOL    HW139377   0.240   4.336  14.917 -1.5147  1.4113  2.6686
 9248SOL    HW239378   0.174   4.452  14.858 -0.5478 -0.1090  1.4845
 9249SOL     OW39379   0.026   2.608   5.491 -0.7679  0.0916  0.2328
 9249SOL    HW139380   4.667   2.627   5.491 -0.7017  0.3997 -2.5984
 9249SOL    HW239381   0.065   2.696   5.488 -0.4954 -0.0127  0.6160
 9250SOL     OW39382   1.913   4.475  16.604  0.5785 -0.2740  0.2910
 9250SOL    HW139383   1.898   4.417  16.679 -2.7017 -1.2341 -1.0758
 9250SOL    HW239384   1.854   4.548  16.621  0.4049 -0.6326  1.2100
 9251SOL     OW39385   3.394   3.936   3.292  0.1171  0.2645  0.2606
 9251SOL    HW139386   3.434   3.962   3.209 -1.6471 -0.2985 -0.7497
 9251SOL    HW239387   3.450   3.862   3.315  0.0029 -0.6202 -2.2847
 9252SOL     OW39388   2.792   0.064  16.134  0.3228 -0.4586 -0.6127
 9252SOL    HW139389   2.874   0.017  16.147  1.0092  1.6946  2.9683
 9252SOL    HW239390   2.760   4.734  16.070  2.0442 -3.1296  1.2215
 9253SOL     OW39391   2.243   3.414   6.859  0.1952 -0.0644  0.5099
 9253SOL    HW139392   2.333   3.387   6.839 -0.2626 -3.4434  3.0552
 9253SOL    HW239393   2.203   3.328   6.847 -0.9399  0.4348  0.7000
 9254SOL     OW39394   3.000   2.333  13.614  0.4990  0.4336 -0.0082
 9254SOL    HW139395   3.002   2.292  13.527  0.6450 -0.8280  0.5910
 9254SOL    HW239396   3.077   2.292  13.654 -0.9664 -0.0917  2.2491
 9255SOL     OW39397   1.425   2.980   2.908  0.2703  0.2086  0.5343
 9255SOL    HW139398   1.468   2.950   2.828  0.2905  2.0910 -0.1720
 9255SOL    HW239399   1.340   2.938   2.897  0.6374 -0.7554  1.4216
 9256SOL     OW39400   0.099   0.858   6.055 -0.1193  0.2251 -0.0753
 9256SOL    HW139401   0.141   0.830   6.137  2.6321 -1.9361 -2.2021
 9256SOL    HW239402   0.107   0.953   6.066 -0.6410  0.0672  1.6734
 9257SOL     OW39403   1.576   1.908   5.830 -0.1116  0.0282 -0.1310
 9257SOL    HW139404   1.572   1.866   5.745  1.6331  2.1563 -1.2524
 9257SOL    HW239405   1.604   1.996   5.806 -0.4563 -0.2030 -1.3542
 9258SOL     OW39406   3.335   3.063   6.472 -0.4797  0.1521 -0.1228
 9258SOL    HW139407   3.362   3.090   6.559 -1.9870 -0.8972  0.6656
 9258SOL    HW239408   3.264   3.007   6.503  0.1192 -0.9583 -0.7259
 9259SOL     OW39409   2.126   0.439   8.732  0.1988 -0.0839 -0.0033
 9259SOL    HW139410   2.106   0.404   8.819  1.4833  0.1076  0.3813
 9259SOL    HW239411   2.218   0.452   8.758  0.1805  0.3514 -0.1514
 9260SOL     OW39412   0.099   0.849   3.535  0.1463  0.3628  0.3500
 9260SOL    HW139413   0.193   0.862   3.534  0.4169 -1.6863  0.2228
 9260SOL    HW239414   0.092   0.784   3.606  0.7325  2.0061  1.9283
 9261SOL     OW39415   4.520   1.600  16.813  0.3786 -0.5046 -0.4270
 9261SOL    HW139416   4.506   1.528  16.875 -1.3735  0.6250  0.5051
 9261SOL    HW239417   4.575   1.551  16.752  0.9552  0.0505 -0.3407
 9262SOL     OW39418   3.461   4.431   5.042  0.2821 -0.9331  0.1372
 9262SOL    HW139419   3.407   4.373   5.094  0.6230  0.2864  1.8540
 9262SOL    HW239420   3.537   4.450   5.097 -0.7581  0.5593  1.0658
 9263SOL     OW39421   0.526   2.480  13.503 -0.0247 -0.4472  0.0667
 9263SOL    HW139422   0.455   2.533  13.467  0.7801 -0.3035 -1.2948
 9263SOL    HW239423   0.501   2.388  13.492 -0.3106 -0.5673  1.8485
 9264SOL     OW39424   2.575   1.479   4.932  0.5585  0.2156  0.4853
 9264SOL    HW139425   2.503   1.533   4.965 -0.7410 -0.6331 -0.9199
 9264SOL    HW239426   2.522   1.433   4.867  0.2783  1.2475 -0.0329
 9265SOL     OW39427   4.601   0.458   8.960 -0.3153  0.1151 -0.1037
 9265SOL    HW139428   4.634   0.485   8.874  0.0450 -0.4171 -0.1355
 9265SOL    HW239429   4.509   0.457   8.934 -1.2310  1.9281  3.1906
 9266SOL     OW39430   0.281   4.645   9.228 -0.3241  0.5592 -0.3699
 9266SOL    HW139431   0.236   4.561   9.217 -1.6416  1.3810 -1.3195
 9266SOL    HW239432   0.329   4.650   9.146 -1.8398  0.0891 -1.3001
 9267SOL     OW39433   1.499   2.218   5.811 -0.6593  0.0096 -0.9150
 9267SOL    HW139434   1.426   2.277   5.829  1.1013  1.5033  1.2654
 9267SOL    HW239435   1.460   2.162   5.743 -1.3601 -1.5408  0.7517
 9268SOL     OW39436   2.278   2.370  16.401 -0.9954  0.3487 -0.4602
 9268SOL    HW139437   2.269   2.436  16.332  0.7076  0.3504 -0.6734
 9268SOL    HW239438   2.226   2.410  16.471 -0.1525  0.5534  0.0506
 9269SOL     OW39439   4.543   4.001   2.049 -0.7186  0.0158  0.4600
 9269SOL    HW139440   4.592   3.982   2.130  0.3005 -0.0551 -0.1768
 9269SOL    HW239441   4.553   3.919   2.001 -0.8346  0.8530 -0.9734
 9270SOL     OW39442   4.288   4.476   3.062  0.0496  0.0866 -0.0087
 9270SOL    HW139443   4.227   4.533   3.016 -2.2405 -0.9084  1.8282
 9270SOL    HW239444   4.232   4.426   3.121  2.3782 -0.9493  1.3239
 9271SOL     OW39445   0.959   4.044  17.585 -0.2938 -0.5532  0.0170
 9271SOL    HW139446   1.042   4.077  17.620  0.1895 -0.7583 -0.9361
 9271SOL    HW239447   0.992   3.974  17.528 -0.0268  1.8321 -2.7393
 9272SOL     OW39448   1.137   3.823   2.562 -0.1687  0.3666  0.2553
 9272SOL    HW139449   1.074   3.803   2.493  1.2057  2.9618 -1.7622
 9272SOL    HW239450   1.168   3.737   2.591 -1.1436  0.2068  0.8086
 9273SOL     OW39451   1.547   2.543  17.047  0.2207 -0.1973  0.1105
 9273SOL    HW139452   1.554   2.579  17.136  5.5759 -0.1018 -0.3167
 9273SOL    HW239453   1.469   2.589  17.018  0.1975  0.1576  0.7479
 9274SOL     OW39454   1.859   2.580   9.269  0.8237 -0.1608 -0.6591
 9274SOL    HW139455   1.889   2.626   9.347  2.3184  1.3161 -2.0907
 9274SOL    HW239456   1.805   2.512   9.308  2.5543 -0.1926  1.6822
 9275SOL     OW39457   2.411   0.759   2.304  0.1923 -0.5392 -0.2935
 9275SOL    HW139458   2.422   0.684   2.246 -0.5431 -0.7141 -0.2036
 9275SOL    HW239459   2.357   0.713   2.368 -2.8568  1.1152 -1.6757
 9276SOL     OW39460   3.985   4.301  14.503  0.3990  0.1489 -0.4606
 9276SOL    HW139461   4.067   4.260  14.528 -0.6398 -2.1536 -0.8134
 9276SOL    HW239462   3.972   4.276  14.412 -0.3666  1.8865 -0.8338
 9277SOL     OW39463   0.955   0.516   0.088  0.1602  0.1253  0.2972
 9277SOL    HW139464   0.925   0.603   0.116 -0.7368 -0.3871  0.9115
 9277SOL    HW239465   0.983   0.540  17.737 -1.5209 -0.1787 -0.3178
 9278SOL     OW39466   1.107   4.587   9.235  0.1029  0.1409 -0.1217
 9278SOL    HW139467   1.171   4.628   9.176  1.5357 -0.5672  0.9237
 9278SOL    HW239468   1.021   4.601   9.195 -0.1646  0.7583  0.6772
 9279SOL     OW39469   3.387   1.644   7.365 -0.5097  0.1930 -0.6454
 9279SOL    HW139470   3.452   1.621   7.432 -0.4780  0.1346 -0.6962
 9279SOL    HW239471   3.447   1.713   7.336 -0.1622  0.0021 -0.3749
 9280SOL     OW39472   2.627   0.626   8.232  0.3149  0.3300 -0.2741
 9280SOL    HW139473   2.641   0.704   8.178 -0.5711  0.9843  0.4326
 9280SOL    HW239474   2.706   0.636   8.284 -0.4843  1.4729  0.7382
 9281SOL     OW39475   1.699   4.273   2.440 -0.8568  0.4152  0.1473
 9281SOL    HW139476   1.763   4.334   2.477 -0.9186  0.0467  0.8714
 9281SOL    HW239477   1.663   4.325   2.369  0.1019 -1.4387 -1.6912
 9282SOL     OW39478   3.953   3.490   7.365  0.1255 -0.4292  0.1375
 9282SOL    HW139479   3.872   3.461   7.322  0.1521  0.4386 -0.5054
 9282SOL    HW239480   4.016   3.431   7.323  0.4936 -1.0601  1.5807
 9283SOL     OW39481   3.797   3.536   2.893 -0.1352 -0.5993  0.5407
 9283SOL    HW139482   3.852   3.577   2.826 -0.4348 -0.6401  0.2704
 9283SOL    HW239483   3.720   3.506   2.845  0.7027 -1.4323 -0.2951
 9284SOL     OW39484   1.082   0.115   2.784  0.2242  0.0811  0.6934
 9284SOL    HW139485   1.143   0.102   2.712  0.2615  0.9030  0.5844
 9284SOL    HW239486   1.148   0.118   2.853  0.1889 -0.8932  0.7780
 9285SOL     OW39487   3.499   3.990  14.111  0.0769  0.3413 -0.0800
 9285SOL    HW139488   3.507   4.086  14.104  1.6609 -0.0054 -2.8658
 9285SOL    HW239489   3.591   3.966  14.112  0.0437  0.2714  1.2204
 9286SOL     OW39490   2.399   4.226   9.439  0.1067  0.5212  0.0501
 9286SOL    HW139491   2.359   4.291   9.381  1.9947  3.1153  1.6897
 9286SOL    HW239492   2.332   4.227   9.507 -0.8956  0.5889 -0.9311
 9287SOL     OW39493   0.945   0.746   1.613  0.5969  0.2857  0.3142
 9287SOL    HW139494   0.899   0.692   1.677  0.8475 -0.4083 -0.0884
 9287SOL    HW239495   0.942   0.837   1.640 -1.9690  0.1703  0.4562
 9288SOL     OW39496   1.607   0.107  13.374 -0.0516 -0.2499 -0.2089
 9288SOL    HW139497   1.690   0.079  13.334  1.4447  2.5594  0.9067
 9288SOL    HW239498   1.623   0.108  13.468  0.6578 -1.4002 -0.3090
 9289SOL     OW39499   0.230   0.599   4.761  0.0839 -0.0628 -0.1341
 9289SOL    HW139500   0.319   0.627   4.737  0.2009 -0.0761  0.2792
 9289SOL    HW239501   0.218   0.551   4.679 -3.4491 -0.0086  0.3414
 9290SOL     OW39502   1.227   3.856  11.929  0.5148  0.5960  0.1443
 9290SOL    HW139503   1.178   3.784  11.969  2.8431 -1.4369 -0.6372
 9290SOL    HW239504   1.311   3.811  11.916  0.2156 -0.2059  1.0015
 9291SOL     OW39505   1.573   0.008  10.132 -0.1134  0.0930  0.2990
 9291SOL    HW139506   1.546   0.074  10.068  0.2577 -0.2899 -0.2599
 9291SOL    HW239507   1.512   0.007  10.205 -0.4703 -0.3768 -0.0012
 9292SOL     OW39508   1.975   1.923  13.418  0.2958 -0.4588 -0.1574
 9292SOL    HW139509   2.013   1.839  13.391  0.3420 -0.3424 -0.4530
 9292SOL    HW239510   1.942   1.909  13.507 -0.5948 -0.8021 -0.5386
 9293SOL     OW39511   4.710   1.218  14.199  0.3602 -0.7320  0.0594
 9293SOL    HW139512   0.020   1.264  14.270 -0.4888 -1.4593  1.0612
 9293SOL    HW239513   4.712   1.129  14.234  1.1522 -0.5903  0.3710
 9294SOL     OW39514   4.615   4.532   0.719 -0.4480 -0.4714 -0.2870
 9294SOL    HW139515   4.686   4.500   0.775 -0.1675 -1.4719 -1.2175
 9294SOL    HW239516   4.538   4.493   0.761 -2.4056  1.5419 -1.9998
 9295SOL     OW39517   1.721   1.362   3.668  0.2267  0.3734 -0.5348
 9295SOL    HW139518   1.719   1.457   3.656 -0.0237  0.3223 -0.8915
 9295SOL    HW239519   1.645   1.336   3.616  0.5991 -1.3759 -0.1908
 9296SOL     OW39520   3.109   4.048   7.963  0.2989  0.2496 -0.5651
 9296SOL    HW139521   3.186   4.016   8.009 -0.1244 -1.5862 -1.1005
 9296SOL    HW239522   3.099   3.985   7.891  0.9764 -1.4571  0.8487
 9297SOL     OW39523   2.964   3.468  16.625  0.4732  0.7784 -0.9020
 9297SOL    HW139524   2.907   3.395  16.650  1.7256 -0.1866 -0.8368
 9297SOL    HW239525   2.991   3.431  16.540  0.5710 -1.1953 -0.0162
 9298SOL     OW39526   0.820   0.264   3.330 -0.4359 -0.1443 -0.4280
 9298SOL    HW139527   0.841   0.209   3.254  0.2469 -1.2103  0.5425
 9298SOL    HW239528   0.909   0.289   3.354  0.0412 -0.5510 -1.7879
 9299SOL     OW39529   4.376   0.055   6.622 -0.1578 -0.2122 -0.4016
 9299SOL    HW139530   4.301   0.044   6.680 -0.7379  0.6730 -0.9769
 9299SOL    HW239531   4.410   4.704   6.648  0.4550 -0.2202 -1.2214
 9300SOL     OW39532   3.240   1.415  17.331 -0.7513  0.7176  0.3501
 9300SOL    HW139533   3.277   1.383  17.249  2.3960  3.0725  0.8472
 9300SOL    HW239534   3.288   1.498  17.335  0.6449 -0.0580 -0.0413
 9301SOL     OW39535   0.816   4.427  11.474 -0.8469 -0.0291  0.0390
 9301SOL    HW139536   0.897   4.395  11.515  0.0305 -1.5981 -2.9711
 9301SOL    HW239537   0.839   4.486  11.402 -0.1499  1.4116  1.4500
 9302SOL     OW39538   2.188   2.793  13.904  0.0688  0.0320 -0.4286
 9302SOL    HW139539   2.124   2.796  13.975  1.1514  1.1504  0.5046
 9302SOL    HW239540   2.184   2.714  13.851 -2.2895 -0.0456 -0.1648
 9303SOL     OW39541   2.955   1.869   7.513  0.7154 -0.2143 -0.3486
 9303SOL    HW139542   3.018   1.910   7.454  1.2017  1.3012  1.1958
 9303SOL    HW239543   2.932   1.787   7.470  2.4989 -1.4414  1.0240
 9304SOL     OW39544   2.123   4.337   5.630 -0.1520 -0.1482 -0.2577
 9304SOL    HW139545   2.036   4.376   5.635  2.1970  4.6397  3.0845
 9304SOL    HW239546   2.171   4.380   5.701 -1.2901  0.6763  0.0048
 9305SOL     OW39547   1.977   3.129  10.291 -0.0611 -0.2942 -0.9232
 9305SOL    HW139548   2.055   3.108  10.343 -0.3199  2.1037  0.4576
 9305SOL    HW239549   1.992   3.067  10.220  0.6857 -1.3980  0.1906
 9306SOL     OW39550   0.521   2.130   4.936 -0.1671  0.8973  0.1765
 9306SOL    HW139551   0.551   2.154   5.024  1.5047 -3.8825  0.9418
 9306SOL    HW239552   0.440   2.089   4.967 -1.4606  1.9726 -1.8012
 9307SOL     OW39553   0.462   1.512   3.383 -0.7098  0.1090  0.0897
 9307SOL    HW139554   0.453   1.444   3.316 -0.1843  1.1334 -1.0163
 9307SOL    HW239555   0.487   1.588   3.330  2.5710 -2.4498 -2.0419
 9308SOL     OW39556   2.806   3.691   1.610  0.2798  0.0772 -0.1548
 9308SOL    HW139557   2.845   3.744   1.680 -3.3713  0.7551  1.3904
 9308SOL    HW239558   2.716   3.695   1.642 -0.2892 -0.4395 -1.6832
 9309SOL     OW39559   2.202   3.830  14.710 -0.2889 -0.2375 -0.1981
 9309SOL    HW139560   2.132   3.810  14.648  0.4149  1.0624 -1.4112
 9309SOL    HW239561   2.284   3.813  14.664 -1.1161 -1.0505 -1.3775
 9310SOL     OW39562   2.749   1.221   7.315  0.2147  0.7653 -0.3054
 9310SOL    HW139563   2.718   1.132   7.301 -0.0665  0.3021  3.1308
 9310SOL    HW239564   2.681   1.270   7.269  2.6717  1.8404 -2.7640
 9311SOL     OW39565   3.176   2.634   8.263  0.3900  0.8972  0.2917
 9311SOL    HW139566   3.096   2.608   8.308  0.3056 -0.3940 -0.5954
 9311SOL    HW239567   3.233   2.559   8.282  0.3101  0.6207 -0.5382
 9312SOL     OW39568   0.415   1.691   3.179  0.0752  0.5031  0.0253
 9312SOL    HW139569   0.458   1.758   3.125 -0.9207  1.6331  0.6288
 9312SOL    HW239570   0.327   1.707   3.145 -0.0026  0.1318  0.0481
 9313SOL     OW39571   4.421   3.064   5.360  0.0334  0.0714 -0.3656
 9313SOL    HW139572   4.452   2.994   5.303 -0.8976  0.5205 -1.4129
 9313SOL    HW239573   4.499   3.074   5.415  0.9384  1.8112 -1.9835
 9314SOL     OW39574   4.545   0.757   3.116  0.0019 -0.8777 -0.0088
 9314SOL    HW139575   4.488   0.681   3.130 -0.0079 -0.5242  1.8898
 9314SOL    HW239576   4.629   0.716   3.134  1.3589  1.6618 -0.5975
 9315SOL     OW39577   0.391   2.772   8.558 -0.6265  0.2406 -0.6193
 9315SOL    HW139578   0.352   2.756   8.473  0.0687  0.2893 -0.9486
 9315SOL    HW239579   0.435   2.691   8.584 -0.0912  0.4382 -0.9154
 9316SOL     OW39580   0.941   0.678   3.327 -0.3941 -0.0019 -0.7550
 9316SOL    HW139581   0.951   0.697   3.420 -2.1117 -2.8821  0.0164
 9316SOL    HW239582   0.928   0.767   3.295 -0.2999  0.2753 -0.0280
 9317SOL     OW39583   2.985   3.642   7.820  0.3063  0.2886 -0.3525
 9317SOL    HW139584   2.983   3.590   7.739 -1.7941  0.8250 -0.6575
 9317SOL    HW239585   3.038   3.584   7.875  1.2525  0.6548 -0.8704
 9318SOL     OW39586   2.780   0.110   9.796  0.5942 -0.4704  0.0620
 9318SOL    HW139587   2.836   0.033   9.797 -1.3541 -1.9494 -2.9958
 9318SOL    HW239588   2.827   0.157   9.865 -0.6953  1.1882 -0.1833
 9319SOL     OW39589   4.153   0.460   3.970  0.9270 -0.7091 -0.1334
 9319SOL    HW139590   4.081   0.436   4.029 -0.3652  4.7810  0.5416
 9319SOL    HW239591   4.104   0.496   3.896  0.6841 -0.9834 -0.1069
 9320SOL     OW39592   3.340   3.908   3.956  0.1740 -0.6098 -0.4672
 9320SOL    HW139593   3.269   3.844   3.951 -0.0183 -0.3485 -1.1109
 9320SOL    HW239594   3.396   3.877   3.885 -0.2371  1.5598 -1.7263
 9321SOL     OW39595   4.389   2.735   7.314  0.1801 -0.0896 -0.1230
 9321SOL    HW139596   4.471   2.731   7.364 -0.6606 -0.5012  1.2129
 9321SOL    HW239597   4.422   2.756   7.226  0.3640  1.2042  0.2641
 9322SOL     OW39598   3.791   2.607   1.424 -0.5168  0.2321 -0.3428
 9322SOL    HW139599   3.885   2.620   1.427 -0.8318  2.0111  1.8177
 9322SOL    HW239600   3.763   2.686   1.379 -1.0488  0.2894  0.0797
 9323SOL     OW39601   0.407   3.061  15.742  0.0831  0.0445  0.1310
 9323SOL    HW139602   0.501   3.070  15.726  0.0381 -0.8911 -0.6359
 9323SOL    HW239603   0.378   3.141  15.698  2.6106  1.1251  0.4217
 9324SOL     OW39604   1.574   3.717   4.403  0.3554 -0.0224  0.3226
 9324SOL    HW139605   1.646   3.666   4.441  1.1004  0.3367 -0.6043
 9324SOL    HW239606   1.614   3.751   4.323 -1.4275  0.3748 -0.3946
 9325SOL     OW39607   3.022   0.994   4.680  0.2717 -0.5037 -0.3928
 9325SOL    HW139608   2.979   0.911   4.702  2.1766 -2.4866 -4.1000
 9325SOL    HW239609   2.943   1.047   4.688 -1.1201 -2.4991 -0.9154
 9326SOL     OW39610   1.084   2.325   7.299  0.5398  0.3501  0.9248
 9326SOL    HW139611   0.999   2.327   7.255  1.1473 -2.8760 -0.3526
 9326SOL    HW239612   1.048   2.329   7.388 -0.2305  1.6213  0.5640
 9327SOL     OW39613   4.481   3.539   2.725 -0.8123  0.8464 -0.7879
 9327SOL    HW139614   4.443   3.602   2.786  0.7255 -0.5275  1.5859
 9327SOL    HW239615   4.520   3.597   2.660 -0.3548  1.3927 -0.0206
 9328SOL     OW39616   2.705   3.187   7.062 -0.5435  0.3982  0.5850
 9328SOL    HW139617   2.684   3.093   7.057 -0.7811  0.3329  2.9210
 9328SOL    HW239618   2.681   3.201   7.154 -2.0785  0.4178  0.1840
 9329SOL     OW39619   4.420   3.699  10.533  0.0469  0.2373 -0.0534
 9329SOL    HW139620   4.515   3.700  10.519 -0.1550  2.3279 -1.2703
 9329SOL    HW239621   4.424   3.702  10.629  3.7911 -3.2444 -0.0919
 9330SOL     OW39622   3.693   2.889   6.674  0.1033 -0.3468 -0.2008
 9330SOL    HW139623   3.625   2.926   6.731  0.2656  0.3596 -0.4695
 9330SOL    HW239624   3.646   2.807   6.658  0.1413 -0.2322 -0.8825
 9331SOL     OW39625   2.313   1.962   6.933  0.2392 -0.6917  0.0678
 9331SOL    HW139626   2.328   1.871   6.957 -1.2559 -0.5925  1.3659
 9331SOL    HW239627   2.270   1.948   6.848  1.2697 -1.6015 -0.2998
 9332SOL     OW39628   3.429   4.271  10.771 -0.1191 -0.1525  0.2138
 9332SOL    HW139629   3.437   4.278  10.866  1.0496  1.9874 -0.0550
 9332SOL    HW239630   3.507   4.320  10.747 -0.6038  0.4486 -0.1404
 9333SOL     OW39631   2.134   3.438  11.161  0.1224  0.6029 -0.4981
 9333SOL    HW139632   2.134   3.533  11.175  0.4446  0.3363  1.2955
 9333SOL    HW239633   2.114   3.409  11.249 -1.7630  0.3562 -1.0102
 9334SOL     OW39634   4.624   0.897   6.922  0.0005  0.2478 -0.0131
 9334SOL    HW139635   4.596   0.986   6.901  0.3106  0.1782 -0.7352
 9334SOL    HW239636   4.572   0.871   6.998  2.0560 -0.0293  1.2880
 9335SOL     OW39637   3.790   0.358  16.482  0.4115  0.1097 -0.4996
 9335SOL    HW139638   3.772   0.319  16.567  0.4849 -0.1656 -0.6084
 9335SOL    HW239639   3.705   0.399  16.471  0.4773  0.1462 -0.9126
 9336SOL     OW39640   1.179   0.211   0.399 -0.5402  0.0112 -0.3341
 9336SOL    HW139641   1.095   0.229   0.355 -1.1571 -1.5129  0.2322
 9336SOL    HW239642   1.216   0.298   0.414 -1.9045  0.2649  1.5160
 9337SOL     OW39643   1.480   4.608  11.012 -0.4120 -0.2694 -0.6755
 9337SOL    HW139644   1.506   4.571  11.096 -0.2965  0.0805 -0.5594
 9337SOL    HW239645   1.474   4.697  11.045  1.5660 -0.5520  0.4630
 9338SOL     OW39646   2.542   4.501  16.796  0.1556  0.4157  0.2464
 9338SOL    HW139647   2.543   4.444  16.719 -1.3160  2.6017 -1.4068
 9338SOL    HW239648   2.564   4.434  16.860  2.9517  0.8153 -0.2751
 9339SOL     OW39649   2.820   3.448   4.309  0.0496 -0.4434  0.1978
 9339SOL    HW139650   2.764   3.493   4.246 -1.2449 -0.7863  1.0816
 9339SOL    HW239651   2.831   3.513   4.378 -0.8475  0.1237 -0.1959
 9340SOL     OW39652   2.717   0.729  11.122 -0.2086  0.0895  0.5322
 9340SOL    HW139653   2.787   0.793  11.110  0.1532 -0.6334 -1.1795
 9340SOL    HW239654   2.743   0.673  11.049  0.8109  0.9945  0.2072
 9341SOL     OW39655   3.820   0.817   6.934 -0.0363  0.6672  0.0884
 9341SOL    HW139656   3.734   0.853   6.910  0.0973 -1.1360 -3.1014
 9341SOL    HW239657   3.810   0.793   7.026  0.2406 -1.4272 -0.4455
 9342SOL     OW39658   2.524   1.171  16.416 -0.0472 -0.4131  0.0878
 9342SOL    HW139659   2.609   1.213  16.427 -0.8864  1.3092  0.0163
 9342SOL    HW239660   2.472   1.241  16.376 -0.4413 -0.8906 -0.2396
 9343SOL     OW39661   0.443   1.628   8.722  0.1728  0.6624 -0.6017
 9343SOL    HW139662   0.457   1.720   8.697  1.4136  0.7036  0.1787
 9343SOL    HW239663   0.369   1.629   8.783  0.7845 -1.4540  0.1686
 9344SOL     OW39664   2.338   2.729   3.415  0.3061  0.1862 -0.5386
 9344SOL    HW139665   2.309   2.770   3.333 -0.3796 -2.2983 -1.5151
 9344SOL    HW239666   2.271   2.663   3.426  1.6706 -0.8146  1.8349
 9345SOL     OW39667   0.912   0.701   0.535 -0.1182  0.5125  0.4695
 9345SOL    HW139668   0.976   0.759   0.493 -0.0553  0.1716  0.0827
 9345SOL    HW239669   0.861   0.670   0.460  1.2737 -0.7695  0.0303
 9346SOL     OW39670   1.209   0.901   4.523 -0.3314 -0.4195  0.4265
 9346SOL    HW139671   1.259   0.954   4.461 -0.7945  1.4781  1.6606
 9346SOL    HW239672   1.250   0.816   4.509  1.8357  0.8881 -1.2256
 9347SOL     OW39673   1.817   2.388   9.955 -0.4804  1.0550 -0.1435
 9347SOL    HW139674   1.790   2.377  10.046 -0.6075 -0.2493 -0.3372
 9347SOL    HW239675   1.885   2.321   9.950 -0.5488  0.8652  1.3644
 9348SOL     OW39676   1.900   1.015   2.468 -0.0638 -0.0970  0.0196
 9348SOL    HW139677   1.891   0.921   2.487  0.5264 -0.5042 -1.8037
 9348SOL    HW239678   1.993   1.030   2.487 -0.5180  1.5311  0.9803
 9349SOL     OW39679   1.692   1.589  16.494 -0.0187 -0.0350 -0.4168
 9349SOL    HW139680   1.692   1.648  16.569  1.2162 -1.0773  0.3899
 9349SOL    HW239681   1.617   1.532  16.511  0.7965 -1.0032 -0.0695
 9350SOL     OW39682   2.957   4.154  12.710  0.8957 -0.2194 -0.2273
 9350SOL    HW139683   2.960   4.088  12.779  1.5166 -0.6294 -0.6459
 9350SOL    HW239684   3.013   4.111  12.646  1.4107  0.0942  0.0115
 9351SOL     OW39685   3.819   1.025   8.443  0.2113  0.2470  0.8114
 9351SOL    HW139686   3.902   0.986   8.415 -0.0331  1.0803 -1.1326
 9351SOL    HW239687   3.846   1.113   8.467 -2.1040  0.6058  2.0471
 9352SOL     OW39688   4.713   1.990  17.442  0.2000 -0.0134 -0.5013
 9352SOL    HW139689   4.697   2.055  17.373 -0.0116  1.2882  0.7819
 9352SOL    HW239690   4.627   1.947  17.442  0.6248 -0.8475  0.8191
 9353SOL     OW39691   1.712   1.323   3.338 -0.3948  0.3741 -0.5905
 9353SOL    HW139692   1.804   1.298   3.345 -0.8505 -0.1359  3.2080
 9353SOL    HW239693   1.714   1.409   3.380  1.6559  1.4125 -2.7719
 9354SOL     OW39694   0.439   4.661  15.516 -0.1245  0.5632  0.2831
 9354SOL    HW139695   0.471   4.713  15.443 -1.5405  0.0972 -0.6562
 9354SOL    HW239696   0.435   4.731  15.581 -0.0419  0.0582  0.8392
 9355SOL     OW39697   3.021   0.161   0.917 -0.8566  0.6999  0.1744
 9355SOL    HW139698   3.032   0.246   0.875  0.1074  1.0970  1.2241
 9355SOL    HW239699   3.069   0.177   0.998  0.9373  0.1034 -0.7619
 9356SOL     OW39700   2.375   3.915   8.314 -0.2932 -0.1962 -0.1622
 9356SOL    HW139701   2.352   3.961   8.394 -1.5550  2.5276 -2.0597
 9356SOL    HW239702   2.306   3.938   8.252 -0.2820  0.3010  0.0082
 9357SOL     OW39703   1.971   3.672   4.458 -0.2436  0.1453  0.1912
 9357SOL    HW139704   1.923   3.632   4.531 -1.4376  0.4529 -0.4238
 9357SOL    HW239705   2.007   3.749   4.503 -1.7676  0.4252  0.9340
 9358SOL     OW39706   1.170   1.673  10.561  0.0211 -0.0834  0.7485
 9358SOL    HW139707   1.187   1.766  10.574  0.5788 -0.0598 -0.1974
 9358SOL    HW239708   1.209   1.653  10.476 -0.2725  0.4167  0.4894
 9359SOL     OW39709   0.704   4.699  15.351  0.4701  0.3273  0.7510
 9359SOL    HW139710   0.640   0.030  15.323  0.3289 -0.6761 -1.3111
 9359SOL    HW239711   0.684   4.622  15.297 -3.1763  0.9674  1.2392
 9360SOL     OW39712   2.743   2.326   3.214 -0.3627 -0.5646 -0.1701
 9360SOL    HW139713   2.761   2.265   3.143 -0.9402  0.2003 -0.9646
 9360SOL    HW239714   2.752   2.264   3.287 -0.8154  2.5562  2.5396
 9361SOL     OW39715   1.362   0.468  10.610 -0.1972 -0.3899 -0.3093
 9361SOL    HW139716   1.293   0.472  10.544 -0.1989 -1.8249 -0.3986
 9361SOL    HW239717   1.395   0.378  10.610 -0.5153 -0.5050 -1.3134
 9362SOL     OW39718   0.960   4.289   6.828  0.3111  0.4230 -0.6210
 9362SOL    HW139719   1.011   4.217   6.791  1.4199  1.6329 -1.4474
 9362SOL    HW239720   1.016   4.366   6.815  1.2433 -0.1807 -0.1951
 9363SOL     OW39721   3.403   3.507   4.830 -0.3082 -0.4253 -0.0927
 9363SOL    HW139722   3.426   3.460   4.750 -0.4375 -1.6763  0.5940
 9363SOL    HW239723   3.492   3.521   4.863 -0.0785 -1.3550 -0.3031
 9364SOL     OW39724   1.050   3.453   1.041  0.1092 -0.6155 -0.0790
 9364SOL    HW139725   1.041   3.367   1.081 -3.8988  0.1870  0.7283
 9364SOL    HW239726   0.958   3.464   1.019 -0.1832  0.9249  1.8727
 9365SOL     OW39727   0.157   1.128   4.389  0.7361 -0.4243 -0.0042
 9365SOL    HW139728   0.165   1.067   4.462 -0.9516  0.0034  0.5463
 9365SOL    HW239729   0.217   1.199   4.411 -0.4753  0.0846  1.6770
 9366SOL     OW39730   3.652   1.648   6.669  0.2352 -0.0097  0.2871
 9366SOL    HW139731   3.595   1.692   6.733 -1.8684 -0.0145 -1.5785
 9366SOL    HW239732   3.715   1.589   6.709  1.9379  3.5209  2.9015
 9367SOL     OW39733   1.373   1.151  12.590 -0.7036  0.1007 -0.5177
 9367SOL    HW139734   1.325   1.086  12.641  0.0698  0.0082  0.0986
 9367SOL    HW239735   1.390   1.113  12.504 -0.9787  0.5723 -0.7824
 9368SOL     OW39736   2.053   2.227  10.044 -0.3857 -0.4052 -0.2096
 9368SOL    HW139737   2.088   2.192  10.126 -0.2931  1.6115  0.6273
 9368SOL    HW239738   2.074   2.156   9.983 -2.4332  0.5395 -1.9947
 9369SOL     OW39739   2.135   2.675   8.632 -0.0749 -0.1139  0.0285
 9369SOL    HW139740   2.229   2.689   8.622  0.1699 -2.5968 -0.9976
 9369SOL    HW239741   2.094   2.751   8.590 -0.0896 -0.5750 -0.8056
 9370SOL     OW39742   1.775   1.085  15.686  0.5084  0.7371 -0.8951
 9370SOL    HW139743   1.728   1.166  15.704 -2.1145 -1.0956  0.5509
 9370SOL    HW239744   1.702   1.027  15.706  1.5108 -0.0023  0.6521
 9371SOL     OW39745   2.134   4.045   5.810 -0.0676  0.0266  0.2387
 9371SOL    HW139746   2.039   4.040   5.806 -0.0790  1.7445 -1.5495
 9371SOL    HW239747   2.168   4.049   5.720 -2.4691 -1.4796 -0.7216
 9372SOL     OW39748   3.076   2.226   7.807 -0.0878  0.8164 -0.1652
 9372SOL    HW139749   3.014   2.284   7.762 -0.0105  0.0761 -1.2233
 9372SOL    HW239750   3.077   2.145   7.756 -1.1153  1.1360 -0.7053
 9373SOL     OW39751   1.566   4.404  12.663  0.5256 -0.1089 -0.9801
 9373SOL    HW139752   1.584   4.313  12.638  1.4079 -0.1035 -0.3611
 9373SOL    HW239753   1.600   4.403  12.752  1.0228  0.9980 -1.1674
 9374SOL     OW39754   2.385   2.362   2.176  0.4554 -0.0518  0.2485
 9374SOL    HW139755   2.390   2.427   2.246  0.8305  0.4187 -0.2110
 9374SOL    HW239756   2.479   2.343   2.164  0.5664  1.1988 -0.7267
 9375SOL     OW39757   2.458   0.335   6.919  0.0266  0.5818 -0.4215
 9375SOL    HW139758   2.385   0.283   6.953  0.2289  1.1925  0.9702
 9375SOL    HW239759   2.437   0.349   6.827  0.6611 -1.4784 -0.8782
 9376SOL     OW39760   4.727   3.971   8.251  0.2374 -0.0860  0.3251
 9376SOL    HW139761   4.656   4.033   8.238 -0.2728 -0.1904  2.5682
 9376SOL    HW239762   4.692   3.903   8.194 -1.3913  0.7567  0.3212
 9377SOL     OW39763   1.973   2.362   2.952  0.2421 -0.3562  0.1448
 9377SOL    HW139764   1.893   2.412   2.967  0.2173 -0.7850  1.4026
 9377SOL    HW239765   2.031   2.405   3.016  1.7198 -0.3717 -1.1785
 9378SOL     OW39766   2.502   4.640  15.211  0.4083  0.2919 -0.2926
 9378SOL    HW139767   2.433   4.593  15.258  0.6780 -0.8470 -1.0564
 9378SOL    HW239768   2.489   4.619  15.119  0.1150 -0.7996  0.0029
 9379SOL     OW39769   3.535   4.646   0.959  0.6994 -0.0692 -0.5604
 9379SOL    HW139770   3.496   4.606   1.036  3.0446 -0.4245  0.4419
 9379SOL    HW239771   3.462   4.692   0.919  1.0022  1.6344  0.8432
 9380SOL     OW39772   3.021   3.260   9.402  0.1073  0.0653  0.3452
 9380SOL    HW139773   3.014   3.350   9.371 -0.9905 -0.1266  0.0455
 9380SOL    HW239774   3.083   3.220   9.341 -0.4809 -0.4217  0.0681
 9381SOL     OW39775   4.244   2.745   1.204 -0.1079 -0.0528  0.0958
 9381SOL    HW139776   4.193   2.679   1.250 -0.4931 -0.3897 -0.8081
 9381SOL    HW239777   4.259   2.709   1.116  0.7522 -0.6372  0.4895
 9382SOL     OW39778   0.987   1.807   4.405 -0.4651  0.3431  0.1428
 9382SOL    HW139779   0.982   1.868   4.478 -3.5681 -0.3870  0.5456
 9382SOL    HW239780   0.899   1.773   4.419 -0.9609  1.7081  0.3955
 9383SOL     OW39781   3.765   3.259   2.324 -0.6779  0.3818 -0.1056
 9383SOL    HW139782   3.755   3.174   2.366 -1.1329  0.1644 -0.6585
 9383SOL    HW239783   3.824   3.250   2.250 -3.1198 -1.2451 -1.8484
 9384SOL     OW39784   3.549   0.510  15.598 -0.0921 -0.5689 -0.0759
 9384SOL    HW139785   3.544   0.600  15.565  0.1800 -0.1351  1.0430
 9384SOL    HW239786   3.604   0.472  15.529  1.8457 -0.0123  1.1529
 9385SOL     OW39787   1.929   3.163   7.184  0.5186 -0.4569  0.7866
 9385SOL    HW139788   1.885   3.145   7.266 -0.3580 -1.0471  0.1867
 9385SOL    HW239789   1.995   3.226   7.213  1.4951 -1.2761  0.3955
 9386SOL     OW39790   1.979   3.651   0.113 -0.9373 -0.1811 -0.0730
 9386SOL    HW139791   1.912   3.649   0.044 -1.5696 -1.8504  0.5810
 9386SOL    HW239792   2.048   3.593   0.080  0.9975  2.3383 -0.4473
 9387SOL     OW39793   0.068   2.544   5.801 -0.2261 -0.1381  0.0486
 9387SOL    HW139794   0.009   2.474   5.827 -1.0573  1.6859  3.0610
 9387SOL    HW239795   0.015   2.620   5.779 -1.7287 -0.4073  2.8130
 9388SOL     OW39796   4.249   1.668  14.223  0.6695 -0.1206  0.3238
 9388SOL    HW139797   4.342   1.679  14.242  0.7787  0.2279 -0.4239
 9388SOL    HW239798   4.255   1.598  14.158 -0.9347  1.0125 -1.0617
 9389SOL     OW39799   0.394   0.223   2.286  0.5240  0.5177  0.4234
 9389SOL    HW139800   0.320   0.282   2.274  0.9988  0.8563 -0.8682
 9389SOL    HW239801   0.452   0.239   2.211  0.5479  2.4326  0.8782
 9390SOL     OW39802   3.406   4.580   2.498 -0.1398  0.5667 -0.1846
 9390SOL    HW139803   3.311   4.585   2.491 -0.3162 -2.5521  0.3240
 9390SOL    HW239804   3.433   4.525   2.424 -1.1342 -1.6641  1.1271
 9391SOL     OW39805   2.963   3.947   8.618 -0.2722 -0.4181  0.3820
 9391SOL    HW139806   2.960   3.881   8.686 -1.5817 -0.7561 -0.0013
 9391SOL    HW239807   2.869   3.966   8.619  0.0910  1.4033  0.0897
 9392SOL     OW39808   0.554   1.616   5.914  0.1069  0.4086  0.0603
 9392SOL    HW139809   0.467   1.656   5.922  0.8635  1.8577  1.0384
 9392SOL    HW239810   0.548   1.542   5.974  1.1624 -1.4634 -2.1604
 9393SOL     OW39811   2.978   2.689  16.585 -0.2288 -0.1550 -0.6710
 9393SOL    HW139812   2.975   2.775  16.628  0.3666 -0.5743  0.2003
 9393SOL    HW239813   2.891   2.688  16.545  0.7250 -0.4135 -2.7216
 9394SOL     OW39814   4.582   3.500   8.583  0.2417 -0.0136 -0.1022
 9394SOL    HW139815   4.498   3.459   8.599 -0.3030  1.3374  0.5241
 9394SOL    HW239816   4.631   3.418   8.572 -2.0752 -1.4668  0.4599
 9395SOL     OW39817   0.723   3.067   5.911 -0.3067  0.4002  0.1443
 9395SOL    HW139818   0.649   3.125   5.927 -0.4996  0.2494 -0.1888
 9395SOL    HW239819   0.741   3.030   5.997 -1.5208  0.9519  0.6427
 9396SOL     OW39820   2.783   1.577   0.726  0.5218 -0.3111 -0.0386
 9396SOL    HW139821   2.691   1.550   0.733 -0.1223  1.7440 -0.4331
 9396SOL    HW239822   2.811   1.557   0.815 -1.1612  0.3172  0.6314
 9397SOL     OW39823   2.302   1.582  15.136 -0.0326  0.7159  0.6606
 9397SOL    HW139824   2.264   1.500  15.167  0.4295  0.1835 -0.1757
 9397SOL    HW239825   2.297   1.586  15.041 -0.7226 -3.1048  0.5269
 9398SOL     OW39826   1.799   4.541  14.770  0.2410 -0.4060  0.1402
 9398SOL    HW139827   1.883   4.586  14.782  1.1001 -2.3315  1.3455
 9398SOL    HW239828   1.742   4.569  14.841 -1.8113  1.0885 -2.0842
 9399SOL     OW39829   2.286   3.054   4.115 -0.1234  0.2247  0.4170
 9399SOL    HW139830   2.329   3.129   4.156 -0.7797  0.3167  0.9259
 9399SOL    HW239831   2.329   3.058   4.029 -0.5114  0.7216  0.2460
 9400SOL     OW39832   3.783   4.553   6.465  0.2808 -0.1391  0.2374
 9400SOL    HW139833   3.841   4.628   6.480  0.9632 -1.2004  2.9609
 9400SOL    HW239834   3.740   4.542   6.550  2.0550  1.2561  1.3337
 9401SOL     OW39835   0.256   0.031  14.290 -0.0154  0.6065  0.0657
 9401SOL    HW139836   0.193   0.095  14.259 -0.5816 -0.7488 -1.5735
 9401SOL    HW239837   0.310   0.020  14.212  1.5801 -0.5528  1.3391
 9402SOL     OW39838   3.366   2.721   7.232  0.4654  0.0603 -0.1821
 9402SOL    HW139839   3.382   2.646   7.288  1.3943  1.4478  1.4091
 9402SOL    HW239840   3.339   2.788   7.295  0.0008 -1.0860  0.8401
 9403SOL     OW39841   4.065   1.878   5.176  0.1941 -0.6883 -0.3949
 9403SOL    HW139842   4.158   1.880   5.155  0.6392 -0.3600  1.6356
 9403SOL    HW239843   4.020   1.912   5.098 -3.3076 -2.0960  0.9732
 9404SOL     OW39844   4.568   0.889   1.914  0.2706 -0.0320  0.3374
 9404SOL    HW139845   4.485   0.903   1.869  0.8703 -0.0896 -0.7673
 9404SOL    HW239846   4.584   0.797   1.895 -2.2290 -0.5938  0.9876
 9405SOL     OW39847   1.581   1.758  11.933 -0.9611 -0.6017  0.3657
 9405SOL    HW139848   1.582   1.853  11.916  1.4746  0.1770  4.6532
 9405SOL    HW239849   1.532   1.755  12.015 -2.2718  2.4321 -0.2879
 9406SOL     OW39850   1.866   2.838   3.926  0.3847  0.3166  0.8755
 9406SOL    HW139851   1.850   2.928   3.955  1.1691  0.2677  1.4424
 9406SOL    HW239852   1.911   2.857   3.843  1.0128 -0.7861  0.9659
 9407SOL     OW39853   3.968   0.881   0.239 -0.1985 -0.0149  0.0394
 9407SOL    HW139854   3.895   0.820   0.229 -1.2416  0.8065  2.7167
 9407SOL    HW239855   3.917   0.952   0.277  0.5831 -0.4940  1.9781
 9408SOL     OW39856   2.730   0.032   7.894  0.2637 -0.0693 -0.6154
 9408SOL    HW139857   2.826   0.024   7.895  0.2552 -0.1746 -0.8433
 9408SOL    HW239858   2.707   0.057   7.984 -0.4383 -2.2152 -0.1976
 9409SOL     OW39859   1.859   3.382   3.209 -0.1578  0.0364  0.0661
 9409SOL    HW139860   1.879   3.463   3.257 -0.3510  0.3115 -0.3188
 9409SOL    HW239861   1.842   3.421   3.123  1.8416 -0.0102 -0.3486
 9410SOL     OW39862   0.455   3.441   8.701 -0.5286 -0.6085  0.0806
 9410SOL    HW139863   0.532   3.471   8.749  0.1195 -0.7644 -0.8632
 9410SOL    HW239864   0.406   3.523   8.701 -0.8358 -0.7936 -0.2414
 9411SOL     OW39865   1.574   0.553   2.518 -0.5502  0.0940 -0.2433
 9411SOL    HW139866   1.516   0.627   2.504 -1.6541 -0.7111  0.0485
 9411SOL    HW239867   1.592   0.564   2.612  2.7209 -2.7749 -0.5141
 9412SOL     OW39868   1.012   0.494  16.127 -0.2542  0.3119  0.0483
 9412SOL    HW139869   0.922   0.499  16.094 -0.0382  0.3133 -0.5337
 9412SOL    HW239870   1.032   0.585  16.104 -0.1772  0.7169  1.6793
 9413SOL     OW39871   0.940   3.111   6.317  0.2120  0.3374 -0.0489
 9413SOL    HW139872   0.977   3.125   6.404  2.2142  2.4733 -1.2196
 9413SOL    HW239873   0.911   3.196   6.282 -0.3875  0.6281  1.1667
 9414SOL     OW39874   0.103   2.175   1.194 -0.0175  0.2637  0.2549
 9414SOL    HW139875   0.151   2.257   1.178  2.0463 -0.8201  0.9243
 9414SOL    HW239876   0.014   2.204   1.175  0.6405  1.7452 -0.5863
 9415SOL     OW39877   2.656   3.462   8.958 -0.7247  0.0877 -0.7374
 9415SOL    HW139878   2.694   3.501   9.036 -1.1532  0.3204 -0.6453
 9415SOL    HW239879   2.597   3.531   8.927 -1.0030  0.2434  0.1474
 9416SOL     OW39880   4.722   1.216   7.999 -0.5743 -0.1915  0.4929
 9416SOL    HW139881   4.646   1.249   7.952  0.5946  0.7800 -0.7255
 9416SOL    HW239882   0.069   1.253   7.965 -2.2049  1.5149 -1.5407
 9417SOL     OW39883   0.780   2.411   7.922 -0.1666  0.2319  0.1452
 9417SOL    HW139884   0.767   2.484   7.861  1.0838  0.1687 -0.2076
 9417SOL    HW239885   0.874   2.393   7.926 -0.4620 -1.6072 -1.2031
 9418SOL     OW39886   3.518   1.095  17.283  0.2061  0.5955  0.2538
 9418SOL    HW139887   3.575   1.146  17.226  0.2590 -1.5909 -1.6442
 9418SOL    HW239888   3.578   1.026  17.311 -1.6231 -1.5202 -1.0605
 9419SOL     OW39889   3.451   4.208   1.937 -0.0810  0.4876 -0.4326
 9419SOL    HW139890   3.484   4.126   1.900 -0.1386 -0.0390  0.7092
 9419SOL    HW239891   3.485   4.204   2.026 -2.0425  1.4248  0.3732
 9420SOL     OW39892   3.732   1.237   0.998  1.1093  0.0730 -0.2739
 9420SOL    HW139893   3.797   1.211   1.063 -0.3921 -2.1859  0.3223
 9420SOL    HW239894   3.731   1.151   0.956  0.8826 -0.5837  1.0912
 9421SOL     OW39895   1.748   3.252   5.971 -0.1866  0.2829 -0.3558
 9421SOL    HW139896   1.774   3.184   6.033 -0.3814 -1.7079 -2.4636
 9421SOL    HW239897   1.670   3.209   5.939 -0.5781 -0.2261  1.2718
 9422SOL     OW39898   3.890   3.052   8.253  0.1832  0.2894 -0.3026
 9422SOL    HW139899   3.798   3.076   8.255 -0.3882 -1.9606  0.2440
 9422SOL    HW239900   3.893   2.963   8.288 -0.7812  0.6473  0.7013
 9423SOL     OW39901   4.088   0.496   3.697  0.1845  0.0501  0.0212
 9423SOL    HW139902   4.062   0.404   3.692 -0.3830  0.1432  1.2603
 9423SOL    HW239903   4.020   0.534   3.752 -0.9296 -2.0881  0.1359
 9424SOL     OW39904   0.169   0.123   5.910 -0.3061 -0.0621  0.2869
 9424SOL    HW139905   0.076   0.142   5.918 -1.0270 -1.9624 -4.1341
 9424SOL    HW239906   0.155   0.049   5.852  2.4977 -0.8797  0.6670
 9425SOL     OW39907   2.530   2.536   5.927 -0.3206  0.3332 -0.0415
 9425SOL    HW139908   2.556   2.620   5.963 -1.5328  0.9826 -0.6854
 9425SOL    HW239909   2.584   2.541   5.849  0.8482  0.2838  0.7512
 9426SOL     OW39910   2.036   3.433   3.582  0.1387  0.1957  0.2584
 9426SOL    HW139911   1.979   3.494   3.535 -1.4129 -0.9374  0.6434
 9426SOL    HW239912   1.966   3.416   3.646 -1.7519  1.8856 -1.3472
 9427SOL     OW39913   2.566   0.700  16.246  0.2554 -0.2064  0.0979
 9427SOL    HW139914   2.532   0.781  16.207 -1.7760 -1.2584 -0.2934
 9427SOL    HW239915   2.653   0.693  16.208  0.9667 -1.1191  1.8917
 9428SOL     OW39916   4.639   4.533   7.116 -0.2850  0.1999 -0.1595
 9428SOL    HW139917   4.649   4.445   7.080 -1.9777  0.1000 -0.4015
 9428SOL    HW239918   4.586   4.511   7.193 -0.9533  1.6950 -0.1958
 9429SOL     OW39919   1.644   3.141   3.790  0.0539 -0.9143  0.1240
 9429SOL    HW139920   1.657   3.171   3.700 -1.0422  0.2423  0.3488
 9429SOL    HW239921   1.584   3.214   3.805 -0.0143 -0.9194 -0.1236
 9430SOL     OW39922   2.464   0.611   9.268  0.6787 -0.0932 -0.2689
 9430SOL    HW139923   2.558   0.626   9.256  0.9014 -1.4205 -0.1814
 9430SOL    HW239924   2.447   0.541   9.204  2.0220 -1.3194  0.7280
 9431SOL     OW39925   2.215   2.599   4.549 -0.3247 -0.0033 -0.0726
 9431SOL    HW139926   2.272   2.538   4.502 -0.9084  0.3010 -1.1844
 9431SOL    HW239927   2.213   2.664   4.478  3.5438  1.1636  0.8547
 9432SOL     OW39928   4.415   4.432   0.885 -0.6559  0.1972  0.5471
 9432SOL    HW139929   4.467   4.448   0.964  1.1649  1.1494 -0.8234
 9432SOL    HW239930   4.371   4.351   0.909  2.4302 -1.5260  0.4793
 9433SOL     OW39931   2.319   0.321  13.481 -0.0563  0.3245 -0.6005
 9433SOL    HW139932   2.403   0.276  13.490  0.1601  0.8065 -0.1453
 9433SOL    HW239933   2.325   0.382  13.408  1.8490  0.9235  0.0566
 9434SOL     OW39934   1.356   3.558   7.308  0.3051  0.8711  0.3137
 9434SOL    HW139935   1.449   3.536   7.307 -0.3834 -2.1207  1.2099
 9434SOL    HW239936   1.366   3.649   7.280  1.2130 -0.0391 -2.3116
 9435SOL     OW39937   1.808   2.426   7.761 -0.3392  0.0908  0.0270
 9435SOL    HW139938   1.801   2.390   7.672 -0.9692  0.9578 -0.2610
 9435SOL    HW239939   1.814   2.347   7.815 -0.4156 -0.7076 -1.1290
 9436SOL     OW39940   4.013   3.494   3.564  0.1879  0.5536  0.5017
 9436SOL    HW139941   4.067   3.418   3.543 -0.5342 -0.2075  1.3948
 9436SOL    HW239942   3.948   3.456   3.623 -0.3734  0.3393 -0.2506
 9437SOL     OW39943   3.797   1.286   6.344 -0.0723 -0.0174 -0.1487
 9437SOL    HW139944   3.865   1.318   6.404  0.9955  0.3576 -1.5709
 9437SOL    HW239945   3.840   1.210   6.307 -2.4625 -1.7557  0.6237
 9438SOL     OW39946   0.188   4.202   3.647 -0.0590 -0.2294 -0.8079
 9438SOL    HW139947   0.177   4.113   3.615 -0.5686 -0.5381  0.2475
 9438SOL    HW239948   0.118   4.212   3.711 -0.8016 -4.6924 -0.9442
 9439SOL     OW39949   2.110   2.540   8.883  0.3542  0.1926  0.3885
 9439SOL    HW139950   2.016   2.523   8.871  0.5224 -0.3339 -0.1746
 9439SOL    HW239951   2.126   2.574   8.795  1.2614 -0.8377  0.1688
 9440SOL     OW39952   2.951   2.305  16.033  0.2170 -0.1697 -0.0724
 9440SOL    HW139953   2.985   2.342  16.114 -1.3528  2.1889 -0.5008
 9440SOL    HW239954   2.883   2.252  16.074 -0.6401  1.2392  0.3372
 9441SOL     OW39955   3.112   1.007   4.311 -0.1028  0.4340 -0.0300
 9441SOL    HW139956   3.070   1.012   4.225 -0.3614  0.9572  0.1289
 9441SOL    HW239957   3.064   0.933   4.348  3.3530 -2.6167 -1.6481
 9442SOL     OW39958   2.262   4.502   4.580 -0.3816  0.1823 -0.2588
 9442SOL    HW139959   2.188   4.443   4.593 -0.9177  0.8306 -0.3222
 9442SOL    HW239960   2.256   4.528   4.488 -0.1545  2.4013  0.3391
 9443SOL     OW39961   1.073   2.436   8.458 -0.1568 -0.7914  0.2342
 9443SOL    HW139962   1.016   2.367   8.494 -1.8454  1.1758  1.3101
 9443SOL    HW239963   1.156   2.402   8.490 -0.3667 -2.0755 -0.5497
 9444SOL     OW39964   3.116   4.233   6.969  0.7690 -0.1814  0.3897
 9444SOL    HW139965   3.071   4.317   6.984 -0.1643 -0.8128  1.0803
 9444SOL    HW239966   3.191   4.235   7.029  0.1574 -3.2481  1.2351
 9445SOL     OW39967   1.192   1.826  10.327  0.2473  0.4124 -0.4227
 9445SOL    HW139968   1.134   1.806  10.254 -0.3027  0.2783  0.0582
 9445SOL    HW239969   1.241   1.901  10.294  1.7223  0.4177  1.7543
 9446SOL     OW39970   1.419   0.019   8.585  0.1521 -0.5228 -0.2574
 9446SOL    HW139971   1.415   0.107   8.622  2.3052 -0.3637 -0.4345
 9446SOL    HW239972   1.443   0.032   8.493 -4.3553  1.9655 -1.0945
 9447SOL     OW39973   2.269   4.219   8.466  0.3103  0.2586  0.0610
 9447SOL    HW139974   2.223   4.265   8.536 -1.3413 -0.2622 -0.6906
 9447SOL    HW239975   2.202   4.204   8.400  1.0750  0.0039 -0.6571
 9448SOL     OW39976   1.122   0.190  16.859  0.0856 -0.1267  0.0069
 9448SOL    HW139977   1.132   0.100  16.827 -1.4124 -0.2287 -0.1998
 9448SOL    HW239978   1.160   0.238  16.786  1.2512  0.7590  1.2101
 9449SOL     OW39979   4.373   4.310   5.165  0.1529  0.3911  0.2295
 9449SOL    HW139980   4.283   4.279   5.163 -0.1346  1.2502  0.1019
 9449SOL    HW239981   4.417   4.259   5.233 -0.9545 -1.8690 -0.7543
 9450SOL     OW39982   4.706   0.920  11.313 -0.1282  0.8366  0.0926
 9450SOL    HW139983   0.008   0.983  11.251  2.6511  0.3079  1.1636
 9450SOL    HW239984   0.059   0.886  11.330 -0.8916 -0.5219  1.3210
 9451SOL     OW39985   1.062   0.726   1.030 -0.6534  0.6133  0.6407
 9451SOL    HW139986   1.016   0.651   1.066  1.5263 -0.8959  0.2751
 9451SOL    HW239987   1.141   0.745   1.082  0.7204 -1.2992 -0.7694
 9452SOL     OW39988   0.231   0.641  10.051 -0.1820  0.3791  0.1453
 9452SOL    HW139989   0.276   0.617  10.132 -0.8819  0.0078  0.4243
 9452SOL    HW239990   0.276   0.591   9.983  1.9853  0.1546  1.7635
 9453SOL     OW39991   3.977   2.833  13.678 -0.2497 -0.3668  0.6524
 9453SOL    HW139992   4.012   2.864  13.762 -2.1890  0.6071  1.1123
 9453SOL    HW239993   3.902   2.781  13.708  0.1911 -0.5598  1.4409
 9454SOL     OW39994   1.511   0.970   9.883 -0.5732 -0.1697  0.8388
 9454SOL    HW139995   1.418   0.977   9.906 -1.0160  0.7951 -1.2184
 9454SOL    HW239996   1.547   0.925   9.959 -0.8860  0.9144  1.6339
 9455SOL     OW39997   2.403   4.512   6.810 -0.3107  0.7855  0.1402
 9455SOL    HW139998   2.482   4.556   6.842  1.5641 -0.8088 -2.3596
 9455SOL    HW239999   2.442   4.436   6.767 -2.1887  0.1721 -0.4806
 9456SOL     OW40000   0.999   2.845   2.597  0.2807 -0.4659  0.6182
 9456SOL    HW140001   0.984   2.754   2.621  0.7858 -0.6796  0.1061
 9456SOL    HW240002   1.047   2.842   2.515  0.4464 -1.3654  0.7578
 9457SOL     OW40003   3.107   2.093  12.934  0.1725  0.4050  0.1976
 9457SOL    HW140004   3.094   2.147  13.012  1.6742  0.2224  0.5749
 9457SOL    HW240005   3.017   2.103  12.903  0.6743  1.4566 -0.9041
 9458SOL     OW40006   3.981   2.215   8.651 -0.2085 -0.3252 -0.3596
 9458SOL    HW140007   3.897   2.260   8.659  0.0370  0.0623  0.0680
 9458SOL    HW240008   3.989   2.181   8.740 -2.4021 -0.1116 -0.0873
 9459SOL     OW40009   1.010   4.511   5.543 -0.1737 -0.5327 -0.1578
 9459SOL    HW140010   1.060   4.445   5.590  0.4668 -0.6277 -0.9599
 9459SOL    HW240011   0.952   4.550   5.608 -3.2372  0.2624 -3.4267
 9460SOL     OW40012   3.874   0.474   2.233 -0.4813 -0.1962 -0.2395
 9460SOL    HW140013   3.919   0.390   2.245 -2.3703 -1.5227 -2.4318
 9460SOL    HW240014   3.820   0.471   2.154  0.8389  0.6458 -1.1703
 9461SOL     OW40015   4.613   3.541  11.755  0.3144 -0.0943  0.2376
 9461SOL    HW140016   4.689   3.511  11.705  0.9089  1.2973  0.2973
 9461SOL    HW240017   4.564   3.594  11.692  2.8130  1.4730 -0.3982
 9462SOL     OW40018   4.452   0.411   1.682  0.0792 -0.0868 -0.3510
 9462SOL    HW140019   4.446   0.327   1.637 -1.6762  0.6863 -1.5625
 9462SOL    HW240020   4.365   0.416   1.721  1.0606 -1.3572  2.0063
 9463SOL     OW40021   1.765   1.219  14.150 -0.2332 -0.1958 -0.0351
 9463SOL    HW140022   1.775   1.287  14.216  0.5204  0.2111 -0.5610
 9463SOL    HW240023   1.858   1.200  14.138 -0.5226 -0.1915 -2.2754
 9464SOL     OW40024   0.169   2.830   7.122  0.2684 -0.0201 -0.0052
 9464SOL    HW140025   0.204   2.842   7.210 -1.3938  0.9194  0.5243
 9464SOL    HW240026   0.252   2.837   7.074  1.5421 -0.5652  2.1047
 9465SOL     OW40027   2.073   1.374   4.479  0.0628 -0.3138 -0.1365
 9465SOL    HW140028   2.140   1.308   4.498 -0.6089 -0.8903  0.2066
 9465SOL    HW240029   2.066   1.400   4.571 -1.3580  2.2631 -0.9786
 9466SOL     OW40030   0.921   1.338   0.154  0.2532  0.0435  0.7160
 9466SOL    HW140031   0.844   1.395   0.146  0.4786  0.3425  0.6683
 9466SOL    HW240032   0.991   1.387   0.110 -0.7755  0.4319 -0.5152
 9467SOL     OW40033   1.774   0.672   4.717  0.0051  0.4639 -0.0259
 9467SOL    HW140034   1.691   0.709   4.688 -0.2620  0.6342  0.9450
 9467SOL    HW240035   1.813   0.672   4.630  1.1202  0.3137  0.4675
 9468SOL     OW40036   2.798   0.921  10.180  0.2431  0.1588 -0.1245
 9468SOL    HW140037   2.743   0.941  10.256 -0.9520 -4.0895  0.1366
 9468SOL    HW240038   2.768   0.976  10.108 -0.0488  0.8552  0.5281
 9469SOL     OW40039   3.738   3.668  16.286 -0.4043 -0.1303 -0.2539
 9469SOL    HW140040   3.651   3.665  16.327  0.2211  1.7288  1.1754
 9469SOL    HW240041   3.788   3.656  16.366 -0.2142  0.4571 -0.2845
 9470SOL     OW40042   0.609   0.722   7.518 -0.1918 -0.4927  0.0241
 9470SOL    HW140043   0.515   0.711   7.532 -0.3575 -1.0529 -1.5870
 9470SOL    HW240044   0.636   0.642   7.473 -0.1896 -0.1587 -0.5643
 9471SOL     OW40045   4.205   0.907   9.453  0.1058  0.3599 -0.1070
 9471SOL    HW140046   4.183   0.846   9.383 -0.8120  0.2794  0.2398
 9471SOL    HW240047   4.281   0.951   9.417  0.1486 -1.0440 -1.7407
 9472SOL     OW40048   0.258   3.439   1.973 -0.5519  0.0354  0.5676
 9472SOL    HW140049   0.255   3.414   2.066 -2.4323 -0.5728  0.3534
 9472SOL    HW240050   0.228   3.530   1.973 -2.2035 -0.4921 -1.5941
 9473SOL     OW40051   1.049   2.230   6.898 -0.5611 -0.5301 -0.2660
 9473SOL    HW140052   1.106   2.233   6.975  1.6580 -0.9070 -1.8942
 9473SOL    HW240053   1.026   2.323   6.902  1.0292 -0.2821  3.4017
 9474SOL     OW40054   4.158   0.382   8.075 -0.0318 -0.5509  0.4330
 9474SOL    HW140055   4.218   0.455   8.091 -1.2923 -0.2513  3.6549
 9474SOL    HW240056   4.207   0.305   8.104 -1.8818 -2.0816 -0.5443
 9475SOL     OW40057   3.500   2.033   4.069  0.0248  0.4914  0.2581
 9475SOL    HW140058   3.425   2.093   4.067  0.2339  0.7042 -0.8261
 9475SOL    HW240059   3.564   2.101   4.091 -0.3604  0.5521  1.2105
 9476SOL     OW40060   1.719   0.032  11.065  0.1401  0.4627 -0.1103
 9476SOL    HW140061   1.685   0.005  10.979 -0.4674  0.5915  0.0863
 9476SOL    HW240062   1.656   0.102  11.081  1.2136  0.5090  3.7248
 9477SOL     OW40063   2.456   4.570  12.140 -0.1122  0.3135  0.0575
 9477SOL    HW140064   2.377   4.517  12.128  0.7913 -0.9943 -0.1764
 9477SOL    HW240065   2.481   4.566  12.048  0.8667 -0.1981  0.3399
 9478SOL     OW40066   2.931   2.703   5.512  0.3852 -0.0925 -0.0108
 9478SOL    HW140067   2.966   2.678   5.597 -1.4569 -0.3111  0.6831
 9478SOL    HW240068   2.959   2.630   5.457  0.2086 -1.4773  1.7363
 9479SOL     OW40069   3.251   0.388  10.640  0.1366  0.1314 -1.0310
 9479SOL    HW140070   3.328   0.353  10.596  0.6555  0.7925 -0.6519
 9479SOL    HW240071   3.276   0.474  10.673  1.6858 -0.5809 -0.3181
 9480SOL     OW40072   0.278   0.090   5.351 -0.2074  0.0799  0.2323
 9480SOL    HW140073   0.201   0.083   5.408  0.7136  1.0869  1.6125
 9480SOL    HW240074   0.259   0.177   5.317 -1.6115 -1.3954 -2.7579
 9481SOL     OW40075   3.997   3.263   0.622 -0.0993  0.3336  0.4140
 9481SOL    HW140076   3.923   3.316   0.653 -1.2233 -1.5374  0.9751
 9481SOL    HW240077   4.065   3.330   0.622 -1.0999  1.3555 -3.6731
 9482SOL     OW40078   0.866   0.313  16.839 -0.2044 -0.1427  0.3108
 9482SOL    HW140079   0.957   0.284  16.838 -0.3667 -0.6368 -0.0452
 9482SOL    HW240080   0.868   0.355  16.753 -3.1780 -0.3893  0.1396
 9483SOL     OW40081   4.192   3.347   4.596  0.2919  0.9069  0.0539
 9483SOL    HW140082   4.118   3.350   4.657 -0.9388 -1.9739 -1.2789
 9483SOL    HW240083   4.181   3.426   4.543  0.7368  0.4219 -0.7723
 9484SOL     OW40084   2.058   2.175   2.773  0.6655  0.0135  0.4864
 9484SOL    HW140085   2.038   2.246   2.834 -1.0807 -1.4618  1.6183
 9484SOL    HW240086   2.011   2.202   2.694  0.5036 -4.6373 -1.0278
 9485SOL     OW40087   3.371   0.013   4.539  0.3108 -0.5411 -0.1033
 9485SOL    HW140088   3.282   4.718   4.519  0.3414 -0.4305 -0.3941
 9485SOL    HW240089   3.350   0.070   4.612  2.1921 -1.5848  1.2737
 9486SOL     OW40090   3.146   2.643  16.910  0.2174  0.1191 -0.2292
 9486SOL    HW140091   3.116   2.710  16.849  1.4986  1.5518  0.7388
 9486SOL    HW240092   3.085   2.657  16.982 -0.0417 -0.5603 -0.3111
 9487SOL     OW40093   1.241   2.465  11.168 -0.8766  0.4316  0.1411
 9487SOL    HW140094   1.154   2.506  11.172 -2.3336 -2.4026 -2.1007
 9487SOL    HW240095   1.228   2.377  11.201 -0.2296  0.7623  1.2764
 9488SOL     OW40096   0.720   0.974   0.338 -0.0539 -0.1307 -0.9627
 9488SOL    HW140097   0.775   0.972   0.417 -0.5885  1.0495 -0.5626
 9488SOL    HW240098   0.654   0.923   0.386 -1.9788  0.7018 -2.7720
 9489SOL     OW40099   4.076   3.473   7.604 -0.6017  0.4089  0.7961
 9489SOL    HW140100   4.040   3.485   7.516 -1.2283  0.2315  1.0256
 9489SOL    HW240101   4.037   3.547   7.651 -0.0783 -0.7641  3.0518
 9490SOL     OW40102   3.182   1.746   3.882  0.0771  0.8581 -0.3471
 9490SOL    HW140103   3.227   1.800   3.817  1.2799  2.0821  1.5064
 9490SOL    HW240104   3.255   1.697   3.919  0.6816  0.7965 -1.6078
 9491SOL     OW40105   0.797   2.494   6.741 -0.0646  0.1647 -0.4186
 9491SOL    HW140106   0.803   2.402   6.717  1.8027 -0.9838  4.2854
 9491SOL    HW240107   0.764   2.539   6.664  0.6681  0.2326 -0.6975
 9492SOL     OW40108   1.380   0.966   8.737  0.3265 -0.6588  0.3121
 9492SOL    HW140109   1.464   0.994   8.773  0.7873 -2.1422  0.3933
 9492SOL    HW240110   1.418   0.928   8.658  1.1172 -0.6499  0.6794
 9493SOL     OW40111   0.594   4.597   2.212  0.7814  0.5441  0.0598
 9493SOL    HW140112   0.547   4.642   2.142 -3.9748 -1.5271  1.9382
 9493SOL    HW240113   0.644   4.672   2.244  0.5073  1.0685 -0.7616
 9494SOL     OW40114   2.020   3.634  13.546  0.2694 -0.0672  0.0760
 9494SOL    HW140115   2.059   3.562  13.496 -1.4129 -0.6343 -0.4323
 9494SOL    HW240116   2.022   3.595  13.634  0.1538  1.3312  0.6972
 9495SOL     OW40117   0.348   4.024  10.767 -0.6891 -0.2557  0.2916
 9495SOL    HW140118   0.368   3.948  10.712 -1.1080  0.5825 -1.0366
 9495SOL    HW240119   0.265   3.996  10.807  0.1243  0.3348  2.3711
 9496SOL     OW40120   0.192   0.218   9.104  0.2386 -0.3709  0.0498
 9496SOL    HW140121   0.251   0.224   9.028  1.4342  0.4713  1.0462
 9496SOL    HW240122   0.120   0.165   9.070  0.7324 -3.0004  3.0588
 9497SOL     OW40123   2.092   0.357   5.636  0.0174 -0.2644  0.3140
 9497SOL    HW140124   2.127   0.437   5.596 -0.1679 -1.0513 -1.3937
 9497SOL    HW240125   2.026   0.397   5.693 -0.9908 -0.5767 -0.6285
 9498SOL     OW40126   1.644   1.940  12.597  0.0081 -0.1824  0.1389
 9498SOL    HW140127   1.657   1.973  12.508  1.0298 -1.1258 -0.0544
 9498SOL    HW240128   1.730   1.926  12.637 -0.9860 -1.1370  1.9370
 9499SOL     OW40129   2.924   1.596   9.204  0.0102 -0.0789 -0.2091
 9499SOL    HW140130   2.938   1.539   9.128 -4.7303  0.6107 -1.6023
 9499SOL    HW240131   3.011   1.637   9.202 -0.7858  1.5304 -2.5491
 9500SOL     OW40132   2.692   1.798   9.350 -0.0021  0.7430  0.8403
 9500SOL    HW140133   2.784   1.824   9.342  0.2082  0.6782  3.0003
 9500SOL    HW240134   2.661   1.864   9.412  0.4517  1.2942  0.4894
 9501SOL     OW40135   2.518   4.514   7.981  0.4151 -0.4905 -0.1623
 9501SOL    HW140136   2.538   4.544   7.892  1.6879 -0.7620  0.0309
 9501SOL    HW240137   2.451   4.579   7.999 -1.7583 -2.2281 -1.8643
 9502SOL     OW40138   2.642   3.667  15.399 -0.5789  0.7952  0.3623
 9502SOL    HW140139   2.556   3.641  15.433 -1.8295  0.9890 -2.6165
 9502SOL    HW240140   2.703   3.651  15.471  3.5594 -0.0034 -3.3444
 9503SOL     OW40141   1.263   3.123   2.387  0.5032 -0.6385  0.2578
 9503SOL    HW140142   1.326   3.185   2.424  1.0195  0.4205 -2.4395
 9503SOL    HW240143   1.295   3.041   2.425  1.2296  1.0362  3.2608
 9504SOL     OW40144   0.776   3.625   2.707  0.3478 -0.6317  0.0636
 9504SOL    HW140145   0.698   3.572   2.691 -0.4705 -0.1163  2.3566
 9504SOL    HW240146   0.741   3.715   2.707 -0.8249 -1.1122  2.1269
 9505SOL     OW40147   2.794   4.170   0.865 -0.1989  0.3126  0.1757
 9505SOL    HW140148   2.728   4.108   0.832 -1.4052  2.5611 -1.6299
 9505SOL    HW240149   2.857   4.118   0.915 -0.1803  0.5743  0.4302
 9506SOL     OW40150   1.620   3.659   8.924  0.3643 -0.4867 -0.4332
 9506SOL    HW140151   1.553   3.627   8.864 -0.2819  1.8691 -0.9639
 9506SOL    HW240152   1.567   3.723   8.971 -0.1724 -1.2262 -0.0372
 9507SOL     OW40153   1.895   0.582  14.380  0.4268 -0.1424  0.1940
 9507SOL    HW140154   1.958   0.516  14.408  0.5227 -1.2455 -2.5364
 9507SOL    HW240155   1.940   0.609  14.299 -0.2503  2.2411  0.6038
 9508SOL     OW40156   2.476   0.538  16.971  0.1090  0.0027  0.0630
 9508SOL    HW140157   2.497   0.570  16.883  0.7503 -0.0026  0.2128
 9508SOL    HW240158   2.381   0.528  16.970  0.4618 -3.2710 -1.1948
 9509SOL     OW40159   2.451   4.527   2.945 -0.4860  0.0543  0.2994
 9509SOL    HW140160   2.532   4.482   2.921 -1.3351 -0.3647 -1.8171
 9509SOL    HW240161   2.445   4.501   3.037 -0.8554  1.4066  0.6577
 9510SOL     OW40162   0.556   0.705   3.050 -0.2449 -0.0767  0.0906
 9510SOL    HW140163   0.488   0.690   2.984  0.5149  0.2695 -0.7606
 9510SOL    HW240164   0.589   0.615   3.050  1.8525  0.6949 -0.3699
 9511SOL     OW40165   2.791   1.095  16.579 -0.0535  0.2001  0.1445
 9511SOL    HW140166   2.768   1.086  16.486 -1.1302 -0.0593  0.4334
 9511SOL    HW240167   2.705   1.109  16.619 -1.5492 -3.3477 -1.8548
 9512SOL     OW40168   1.611   2.268   2.297  0.5815 -0.0532  0.3019
 9512SOL    HW140169   1.560   2.256   2.377 -0.7047  1.7247 -0.2619
 9512SOL    HW240170   1.691   2.312   2.327  0.7187  0.1241 -0.3177
 9513SOL     OW40171   2.628   4.429   8.753  0.3735 -0.6223  0.0748
 9513SOL    HW140172   2.563   4.370   8.716  1.7481 -1.8408 -0.4393
 9513SOL    HW240173   2.604   4.507   8.703  0.3045  0.1127  1.2550
 9514SOL     OW40174   3.293   3.888   8.155  0.4188  0.5798 -0.3724
 9514SOL    HW140175   3.376   3.902   8.110  1.7843 -1.0230  1.6360
 9514SOL    HW240176   3.311   3.944   8.231 -1.4515 -0.0086  0.5040
 9515SOL     OW40177   0.159   1.394   4.958 -0.0246 -0.1892  0.6688
 9515SOL    HW140178   0.201   1.478   4.941  0.9023 -1.0473 -1.2283
 9515SOL    HW240179   0.089   1.393   4.893  0.3627  4.6040  0.1798
 9516SOL     OW40180   1.218   0.285   6.786  0.2659 -0.2688 -0.7230
 9516SOL    HW140181   1.312   0.301   6.795  0.1592  0.9044 -1.5910
 9516SOL    HW240182   1.216   0.203   6.835  0.3772 -0.0936 -0.4248
 9517SOL     OW40183   2.412   0.543   6.539  0.1765  0.4808  0.0789
 9517SOL    HW140184   2.494   0.587   6.563 -0.7614  1.5706  1.2933
 9517SOL    HW240185   2.351   0.605   6.579 -0.2702 -1.1344  1.8857
 9518SOL     OW40186   1.295   0.716   7.995  0.1647  0.0043 -0.7228
 9518SOL    HW140187   1.330   0.799   7.964  1.0588 -0.3378 -0.6195
 9518SOL    HW240188   1.215   0.750   8.036 -0.7226 -0.5970 -1.9627
 9519SOL     OW40189   1.322   2.515  10.200  0.0314 -0.5715 -0.8239
 9519SOL    HW140190   1.252   2.566  10.241  0.8400 -0.2971  0.2494
 9519SOL    HW240191   1.283   2.429  10.185  1.6107 -1.5547  0.6613
 9520SOL     OW40192   2.819   0.802  13.369  0.3321 -0.5345 -0.5251
 9520SOL    HW140193   2.816   0.866  13.440  1.0998 -1.3995  0.2845
 9520SOL    HW240194   2.887   0.839  13.312 -0.4734  0.3067 -0.9234
 9521SOL     OW40195   2.171   1.164   9.076 -0.0536 -0.2383 -0.2265
 9521SOL    HW140196   2.148   1.071   9.077 -0.9630  0.0428  2.7599
 9521SOL    HW240197   2.259   1.154   9.113 -0.3192 -1.4911  0.0847
 9522SOL     OW40198   0.001   1.122  12.826  0.0176 -0.6691 -0.5113
 9522SOL    HW140199   0.070   1.065  12.859  1.3463  1.0903 -0.2385
 9522SOL    HW240200   0.047   1.189  12.774 -0.0169  1.1066  1.7399
 9523SOL     OW40201   4.289   2.371  12.183  0.3257 -0.0082  0.0208
 9523SOL    HW140202   4.266   2.337  12.097 -0.6840 -2.5447  1.2695
 9523SOL    HW240203   4.248   2.309  12.243  1.5819  0.0209  0.9250
 9524SOL     OW40204   1.186   2.562   7.146 -0.3611 -0.4962  0.8108
 9524SOL    HW140205   1.156   2.639   7.193  0.6187 -0.4777  1.4149
 9524SOL    HW240206   1.168   2.489   7.206 -1.5739 -1.3352 -0.5764
 9525SOL     OW40207   4.284   0.786   0.569 -0.4012  0.1556 -0.4698
 9525SOL    HW140208   4.370   0.750   0.588  0.4919  3.0700  0.9511
 9525SOL    HW240209   4.286   0.876   0.602 -1.7471  0.0025  0.0440
 9526SOL     OW40210   4.037   4.621   7.395 -1.1401  0.0618 -0.0138
 9526SOL    HW140211   3.996   4.623   7.481  0.4124 -4.9658  0.8717
 9526SOL    HW240212   4.073   4.709   7.399  0.8271 -0.7403  0.1141
 9527SOL     OW40213   0.495   4.417  12.078  0.6672  0.2453 -0.9425
 9527SOL    HW140214   0.421   4.382  12.030 -0.8013  2.5520 -0.4080
 9527SOL    HW240215   0.458   4.503  12.099  0.0741 -0.3157  0.3422
 9528SOL     OW40216   4.468   4.511  14.554 -0.1462 -0.4147 -0.7800
 9528SOL    HW140217   4.437   4.602  14.553 -0.3755 -0.4752  1.1860
 9528SOL    HW240218   4.553   4.512  14.599 -1.0127 -1.8369  0.8819
 9529SOL     OW40219   2.086   2.839   5.217 -0.1417 -0.3900 -0.6325
 9529SOL    HW140220   2.081   2.767   5.280 -1.8730 -0.3954 -0.7716
 9529SOL    HW240221   2.161   2.807   5.167  1.8193  2.1799  0.6475
 9530SOL     OW40222   2.055   1.735  10.623  0.2022 -0.4923 -0.2661
 9530SOL    HW140223   1.987   1.734  10.556  0.2914 -0.5630 -0.3571
 9530SOL    HW240224   2.097   1.651  10.603  2.3817  0.9707 -1.8956
 9531SOL     OW40225   1.028   1.534   6.699  0.3560 -0.3576  0.1996
 9531SOL    HW140226   0.946   1.554   6.653  1.0687  0.8865 -0.5337
 9531SOL    HW240227   1.007   1.490   6.781  3.1020 -1.6320  0.2143
 9532SOL     OW40228   1.671   0.865  14.090 -0.6823 -0.4205 -0.1876
 9532SOL    HW140229   1.677   0.922  14.167  1.4641  0.2572 -0.8658
 9532SOL    HW240230   1.680   0.775  14.122 -0.5466 -0.0494  0.8277
 9533SOL     OW40231   1.455   0.124  11.106 -0.4113  0.0888  0.0357
 9533SOL    HW140232   1.372   0.163  11.078  0.5766  1.6262 -0.7954
 9533SOL    HW240233   1.447   0.128  11.201  0.5610  0.7758  0.0863
 9534SOL     OW40234   2.627   3.651   8.536  0.3388 -0.1058  0.2596
 9534SOL    HW140235   2.638   3.577   8.596 -0.9236 -0.0251  0.5892
 9534SOL    HW240236   2.635   3.608   8.451  1.0530 -2.4972  1.5512
 9535SOL     OW40237   3.174   1.798   3.575  0.1123 -0.2991  0.2041
 9535SOL    HW140238   3.201   1.826   3.488 -2.0290  0.6623 -0.1564
 9535SOL    HW240239   3.255   1.766   3.614  0.7918  2.5951  1.1525
 9536SOL     OW40240   0.719   3.027   2.907  0.0308 -0.0287 -0.8198
 9536SOL    HW140241   0.695   2.949   2.857 -0.9110 -0.4325  0.2437
 9536SOL    HW240242   0.662   3.033   2.984  2.4620 -3.7088  1.3430
 9537SOL     OW40243   0.640   2.160   9.899 -0.3777  0.2428  0.1679
 9537SOL    HW140244   0.551   2.127   9.890 -0.8028  1.5417 -0.3659
 9537SOL    HW240245   0.684   2.130   9.819  1.4903 -2.2622  2.0935
 9538SOL     OW40246   3.477   3.643   0.208 -0.0508 -0.0064  0.3831
 9538SOL    HW140247   3.482   3.704   0.281  2.4382 -0.4159  0.5527
 9538SOL    HW240248   3.452   3.707   0.141 -0.5807 -1.0313 -0.3976
 9539SOL     OW40249   0.814   2.389   2.670  0.6013  0.2876 -0.1934
 9539SOL    HW140250   0.720   2.374   2.663  0.3591  0.5306  2.2419
 9539SOL    HW240251   0.826   2.472   2.716  2.8580  0.8626 -1.8463
 9540SOL     OW40252   2.615   4.406   4.429 -0.5006 -0.5869 -0.4478
 9540SOL    HW140253   2.621   4.326   4.376 -0.0720  0.6764 -2.3169
 9540SOL    HW240254   2.558   4.364   4.494  2.8563  0.3369  3.0752
 9541SOL     OW40255   2.005   4.700  14.871  0.3047 -0.2502 -0.7025
 9541SOL    HW140256   1.942   4.732  14.936  1.3171 -3.1212  1.6811
 9541SOL    HW240257   2.090   4.727  14.905  0.0604 -0.0149 -0.2763
 9542SOL     OW40258   3.632   2.792  12.316 -0.1689  1.0107 -0.4610
 9542SOL    HW140259   3.585   2.787  12.400  0.4585  2.0292 -0.0399
 9542SOL    HW240260   3.572   2.844  12.263  1.6424  2.3894 -1.1731
 9543SOL     OW40261   4.174   2.532   2.229 -0.1027  0.1503  0.2989
 9543SOL    HW140262   4.240   2.471   2.264 -0.2881  1.0665  2.2915
 9543SOL    HW240263   4.106   2.521   2.295 -0.2857  0.9674  0.2420
 9544SOL     OW40264   1.179   2.931  13.388 -0.1524 -0.0593 -0.1739
 9544SOL    HW140265   1.185   2.919  13.293  1.8247  0.3957 -0.0931
 9544SOL    HW240266   1.265   2.971  13.404 -1.1034  1.3514  1.4895
 9545SOL     OW40267   3.669   0.143  10.434 -0.4902  0.4220 -0.0836
 9545SOL    HW140268   3.603   0.074  10.433 -0.7362  0.6509  0.4352
 9545SOL    HW240269   3.711   0.130  10.349  0.3822 -0.9757  0.5507
 9546SOL     OW40270   0.900   0.853  15.709  0.4399  0.7123  0.4740
 9546SOL    HW140271   0.927   0.770  15.671 -0.9798 -0.3227  1.7415
 9546SOL    HW240272   0.809   0.831  15.730 -0.0117  1.6579 -0.5134
 9547SOL     OW40273   3.798   1.791   2.247 -0.5203 -0.3846 -0.5592
 9547SOL    HW140274   3.722   1.767   2.300  0.3582 -1.3516  0.2465
 9547SOL    HW240275   3.793   1.886   2.236 -0.5223 -0.4284 -0.9367
 9548SOL     OW40276   2.472   2.641   9.450  0.0316  0.5829 -0.1890
 9548SOL    HW140277   2.437   2.576   9.389 -0.3795 -1.2213  1.9634
 9548SOL    HW240278   2.527   2.685   9.385  0.9485 -0.1854  0.0629
 9549SOL     OW40279   4.305   1.790  16.844 -0.0949 -0.4181  0.1978
 9549SOL    HW140280   4.386   1.739  16.837  1.2003  1.4549  1.4640
 9549SOL    HW240281   4.266   1.769  16.759  1.6097  0.3926 -0.7944
 9550SOL     OW40282   2.738   4.224   1.685  0.1136  0.3318 -0.5641
 9550SOL    HW140283   2.773   4.306   1.719  1.9466 -0.2615 -1.0470
 9550SOL    HW240284   2.795   4.152   1.710  0.2028  1.3391  2.1090
 9551SOL     OW40285   0.465   2.927   6.713 -0.1985 -0.0008  0.5897
 9551SOL    HW140286   0.395   2.983   6.679  1.4788  0.7356 -1.6508
 9551SOL    HW240287   0.541   2.935   6.655 -2.6746 -2.3213 -3.0208
 9552SOL     OW40288   3.499   1.206   0.243  0.2190 -0.1966 -0.0764
 9552SOL    HW140289   3.508   1.215   0.148 -0.1668 -0.1804 -0.1108
 9552SOL    HW240290   3.440   1.131   0.247 -0.4322  0.2355 -1.9402
 9553SOL     OW40291   4.202   0.875   7.561  0.0491  0.1245  0.3485
 9553SOL    HW140292   4.272   0.936   7.538  1.1897 -1.0503  0.7243
 9553SOL    HW240293   4.153   0.937   7.616 -0.9467 -0.8904  0.6021
 9554SOL     OW40294   2.033   4.488  10.629  0.2650 -0.1642 -0.4683
 9554SOL    HW140295   2.076   4.414  10.587 -1.2854 -1.1377 -0.3734
 9554SOL    HW240296   2.113   4.539  10.643  0.1962 -0.3474  0.6017
 9555SOL     OW40297   0.053   3.564   2.171  0.1941 -0.6189  0.0862
 9555SOL    HW140298   0.122   3.507   2.204 -0.1196 -1.0831 -0.0442
 9555SOL    HW240299   0.104   3.642   2.148  0.7367 -0.3747  2.1202
 9556SOL     OW40300   3.468   2.969   4.262  0.0347 -0.9635  0.0881
 9556SOL    HW140301   3.440   2.938   4.349 -0.2609  0.1212  0.3741
 9556SOL    HW240302   3.497   3.056   4.289 -0.4218 -0.1672 -2.0258
 9557SOL     OW40303   4.208   4.485   7.764  0.3563 -0.1074 -0.0462
 9557SOL    HW140304   4.260   4.412   7.798 -0.8419 -0.8187  0.2643
 9557SOL    HW240305   4.281   4.546   7.752  0.0041  0.6734  1.8717
 9558SOL     OW40306   1.415   0.058  12.002  0.1895 -0.1944  0.2050
 9558SOL    HW140307   1.443   4.724  12.063  2.6100  1.0987  0.5534
 9558SOL    HW240308   1.496   0.106  11.983 -1.0180  1.6837 -0.1592
 9559SOL     OW40309   0.904   2.557   4.812  0.2435  0.5875  0.2027
 9559SOL    HW140310   0.906   2.591   4.723 -1.5414 -0.1199 -0.1033
 9559SOL    HW240311   0.814   2.582   4.834 -0.3767  0.2519 -1.9833
 9560SOL     OW40312   0.213   0.152   3.291  0.4636 -0.1926 -0.2838
 9560SOL    HW140313   0.206   0.056   3.287 -0.1371 -0.1363 -0.6213
 9560SOL    HW240314   0.152   0.167   3.218  0.8106  1.4096 -0.2409
 9561SOL     OW40315   2.826   2.753   1.974 -0.4902  0.4072  0.0446
 9561SOL    HW140316   2.752   2.795   2.016 -0.1563  1.3161 -0.2645
 9561SOL    HW240317   2.877   2.720   2.048 -1.2306  0.5859  0.6313
 9562SOL     OW40318   2.107   3.700  14.942 -0.6833 -0.3176  0.6868
 9562SOL    HW140319   2.141   3.748  14.867 -2.1062 -0.6958 -0.2014
 9562SOL    HW240320   2.176   3.647  14.980 -1.1110 -0.6889  0.9533
 9563SOL     OW40321   4.484   4.042  16.670  0.0052 -0.5028  0.2436
 9563SOL    HW140322   4.403   4.004  16.705 -0.6715  0.6097 -0.0918
 9563SOL    HW240323   4.534   3.961  16.663  2.0859  0.7281  1.0930
 9564SOL     OW40324   1.326   4.469   2.609  0.0807 -0.1900 -0.2893
 9564SOL    HW140325   1.406   4.494   2.656 -0.7106  0.1194  0.8821
 9564SOL    HW240326   1.256   4.499   2.667  1.8605 -0.3884  1.9658
 9565SOL     OW40327   2.402   3.693   6.913  0.2854 -0.2192  0.5452
 9565SOL    HW140328   2.431   3.611   6.873  2.6648  0.5066  0.7628
 9565SOL    HW240329   2.461   3.703   6.988  1.2672  1.6944 -0.4658
 9566SOL     OW40330   2.790   1.126   4.173  0.1138  0.1064 -0.3671
 9566SOL    HW140331   2.851   1.151   4.242 -1.0379 -3.1067  1.8097
 9566SOL    HW240332   2.842   1.055   4.136 -0.9978 -0.9783  0.1705
 9567SOL     OW40333   2.718   4.090   5.079 -0.4043 -0.6264 -0.3219
 9567SOL    HW140334   2.698   4.184   5.075  0.1158 -0.4041  2.2981
 9567SOL    HW240335   2.677   4.077   5.164  1.4290  0.6385  0.7744
 9568SOL     OW40336   0.458   2.525   8.851  0.2664  0.3827 -0.1178
 9568SOL    HW140337   0.484   2.513   8.760  2.4446 -0.4827  0.6232
 9568SOL    HW240338   0.376   2.475   8.862  0.2924  0.3088 -0.2561
 9569SOL     OW40339   4.554   0.119   7.706  0.7408  0.1543  0.5792
 9569SOL    HW140340   4.532   0.189   7.643  0.3936 -1.6328 -1.3023
 9569SOL    HW240341   4.485   0.137   7.769  0.2725  0.9394 -0.1458
 9570SOL     OW40342   3.503   4.061   6.367  0.5572 -0.2691  0.2350
 9570SOL    HW140343   3.450   4.095   6.295 -0.2855 -0.8002  0.6045
 9570SOL    HW240344   3.557   4.008   6.309 -0.3761 -3.1712  1.9875
 9571SOL     OW40345   2.942   2.713   2.662 -0.0374  0.0756 -0.2673
 9571SOL    HW140346   3.030   2.727   2.697 -0.1244  1.7107 -0.7129
 9571SOL    HW240347   2.898   2.724   2.746 -0.2915  0.5861 -0.4692
   4.73457   4.73457  17.73725
